Membrane in water
40347
    1TMC1    C1    1   0.301   2.451  11.277  0.1828  0.4468 -0.2667
    1TMC1    C2    2   0.354   2.474  11.150 -0.7009  0.0770 -0.0150
    1TMC1    C3    3   0.346   2.595  11.098 -0.3554  0.4558  0.0734
    1TMC1    C4    4   0.232   2.552  11.340 -0.0588 -0.2263  0.5334
    1TMC1    C5    5   0.231   2.673  11.276  0.3398  0.3789  0.2179
    1TMC1    C6    6   0.284   2.697  11.154 -0.0478  0.5345 -0.0173
    1TMC1     C    7   0.315   2.331  11.352  0.0398 -0.5741 -0.1243
    1TMC1     O    8   0.269   2.325  11.466  0.2461  0.2439 -0.2764
    1TMC1     H    9   0.401   2.394  11.095  2.9976 -0.3002  3.7461
    1TMC1    H1   10   0.195   2.542  11.441 -2.6732 -1.0687 -0.5114
    1TMC1    H2   11   0.275   2.796  11.109 -2.1294  1.4760  2.4887
    1TMC1    C7   12   0.188   2.792  11.354 -0.3596  0.2968  0.2939
    1TMC1    C8   13   0.435   2.629  10.989  0.0426 -0.1204  0.0459
    1TMC1    O1   14   0.110   2.782  11.449  0.7403 -0.0524  0.5230
    1TMC1    O2   15   0.529   2.559  10.968 -0.6311 -0.2248  0.2903
    1TMC1    O3   16   0.294   2.876  11.347  0.3236 -0.0405  0.1622
    1TMC1    H3   17   0.362   2.865  11.277  0.0286 -0.7718 -0.0065
    1TMC1    O5   18   0.381   2.730  10.910  0.7298  0.6134 -0.2947
    1TMC1    H5   19   0.290   2.747  10.942  0.7099  1.0035 -0.5638
    2MPD2     C   20   0.516   1.877  11.445 -0.1249 -0.3467 -0.0196
    2MPD2    C1   21   0.379   1.916  11.460 -0.0363  0.4837 -0.9345
    2MPD2    C2   22   0.342   2.042  11.405  0.3400  0.3309 -0.1590
    2MPD2    C3   23   0.439   2.118  11.345  0.5952  0.3869 -0.1670
    2MPD2    C4   24   0.564   2.072  11.323  0.1991  0.5335  0.4375
    2MPD2    C5   25   0.607   1.958  11.378 -0.1511 -0.5170 -0.2013
    2MPD2     H   26   0.242   2.084  11.412  0.7070  1.1087  0.4353
    2MPD2    H1   27   0.635   2.124  11.261  1.0490 -0.9468  0.1822
    2MPD2    H2   28   0.552   1.786  11.490 -0.3187 -0.7471 -0.6721
    2MPD2    H3   29   0.712   1.933  11.368 -0.6302 -2.7304  0.4544
    2MPD2     N   30   0.413   2.249  11.305 -0.0629  0.6358 -0.7799
    2MPD2    H5   31   0.480   2.284  11.237  0.0642  1.7174 -0.1063
    2MPD2    N1   32   0.287   1.833  11.530 -1.0735  0.1262 -0.0338
    2MPD2    H7   33   0.192   1.869  11.533 -0.9922  0.0406  3.2792
    3TMC1    C1   34   3.192   2.632  11.229  0.1676 -0.0836 -0.3274
    3TMC1    C2   35   3.147   2.517  11.295 -0.4301  0.8116  0.3297
    3TMC1    C3   36   3.023   2.476  11.266 -0.3498  0.2847  0.3047
    3TMC1    C4   37   3.111   2.706  11.147  0.6310  0.5806  0.1763
    3TMC1    C5   38   2.997   2.651  11.126 -0.3177 -0.2838  0.8504
    3TMC1    C6   39   2.944   2.542  11.186  0.5461  0.0876 -0.8038
    3TMC1     C   40   3.331   2.670  11.235 -0.6676  0.2510  0.3070
    3TMC1     O   41   3.409   2.598  11.295 -0.2308 -0.1059  1.1973
    3TMC1     H   42   3.206   2.445  11.350  1.5429  0.7194 -1.9016
    3TMC1    H1   43   3.157   2.781  11.084 -1.0750  0.3123 -1.3985
    3TMC1    H2   44   2.840   2.512  11.179  0.7488 -1.3391  2.1174
    3TMC1    C7   45   2.914   2.697  11.022  0.5428 -0.5529  0.2249
    3TMC1    C8   46   2.958   2.393  11.363  0.2676 -0.0540  0.5882
    3TMC1    O1   47   2.816   2.631  10.982  0.4775 -1.0668  0.0943
    3TMC1    O2   48   2.865   2.318  11.334  0.0586 -0.1811  0.2648
    3TMC1    O3   49   2.951   2.822  10.979  0.0724 -0.1557 -0.2812
    3TMC1    H3   50   2.998   2.878  11.044 -0.4001  0.0539 -0.1276
    3TMC1    O5   51   2.971   2.465  11.477  0.8514 -0.0960 -0.3167
    3TMC1    H5   52   3.038   2.536  11.470  2.2142 -1.2118  1.2689
    4MPD2     C   53   3.709   3.005  11.164  0.6439  0.1044  0.2890
    4MPD2    C1   54   3.593   3.082  11.163  0.4409  0.3059 -0.0003
    4MPD2    C2   55   3.470   3.012  11.174 -0.1650 -0.6259  0.4630
    4MPD2    C3   56   3.466   2.872  11.194 -0.8184 -0.3550  0.3325
    4MPD2    C4   57   3.583   2.806  11.200  0.1428 -0.0037  0.5152
    4MPD2    C5   58   3.707   2.872  11.195  0.2403  0.0537  0.2022
    4MPD2     H   59   3.376   3.063  11.191  0.3815  0.7886 -0.7444
    4MPD2    H1   60   3.594   2.699  11.207 -1.1702 -0.0564  1.7919
    4MPD2    H2   61   3.806   3.054  11.170 -0.2501  1.9709 -0.7734
    4MPD2    H3   62   3.797   2.813  11.209  0.8211  1.2625  1.5279
    4MPD2     N   63   3.344   2.805  11.208  0.1173  0.2579 -0.3262
    4MPD2    H5   64   3.253   2.846  11.192  0.1401  0.5074  0.1869
    4MPD2    N1   65   3.594   3.223  11.162 -0.0572 -0.2841 -0.3710
    4MPD2    H7   66   3.501   3.253  11.191 -0.0540  0.0776 -0.7310
    5TCq1    O1   67   0.250   4.556  11.905  0.1322  0.0007 -0.3952
    5TCq1    C1   68   0.180   4.547  12.021  0.4868 -0.1447 -0.1311
    5TCq1    O2   69   0.227   4.501  12.124 -0.2551  0.2277 -0.5043
    5TCq1    C2   70   0.039   4.589  11.998  0.2842 -0.0166  0.8184
    5TCq1    C3   71   4.698   4.643  12.100  0.1992  0.5270 -0.1584
    5TCq1    C4   72   4.568   4.677  12.068 -0.6695 -0.4340  0.8232
    5TCq1    C5   73   4.510   4.649  11.945  0.2745  0.6439  0.4564
    5TCq1    C6   74   4.593   4.601  11.850 -0.2085  0.4294 -0.2103
    5TCq1    C7   75   4.722   4.566  11.876  0.5900 -0.1839  0.5540
    5TCq1    C8   76   4.534   4.577  11.717 -0.3772 -0.4652  0.6612
    5TCq1    O4   77   4.612   4.564  11.625  0.4317 -0.0340  0.1300
    5TCq1    C9   78   4.488   4.727  12.178 -0.5553 -0.0028  0.3273
    5TCq1    O5   79   4.542   0.011  12.291 -0.5341  0.2970  0.0481
    5TCq1    O6   80   4.369   0.024  12.159 -0.0363 -0.1220 -0.1947
    5TCq1    H1   81   0.201   4.604  11.834  1.0424 -0.0295 -1.0433
    5TCq1    H2   82   0.002   4.656  12.201 -0.0409 -0.1828  0.0258
    5TCq1    H3   83   4.405   4.674  11.930  0.2076 -0.5373 -1.0190
    5TCq1    H4   84   0.043   4.517  11.797  0.1428  1.1491 -0.6121
    6MPD2     C   85   4.178   4.522  11.635 -0.2600 -1.0813  0.1808
    6MPD2    C1   86   4.314   4.526  11.609  0.4579 -0.4318  0.1730
    6MPD2    C2   87   4.367   4.497  11.485  0.6788  0.3353  0.1711
    6MPD2    C3   88   4.285   4.479  11.380 -0.1043  0.1558 -0.9997
    6MPD2    C4   89   4.151   4.485  11.404 -1.0947 -0.5223 -0.3677
    6MPD2    C5   90   4.097   4.498  11.531  0.2194 -0.2079  0.6637
    6MPD2     H   91   4.472   4.481  11.463  0.3493  0.0391 -1.1959
    6MPD2    H1   92   4.081   4.476  11.322 -0.1513 -3.6084 -0.8360
    6MPD2    H2   93   4.145   4.534  11.737  1.4170  0.5352  0.5276
    6MPD2    H3   94   3.991   4.490  11.548  0.6983 -2.2658  2.7767
    6MPD2     N   95   4.331   4.454  11.250  0.2848 -0.5398  0.2048
    6MPD2    H5   96   4.263   4.429  11.178  1.5179  2.0125 -1.8396
    6MPD2    N1   97   4.397   4.569  11.717 -0.2084  0.2752 -0.0115
    6MPD2    H7   98   4.353   4.602  11.802 -1.1251 -3.0948  0.8132
    7TCq1    O1   99   1.953   4.366  12.563  0.0099 -0.7158 -0.0036
    7TCq1    C1  100   1.993   4.351  12.686  0.1288 -0.0554  0.4961
    7TCq1    O2  101   1.993   4.433  12.781 -0.3031  0.5272  0.0733
    7TCq1    C2  102   1.980   4.214  12.722  0.0895 -0.0764  0.0154
    7TCq1    C3  103   1.903   4.123  12.644  0.3606 -1.1126  0.3601
    7TCq1    C4  104   1.855   4.011  12.704 -0.0738 -0.5084 -0.3710
    7TCq1    C5  105   1.875   3.987  12.836  0.1731 -0.9521 -0.3088
    7TCq1    C6  106   1.960   4.070  12.905  0.3991 -0.2446 -0.1538
    7TCq1    C7  107   2.008   4.190  12.853 -0.2334  0.2354 -0.9816
    7TCq1    C8  108   2.041   4.005  13.004 -0.0906  0.5302  0.6713
    7TCq1    O4  109   2.038   3.883  13.006 -0.1244 -0.3764 -0.1898
    7TCq1    C9  110   1.797   3.898  12.627 -0.6551 -0.4403  1.0789
    7TCq1    O5  111   1.826   3.880  12.506  0.2785 -0.5218  0.9382
    7TCq1    O6  112   1.727   3.823  12.694 -0.3362  0.0450  0.2611
    7TCq1    H1  113   1.979   4.295  12.501 -1.2560 -1.4024  0.2572
    7TCq1    H2  114   1.893   4.137  12.536 -2.3383 -0.9331  0.6332
    7TCq1    H3  115   1.837   3.897  12.883 -1.0238 -0.0469  0.4562
    7TCq1    H4  116   2.081   4.244  12.914 -1.1717  2.2694 -1.6559
    8MPD2     C  117   2.376   3.984  13.383 -0.1074  0.6288 -0.2595
    8MPD2    C1  118   2.336   3.886  13.300  0.3907  0.4795 -0.4014
    8MPD2    C2  119   2.256   3.927  13.194 -0.3726  0.4698  0.4383
    8MPD2    C3  120   2.201   4.055  13.193 -0.2155 -0.2088  0.3233
    8MPD2    C4  121   2.256   4.153  13.273  0.2288  0.8104  0.0429
    8MPD2    C5  122   2.348   4.117  13.369  0.8589 -0.1969  0.6955
    8MPD2     H  123   2.234   3.849  13.121 -2.7170  1.7564 -0.2425
    8MPD2    H1  124   2.230   4.256  13.256  0.0002  0.8875  0.8573
    8MPD2    H2  125   2.444   3.958  13.463  0.7817 -1.7343 -1.7512
    8MPD2    H3  126   2.392   4.188  13.438  0.7538  0.2602  0.2877
    8MPD2     N  127   2.101   4.095  13.096  0.1793  0.1548 -0.0180
    8MPD2    H5  128   2.078   4.192  13.080 -1.1964 -0.1850 -0.1372
    8MPD2    N1  129   2.385   3.754  13.316 -0.1439 -0.7916  0.4597
    8MPD2    H7  130   2.439   3.742  13.401 -2.2601 -0.3936  1.8593
    9TMC1    C1  131   3.832   3.053  11.808 -0.0111 -0.8032 -0.5916
    9TMC1    C2  132   3.972   3.048  11.797 -0.4025  0.1143 -0.1912
    9TMC1    C3  133   4.032   3.143  11.712  0.0514 -0.1344 -0.4691
    9TMC1    C4  134   3.755   3.141  11.734 -0.8463  0.1088 -0.7169
    9TMC1    C5  135   3.822   3.234  11.662  0.2928 -0.2726  0.2450
    9TMC1    C6  136   3.956   3.243  11.652  0.1334  0.3342 -0.4206
    9TMC1     C  137   3.763   2.959  11.894 -0.5292  0.1679 -0.0734
    9TMC1     O  138   3.644   2.971  11.920  0.1301  0.9636 -1.0380
    9TMC1     H  139   4.035   3.003  11.871  1.1674  1.5200 -0.6742
    9TMC1    H1  140   3.651   3.115  11.721 -0.4445 -1.7853 -0.1825
    9TMC1    H2  141   3.998   3.325  11.595 -1.0008  1.0550 -0.2189
    9TMC1    C7  142   3.754   3.330  11.575 -0.2829  1.2516  0.5856
    9TMC1    C8  143   4.173   3.151  11.673 -0.1562  0.2907 -0.5880
    9TMC1    O1  144   3.640   3.314  11.538 -0.1985  0.3977  0.2389
    9TMC1    O2  145   4.233   3.252  11.640 -0.0399 -0.1819 -0.4440
    9TMC1    O3  146   3.801   3.442  11.620 -0.2196  0.2416  0.6577
    9TMC1    H3  147   3.884   3.439  11.672  0.6365  0.2596 -0.7195
    9TMC1    O5  148   4.232   3.035  11.718  0.2185 -0.4705 -0.1165
    9TMC1    H5  149   4.178   2.966  11.762 -0.7194  1.6822  2.0542
   10MPD2     C  150   3.712   2.777  12.132  0.0491 -0.7463  0.2637
   10MPD2    C1  151   3.808   2.755  12.036 -0.4195  0.0299 -0.0923
   10MPD2    C2  152   3.888   2.645  12.043  0.7627 -0.5841  0.0066
   10MPD2    C3  153   3.860   2.543  12.132  0.9022 -0.1700  0.4120
   10MPD2    C4  154   3.756   2.562  12.215  0.0933  0.4575  0.1620
   10MPD2    C5  155   3.693   2.686  12.230 -0.4639 -0.1994  0.6700
   10MPD2     H  156   3.947   2.624  11.955 -0.5737 -0.3517 -0.9481
   10MPD2    H1  157   3.726   2.479  12.279  1.0757 -0.3291 -0.4136
   10MPD2    H2  158   3.654   2.868  12.142  1.7411  0.2619  0.9568
   10MPD2    H3  159   3.612   2.705  12.299 -0.8053  0.2393  0.1473
   10MPD2     N  160   3.934   2.427  12.152 -0.4088  0.5071 -0.1645
   10MPD2    H5  161   3.905   2.362  12.225 -1.0188  0.8864 -0.0769
   10MPD2    N1  162   3.840   2.849  11.934 -0.6977 -0.6816 -0.1384
   10MPD2    H7  163   3.929   2.839  11.886  0.6959  1.3697  1.9809
   11TCq1    O1  164   0.636   2.935  14.804  0.0965 -0.0158 -0.3071
   11TCq1    C1  165   0.502   2.907  14.783 -0.0246  0.1009  0.0520
   11TCq1    O2  166   0.420   2.852  14.858  0.0237  0.3652 -0.1168
   11TCq1    C2  167   0.475   2.909  14.645 -0.1880  0.4084  0.2134
   11TCq1    C3  168   0.575   2.906  14.551 -0.2816 -0.0979 -0.1522
   11TCq1    C4  169   0.548   2.862  14.426 -0.2373 -0.4571 -0.0549
   11TCq1    C5  170   0.421   2.824  14.395 -0.3977  0.1077 -0.2295
   11TCq1    C6  171   0.324   2.832  14.486  0.1695  0.4544 -0.2893
   11TCq1    C7  172   0.349   2.873  14.617 -0.4017  0.5140 -1.8022
   11TCq1    C8  173   0.184   2.816  14.457 -0.3276 -0.1662 -0.1471
   11TCq1    O4  174   0.097   2.874  14.520 -0.1273  0.3596 -0.1836
   11TCq1    C9  175   0.652   2.855  14.331 -0.4272  0.7503 -0.1854
   11TCq1    O5  176   0.771   2.845  14.375 -0.5888 -0.2089 -0.0697
   11TCq1    O6  177   0.618   2.816  14.215  0.0367  0.0369  0.0443
   11TCq1    H1  178   0.690   2.989  14.742  0.6155 -0.8684 -0.5882
   11TCq1    H2  179   0.676   2.914  14.588 -0.2067  2.7196 -1.0082
   11TCq1    H3  180   0.391   2.794  14.295  0.6712 -0.2500 -0.4417
   11TCq1    H4  181   0.269   2.878  14.690  1.5522 -1.5502  0.4895
   12MPD2     C  182   4.649   2.697  14.386 -0.5081  0.3377 -0.8498
   12MPD2    C1  183   0.037   2.641  14.353 -0.0157  0.9624 -0.1654
   12MPD2    C2  184   0.031   2.520  14.280 -0.7652  0.1904 -0.4219
   12MPD2    C3  185   4.645   2.462  14.248 -0.2216 -0.3125 -0.0960
   12MPD2    C4  186   4.528   2.528  14.278  0.4280  0.8144 -0.4300
   12MPD2    C5  187   4.528   2.638  14.354  0.1134  0.2947 -0.0431
   12MPD2     H  188   0.124   2.473  14.250 -0.0536  3.3718 -3.0966
   12MPD2    H1  189   4.429   2.495  14.250  1.5618 -1.1436 -2.1457
   12MPD2    H2  190   4.635   2.791  14.439 -1.4006  1.8692 -3.8380
   12MPD2    H3  191   4.436   2.685  14.386  0.6662  0.4619  1.2846
   12MPD2     N  192   4.630   2.345  14.167  0.1865  0.1912  0.3801
   12MPD2    H5  193   4.536   2.311  14.147 -0.0198 -0.7143  2.8776
   12MPD2    N1  194   0.160   2.703  14.375 -1.0875  0.7918 -1.0008
   12MPD2    H7  195   0.236   2.651  14.331 -0.3694  2.2079 -1.4331
   13TCq1    O1  196   0.055   2.718  10.381 -0.4730 -0.0903  0.6857
   13TCq1    C1  197   0.042   2.722  10.515  0.1339 -0.1172 -0.1200
   13TCq1    O2  198   0.122   2.681  10.599  1.2488 -0.5061 -0.6209
   13TCq1    C2  199   4.644   2.665  10.522 -0.3504 -0.2343  0.0404
   13TCq1    C3  200   4.529   2.742  10.511 -0.6846 -0.6338 -0.5259
   13TCq1    C4  201   4.415   2.681  10.553  0.0101 -0.1827  0.1740
   13TCq1    C5  202   4.416   2.554  10.601 -0.4849 -0.6056 -0.8295
   13TCq1    C6  203   4.536   2.486  10.615  0.1449 -0.3502 -0.0038
   13TCq1    C7  204   4.650   2.538  10.567 -0.2733  0.3006 -0.3748
   13TCq1    C8  205   4.562   2.402  10.730 -0.3305  0.2669 -0.3416
   13TCq1    O4  206   4.670   2.349  10.743  0.4150 -0.3123 -0.2830
   13TCq1    C9  207   4.295   2.757  10.560 -0.2534  0.5105  0.6026
   13TCq1    O5  208   4.292   2.877  10.525  0.2968  0.0875  0.3212
   13TCq1    O6  209   4.196   2.698  10.613  0.1523  0.4312 -0.2357
   13TCq1    H1  210   4.701   2.724  10.341 -0.1412 -1.5124 -0.2555
   13TCq1    H2  211   4.534   2.847  10.487  0.0459 -0.7009 -0.6607
   13TCq1    H3  212   4.315   2.519  10.623 -0.2112  0.5822  2.3048
   13TCq1    H4  213   0.006   2.479  10.561  0.5762  1.5051  0.4028
   14MPD2     C  214   4.510   2.213  10.953  0.6188  0.3845 -0.1630
   14MPD2    C1  215   4.446   2.335  10.944 -0.1963 -0.1108 -0.4794
   14MPD2    C2  216   4.364   2.373  11.048 -0.0766  0.1524  0.5658
   14MPD2    C3  217   4.352   2.293  11.158 -1.1285 -0.2803  0.4409
   14MPD2    C4  218   4.414   2.166  11.166  0.0055 -0.1102  0.4481
   14MPD2    C5  219   4.492   2.130  11.064 -0.2725  0.9442 -0.5373
   14MPD2     H  220   4.309   2.465  11.030  1.2685  0.6712 -0.9158
   14MPD2    H1  221   4.406   2.096  11.248 -0.9570 -0.6561 -0.1140
   14MPD2    H2  222   4.563   2.179  10.865 -0.0915  0.8541 -0.7728
   14MPD2    H3  223   4.547   2.038  11.077 -0.9523  0.9177  2.1914
   14MPD2     N  224   4.261   2.339  11.259 -0.8753  0.1304  0.7364
   14MPD2    H5  225   4.231   2.434  11.243 -1.3934  0.0646  1.2974
   14MPD2    N1  226   4.471   2.422  10.830  0.7984  0.0049  0.2231
   14MPD2    H7  227   4.401   2.492  10.809  0.6484  0.0931  1.0508
   15TCq1    O1  228   2.266   1.710   1.463 -0.2565 -0.3581  0.0203
   15TCq1    C1  229   2.227   1.818   1.389  0.0677 -0.9526  0.8905
   15TCq1    O2  230   2.251   1.932   1.424  0.1955 -0.1581  0.0348
   15TCq1    C2  231   2.101   1.782   1.339  0.1630 -0.6984  1.2352
   15TCq1    C3  232   2.002   1.875   1.347 -0.6147  1.0605  0.2867
   15TCq1    C4  233   1.899   1.871   1.256  0.0475 -0.0743 -0.1685
   15TCq1    C5  234   1.895   1.774   1.161  0.3175 -0.1147 -0.6512
   15TCq1    C6  235   2.005   1.688   1.146  0.6696 -0.0183  0.0641
   15TCq1    C7  236   2.102   1.686   1.239  0.3105  0.2981  0.2740
   15TCq1    C8  237   1.996   1.567   1.061 -0.0409  0.4416  0.3541
   15TCq1    O4  238   2.067   1.470   1.092 -0.1843 -0.2950  0.2357
   15TCq1    C9  239   1.785   1.965   1.273  0.3073  0.2379  0.7588
   15TCq1    O5  240   1.777   2.045   1.366 -0.2065 -0.8235  0.8200
   15TCq1    O6  241   1.690   1.944   1.198 -0.3612 -0.1731 -1.1617
   15TCq1    H1  242   2.220   1.626   1.440  0.9910 -1.0998  0.2820
   15TCq1    H2  243   2.008   1.946   1.429  0.1660  1.4976 -0.1446
   15TCq1    H3  244   1.819   1.786   1.085  0.1415  0.1650 -0.4277
   15TCq1    H4  245   2.184   1.615   1.232 -1.7585 -2.2258  1.6220
   16MPD2     C  246   1.781   1.493   0.781  0.5197  0.3966 -0.8653
   16MPD2    C1  247   1.866   1.465   0.884 -0.8535 -0.0721  0.4259
   16MPD2    C2  248   1.900   1.331   0.905  0.2351 -0.1722  0.3397
   16MPD2    C3  249   1.868   1.235   0.813 -0.0305 -0.2520  0.5615
   16MPD2    C4  250   1.794   1.268   0.699 -0.5451  0.0866 -0.1840
   16MPD2    C5  251   1.755   1.401   0.687  0.0830 -0.3086 -0.1117
   16MPD2     H  252   1.955   1.305   0.995  2.1746 -1.5721 -1.2388
   16MPD2    H1  253   1.758   1.200   0.622 -1.0049 -1.3366  1.2875
   16MPD2    H2  254   1.754   1.596   0.762 -1.2883  0.1300  0.2574
   16MPD2    H3  255   1.700   1.430   0.598  0.1251  2.3125  0.7084
   16MPD2     N  256   1.935   1.110   0.829  0.4089 -0.4054 -0.3293
   16MPD2    H5  257   2.001   1.107   0.907  1.1120 -0.4682 -0.9298
   16MPD2    N1  258   1.894   1.573   0.968  0.1160  0.9169  1.0039
   16MPD2    H7  259   1.850   1.659   0.937  0.0389 -0.2393 -2.1072
   17TMC1    C1  260   4.093   0.922  11.440 -0.2577 -1.0154  0.2728
   17TMC1    C2  261   4.189   0.881  11.354 -0.0739  0.0218 -0.0004
   17TMC1    C3  262   4.195   0.746  11.332 -0.1835  0.9097  0.1363
   17TMC1    C4  263   4.016   0.833  11.514  0.5185 -0.2007  0.4621
   17TMC1    C5  264   4.042   0.698  11.496  0.0112 -0.4587 -0.3930
   17TMC1    C6  265   4.131   0.653  11.404  0.2038 -0.0410 -0.7815
   17TMC1     C  266   4.066   1.062  11.450  0.3991 -0.1235  0.4493
   17TMC1     O  267   3.954   1.098  11.475  0.0791  0.2064 -0.2511
   17TMC1     H  268   4.241   0.944  11.282  1.7255  0.3524  1.5924
   17TMC1    H1  269   3.928   0.861  11.570  1.8361  0.1823  2.3535
   17TMC1    H2  270   4.137   0.547  11.380 -2.6425 -1.0916  3.0947
   17TMC1    C7  271   3.964   0.606  11.571  0.6076  0.5503 -0.2544
   17TMC1    C8  272   4.308   0.695  11.259 -0.0011  0.2970 -0.5126
   17TMC1    O1  273   3.852   0.635  11.607 -0.8353 -0.5318 -0.1724
   17TMC1    O2  274   4.304   0.579  11.212 -0.6918  0.3290  0.2633
   17TMC1    O3  275   4.053   0.551  11.652 -0.3833  0.1403 -0.0258
   17TMC1    H3  276   4.143   0.545  11.614 -0.5944 -1.5632 -0.2672
   17TMC1    O5  277   4.419   0.749  11.309  0.1920 -0.1865  0.2644
   17TMC1    H5  278   4.411   0.838  11.350  0.5538 -0.0446  0.0247
   18MPD2     C  279   4.132   1.349  11.497 -0.0134 -0.0767  0.1898
   18MPD2    C1  280   4.215   1.260  11.430  0.7916 -0.0785 -0.6904
   18MPD2    C2  281   4.345   1.290  11.396 -0.0797  0.0684  0.6426
   18MPD2    C3  282   4.385   1.424  11.405 -0.2019 -0.2280 -1.1654
   18MPD2    C4  283   4.293   1.514  11.461 -0.1847 -0.1713 -0.1820
   18MPD2    C5  284   4.169   1.482  11.507  0.4654  0.5491  1.1950
   18MPD2     H  285   4.405   1.206  11.364 -1.4390 -0.6031 -0.1470
   18MPD2    H1  286   4.315   1.620  11.470  1.1044 -0.4018 -0.6136
   18MPD2    H2  287   4.046   1.315  11.554  0.5706 -2.2038 -0.1991
   18MPD2    H3  288   4.101   1.553  11.552 -0.8530  1.6220 -2.4896
   18MPD2     N  289   4.516   1.474  11.384 -0.2037 -0.3606  0.1322
   18MPD2    H5  290   4.536   1.570  11.409  0.6079 -0.0356 -1.8380
   18MPD2    N1  291   4.180   1.127  11.429  1.1226 -0.0274  0.6004
   18MPD2    H7  292   4.247   1.051  11.420  1.0074  0.1254 -1.6854
   19TMC2    C1  293   1.241   2.315  13.721  0.1225  0.0682 -1.3945
   19TMC2    C2  294   1.144   2.387  13.659  0.0286 -0.3762 -0.2242
   19TMC2    C3  295   1.028   2.323  13.630 -0.4189  0.1835 -1.2549
   19TMC2    C4  296   1.226   2.181  13.756  0.4254  0.5538  0.3431
   19TMC2    C5  297   1.100   2.125  13.728 -0.5061  0.6547 -0.4053
   19TMC2    C6  298   0.999   2.189  13.664 -0.0455  0.9477  0.0801
   19TMC2     C  299   1.368   2.349  13.676 -0.3300  0.5652 -0.1212
   19TMC2     O  300   1.382   2.391  13.563  0.2383  0.0999 -0.3132
   19TMC2     H  301   1.161   2.488  13.624  2.0106 -0.3258  0.8253
   19TMC2    H1  302   1.309   2.125  13.796  1.0988  0.0605 -1.7357
   19TMC2    H2  303   0.901   2.145  13.647  1.1771 -1.0720 -1.6781
   19TMC2    C7  304   1.084   1.984  13.753 -0.2681 -0.1588  0.2715
   19TMC2    C8  305   0.924   2.404  13.575 -0.1738 -0.3811  0.3117
   19TMC2    O1  306   0.963   1.946  13.755 -0.2547  0.0097  0.7204
   19TMC2    O2  307   0.951   2.492  13.494 -0.7669 -0.4464 -0.1906
   19TMC2    O5  308   0.841   2.425  13.674 -0.0618 -0.3435  0.7822
   19TMC2    H5  309   0.813   2.348  13.727 -0.8940 -1.6097 -1.5263
   20MPD2     C  310   1.662   2.315  13.631 -0.5358 -0.4540 -0.3805
   20MPD2    C1  311   1.606   2.297  13.757 -0.3269 -0.3108  0.1404
   20MPD2    C2  312   1.689   2.260  13.862  0.0766 -0.1427 -0.2823
   20MPD2    C3  313   1.826   2.246  13.844  0.0615  0.2026 -0.3824
   20MPD2    C4  314   1.877   2.264  13.718  0.5584  0.0193 -0.1678
   20MPD2    C5  315   1.799   2.300  13.612  0.5672  0.1794  0.3513
   20MPD2     H  316   1.640   2.245  13.958  0.6223  1.5145  0.2515
   20MPD2    H1  317   1.980   2.245  13.689  0.2265 -0.2957 -1.1482
   20MPD2    H2  318   1.602   2.344  13.546  0.5874 -0.3474 -1.1327
   20MPD2    H3  319   1.841   2.319  13.514  3.3535 -2.6810  0.9910
   20MPD2     N  320   1.908   2.227  13.960  0.6790  0.3615  0.2857
   20MPD2    H5  321   2.007   2.248  13.951  0.5968  0.6354  0.0314
   20MPD2    N1  322   1.461   2.312  13.770  0.0835  0.4947  0.4589
   20MPD2    H7  323   1.432   2.277  13.860 -0.2317  3.3432  1.4906
   21TMC2    C1  324   4.300   2.875  14.085 -0.1381  0.3116 -0.2550
   21TMC2    C2  325   4.359   2.786  14.004 -0.8803  0.2496 -0.4709
   21TMC2    C3  326   4.299   2.661  13.997  0.1823 -0.3582  0.0792
   21TMC2    C4  327   4.181   2.843  14.149 -0.0435 -0.2971  0.5447
   21TMC2    C5  328   4.141   2.712  14.142  0.0671  0.4914  0.4714
   21TMC2    C6  329   4.190   2.617  14.064 -0.0097 -0.3762  1.0723
   21TMC2     C  330   4.389   2.950  14.168 -0.1085  0.6783 -0.4504
   21TMC2     O  331   4.502   2.902  14.165  0.5318  0.3094  0.1028
   21TMC2     H  332   4.459   2.808  13.967 -0.9251  3.5709  1.3680
   21TMC2    H1  333   4.132   2.905  14.223  0.0636  2.0920 -1.4145
   21TMC2    H2  334   4.157   2.514  14.057 -2.2232  0.4031  0.2211
   21TMC2    C7  335   4.073   2.677  14.260  0.1387 -0.0478 -0.3267
   21TMC2    C8  336   4.381   2.551  13.937  0.5681 -0.3463  0.7502
   21TMC2    O1  337   4.137   2.614  14.340  0.1934  0.0332  0.0833
   21TMC2    O2  338   4.345   2.434  13.944 -0.0470  0.0465 -0.0142
   21TMC2    O5  339   4.420   2.610  13.815 -0.1485  0.5440 -0.0575
   21TMC2    H5  340   4.416   2.707  13.801  0.8774  0.3179 -1.9205
   22MPD2     C  341   4.444   3.211  14.610  0.0028 -0.0363 -0.1743
   22MPD2    C1  342   4.523   3.110  14.558  0.0401 -0.6141 -0.6816
   22MPD2    C2  343   4.490   3.054  14.436 -0.1298  0.2745  0.4182
   22MPD2    C3  344   4.382   3.103  14.366  0.7407 -0.4700 -0.4562
   22MPD2    C4  345   4.313   3.216  14.416 -0.7123  0.1179 -0.7224
   22MPD2    C5  346   4.346   3.265  14.537  0.6339  0.1514 -0.6249
   22MPD2     H  347   4.557   2.981  14.392 -1.9603 -1.6619  0.8552
   22MPD2    H1  348   4.231   3.244  14.350  0.6890  0.6725 -2.2267
   22MPD2    H2  349   4.466   3.259  14.705 -0.2749  0.3418 -0.3008
   22MPD2    H3  350   4.278   3.338  14.580  1.7775  0.5959  0.4002
   22MPD2     N  351   4.329   3.051  14.241  0.7394 -0.3089  0.3662
   22MPD2    H5  352   4.238   3.089  14.217  0.8525 -1.2779 -1.5909
   22MPD2    N1  353   4.632   3.063  14.634  0.5193 -0.1167  1.0622
   22MPD2    H7  354   4.683   2.992  14.582 -2.4030 -1.8851  0.5902
   23TMC2    C1  355   0.563   3.572  14.508  0.4959 -0.3287  0.0536
   23TMC2    C2  356   0.559   3.545  14.370 -0.8270 -0.3538  0.0622
   23TMC2    C3  357   0.427   3.549  14.311 -0.5929 -0.6160 -0.3531
   23TMC2    C4  358   0.444   3.579  14.580 -0.1838  0.1929 -0.0062
   23TMC2    C5  359   0.321   3.577  14.528  0.4508 -0.4489  0.0129
   23TMC2    C6  360   0.310   3.559  14.387  0.4986 -0.3003 -0.1663
   23TMC2     C  361   0.690   3.560  14.583  0.3780  0.4733 -0.2297
   23TMC2     O  362   0.676   3.527  14.698  0.1651 -0.2319  0.6547
   23TMC2     H  363   0.645   3.539  14.304 -0.0483 -2.8758  1.3210
   23TMC2    H1  364   0.448   3.576  14.689  0.3114 -2.2435 -0.0870
   23TMC2    H2  365   0.215   3.553  14.336  0.2788 -1.6096  0.4001
   23TMC2    C7  366   0.224   3.640  14.606 -0.3266  0.2214  0.0642
   23TMC2    C8  367   0.418   3.477  14.185  0.6295  0.2228 -0.0289
   23TMC2    O1  368   0.257   3.707  14.705  0.3921  0.1376  0.2151
   23TMC2    O2  369   0.309   3.436  14.149  0.3867  0.4475 -0.3425
   23TMC2    O5  370   0.518   3.520  14.102 -0.1924 -0.4259  0.3711
   23TMC2    H5  371   0.512   3.483  14.012  0.0589  0.1046  0.1368
   24MPD2     C  372   1.180   3.708  14.691  0.2024 -0.4731 -0.6824
   24MPD2    C1  373   1.091   3.638  14.767 -0.5101 -0.3813 -0.0220
   24MPD2    C2  374   0.971   3.595  14.707 -0.0836 -0.5253  1.0388
   24MPD2    C3  375   0.936   3.632  14.576 -0.1806 -0.2346 -0.3558
   24MPD2    C4  376   1.037   3.682  14.497 -0.1777  0.0860 -0.0963
   24MPD2    C5  377   1.151   3.731  14.557 -0.3234  0.0789 -0.1827
   24MPD2     H  378   0.903   3.535  14.767 -0.5657 -1.4344 -0.4120
   24MPD2    H1  379   1.025   3.711  14.393  0.2959 -3.2409 -1.0819
   24MPD2    H2  380   1.278   3.736  14.728 -1.6176  1.1433  2.9362
   24MPD2    H3  381   1.225   3.777  14.493  0.9234 -1.6079  0.0491
   24MPD2     N  382   0.805   3.606  14.517  0.1059  0.2867 -0.6052
   24MPD2    H5  383   0.798   3.635  14.420  2.0414  0.4615 -0.6946
   24MPD2    N1  384   1.118   3.601  14.902 -0.2298  0.5512  0.1667
   24MPD2    H7  385   1.052   3.534  14.941  1.0841 -0.8506 -0.0523
   25TMC2    C1  386   4.326   0.136  11.340 -0.0652  0.4841  0.2277
   25TMC2    C2  387   4.444   0.067  11.365  0.0878  0.0550 -0.4925
   25TMC2    C3  388   4.547   0.129  11.437  0.4125 -0.1886 -0.1066
   25TMC2    C4  389   4.309   0.265  11.396  1.3718 -0.1635 -0.7770
   25TMC2    C5  390   4.412   0.321  11.469 -0.1502 -0.2088  0.3546
   25TMC2    C6  391   4.533   0.254  11.482  0.4549 -0.7715 -0.3189
   25TMC2     C  392   4.267   0.119  11.209 -0.1879  0.3078  0.0386
   25TMC2     O  393   4.334   0.072  11.118 -0.4508  0.0242  0.0392
   25TMC2     H  394   4.466   4.719  11.299 -1.5344  0.2375 -1.2742
   25TMC2    H1  395   4.232   0.328  11.352  0.9630 -0.8560 -1.0612
   25TMC2    H2  396   4.614   0.289  11.545 -0.8460 -0.7099  1.3305
   25TMC2    C7  397   4.395   0.440  11.542  0.1307 -0.1983 -0.6262
   25TMC2    C8  398   4.690   0.088  11.420  0.1224  0.5049  0.2312
   25TMC2    O1  399   4.281   0.466  11.583 -0.1377  0.4181 -0.3416
   25TMC2    O2  400   0.047   0.153  11.471  0.2588  0.6004 -0.2202
   25TMC2    O5  401   4.704   0.032  11.293  0.0867  0.1485  0.2968
   25TMC2    H5  402   4.625   4.710  11.281  1.5402 -1.8333  0.2184
   26MPD2     C  403   3.891   0.232  10.898 -0.7745 -0.1864 -0.5330
   26MPD2    C1  404   3.836   0.208  11.021  0.2833 -0.0855 -0.3014
   26MPD2    C2  405   3.923   0.192  11.127  0.0063  0.4237  0.0303
   26MPD2    C3  406   4.067   0.190  11.106 -0.3575  0.3862 -0.3260
   26MPD2    C4  407   4.122   0.205  10.978  0.0711 -0.0845  0.1520
   26MPD2    C5  408   4.030   0.231  10.884 -0.0429  0.5852 -0.0341
   26MPD2     H  409   3.885   0.179  11.228  0.0009  1.6508  0.1856
   26MPD2    H1  410   4.224   0.187  10.947  0.1288  0.5334 -0.0130
   26MPD2    H2  411   3.829   0.256  10.812 -0.2046 -1.5332 -1.3264
   26MPD2    H3  412   4.065   0.255  10.784 -0.6769  0.2051 -0.3494
   26MPD2     N  413   4.135   0.158  11.221 -0.4646 -0.1843 -0.2993
   26MPD2    H5  414   4.087   0.159  11.310 -3.4434 -0.7250 -1.9066
   26MPD2    N1  415   3.693   0.210  11.035 -0.4550 -0.0253  0.2790
   26MPD2    H7  416   3.636   0.227  10.952  0.4344  0.1442 -0.2906
   27TMC2    C1  417   3.018   3.422  11.915 -0.4234 -0.1410 -0.7542
   27TMC2    C2  418   3.143   3.413  11.869 -0.6780 -0.1863  0.0158
   27TMC2    C3  419   3.240   3.481  11.940 -0.9827  0.3250  0.3551
   27TMC2    C4  420   2.983   3.510  12.019 -0.0002 -0.1322 -0.9198
   27TMC2    C5  421   3.083   3.569  12.087  0.8883 -0.2594 -0.0349
   27TMC2    C6  422   3.211   3.559  12.049  0.7810  0.7801 -0.6826
   27TMC2     C  423   2.936   3.304  11.883  0.1641 -0.1933 -0.4142
   27TMC2     O  424   2.939   3.255  11.770  0.4432 -0.3732 -0.5690
   27TMC2     H  425   3.171   3.340  11.793  0.0306 -0.1003  0.1892
   27TMC2    H1  426   2.881   3.521  12.055  0.1840 -1.1377 -0.0503
   27TMC2    H2  427   3.288   3.613  12.103  1.1821 -0.8213  0.3404
   27TMC2    C7  428   3.061   3.572  12.230 -0.2064  0.0613 -0.0712
   27TMC2    C8  429   3.378   3.460  11.912 -0.4425  0.7550 -0.2576
   27TMC2    O1  430   2.975   3.498  12.275 -0.0456 -0.2682  0.3402
   27TMC2    O2  431   3.430   3.509  11.813  0.4864  0.7302 -0.1165
   27TMC2    O5  432   3.387   3.331  11.945  0.1333  0.6756 -0.0402
   27TMC2    H5  433   3.320   3.314  12.015 -1.1994  0.5578 -1.3502
   28MPD2     C  434   2.640   2.937  12.076  0.1822  0.7483 -0.1120
   28MPD2    C1  435   2.679   3.021  12.173 -0.3374  0.1562 -0.3481
   28MPD2    C2  436   2.753   3.131  12.148  0.1391 -0.9235 -0.4366
   28MPD2    C3  437   2.792   3.148  12.020 -0.6523  0.1078 -0.0050
   28MPD2    C4  438   2.765   3.058  11.921 -0.5521 -0.7912 -0.2537
   28MPD2    C5  439   2.681   2.953  11.947  0.0288 -0.2848  0.1331
   28MPD2     H  440   2.774   3.211  12.218  1.6731 -0.4114 -1.4718
   28MPD2    H1  441   2.783   3.078  11.816 -1.0929 -0.2118 -0.2420
   28MPD2    H2  442   2.572   2.858  12.106 -1.1766  1.7956 -0.4892
   28MPD2    H3  443   2.659   2.875  11.874  1.1281  0.8723 -1.4287
   28MPD2     N  444   2.865   3.263  11.996  0.0067  0.3800 -0.0763
   28MPD2    H5  445   2.872   3.321  12.080  0.5989  1.6645 -1.0029
   28MPD2    N1  446   2.620   3.001  12.303  0.1660  0.1954  0.4184
   28MPD2    H7  447   2.564   2.919  12.319  0.5782 -0.3073 -0.7063
   29TMC2    C1  448   2.949   1.026  14.350  0.0053  0.5520  0.2633
   29TMC2    C2  449   2.873   1.087  14.445 -0.0074 -0.6688 -0.0737
   29TMC2    C3  450   2.899   1.217  14.477 -0.0097  0.2042 -0.2454
   29TMC2    C4  451   3.058   1.087  14.293 -0.2529  0.0022 -0.0322
   29TMC2    C5  452   3.080   1.216  14.335 -0.1579  0.3116 -0.0631
   29TMC2    C6  453   3.006   1.283  14.434 -0.7549 -0.0224 -0.1510
   29TMC2     C  454   2.909   0.896  14.288  0.0546 -0.4396  0.4430
   29TMC2     O  455   2.997   0.826  14.244 -0.1760 -0.5424 -0.2640
   29TMC2     H  456   2.791   1.031  14.487  0.0731 -0.9792 -0.3296
   29TMC2    H1  457   3.125   1.033  14.227 -0.9798 -1.3902  0.3625
   29TMC2    H2  458   3.020   1.386  14.465  1.3197 -0.6884  1.1008
   29TMC2    C7  459   3.206   1.277  14.292  0.7327  0.3152 -0.5190
   29TMC2    C8  460   2.805   1.270  14.563 -0.4221 -0.0118  0.4735
   29TMC2    O1  461   3.268   1.220  14.199 -0.0654  0.6497 -0.0235
   29TMC2    O2  462   2.692   1.225  14.566 -0.3620  0.0599  0.6052
   29TMC2    O5  463   2.876   1.336  14.656 -0.0489 -0.2874 -0.0717
   29TMC2    H5  464   2.972   1.317  14.648  0.3011  1.2136  0.5251
   30MPD2     C  465   2.549   0.597  14.053 -0.4996 -0.2974 -0.7462
   30MPD2    C1  466   2.685   0.579  14.069  0.5329 -0.6024  0.5344
   30MPD2    C2  467   2.752   0.678  14.142  0.4530 -0.5395 -0.2461
   30MPD2    C3  468   2.692   0.796  14.186 -0.0100  0.3510  0.2117
   30MPD2    C4  469   2.557   0.812  14.169 -0.0211 -0.0653  0.2304
   30MPD2    C5  470   2.495   0.713  14.096 -0.2456 -0.3099 -0.2143
   30MPD2     H  471   2.858   0.660  14.159  0.0329 -1.8222  1.0509
   30MPD2    H1  472   2.499   0.898  14.200  1.6039  0.0940  2.9236
   30MPD2    H2  473   2.492   0.516  14.011 -1.1513  0.1152 -0.6603
   30MPD2    H3  474   2.387   0.720  14.091 -0.1647  1.4983  0.6319
   30MPD2     N  475   2.769   0.889  14.266 -0.3970 -0.0600 -0.1678
   30MPD2    H5  476   2.714   0.967  14.301  0.2429  0.0553  0.5812
   30MPD2    N1  477   2.751   0.454  14.049  0.6158  0.0992 -0.2826
   30MPD2    H7  478   2.837   0.445  14.102  1.3419  3.6295 -0.8869
   31TMC2    C1  479   0.592   4.162  15.197  1.0611  0.5704 -0.0413
   31TMC2    C2  480   0.457   4.186  15.198 -0.9716 -0.0936  0.0890
   31TMC2    C3  481   0.381   4.156  15.303 -0.0556  0.7082 -0.2140
   31TMC2    C4  482   0.655   4.103  15.301 -0.0383  0.0657  0.4329
   31TMC2    C5  483   0.571   4.062  15.398 -1.4250 -0.4057  0.0225
   31TMC2    C6  484   0.438   4.084  15.405 -0.4616 -0.8219 -0.1913
   31TMC2     C  485   0.664   4.234  15.093 -0.1856 -0.0987  0.0059
   31TMC2     O  486   0.613   4.265  14.982  0.3829 -0.0478 -0.2484
   31TMC2     H  487   0.418   4.226  15.105  0.8763  0.8398 -0.2941
   31TMC2    H1  488   0.761   4.086  15.317 -0.2476 -1.1232  0.5272
   31TMC2    H2  489   0.376   4.054  15.489 -0.3823 -0.5415 -0.0358
   31TMC2    C7  490   0.643   4.032  15.523 -0.7021 -0.1997  0.0039
   31TMC2    C8  491   0.238   4.154  15.287 -0.3895 -0.0858 -0.2119
   31TMC2    O1  492   0.745   3.972  15.514  0.4471 -0.1388 -0.1759
   31TMC2    O2  493   0.163   4.073  15.336 -0.0518 -0.5921 -0.3252
   31TMC2    O5  494   0.199   4.224  15.183  0.3936 -1.2565 -0.6975
   31TMC2    H5  495   0.265   4.296  15.171  0.8244 -1.5200  0.1092
   32MPD2     C  496   1.067   4.519  14.970  0.1973  0.1730 -0.1012
   32MPD2    C1  497   0.934   4.526  14.928 -0.1419 -0.9853  0.3102
   32MPD2    C2  498   0.846   4.435  14.982  0.0766  0.1517 -0.3771
   32MPD2    C3  499   0.882   4.349  15.082 -0.1701  0.0049  1.2745
   32MPD2    C4  500   1.011   4.345  15.120  0.1213  0.7545  0.1079
   32MPD2    C5  501   1.102   4.436  15.070  0.2792 -0.4329  0.8786
   32MPD2     H  502   0.743   4.427  14.949  0.1660  2.3842 -1.1629
   32MPD2    H1  503   1.044   4.283  15.202 -1.1427 -1.1566 -0.8340
   32MPD2    H2  504   1.145   4.584  14.934 -0.5035  2.3861  2.4007
   32MPD2    H3  505   1.204   4.443  15.108  1.1279  0.8323 -1.6011
   32MPD2     N  506   0.789   4.259  15.142  0.0737 -0.1746 -1.3516
   32MPD2    H5  507   0.819   4.218  15.229 -0.9045  1.2665 -0.3334
   32MPD2    N1  508   0.903   4.620  14.831 -0.5883  0.4116  0.7292
   32MPD2    H7  509   0.977   4.660  14.774 -0.5602 -0.2265  0.3093
   33TMC2    C1  510   4.718   2.476  11.110  0.1794  1.5354 -0.1508
   33TMC2    C2  511   4.632   2.502  11.215  0.0639 -0.0537  0.6376
   33TMC2    C3  512   4.559   2.617  11.197 -0.5657 -0.1436 -0.0605
   33TMC2    C4  513   0.013   2.561  11.005 -0.0197 -0.3732 -0.3568
   33TMC2    C5  514   4.667   2.671  11.000  0.8438  0.4601  0.3954
   33TMC2    C6  515   4.580   2.699  11.099  0.4520 -0.4518 -0.1117
   33TMC2     C  516   0.041   2.344  11.111  0.2168 -0.0386  0.2595
   33TMC2     O  517   0.014   2.276  11.210 -0.0436 -0.2610 -0.3879
   33TMC2     H  518   4.584   2.423  11.270 -1.0393  0.1812  0.0047
   33TMC2    H1  519   0.091   2.548  10.932  0.5064 -2.0469  0.5058
   33TMC2    H2  520   4.512   2.783  11.099  0.9099 -0.0831 -0.1853
   33TMC2    C7  521   4.734   2.773  10.920 -0.1031  0.1146 -0.2613
   33TMC2    C8  522   4.436   2.656  11.273 -0.0236  0.4571 -0.5642
   33TMC2    O1  523   0.119   2.772  10.925 -0.0939  0.0917 -0.0286
   33TMC2    O2  524   4.330   2.684  11.221 -0.4648 -0.2565 -0.1258
   33TMC2    O5  525   4.434   2.585  11.389  0.1407  0.1686  0.0946
   33TMC2    H5  526   4.525   2.564  11.421 -0.0464  1.9034  1.7201
   34MPD2     C  527   0.299   1.947  10.921  0.5100 -0.7163 -0.0654
   34MPD2    C1  528   0.211   1.953  11.025 -0.6889  0.7539  0.1068
   34MPD2    C2  529   0.150   2.076  11.055  0.1028  0.0089 -0.2161
   34MPD2    C3  530   0.183   2.192  10.984  0.0718 -0.3182  0.2473
   34MPD2    C4  531   0.273   2.185  10.880 -0.1556  0.3863  0.4887
   34MPD2    C5  532   0.338   2.066  10.858  0.0078  1.2838 -0.6032
   34MPD2     H  533   0.069   2.081  11.128  0.5459  1.9501  0.1476
   34MPD2    H1  534   0.297   2.270  10.818 -1.5946  0.4099 -0.0164
   34MPD2    H2  535   0.350   1.853  10.906  0.4387 -0.5925 -1.0910
   34MPD2    H3  536   0.414   2.054  10.782  0.8037  0.0937  0.3728
   34MPD2     N  537   0.123   2.313  11.004  0.3468 -0.5928  0.4910
   34MPD2    H5  538   0.140   2.383  10.933 -0.1517  0.5775  1.5198
   34MPD2    N1  539   0.192   1.831  11.091  0.3172  0.1718  0.5533
   34MPD2    H7  540   0.254   1.756  11.064  1.1764  0.9269  0.4190
   35TMC2    C1  541   1.082   3.603  11.590 -0.4372  0.1104 -0.7998
   35TMC2    C2  542   1.022   3.709  11.525  0.7199 -0.5700  0.1804
   35TMC2    C3  543   0.902   3.688  11.466 -0.0706  0.1944 -0.0315
   35TMC2    C4  544   1.024   3.476  11.593  0.1125 -0.0677 -0.0011
   35TMC2    C5  545   0.907   3.465  11.527 -0.0455  0.2898 -0.2329
   35TMC2    C6  546   0.834   3.568  11.477 -0.9373 -0.1218  0.2617
   35TMC2     C  547   1.196   3.643  11.671  0.3256 -0.2790 -0.4941
   35TMC2     O  548   1.217   3.766  11.681  0.2664  0.2387 -0.7344
   35TMC2     H  549   1.064   3.808  11.514 -1.7126  0.5797  1.1733
   35TMC2    H1  550   1.077   3.391  11.634  1.4517  0.0512 -1.4826
   35TMC2    H2  551   0.748   3.550  11.413 -1.2044  1.1068  0.2702
   35TMC2    C7  552   0.854   3.326  11.541 -0.5487  0.1565  0.0886
   35TMC2    C8  553   0.845   3.803  11.401 -0.4291  0.0083  0.4466
   35TMC2    O1  554   0.940   3.242  11.546 -0.3876 -0.0773 -0.2468
   35TMC2    O2  555   0.915   3.874  11.325 -0.0608  0.4529 -0.2746
   35TMC2    O5  556   0.711   3.793  11.389  0.0879 -0.2570 -0.3480
   35TMC2    H5  557   0.663   3.740  11.456 -0.7746 -2.3434 -2.5991
   36MPD2     C  558   1.536   3.549  12.047 -0.1028 -0.3352  0.6020
   36MPD2    C1  559   1.517   3.432  11.973  0.3365  0.2541 -0.1392
   36MPD2    C2  560   1.420   3.426  11.875 -0.1220 -0.1748  0.1990
   36MPD2    C3  561   1.349   3.538  11.837 -0.0433 -0.7041 -0.2408
   36MPD2    C4  562   1.351   3.648  11.926 -0.5054  0.3399 -0.1469
   36MPD2    C5  563   1.449   3.652  12.026 -0.7703 -0.0524 -0.7608
   36MPD2     H  564   1.411   3.333  11.820  0.4851  0.8878 -1.7355
   36MPD2    H1  565   1.288   3.736  11.931 -0.0447  0.5645  1.5850
   36MPD2    H2  566   1.613   3.555  12.123  1.4790  0.4353 -1.0586
   36MPD2    H3  567   1.469   3.730  12.099  1.2644 -2.8808  1.6909
   36MPD2     N  568   1.255   3.531  11.729  0.6161 -0.1356  0.8789
   36MPD2    H5  569   1.233   3.440  11.690 -1.0283  0.5583  0.1497
   36MPD2    N1  570   1.601   3.316  12.002 -0.3085  0.7767  0.3024
   36MPD2    H7  571   1.674   3.335  12.071 -0.8273 -0.5738  1.2090
   37TMC2    C1  572   3.752   3.714  11.982  0.0748 -0.4389 -0.4151
   37TMC2    C2  573   3.669   3.723  11.873 -0.5915  0.5781 -0.3000
   37TMC2    C3  574   3.713   3.766  11.750  0.4582 -0.2424  0.0928
   37TMC2    C4  575   3.881   3.758  11.959 -0.2493 -0.8706  0.7527
   37TMC2    C5  576   3.919   3.812  11.837 -0.0810  0.3749  0.2922
   37TMC2    C6  577   3.830   3.824  11.727  0.5728 -0.9338 -0.3792
   37TMC2     C  578   3.691   3.698  12.113 -0.9389 -0.5942 -0.3059
   37TMC2     O  579   3.569   3.683  12.117 -0.3379  0.2651 -0.0451
   37TMC2     H  580   3.562   3.702  11.872 -0.4093 -0.4242  0.8843
   37TMC2    H1  581   3.951   3.758  12.042  2.8733 -0.6730 -1.9128
   37TMC2    H2  582   3.862   3.876  11.637  0.2049  2.7837  1.6618
   37TMC2    C7  583   4.060   3.836  11.823 -0.0623  0.4288 -0.4402
   37TMC2    C8  584   3.607   3.794  11.657  0.0080 -0.2130 -0.6427
   37TMC2    O1  585   4.113   3.861  11.927  0.2329  1.1310  0.7242
   37TMC2    O2  586   3.623   3.874  11.563  0.8540  0.4709  0.1097
   37TMC2    O5  587   3.554   3.672  11.636 -0.4115  0.3139  0.1104
   37TMC2    H5  588   3.559   3.609  11.711 -2.0453 -0.0274 -0.0723
   38MPD2     C  589   3.705   3.651  12.629  0.3387 -0.3269  0.1114
   38MPD2    C1  590   3.837   3.662  12.593 -0.3151  0.2516  0.0500
   38MPD2    C2  591   3.864   3.660  12.460  0.0054 -1.4888 -0.9669
   38MPD2    C3  592   3.764   3.664  12.361  0.1872 -0.6524  0.2665
   38MPD2    C4  593   3.632   3.662  12.410 -0.2918  0.5668 -1.1539
   38MPD2    C5  594   3.600   3.657  12.542  0.0467  0.1022 -0.1974
   38MPD2     H  595   3.968   3.665  12.431  0.7331 -1.9927  1.5658
   38MPD2    H1  596   3.543   3.662  12.348  1.1296 -1.2098 -3.2143
   38MPD2    H2  597   3.676   3.640  12.733 -0.8227  1.9751  0.0502
   38MPD2    H3  598   3.500   3.641  12.580  0.1923 -1.0182 -0.3061
   38MPD2     N  599   3.786   3.693  12.218  0.0020  0.4416  0.3572
   38MPD2    H5  600   3.885   3.707  12.196  0.3072 -3.0720 -0.5611
   38MPD2    N1  601   3.947   3.673  12.686 -0.4829  0.0680 -0.0117
   38MPD2    H7  602   4.037   3.684  12.640  0.9837 -1.1833  2.5644
   39TMC2    C1  603   2.537   0.240   1.380  0.7759  0.4830  0.2093
   39TMC2    C2  604   2.463   0.239   1.498 -0.0023 -0.1590 -0.6456
   39TMC2    C3  605   2.521   0.188   1.616  0.9602 -0.6582  0.0784
   39TMC2    C4  606   2.667   0.185   1.378 -0.2739 -0.0298 -0.3179
   39TMC2    C5  607   2.720   0.140   1.499  0.0055 -0.7046  0.4043
   39TMC2    C6  608   2.647   0.139   1.615  0.4723  0.3191 -0.3120
   39TMC2     C  609   2.476   0.299   1.261 -0.4154  0.1473 -0.0290
   39TMC2     O  610   2.363   0.342   1.281  0.4350  0.4437 -0.9066
   39TMC2     H  611   2.361   0.275   1.507  0.8736  1.7941  1.5410
   39TMC2    H1  612   2.733   0.187   1.292  0.3625 -1.7332  0.1353
   39TMC2    H2  613   2.701   0.106   1.703  2.5999 -0.6407 -1.9669
   39TMC2    C7  614   2.868   0.140   1.501  0.2817 -0.4250  0.0024
   39TMC2    C8  615   2.464   0.193   1.748 -0.4981 -0.4499  0.4999
   39TMC2    O1  616   2.923   0.220   1.426 -0.0574  0.0663 -0.0419
   39TMC2    O2  617   2.509   0.121   1.837 -0.3681  0.4099  0.1473
   39TMC2    O5  618   2.354   0.272   1.748 -0.2295  0.5507  0.3157
   39TMC2    H5  619   2.357   0.334   1.671 -0.3615  0.0499 -0.0947
   40MPD2     C  620   2.615   0.385   0.930 -0.8557  0.2993 -0.3537
   40MPD2    C1  621   2.519   0.361   1.028  0.3799  0.2013  0.0746
   40MPD2    C2  622   2.388   0.376   0.987  0.1462 -0.0839  0.5056
   40MPD2    C3  623   2.361   0.413   0.856 -0.2666 -0.4226 -0.1457
   40MPD2    C4  624   2.456   0.425   0.760  0.4937  0.2402 -0.1146
   40MPD2    C5  625   2.585   0.410   0.800 -0.7466  0.7631 -0.3197
   40MPD2     H  626   2.308   0.371   1.061 -0.9930  2.0549 -0.5665
   40MPD2    H1  627   2.428   0.432   0.656  1.8068  1.9797 -0.3442
   40MPD2    H2  628   2.719   0.366   0.955 -0.5686  0.8187 -1.1357
   40MPD2    H3  629   2.657   0.415   0.719 -0.9973 -2.0895 -0.7154
   40MPD2     N  630   2.225   0.428   0.809  0.7065 -0.4469 -0.3365
   40MPD2    H5  631   2.206   0.429   0.710 -0.4484 -0.9094 -0.1192
   40MPD2    N1  632   2.567   0.321   1.155  0.0380  0.7185  0.2334
   40MPD2    H7  633   2.655   0.271   1.158  0.6002  1.7212  0.4961
   41TMC2    C1  634   1.080   3.240  13.610  0.0416  0.6291 -0.8490
   41TMC2    C2  635   0.997   3.303  13.525 -0.3702 -0.5120 -0.8949
   41TMC2    C3  636   1.053   3.370  13.421  0.3046 -0.5621 -0.1656
   41TMC2    C4  637   1.209   3.225  13.578 -0.9845  0.2891  0.2538
   41TMC2    C5  638   1.256   3.274  13.460  0.3251  0.3505 -0.2085
   41TMC2    C6  639   1.178   3.352  13.378 -0.4686 -0.1057  0.2580
   41TMC2     C  640   1.031   3.166  13.728 -0.5431  0.0364 -0.8872
   41TMC2     O  641   0.916   3.125  13.724  0.2590 -0.3934 -0.0207
   41TMC2     H  642   0.893   3.305  13.555 -0.1157 -0.9448  0.0270
   41TMC2    H1  643   1.273   3.164  13.642 -0.4004  1.4729  0.7887
   41TMC2    H2  644   1.224   3.410  13.300 -0.1318  0.0781  0.5942
   41TMC2    C7  645   1.387   3.238  13.412 -0.1211  0.1416 -0.8320
   41TMC2    C8  646   0.964   3.467  13.358 -0.0282  0.5402 -0.7911
   41TMC2    O1  647   1.469   3.218  13.501 -0.2048 -0.6989  0.4179
   41TMC2    O2  648   0.845   3.445  13.347  0.2661 -0.0663  0.5394
   41TMC2    O5  649   1.034   3.564  13.301 -0.1413  0.0832  0.1848
   41TMC2    H5  650   1.128   3.577  13.329  0.3653  0.0894 -1.4974
   42MPD2     C  651   0.988   3.033  14.000 -0.1586  0.0821 -0.4753
   42MPD2    C1  652   1.107   3.089  13.952  0.9678  0.1776 -0.5008
   42MPD2    C2  653   1.212   3.105  14.037  0.3760  0.8288  0.1544
   42MPD2    C3  654   1.202   3.074  14.171  0.0920  0.5744  0.0236
   42MPD2    C4  655   1.089   3.008  14.215  0.1796  0.5747 -0.3975
   42MPD2    C5  656   0.985   2.991  14.130 -0.1140 -0.1093  0.5507
   42MPD2     H  657   1.303   3.158  14.008  0.0953  0.5630 -1.2058
   42MPD2    H1  658   1.070   2.980  14.318  0.0060  1.7363 -0.1107
   42MPD2    H2  659   0.905   3.014  13.933 -1.1920 -0.8404  1.1000
   42MPD2    H3  660   0.888   2.949  14.153 -0.2327  0.3405  0.8666
   42MPD2     N  661   1.308   3.110  14.262  0.3753  0.0059 -0.7343
   42MPD2    H5  662   1.299   3.071  14.355  0.4947  1.6863 -0.0114
   42MPD2    N1  663   1.126   3.150  13.824 -0.2028  0.2195  0.4060
   42MPD2    H7  664   1.220   3.186  13.809  0.1865 -0.9104  0.1537
   43TMC2    C1  665   2.730   2.099   0.666 -0.1953  0.0868  0.3171
   43TMC2    C2  666   2.608   2.109   0.719  0.4598 -0.1732 -0.0661
   43TMC2    C3  667   2.581   2.190   0.821  0.2600  1.1319  0.3176
   43TMC2    C4  668   2.828   2.183   0.709 -0.7819  0.6398 -0.2901
   43TMC2    C5  669   2.805   2.273   0.809  0.8696  0.2805  0.0350
   43TMC2    C6  670   2.677   2.284   0.858 -0.4282 -0.4391  0.1035
   43TMC2     C  671   2.760   1.998   0.566  0.1718 -0.8478 -0.2282
   43TMC2     O  672   2.873   1.955   0.556 -0.4459 -0.1667 -0.1266
   43TMC2     H  673   2.531   2.037   0.695 -1.6820  2.3051 -0.6632
   43TMC2    H1  674   2.927   2.184   0.663  0.4054 -1.7363  2.2528
   43TMC2    H2  675   2.664   2.357   0.938  1.0789 -0.8697  0.7476
   43TMC2    C7  676   2.905   2.378   0.829 -0.8253  0.2701 -0.5306
   43TMC2    C8  677   2.448   2.201   0.869 -0.7072  0.1568 -0.4100
   43TMC2    O1  678   3.022   2.346   0.798  0.5851  0.4770  0.1475
   43TMC2    O2  679   2.351   2.211   0.797 -0.5758  0.2070  0.4566
   43TMC2    O5  680   2.454   2.245   0.999  0.2155 -0.2502  0.0815
   43TMC2    H5  681   2.540   2.219   1.038 -0.2791  1.3505  2.2547
   44MPD2     C  682   2.662   1.663   0.193  0.2267  0.2430  0.1130
   44MPD2    C1  683   2.755   1.652   0.296  0.4885 -0.2565  0.4336
   44MPD2    C2  684   2.748   1.752   0.392 -0.1954  0.2056  0.1430
   44MPD2    C3  685   2.659   1.858   0.385  0.2542  0.0471 -0.1896
   44MPD2    C4  686   2.562   1.859   0.285 -0.0213 -0.0463 -0.3469
   44MPD2    C5  687   2.563   1.756   0.195 -0.5798  0.3249  0.0347
   44MPD2     H  688   2.819   1.742   0.473  0.4290 -0.2025 -0.4539
   44MPD2    H1  689   2.485   1.935   0.286 -0.8069 -0.8467  0.0228
   44MPD2    H2  690   2.662   1.589   0.114 -0.0316 -0.6180  0.9259
   44MPD2    H3  691   2.491   1.754   0.114 -3.0817  3.0365  2.2041
   44MPD2     N  692   2.658   1.964   0.482 -0.1291 -0.1375  0.7836
   44MPD2    H5  693   2.577   2.025   0.486  0.7892  1.1489  0.1544
   44MPD2    N1  694   2.844   1.538   0.312 -0.0780  0.4833 -0.0711
   44MPD2    H7  695   2.910   1.537   0.389  0.7260 -0.2219 -0.7673
   45TMC2    C1  696   3.607   3.654  10.044 -0.2329 -0.5790 -0.4803
   45TMC2    C2  697   3.644   3.632  10.171 -0.0305  0.0915  0.1328
   45TMC2    C3  698   3.686   3.744  10.246 -0.8826 -1.0196 -0.6923
   45TMC2    C4  699   3.589   3.779   9.993 -0.5651  0.1798  0.2272
   45TMC2    C5  700   3.633   3.881  10.075  0.8061  0.4736 -0.2160
   45TMC2    C6  701   3.686   3.862  10.190  0.5693  0.4873  0.0547
   45TMC2     C  702   3.514   3.547   9.994  0.1573 -0.1159 -0.6685
   45TMC2     O  703   3.501   3.449  10.067 -0.0541  0.5540 -0.3332
   45TMC2     H  704   3.637   3.535  10.218  0.2163 -0.5051 -1.0742
   45TMC2    H1  705   3.543   3.798   9.896  0.9433  3.1179  0.0755
   45TMC2    H2  706   3.720   3.945  10.250  1.1343  0.9691 -0.9253
   45TMC2    C7  707   3.635   4.023  10.037 -0.1338  0.2182 -0.2543
   45TMC2    C8  708   3.672   3.742  10.392 -0.3603  0.3985 -0.7847
   45TMC2    O1  709   3.707   4.105  10.085  0.1818  0.0304 -0.6377
   45TMC2    O2  710   3.598   3.817  10.449 -0.1894 -0.3027 -0.2301
   45TMC2    O5  711   3.701   3.616  10.426  0.2164  0.0276 -0.3166
   45TMC2    H5  712   3.766   3.569  10.369 -1.6499 -1.0166 -1.5555
   46MPD2     C  713   3.285   3.408   9.869 -0.6272  0.8208  0.6679
   46MPD2    C1  714   3.355   3.506   9.804  1.0862 -0.8065  0.5507
   46MPD2    C2  715   3.316   3.554   9.677  0.2942 -0.4121  0.4627
   46MPD2    C3  716   3.203   3.494   9.625  0.1591 -0.1839  0.4146
   46MPD2    C4  717   3.134   3.396   9.688 -0.3167 -0.6998  0.4238
   46MPD2    C5  718   3.184   3.344   9.806 -0.1173 -0.6327  0.3381
   46MPD2     H  719   3.365   3.639   9.630 -0.6270 -0.1034  0.0503
   46MPD2    H1  720   3.040   3.357   9.651 -0.4862  0.9814 -0.9157
   46MPD2    H2  721   3.316   3.372   9.967  0.5009  1.8540  0.6881
   46MPD2    H3  722   3.126   3.267   9.856  0.8757 -1.8066 -0.3221
   46MPD2     N  723   3.158   3.554   9.508 -0.0116  0.1537 -0.5940
   46MPD2    H5  724   3.213   3.634   9.479 -1.3168  1.3753  0.3317
   46MPD2    N1  725   3.461   3.575   9.867  0.0309  0.2599  0.0227
   46MPD2    H7  726   3.519   3.634   9.808  1.5165  0.5330  1.7611
   47TMC2    C1  727   0.319   4.464   9.127  0.7352 -0.0883 -0.3322
   47TMC2    C2  728   0.244   4.382   9.205 -0.7054  0.0859  0.8236
   47TMC2    C3  729   0.120   4.427   9.249 -0.4161  0.7161  0.7468
   47TMC2    C4  730   0.276   4.587   9.079  0.2880 -0.8667 -0.4945
   47TMC2    C5  731   0.150   4.623   9.124 -0.4200  0.0195 -0.7906
   47TMC2    C6  732   0.078   4.547   9.215 -0.3022  0.1666 -0.3809
   47TMC2     C  733   0.462   4.442   9.122  0.3170  0.5261  0.0977
   47TMC2     O  734   0.520   4.500   9.033 -0.1071  0.4014  0.4148
   47TMC2     H  735   0.282   4.283   9.226  0.6688  0.0394 -1.8120
   47TMC2    H1  736   0.342   4.639   9.011  0.8061 -0.9863 -0.0866
   47TMC2    H2  737   4.715   4.583   9.245 -0.0165 -1.4857  2.5454
   47TMC2    C7  738   0.095   0.020   9.082 -0.1954 -0.7546  0.1238
   47TMC2    C8  739   0.053   4.331   9.334  0.7726  0.1873 -0.4870
   47TMC2    O1  740   0.015   0.073   9.155 -0.0438  0.5212  0.4110
   47TMC2    O2  741   0.108   4.232   9.367 -0.4908  0.1320  0.2589
   47TMC2    O5  742   4.702   4.395   9.406 -0.0394 -0.5194 -0.3373
   47TMC2    H5  743   4.652   4.474   9.377 -0.7587 -0.4238  1.1670
   48MPD2     C  744   0.763   4.380   9.176  0.6907  0.3265 -0.0291
   48MPD2    C1  745   0.655   4.372   9.263  0.6088 -0.4299 -0.4870
   48MPD2    C2  746   0.688   4.328   9.392  0.1469 -0.2785 -0.1413
   48MPD2    C3  747   0.814   4.301   9.431  0.2517  0.7752  0.1719
   48MPD2    C4  748   0.918   4.325   9.347  0.8223 -0.5574 -0.0025
   48MPD2    C5  749   0.893   4.364   9.222  0.2918  0.4621  0.3816
   48MPD2     H  750   0.611   4.314   9.467  0.6600 -0.8501  0.2736
   48MPD2    H1  751   1.021   4.300   9.368  0.2082 -4.5717 -1.8609
   48MPD2    H2  752   0.750   4.400   9.070  0.6289  1.8820  0.2581
   48MPD2    H3  753   0.974   4.361   9.150  1.7204 -0.2868  2.0384
   48MPD2     N  754   0.835   4.254   9.559  0.6046  0.0864  0.1041
   48MPD2    H5  755   0.749   4.256   9.612 -0.6424  1.7719 -1.9876
   48MPD2    N1  756   0.518   4.384   9.232 -0.5666 -0.6241 -0.4356
   48MPD2    H7  757   0.452   4.351   9.302 -0.1404  0.2689  0.4050
   49TMC2    C1  758   3.643   0.948  10.805  0.5105 -0.4211 -0.2638
   49TMC2    C2  759   3.630   0.811  10.779  0.5983  0.2080 -0.3900
   49TMC2    C3  760   3.552   0.743  10.861 -0.5527 -0.1014  0.2899
   49TMC2    C4  761   3.573   1.012  10.902  0.0463 -0.2128 -0.0983
   49TMC2    C5  762   3.488   0.936  10.973  0.0781 -0.5088  0.2303
   49TMC2    C6  763   3.480   0.799  10.960  0.0968  0.0106 -0.5114
   49TMC2     C  764   3.766   1.007  10.754  0.9052 -0.1894 -0.8735
   49TMC2     O  765   3.846   0.928  10.712  0.3032 -0.0396 -0.2873
   49TMC2     H  766   3.684   0.756  10.703 -0.4572 -0.9039 -0.3183
   49TMC2    H1  767   3.582   1.119  10.917 -2.0915 -0.1157  0.4156
   49TMC2    H2  768   3.395   0.759  11.015  0.2495  0.5498  0.1093
   49TMC2    C7  769   3.398   0.998  11.072  0.4652  0.4541 -0.3411
   49TMC2    C8  770   3.553   0.600  10.847  0.1934 -0.1552  0.3709
   49TMC2    O1  771   3.353   1.109  11.050 -0.1098  0.5431 -0.0302
   49TMC2    O2  772   3.592   0.546  10.743  0.0916 -0.5625  0.5694
   49TMC2    O5  773   3.528   0.541  10.969 -0.1788  0.5735  0.2155
   49TMC2    H5  774   3.503   0.598  11.045  0.5230  0.5733  0.4435
   50MPD2     C  775   4.036   1.140  10.738  0.5945 -0.5832 -0.2774
   50MPD2    C1  776   3.918   1.206  10.776 -0.6272  0.6876  0.5043
   50MPD2    C2  777   3.921   1.346  10.798  0.2740 -0.0436  0.7896
   50MPD2    C3  778   4.034   1.414  10.762  0.8739  0.8020  0.0670
   50MPD2    C4  779   4.146   1.342  10.733 -0.3191  0.4246 -0.8693
   50MPD2    C5  780   4.148   1.212  10.712  0.3185 -0.1229  0.4401
   50MPD2     H  781   3.827   1.392  10.825  0.1610 -0.0021  0.3360
   50MPD2    H1  782   4.243   1.387  10.717  0.1701  0.0722  0.9986
   50MPD2    H2  783   4.041   1.032  10.730 -1.7471 -0.6895 -0.3236
   50MPD2    H3  784   4.239   1.161  10.681  1.9070  0.9221  3.3538
   50MPD2     N  785   4.052   1.548  10.801 -0.2080 -0.0451  0.1656
   50MPD2    H5  786   4.149   1.578  10.812 -0.9143  2.7809 -1.3108
   50MPD2    N1  787   3.795   1.137  10.793  0.4562 -0.3582 -0.3367
   50MPD2    H7  788   3.720   1.189  10.836  1.6536 -1.8930  3.5909
   51TMC2    C1  789   0.070   0.482   1.088  0.5996  0.2200  0.1915
   51TMC2    C2  790   0.201   0.447   1.098 -0.5818 -0.3432 -0.6636
   51TMC2    C3  791   0.298   0.538   1.074  1.1134 -0.3574 -0.2295
   51TMC2    C4  792   0.036   0.617   1.071  0.1402 -0.0239  0.2841
   51TMC2    C5  793   0.138   0.709   1.049 -0.1156 -0.2759 -0.2730
   51TMC2    C6  794   0.266   0.663   1.039  0.7514  0.7336  1.1673
   51TMC2     C  795   4.706   0.378   1.091  0.9473 -0.4707 -0.4469
   51TMC2     O  796   0.011   0.274   1.040  0.5133 -0.1198 -0.4196
   51TMC2     H  797   0.208   0.346   1.138  0.8288  0.5586  1.3305
   51TMC2    H1  798   4.667   0.648   1.077 -0.5241 -2.0277 -0.8813
   51TMC2    H2  799   0.342   0.731   1.003  0.8285 -0.3801 -0.7594
   51TMC2    C7  800   0.111   0.848   1.034 -0.3446  0.3204 -0.1273
   51TMC2    C8  801   0.431   0.503   1.131  0.0351 -0.6744  0.3398
   51TMC2    O1  802   0.207   0.910   0.996  0.1410  0.6572  0.1503
   51TMC2    O2  803   0.508   0.583   1.181 -0.3979 -0.2455  0.0692
   51TMC2    O5  804   0.463   0.379   1.092  0.6807  0.4761  0.3940
   51TMC2    H5  805   0.406   0.347   1.019  1.7985  1.2623 -0.8305
   52MPD2     C  806   4.300   0.156   1.290 -0.5796  0.5675 -0.1617
   52MPD2    C1  807   4.396   0.107   1.209 -0.0827  0.1395  0.0715
   52MPD2    C2  808   4.486   0.196   1.159  0.1536  0.3212 -0.2430
   52MPD2    C3  809   4.498   0.322   1.205 -0.4035  0.1645  0.0941
   52MPD2    C4  810   4.404   0.371   1.294  0.2595  0.2180 -0.0691
   52MPD2    C5  811   4.301   0.286   1.329  0.3747  0.1819 -0.1282
   52MPD2     H  812   4.557   0.152   1.090  1.0369  0.1332  0.7800
   52MPD2    H1  813   4.401   0.473   1.331 -0.4472 -0.0615  0.6543
   52MPD2    H2  814   4.233   0.086   1.337 -0.2045  0.9105  0.8790
   52MPD2    H3  815   4.223   0.321   1.396  0.9845 -1.8323  1.6122
   52MPD2     N  816   4.605   0.412   1.174 -0.1823 -0.2876 -0.2563
   52MPD2    H5  817   4.604   0.500   1.224  0.3527 -0.9531  0.9117
   52MPD2    N1  818   4.399   4.706   1.174  0.2086 -0.0229  0.4854
   52MPD2    H7  819   4.452   4.678   1.092 -0.5515 -1.4972  0.5002
   53TMC2    C1  820   4.733   3.918  11.930  0.0851  0.6257  0.3511
   53TMC2    C2  821   0.112   3.857  11.967  0.5873 -0.7539 -0.3955
   53TMC2    C3  822   0.143   3.858  12.097  0.1062  0.0661  0.0810
   53TMC2    C4  823   4.644   3.962  12.018  0.7653 -0.0478 -0.1517
   53TMC2    C5  824   4.677   3.956  12.149  0.8604 -0.2435  0.4082
   53TMC2    C6  825   0.064   3.909  12.197  0.2300  0.2427  0.3422
   53TMC2     C  826   4.684   3.889  11.797 -0.2006  0.0748 -0.3712
   53TMC2     O  827   0.022   3.859  11.705  0.1156 -0.3341  0.6396
   53TMC2     H  828   0.164   3.808  11.886  1.9445  1.6387 -0.9932
   53TMC2    H1  829   4.556   4.020  11.992 -0.5735 -1.6194  0.8578
   53TMC2    H2  830   0.098   3.923  12.299  1.9327 -0.7620 -0.0863
   53TMC2    C7  831   4.565   3.973  12.243 -0.4656  0.3648 -0.1037
   53TMC2    C8  832   0.273   3.804  12.140 -0.2978 -0.2336  0.0336
   53TMC2    O1  833   4.458   3.998  12.182  0.8276  0.1600 -0.2508
   53TMC2    O2  834   0.306   3.780  12.255  0.4309 -0.0727 -0.1650
   53TMC2    O5  835   0.352   3.870  12.051  0.1864  0.4817  0.2661
   53TMC2    H5  836   0.322   3.879  11.958 -1.3872  0.4405  0.7822
   54MPD2     C  837   4.494   3.867  11.558  0.3182 -0.7629 -0.2241
   54MPD2    C1  838   4.457   3.883  11.693 -0.3321  0.3291  0.6684
   54MPD2    C2  839   4.329   3.881  11.732  0.0936  0.0114 -0.7693
   54MPD2    C3  840   4.229   3.850  11.642  0.2455 -0.7467  0.1383
   54MPD2    C4  841   4.265   3.831  11.517  0.4920 -0.4426 -0.8255
   54MPD2    C5  842   4.390   3.844  11.467 -0.2784  0.8438 -0.8384
   54MPD2     H  843   4.308   3.913  11.834  1.4102 -0.5144 -0.3239
   54MPD2    H1  844   4.186   3.800  11.449 -2.4490  0.5254  2.1182
   54MPD2    H2  845   4.599   3.856  11.531  0.8085  0.5248  1.1280
   54MPD2    H3  846   4.404   3.836  11.360  1.6109 -0.6649 -0.4826
   54MPD2     N  847   4.098   3.834  11.689 -0.2630  0.0295  0.3254
   54MPD2    H5  848   4.028   3.812  11.619  1.1638 -0.7936 -0.8408
   54MPD2    N1  849   4.545   3.891  11.803  0.1033 -0.1178 -0.5120
   54MPD2    H7  850   4.502   3.891  11.894  2.2345  0.1152  0.5014
   55TMC2    C1  851   1.121   2.245  17.264 -0.5219  0.6986 -0.6823
   55TMC2    C2  852   1.188   2.286  17.155  0.7429  0.5036  0.0054
   55TMC2    C3  853   1.254   2.192  17.080  0.7331  0.6831  0.1900
   55TMC2    C4  854   1.108   2.114  17.302 -0.0325 -0.0978 -0.2717
   55TMC2    C5  855   1.185   2.022  17.231  0.7837  0.0711 -0.1229
   55TMC2    C6  856   1.243   2.054  17.114 -0.5002  0.0021  0.0907
   55TMC2     C  857   1.042   2.338  17.341 -0.0650  0.2143  0.1122
   55TMC2     O  858   0.952   2.294  17.415  0.6213 -0.1249  0.4702
   55TMC2     H  859   1.183   2.384  17.108 -2.0588 -0.4031 -1.6214
   55TMC2    H1  860   1.060   2.098  17.397  0.1055  0.6746 -0.0673
   55TMC2    H2  861   1.284   1.978  17.049 -0.1185 -0.0254  0.3678
   55TMC2    C7  862   1.165   1.889  17.259 -0.6130 -0.1008 -0.1176
   55TMC2    C8  863   1.340   2.233  16.975  0.2486 -0.3945 -0.3079
   55TMC2    O1  864   1.175   1.797  17.178  0.1053 -0.5300 -0.6261
   55TMC2    O2  865   1.375   2.349  16.971 -0.4227 -0.4641 -0.2873
   55TMC2    O5  866   1.308   2.151  16.874 -0.1151 -0.3883  0.0240
   55TMC2    H5  867   1.365   2.159  16.794  0.0208  0.7439  0.2313
   56MPD2     C  868   1.026   2.690  17.267  0.1067  0.2875 -0.2361
   56MPD2    C1  869   0.986   2.577  17.334 -0.1164 -0.4371  0.4239
   56MPD2    C2  870   0.884   2.582  17.428 -0.2154 -0.1259 -0.0777
   56MPD2    C3  871   0.814   2.697  17.452 -0.0120  0.0850 -0.1276
   56MPD2    C4  872   0.847   2.815  17.385  0.5904  0.1839  0.1866
   56MPD2    C5  873   0.956   2.806  17.294 -0.6574  0.3437  0.0121
   56MPD2     H  874   0.843   2.501  17.487 -2.4730  0.2060 -1.1753
   56MPD2    H1  875   0.804   2.914  17.401  1.9466  0.9454 -0.8255
   56MPD2    H2  876   1.114   2.687  17.204 -1.4167 -0.7937 -2.3248
   56MPD2    H3  877   0.998   2.892  17.241  4.0076 -1.5060  0.7045
   56MPD2     N  878   0.722   2.707  17.560  0.0695 -0.2002 -0.2103
   56MPD2    H5  879   0.704   2.621  17.611  4.4037 -0.3006  1.1714
   56MPD2    N1  880   1.069   2.469  17.304 -0.3858  0.0020  0.6215
   56MPD2    H7  881   1.154   2.487  17.252  0.5238  0.9350  2.4077
   57TMC2    C1  882   4.638   2.993  12.856 -0.4983  0.3695 -0.5450
   57TMC2    C2  883   4.652   3.131  12.828  0.0266  0.8801 -0.3478
   57TMC2    C3  884   0.042   3.171  12.794 -0.7713  0.4365 -0.5799
   57TMC2    C4  885   0.001   2.904  12.852  0.0071 -0.3970 -0.4310
   57TMC2    C5  886   0.126   2.951  12.814 -0.2718  1.1325 -0.1729
   57TMC2    C6  887   0.147   3.080  12.770 -0.4558 -0.4566 -0.5219
   57TMC2     C  888   4.511   2.964  12.918  0.3714  0.4560 -0.2556
   57TMC2     O  889   4.483   3.033  13.018 -0.2620 -0.1926 -0.0182
   57TMC2     H  890   4.570   3.201  12.836 -0.6099  0.0086  0.8575
   57TMC2    H1  891   4.724   2.802  12.886 -0.8356 -0.3441 -0.5806
   57TMC2    H2  892   0.237   3.121  12.726 -0.1445  0.8779  1.3311
   57TMC2    C7  893   0.242   2.871  12.809 -0.3618  0.2782 -0.9363
   57TMC2    C8  894   0.037   3.288  12.720  1.0623 -0.3394 -0.3096
   57TMC2    O1  895   0.343   2.906  12.745 -0.2510  0.7081 -0.3669
   57TMC2    O2  896   0.106   3.310  12.620 -0.4871 -0.2190  0.2250
   57TMC2    O5  897   4.691   3.377  12.780  0.0963 -0.1211  0.2799
   57TMC2    H5  898   4.667   3.363  12.874  0.3213  0.0094  0.3582
   58MPD2     C  899   4.138   2.630  13.044  0.6901  0.3506 -0.2309
   58MPD2    C1  900   4.182   2.742  13.108 -0.0241 -0.3386 -0.1810
   58MPD2    C2  901   4.279   2.826  13.049  0.0374  0.4510  0.0363
   58MPD2    C3  902   4.347   2.777  12.938 -0.7219  0.7181  0.4869
   58MPD2    C4  903   4.294   2.670  12.868 -0.6891  0.1389 -0.2011
   58MPD2    C5  904   4.189   2.602  12.918  0.2416  0.0825  0.4173
   58MPD2     H  905   4.327   2.902  13.109 -1.0927  0.3351  1.0881
   58MPD2    H1  906   4.345   2.649  12.775  0.2156  0.2543  0.2612
   58MPD2    H2  907   4.052   2.573  13.080  0.8117  0.0527 -0.4156
   58MPD2    H3  908   4.158   2.506  12.877  2.0181  0.1059 -0.9893
   58MPD2     N  909   4.457   2.846  12.877 -0.0412 -0.4804 -0.0366
   58MPD2    H5  910   4.497   2.814  12.789 -1.6193 -1.3043 -0.4416
   58MPD2    N1  911   4.150   2.775  13.241  0.1815  0.1136  0.9443
   58MPD2    H7  912   4.198   2.854  13.282  0.2167  2.2454 -3.2500
   59TMC2    C1  913   1.867   2.536  12.984 -0.3265 -0.2068  0.5691
   59TMC2    C2  914   1.737   2.493  12.969 -0.1577 -0.5415  0.1655
   59TMC2    C3  915   1.710   2.470  12.838 -0.6003  0.0584 -0.2668
   59TMC2    C4  916   1.958   2.566  12.884 -0.4036  0.3065  0.5271
   59TMC2    C5  917   1.914   2.555  12.757 -0.4942 -0.7384  0.4079
   59TMC2    C6  918   1.785   2.507  12.731  0.5498 -0.2991 -0.3883
   59TMC2     C  919   1.895   2.580  13.122 -0.5293 -0.0182 -0.2197
   59TMC2     O  920   1.797   2.577  13.196 -0.1066 -0.5348  0.4948
   59TMC2     H  921   1.666   2.460  13.043 -0.4528 -0.3478 -0.0347
   59TMC2    H1  922   2.063   2.583  12.901  0.0098 -0.5660 -1.1872
   59TMC2    H2  923   1.765   2.471  12.631 -0.1074 -0.1898 -0.2960
   59TMC2    C7  924   2.007   2.552  12.648  0.2890  0.0573  0.9705
   59TMC2    C8  925   1.573   2.419  12.810  0.1857  0.0466 -0.6174
   59TMC2    O1  926   2.123   2.548  12.682 -0.1023  0.0780  0.1214
   59TMC2    O2  927   1.511   2.370  12.906 -0.4408 -0.1187 -0.4868
   59TMC2    O5  928   1.532   2.518  12.728 -0.0478  0.2466  0.9295
   59TMC2    H5  929   1.580   2.531  12.644 -0.5675  0.0844  0.6033
   60MPD2     C  930   1.987   2.726  13.363  0.1087 -0.0071 -0.1946
   60MPD2    C1  931   2.076   2.672  13.272  0.5625  0.6597 -0.1084
   60MPD2    C2  932   2.214   2.676  13.297  0.4114  0.0218  0.4300
   60MPD2    C3  933   2.257   2.722  13.415  0.8133  0.5099 -0.2437
   60MPD2    C4  934   2.167   2.794  13.495 -0.5606 -1.1508 -0.2680
   60MPD2    C5  935   2.040   2.805  13.459  0.1437 -0.1354  0.2613
   60MPD2     H  936   2.282   2.633  13.224 -0.8720  0.6318 -1.1363
   60MPD2    H1  937   2.195   2.846  13.586 -0.1989 -2.1771  0.2111
   60MPD2    H2  938   1.887   2.754  13.332 -0.5346 -2.3910 -0.2800
   60MPD2    H3  939   1.972   2.870  13.513 -1.4696 -1.3764 -0.2848
   60MPD2     N  940   2.397   2.726  13.452  0.1117  0.3466 -0.1080
   60MPD2    H5  941   2.420   2.796  13.521  0.8120  1.4497 -1.4666
   60MPD2    N1  942   2.026   2.614  13.155  0.0471  0.5212  0.1374
   60MPD2    H7  943   2.097   2.585  13.088 -1.1792 -2.6772  0.2366
   61TMC2    C1  944   1.562   4.185  15.350 -0.2394 -0.4411 -0.2349
   61TMC2    C2  945   1.438   4.153  15.408 -0.5369  0.4100 -0.3303
   61TMC2    C3  946   1.335   4.248  15.409  0.3169  0.2166  0.3645
   61TMC2    C4  947   1.572   4.298  15.272  0.0366 -0.1537  0.7694
   61TMC2    C5  948   1.468   4.388  15.285 -0.3010 -0.1585  0.2264
   61TMC2    C6  949   1.356   4.372  15.361  0.3771 -0.2806  0.1663
   61TMC2     C  950   1.639   4.066  15.317 -0.1083  0.3089 -0.0172
   61TMC2     O  951   1.630   3.969  15.387 -0.6727 -0.1605 -0.8564
   61TMC2     H  952   1.416   4.057  15.454 -0.2182  0.7689  0.5811
   61TMC2    H1  953   1.669   4.332  15.237  0.6031 -1.1864  1.3239
   61TMC2    H2  954   1.285   4.451  15.385  1.2909  0.1966  1.3272
   61TMC2    C7  955   1.482   4.513  15.221 -0.5583 -0.1336  0.2521
   61TMC2    C8  956   1.218   4.230  15.493  0.6783 -0.2657 -0.6167
   61TMC2    O1  957   1.575   4.518  15.142 -0.4939  0.2208  0.2960
   61TMC2    O2  958   1.153   4.330  15.541 -0.0129 -0.2744  0.6143
   61TMC2    O5  959   1.175   4.104  15.493 -0.1092  0.0028  0.1077
   61TMC2    H5  960   1.226   4.038  15.441  2.5680  0.9622  1.4991
   62MPD2     C  961   1.786   3.849  15.177  0.1742  0.3184  0.2170
   62MPD2    C1  962   1.799   3.985  15.152 -0.1695 -0.1266 -0.1099
   62MPD2    C2  963   1.906   4.018  15.059 -0.0253  0.3818 -0.2965
   62MPD2    C3  964   1.988   3.919  15.002  0.3197  0.0673  0.4719
   62MPD2    C4  965   1.974   3.787  15.032 -0.6535 -0.1287  0.2729
   62MPD2    C5  966   1.870   3.759  15.116  0.4181  0.1710 -0.5159
   62MPD2     H  967   1.930   4.122  15.043  1.8390  0.1748  1.1895
   62MPD2    H1  968   2.045   3.716  14.994 -1.4433 -0.1626 -1.1536
   62MPD2    H2  969   1.713   3.810  15.247  0.4285  1.9440  1.3751
   62MPD2    H3  970   1.860   3.652  15.132  0.2238  0.2039 -0.4183
   62MPD2     N  971   2.084   3.947  14.902 -0.1974 -0.5429  0.6807
   62MPD2    H5  972   2.131   3.862  14.870 -0.5249 -1.0277  1.4931
   62MPD2    N1  973   1.717   4.080  15.203  0.0233  0.0022 -0.3736
   62MPD2    H7  974   1.722   4.175  15.168 -0.7085 -0.6784 -2.3289
   63TMC2    C1  975   0.613   4.651  10.324  1.0370 -0.5552 -0.7937
   63TMC2    C2  976   0.574   0.046  10.362 -0.1640 -0.5309  0.2283
   63TMC2    C3  977   0.579   0.135  10.266  0.1115 -0.5757 -0.5233
   63TMC2    C4  978   0.651   4.621  10.198 -0.0680 -0.1726 -0.1683
   63TMC2    C5  979   0.650   4.718  10.108 -0.3006  0.5075  0.2706
   63TMC2    C6  980   0.611   0.112  10.140  0.1004  0.6087 -0.2205
   63TMC2     C  981   0.530   4.548  10.395 -0.0879 -0.7922  0.1539
   63TMC2     O  982   0.430   4.584  10.447  0.2641  0.4568 -0.0053
   63TMC2     H  983   0.531   0.059  10.461 -0.5921  1.7315 -0.2505
   63TMC2    H1  984   0.672   4.519  10.167  0.8623  0.6429 -2.2363
   63TMC2    H2  985   0.595   0.191  10.068  2.4066 -0.2520 -1.6778
   63TMC2    C7  986   0.630   4.681   9.966 -0.1918  0.3136 -0.0078
   63TMC2    C8  987   0.574   0.278  10.292 -0.4056 -0.1508 -0.1575
   63TMC2    O1  988   0.635   4.560   9.943  0.1768 -0.0169  0.4213
   63TMC2    O2  989   0.583   0.361  10.204 -0.0416  0.0717 -0.3212
   63TMC2    O5  990   0.614   0.297  10.417 -0.0033 -0.2265  0.0324
   63TMC2    H5  991   0.606   0.230  10.488  0.4857 -0.4031 -0.0798
   64MPD2     C  992   0.431   4.109  10.586 -0.1425  0.3106  0.2319
   64MPD2    C1  993   0.563   4.134  10.609 -0.1863  0.1357  0.3060
   64MPD2    C2  994   0.625   4.234  10.534 -0.1006 -0.8349 -0.5788
   64MPD2    C3  995   0.543   4.321  10.468 -0.7045  0.6940 -0.1734
   64MPD2    C4  996   0.403   4.303  10.447  0.5969  0.4279 -0.3772
   64MPD2    C5  997   0.356   4.189  10.503 -0.2895  0.1445  0.3309
   64MPD2     H  998   0.731   4.252  10.544 -0.2456  0.3993 -1.3214
   64MPD2    H1  999   0.329   4.370  10.407  0.8928  1.0687  0.1399
   64MPD2    H2 1000   0.376   4.026  10.629  0.1514  0.6492  1.2480
   64MPD2    H3 1001   0.248   4.180  10.502 -0.0729 -2.4890  0.9493
   64MPD2     N 1002   0.600   4.433  10.409 -0.5017  0.2660  0.2783
   64MPD2    H5 1003   0.701   4.432  10.410 -0.4732  1.2978 -1.3432
   64MPD2    N1 1004   0.649   4.054  10.689 -0.6542 -0.0136  0.6525
   64MPD2    H7 1005   0.743   4.092  10.693 -0.0858 -1.3878  0.4168
   65TMC2    C1 1006   2.953   3.824  15.703 -0.0899  0.0201 -0.2695
   65TMC2    C2 1007   2.957   3.915  15.806 -0.1194 -0.1767  0.0686
   65TMC2    C3 1008   2.864   4.009  15.806  0.5688 -0.1502  0.1052
   65TMC2    C4 1009   2.853   3.823  15.610  0.0935 -0.2227  0.2959
   65TMC2    C5 1010   2.753   3.917  15.616 -0.1518 -0.1263  0.0619
   65TMC2    C6 1011   2.758   4.012  15.717  0.3874 -0.2283  0.7449
   65TMC2     C 1012   3.030   3.701  15.733  0.0845 -0.1155 -0.7389
   65TMC2     O 1013   3.068   3.700  15.848 -0.1203  0.6015 -0.4723
   65TMC2     H 1014   3.041   3.915  15.874  1.6649 -1.4288 -2.1567
   65TMC2    H1 1015   2.848   3.736  15.545  2.1887 -1.7333  2.1292
   65TMC2    H2 1016   2.687   4.094  15.720 -0.7531 -1.2120  1.0576
   65TMC2    C7 1017   2.641   3.900  15.530  0.8705  0.6219  0.0209
   65TMC2    C8 1018   2.893   4.133  15.880  0.7548  0.1711 -0.2344
   65TMC2    O1 1019   2.659   3.820  15.440  0.3924  0.1951 -0.1581
   65TMC2    O2 1020   2.865   4.245  15.837 -0.0255 -0.0851 -0.6310
   65TMC2    O5 1021   2.960   4.113  15.991 -0.3450  0.5209  0.0248
   65TMC2    H5 1022   2.982   4.020  16.013 -2.6897  0.7233  3.2165
   66MPD2     C 1023   3.066   3.416  15.822 -0.2609 -0.2402  0.4592
   66MPD2    C1 1024   3.000   3.455  15.709 -0.1153 -0.2772  0.4034
   66MPD2    C2 1025   2.934   3.356  15.644 -0.0437  0.2926 -0.2058
   66MPD2    C3 1026   2.929   3.226  15.697  0.1468  0.3296 -0.6666
   66MPD2    C4 1027   3.000   3.191  15.812  0.1812  0.1393  0.4696
   66MPD2    C5 1028   3.074   3.287  15.870 -0.2515 -0.5479  0.5612
   66MPD2     H 1029   2.893   3.380  15.547 -0.7983 -0.6378 -0.1189
   66MPD2    H1 1030   3.014   3.091  15.851 -0.2130 -0.3714 -0.6895
   66MPD2    H2 1031   3.126   3.486  15.880  4.2848 -2.2902 -1.7083
   66MPD2    H3 1032   3.141   3.265  15.952  1.6433 -0.2217 -0.9103
   66MPD2     N 1033   2.870   3.117  15.632  0.1621  0.3669 -0.0200
   66MPD2    H5 1034   2.897   3.024  15.663  0.1964  0.8516  1.3898
   66MPD2    N1 1035   2.995   3.594  15.662  0.2285  0.0796  0.4635
   66MPD2    H7 1036   2.943   3.608  15.576  0.0266  2.2273  0.9349
   67TMC2    C1 1037   2.646   2.750  14.076  0.6023 -0.6624 -0.1398
   67TMC2    C2 1038   2.555   2.847  14.113  0.0272  0.0741  0.0318
   67TMC2    C3 1039   2.598   2.922  14.226 -0.2796  0.1741  0.8006
   67TMC2    C4 1040   2.762   2.725  14.137 -0.3851  0.2788 -0.0557
   67TMC2    C5 1041   2.785   2.786  14.260  0.2076  0.5882  0.9642
   67TMC2    C6 1042   2.706   2.891  14.303 -0.1976 -0.6352 -0.4005
   67TMC2     C 1043   2.607   2.661  13.960  0.3558  0.0747 -0.0837
   67TMC2     O 1044   2.699   2.593  13.914 -0.5574 -0.2468  0.1710
   67TMC2     H 1045   2.482   2.879  14.040  0.1779  0.1076 -0.1029
   67TMC2    H1 1046   2.829   2.645  14.108 -0.1780  0.8046 -1.0265
   67TMC2    H2 1047   2.728   2.956  14.388  1.0770 -2.0955  0.3913
   67TMC2    C7 1048   2.904   2.752  14.328  0.3733  0.3362  0.2258
   67TMC2    C8 1049   2.501   3.000  14.308  0.2008  0.7339  0.1967
   67TMC2    O1 1050   2.969   2.662  14.281 -0.0904  0.3432  0.1266
   67TMC2    O2 1051   2.526   3.077  14.398  0.0675 -0.0701  0.8792
   67TMC2    O5 1052   2.380   2.976  14.258 -0.3455  0.1054  0.5261
   67TMC2    H5 1053   2.379   2.888  14.216 -1.1806 -0.5830  1.9736
   68MPD2     C 1054   2.459   2.490  13.760  0.4456  0.0548  0.5485
   68MPD2    C1 1055   2.406   2.586  13.841 -0.3567  0.6092  0.1080
   68MPD2    C2 1056   2.275   2.608  13.847  0.2351 -0.1057 -0.6885
   68MPD2    C3 1057   2.191   2.546  13.759 -0.0853  0.6874  0.9496
   68MPD2    C4 1058   2.238   2.454  13.669 -0.2644 -0.5973  0.1993
   68MPD2    C5 1059   2.370   2.422  13.677  0.1838 -0.1695 -0.4574
   68MPD2     H 1060   2.242   2.690  13.910 -2.5617 -1.3209 -0.5725
   68MPD2    H1 1061   2.165   2.410  13.602 -0.4639  0.5728 -0.3485
   68MPD2    H2 1062   2.565   2.466  13.752 -0.2194 -2.0589 -1.7340
   68MPD2    H3 1063   2.410   2.347  13.609  1.0773  1.5198 -1.7911
   68MPD2     N 1064   2.049   2.567  13.768  0.5332  0.0486  0.5866
   68MPD2    H5 1065   1.992   2.514  13.702  0.8308 -0.7275  0.9641
   68MPD2    N1 1066   2.475   2.656  13.936 -0.3919 -0.7884 -0.0084
   68MPD2    H7 1067   2.424   2.700  14.011  0.7996  0.1914  0.2272
   69TMC2    C1 1068   4.350   4.353  12.395  0.0478 -0.8085  0.3525
   69TMC2    C2 1069   4.220   4.335  12.365  0.5208  0.3638 -0.4686
   69TMC2    C3 1070   4.193   4.323  12.232  0.0271 -0.0665  0.2636
   69TMC2    C4 1071   4.454   4.360  12.308 -0.5586 -0.2164  0.1990
   69TMC2    C5 1072   4.422   4.342  12.178  0.2428 -0.8940 -0.1078
   69TMC2    C6 1073   4.290   4.314  12.137 -0.4901 -0.2450  0.0922
   69TMC2     C 1074   4.386   4.343  12.536 -0.4904 -0.6908  0.0670
   69TMC2     O 1075   4.293   4.310  12.604 -0.3399  0.2037 -0.3629
   69TMC2     H 1076   4.143   4.315  12.439 -0.1766  0.0145 -1.2947
   69TMC2    H1 1077   4.555   4.341  12.340 -0.6023  0.4936  0.7862
   69TMC2    H2 1078   4.269   4.312  12.031 -0.8405  2.3254  0.1198
   69TMC2    C7 1079   4.537   4.309  12.087  0.3063 -0.2521  0.5366
   69TMC2    C8 1080   4.070   4.251  12.191  0.1220 -0.3678  0.3023
   69TMC2    O1 1081   4.653   4.321  12.133  0.2452 -0.3440  0.3129
   69TMC2    O2 1082   4.076   4.150  12.121  0.7633  0.0767  0.2353
   69TMC2    O5 1083   3.968   4.289  12.262  0.5011 -0.3648 -0.3875
   69TMC2    H5 1084   3.986   4.377  12.303  0.0198 -0.0907 -0.7552
   70MPD2     C 1085   4.701   4.428  12.727 -0.1854 -0.7449  0.6994
   70MPD2    C1 1086   4.581   4.365  12.692 -0.0580  0.2919  0.1909
   70MPD2    C2 1087   4.519   4.293  12.796  0.3013  0.3041 -0.4565
   70MPD2    C3 1088   4.581   4.275  12.916  0.1238  0.8659 -0.1067
   70MPD2    C4 1089   4.707   4.325  12.937 -0.6973 -0.6820  0.1675
   70MPD2    C5 1090   0.026   4.405  12.848  0.6698 -0.3939 -0.6961
   70MPD2     H 1091   4.419   4.257  12.776 -0.4606  0.7415  2.4876
   70MPD2    H1 1092   0.027   4.314  13.029 -1.3568  0.2622  0.6825
   70MPD2    H2 1093   0.023   4.480  12.651  0.0455 -1.2103  0.5523
   70MPD2    H3 1094   0.126   4.444  12.864  0.4926 -0.5234  0.8110
   70MPD2     N 1095   4.529   4.187  13.010  0.1362  0.2510  0.3403
   70MPD2    H5 1096   4.596   4.153  13.079  2.1579 -1.6488 -2.5600
   70MPD2    N1 1097   4.515   4.384  12.567  0.8314 -0.1360  0.8309
   70MPD2    H7 1098   4.569   4.433  12.496  0.5753 -2.9772 -1.3150
   71TMC2    C1 1099   1.553   0.265   0.898  0.2275  0.0626  0.7127
   71TMC2    C2 1100   1.614   0.324   1.000  0.5771  0.1398  0.6764
   71TMC2    C3 1101   1.541   0.405   1.081  0.4795  0.1641 -0.1828
   71TMC2    C4 1102   1.417   0.272   0.884  0.8143 -0.7892  0.7385
   71TMC2    C5 1103   1.347   0.338   0.974  0.8640  0.7323 -0.5668
   71TMC2    C6 1104   1.405   0.404   1.074  0.1025  0.9654  0.2404
   71TMC2     C 1105   1.645   0.199   0.800  0.5374  0.2672 -0.4721
   71TMC2     O 1106   1.766   0.219   0.808  0.0737 -0.0547  0.5648
   71TMC2     H 1107   1.718   0.302   1.023  1.4162  2.3690 -1.0658
   71TMC2    H1 1108   1.372   0.217   0.802 -0.8959  1.9427 -0.1283
   71TMC2    H2 1109   1.345   0.458   1.147  1.9741  1.6743  1.2473
   71TMC2    C7 1110   1.202   0.321   0.982 -0.2847  0.0415  0.3704
   71TMC2    C8 1111   1.611   0.463   1.195 -0.6296 -0.2859  0.1476
   71TMC2    O1 1112   1.159   0.338   1.096 -0.3478 -0.1814  0.0808
   71TMC2    O2 1113   1.731   0.485   1.189 -0.1482 -0.6405 -0.4183
   71TMC2    O5 1114   1.563   0.382   1.288  0.1203  0.0685  0.4441
   71TMC2    H5 1115   1.468   0.391   1.312 -0.1008 -2.3274  0.4703
   72MPD2     C 1116   1.729   4.583   0.434 -0.4755 -0.5612  0.2692
   72MPD2    C1 1117   1.808   4.688   0.479 -0.4038 -0.0525  0.0368
   72MPD2    C2 1118   1.764   0.029   0.584  0.7128 -0.2627 -0.5034
   72MPD2    C3 1119   1.633   0.009   0.637  0.0889 -0.4985  0.1077
   72MPD2    C4 1120   1.556   4.637   0.591  0.6081  0.6369  0.2276
   72MPD2    C5 1121   1.609   4.557   0.496 -0.2468  0.2757  0.3041
   72MPD2     H 1122   1.835   0.101   0.622 -0.6217  0.8909 -0.1990
   72MPD2    H1 1123   1.454   4.617   0.622  1.1072 -0.1331  1.3571
   72MPD2    H2 1124   1.750   4.515   0.352 -1.2095 -0.5838  0.0987
   72MPD2    H3 1125   1.545   4.475   0.465  1.0911 -1.0008  0.9084
   72MPD2     N 1126   1.576   0.098   0.736  0.2490  0.5725  0.1653
   72MPD2    H5 1127   1.488   0.063   0.771 -0.3953  0.3973 -1.6359
   72MPD2    N1 1128   1.945   4.710   0.452  0.1389 -0.5026  0.0495
   72MPD2    H7 1129   1.996   0.036   0.515  1.0760 -3.5789  2.2550
   73TMC2    C1 1130   1.663   1.838  13.246 -0.2309 -0.0248 -0.4185
   73TMC2    C2 1131   1.734   1.764  13.148  0.3588  0.4307 -0.5864
   73TMC2    C3 1132   1.696   1.640  13.123 -0.5395  0.4160  0.0261
   73TMC2    C4 1133   1.569   1.769  13.323 -0.3935 -0.2148  0.2431
   73TMC2    C5 1134   1.538   1.635  13.295 -0.4581 -0.4583 -0.2881
   73TMC2    C6 1135   1.603   1.574  13.192 -0.2401 -0.8286  0.0082
   73TMC2     C 1136   1.743   1.905  13.348 -0.0157 -0.9461 -0.4017
   73TMC2     O 1137   1.725   1.888  13.470 -0.3475 -1.2572 -0.3349
   73TMC2     H 1138   1.795   1.832  13.090  1.9185 -0.9005 -0.4985
   73TMC2    H1 1139   1.519   1.822  13.403  1.0639  0.2514  0.8285
   73TMC2    H2 1140   1.586   1.470  13.164  3.0334 -1.1171 -0.8500
   73TMC2    C7 1141   1.546   1.552  13.413  0.0372  0.2730  0.0527
   73TMC2    C8 1142   1.745   1.568  13.001  0.2054 -0.2148  0.4733
   73TMC2    O1 1143   1.523   1.432  13.394 -0.1228  0.1579 -0.2566
   73TMC2    O2 1144   1.674   1.488  12.942 -0.2233  0.5772  0.1026
   73TMC2    O5 1145   1.879   1.596  12.978  0.1277  0.1284  0.2929
   73TMC2    H5 1146   1.926   1.653  13.043 -0.2528 -0.4935  1.1070
   74MPD2     C 1147   2.196   2.115  13.474  0.0145 -0.2573  0.0661
   74MPD2    C1 1148   2.113   2.029  13.544  0.0239 -0.4048 -0.0575
   74MPD2    C2 1149   1.996   1.986  13.476  0.0060 -0.1215  0.5276
   74MPD2    C3 1150   1.957   2.035  13.354  0.3382 -0.6199 -0.6519
   74MPD2    C4 1151   2.036   2.125  13.289  0.3639 -0.0461  0.1741
   74MPD2    C5 1152   2.164   2.155  13.345  0.8103 -0.0868 -0.3848
   74MPD2     H 1153   1.927   1.921  13.528 -0.6211  1.3170  1.4596
   74MPD2    H1 1154   2.007   2.164  13.192  1.5451  1.6693  0.5140
   74MPD2    H2 1155   2.283   2.151  13.529 -0.1135 -0.4818  0.4124
   74MPD2    H3 1156   2.225   2.232  13.300  0.7087 -0.0668 -0.4876
   74MPD2     N 1157   1.849   1.973  13.286 -0.4081  0.4392  0.0815
   74MPD2    H5 1158   1.838   2.019  13.196 -0.2730 -0.4028 -0.3723
   74MPD2    N1 1159   2.150   1.992  13.678 -0.5932 -0.2982  0.1179
   74MPD2    H7 1160   2.243   2.020  13.707 -0.2355  0.3642 -1.6436
   75TMC2    C1 1161   1.834   2.652  13.830  0.3255 -0.0058  0.3332
   75TMC2    C2 1162   1.759   2.628  13.940  0.2024  0.3543 -0.1957
   75TMC2    C3 1163   1.630   2.606  13.926 -0.5993  0.0488 -0.1503
   75TMC2    C4 1164   1.782   2.659  13.701 -0.1038 -0.2286  0.6804
   75TMC2    C5 1165   1.645   2.656  13.694  0.2178 -0.1068  0.5836
   75TMC2    C6 1166   1.562   2.633  13.808  0.0279 -0.4759 -0.2494
   75TMC2     C 1167   1.978   2.651  13.855 -1.5957  0.0029  0.2890
   75TMC2     O 1168   2.012   2.707  13.958  0.6524  0.6349 -0.7325
   75TMC2     H 1169   1.811   2.603  14.032  0.8585 -0.5324 -0.8104
   75TMC2    H1 1170   1.842   2.679  13.613  0.8948  0.0126  1.4182
   75TMC2    H2 1171   1.456   2.607  13.806  0.1033 -0.8284  0.4004
   75TMC2    C7 1172   1.562   2.672  13.578  0.1129  0.7948  0.0838
   75TMC2    C8 1173   1.567   2.540  14.040  0.3810  0.9853  0.4949
   75TMC2    O1 1174   1.621   2.665  13.473  0.8655 -0.5153 -0.3209
   75TMC2    O2 1175   1.623   2.475  14.126  0.4107  0.2749 -0.5459
   75TMC2    O5 1176   1.438   2.561  14.018  0.0245 -0.1509  0.2026
   75TMC2    H5 1177   1.418   2.636  13.958  0.2515  1.1482  1.7786
   76TMC2    C1 1178   0.578   3.287  11.919 -0.1272  0.2000 -0.4334
   76TMC2    C2 1179   0.445   3.244  11.912 -0.1666  0.3671 -0.3610
   76TMC2    C3 1180   0.421   3.106  11.929  0.5283  0.5795 -0.3590
   76TMC2    C4 1181   0.679   3.200  11.951  0.4983  0.4345 -0.2410
   76TMC2    C5 1182   0.647   3.070  11.983  0.0521 -0.5185  0.4156
   76TMC2    C6 1183   0.524   3.015  11.965  0.4045  0.1901 -0.2949
   76TMC2     C 1184   0.601   3.426  11.873 -0.4738  1.0288 -0.2691
   76TMC2     O 1185   0.510   3.476  11.810  0.0092  0.8129 -0.2691
   76TMC2     H 1186   0.359   3.309  11.901 -0.2549 -0.0668 -2.1971
   76TMC2    H1 1187   0.783   3.225  11.935  1.1094 -1.5197  0.7380
   76TMC2    H2 1188   0.495   2.915  11.994  0.9221  0.5149  1.3435
   76TMC2    C7 1189   0.746   2.976  12.045 -0.1147 -0.4458 -0.7295
   76TMC2    C8 1190   0.289   3.049  11.899  0.4077 -0.1374  0.2038
   76TMC2    O1 1191   0.706   2.864  12.059  0.3125 -0.0317  0.0104
   76TMC2    O2 1192   0.266   2.928  11.895  0.0659  0.1996  0.1115
   76TMC2    O5 1193   0.246   3.139  11.806 -0.1981  0.3259  0.4785
   76TMC2    H5 1194   0.259   3.232  11.837 -0.6291  0.1305  1.2554
   77MPD2     C 1195   0.882   3.859  11.824 -0.5131 -0.4255 -0.1555
   77MPD2    C1 1196   0.745   3.838  11.808  0.1092  0.2478  0.6588
   77MPD2    C2 1197   0.692   3.713  11.830 -0.3653 -0.2882 -0.8614
   77MPD2    C3 1198   0.775   3.602  11.869  0.1919 -0.1910 -0.2012
   77MPD2    C4 1199   0.912   3.629  11.887  0.3385 -0.9007 -0.7861
   77MPD2    C5 1200   0.960   3.750  11.860 -0.5298  0.0827  0.2488
   77MPD2     H 1201   0.586   3.718  11.809 -0.6346  2.5187  1.2606
   77MPD2    H1 1202   0.974   3.555  11.937 -0.3231 -0.7872  0.2035
   77MPD2    H2 1203   0.941   3.950  11.821  1.4254 -1.6682 -0.1778
   77MPD2    H3 1204   1.063   3.771  11.889 -0.9616  2.3435  0.1562
   77MPD2     N 1205   0.725   3.477  11.908  0.0733 -0.2333  0.1031
   77MPD2    H5 1206   0.784   3.411  11.958 -0.1440 -1.7440 -1.6437
   77MPD2    N1 1207   0.665   3.943  11.771 -0.4105 -0.2855  0.4748
   77MPD2    H7 1208   0.566   3.921  11.773 -0.3202 -0.6709  0.9151
   78TMC2    C1 1209   2.361   4.563   1.928 -0.8239  0.2875 -0.6071
   78TMC2    C2 1210   2.236   4.540   1.978  0.3584  0.4177 -0.1338
   78TMC2    C3 1211   2.132   4.547   1.885 -0.5529  0.4288 -0.2804
   78TMC2    C4 1212   2.390   4.592   1.802 -0.3943  0.4795  0.1790
   78TMC2    C5 1213   2.282   4.610   1.717  0.6523  0.0275  0.1116
   78TMC2    C6 1214   2.154   4.581   1.755 -0.0602  0.5567  0.2523
   78TMC2     C 1215   2.469   4.544   2.025  0.5947 -0.5644 -0.5689
   78TMC2     O 1216   2.443   4.473   2.119  0.2155  0.1670  1.3122
   78TMC2     H 1217   2.222   4.530   2.085  0.1560  1.3374 -0.0742
   78TMC2    H1 1218   2.491   4.607   1.766 -0.7544 -0.6725 -1.2881
   78TMC2    H2 1219   2.071   4.570   1.686 -1.9094  1.9068  2.2635
   78TMC2    C7 1220   2.315   4.646   1.580 -0.5158  0.0883 -0.2096
   78TMC2    C8 1221   2.007   4.490   1.919  0.0026 -0.0439  0.1440
   78TMC2    O1 1222   2.429   4.614   1.544  0.2823 -0.2534  0.3063
   78TMC2    O2 1223   1.915   4.487   1.842 -0.2034  0.1499  0.0530
   78TMC2    O5 1224   2.021   4.408   2.022  0.5494  0.0408  0.0766
   78TMC2    H5 1225   2.112   4.413   2.059  0.3434 -0.1082  0.5972
   79MPD1     C 1226   2.969   4.543   2.069  0.1579 -0.2557 -0.4043
   79MPD1    C1 1227   2.878   4.451   2.119 -0.1390 -0.4887  0.2131
   79MPD1    C2 1228   2.744   4.482   2.103  0.0901 -0.2203  0.1457
   79MPD1    C3 1229   2.709   4.589   2.025  1.3488 -0.0982 -0.1379
   79MPD1    C4 1230   2.802   4.682   1.990  0.1376 -0.2799 -0.4832
   79MPD1    C5 1231   2.932   4.658   2.010  0.6021 -0.4235 -0.2718
   79MPD1     H 1232   2.670   4.419   2.152 -1.0735  1.2809  0.3446
   79MPD1    H1 1233   2.775   0.033   1.930 -2.9303 -0.3199  0.8460
   79MPD1    H2 1234   3.074   4.535   2.095  0.7008 -0.2444 -2.6214
   79MPD1    H3 1235   2.997   0.004   1.980  0.3064 -0.2876 -0.5409
   79MPD1     N 1236   2.577   4.621   1.993  0.4480 -0.3021 -0.1115
   79MPD1    H5 1237   2.553   4.695   1.928  0.6120  0.8374  1.1163
   79MPD1    N1 1238   2.912   4.345   2.207 -0.4447  0.2365  0.0267
   79MPD1    H6 1239   3.003   4.299   2.204  0.6398  2.2620  1.6948
   79MPD1    H7 1240   2.836   4.283   2.235 -0.4223 -0.0349 -0.5151
   80TMC2    C1 1241   4.462   3.555  11.884  0.2496 -0.1804 -0.6525
   80TMC2    C2 1242   4.508   3.553  11.754  0.1990 -1.4980 -0.5624
   80TMC2    C3 1243   4.421   3.530  11.654  0.6622 -0.0209 -0.3853
   80TMC2    C4 1244   4.330   3.549  11.908 -0.3789 -0.6176 -0.1937
   80TMC2    C5 1245   4.245   3.533  11.804 -0.4453 -0.4311 -0.1507
   80TMC2    C6 1246   4.288   3.527  11.674 -0.4126  0.2436 -0.4221
   80TMC2     C 1247   4.555   3.542  12.000  0.0428 -0.4094 -0.1855
   80TMC2     O 1248   4.672   3.535  11.965 -0.0120 -0.2830 -0.2747
   80TMC2     H 1249   4.612   3.557  11.724  0.2730 -2.4125 -0.4259
   80TMC2    H1 1250   4.287   3.545  12.007 -0.1148 -1.4054 -0.1120
   80TMC2    H2 1251   4.218   3.525  11.592 -0.9242  2.3921 -0.0370
   80TMC2    C7 1252   4.102   3.493  11.823 -0.4610 -0.9171  0.1816
   80TMC2    C8 1253   4.469   3.497  11.520 -0.0920  0.0227  0.2635
   80TMC2    O1 1254   4.021   3.528  11.742 -0.1810  0.6321 -0.6298
   80TMC2    O2 1255   4.579   3.539  11.481 -0.1070  0.0761 -0.2248
   80TMC2    O5 1256   4.387   3.404  11.474 -0.5548  0.3224 -0.2453
   80TMC2    H5 1257   4.321   3.368  11.537  2.0488 -3.5694  0.2283
   81MPD2     C 1258   4.692   3.544  12.265  0.1449  0.2697  0.1429
   81MPD2    C1 1259   4.560   3.573  12.251  0.4210  0.6868  0.1330
   81MPD2    C2 1260   4.491   3.596  12.366  0.1233 -0.8384 -0.6974
   81MPD2    C3 1261   4.550   3.589  12.491 -0.0175  0.5548  0.3209
   81MPD2    C4 1262   4.684   3.568  12.499  0.7792 -0.5363 -0.5213
   81MPD2    C5 1263   0.025   3.544  12.387 -0.7265 -0.4483 -0.9473
   81MPD2     H 1264   4.387   3.627  12.372  0.8284  0.5971  4.6929
   81MPD2    H1 1265   4.734   3.557  12.595  1.1575  0.9647 -0.5538
   81MPD2    H2 1266   0.013   3.537  12.172 -2.6095 -0.9688 -1.4268
   81MPD2    H3 1267   0.124   3.502  12.398 -0.4673  0.5431  0.4727
   81MPD2     N 1268   4.482   3.613  12.616  0.0592  0.0072 -0.3167
   81MPD2    H5 1269   4.540   3.624  12.699  0.3240  0.9072 -0.6173
   81MPD2    N1 1270   4.494   3.563  12.128  0.1054  0.2992 -0.6864
   81MPD2    H7 1271   4.394   3.579  12.136  0.4603  2.6526 -1.1403
   82TMC2    C1 1272   1.913   2.846  11.236  0.8294 -0.3808 -0.2445
   82TMC2    C2 1273   1.839   2.920  11.324 -0.7586  0.1667 -0.2318
   82TMC2    C3 1274   1.866   2.896  11.455  0.4913 -0.4031  0.7722
   82TMC2    C4 1275   1.958   2.721  11.269 -0.2054 -0.2409  0.1444
   82TMC2    C5 1276   1.964   2.691  11.405  0.4221 -0.2906  0.4051
   82TMC2    C6 1277   1.910   2.774  11.498  0.3238 -0.2368  0.1785
   82TMC2     C 1278   1.921   2.885  11.091 -0.1484  0.2724 -0.3416
   82TMC2     O 1279   1.856   2.822  11.009 -0.0615  0.0869 -0.4034
   82TMC2     H 1280   1.800   3.019  11.300  0.3355  0.2162 -1.8005
   82TMC2    H1 1281   2.007   2.666  11.189  0.9341  1.1523 -0.1239
   82TMC2    H2 1282   1.913   2.752  11.604 -0.3630 -2.7339 -0.3192
   82TMC2    C7 1283   2.047   2.578  11.448  0.5016 -0.4108 -0.2957
   82TMC2    C8 1284   1.789   2.975  11.549  0.1407 -0.2270  0.3677
   82TMC2    O1 1285   2.060   2.552  11.561  0.1776  0.1081  0.1273
   82TMC2    O2 1286   1.679   3.020  11.525  0.3421  0.4041 -0.2893
   82TMC2    O5 1287   1.872   3.011  11.651  0.0272  0.4391 -0.1039
   82TMC2    H5 1288   1.961   2.972  11.645 -0.1146 -0.0272  0.7577
   83MPD2     C 1289   2.081   3.224  10.736 -0.1001  0.3823  0.4665
   83MPD2    C1 1290   1.971   3.142  10.730  0.0442 -0.3188  0.6854
   83MPD2    C2 1291   1.940   3.078  10.850 -0.3691 -0.2975 -0.5678
   83MPD2    C3 1292   2.018   3.083  10.957  0.1859  0.3596  0.4148
   83MPD2    C4 1293   2.130   3.158  10.959 -0.1494 -0.0687 -0.8504
   83MPD2    C5 1294   2.156   3.232  10.853 -0.7951 -0.3126  0.2374
   83MPD2     H 1295   1.868   2.997  10.852  0.4925 -1.0656 -0.9040
   83MPD2    H1 1296   2.194   3.172  11.046 -6.3584 -1.6383  4.0332
   83MPD2    H2 1297   2.116   3.281  10.650 -1.7803  0.8717  0.0953
   83MPD2    H3 1298   2.240   3.301  10.849 -2.3412  1.5234 -0.7742
   83MPD2     N 1299   1.992   3.004  11.073  0.1408  0.2749  0.8266
   83MPD2    H5 1300   2.046   3.026  11.156  0.8681  0.2919  0.3482
   83MPD2    N1 1301   1.894   3.139  10.607  0.0034 -0.1405  0.5969
   83MPD2    H7 1302   1.925   3.196  10.528  1.6624 -0.0474  1.3238
   84TMC2    C1 1303   4.006   1.914  11.072  0.1742  0.5655  1.4242
   84TMC2    C2 1304   4.104   1.992  11.017  0.6302  0.2753  0.0999
   84TMC2    C3 1305   4.152   1.935  10.896 -0.0578  0.0172  0.5237
   84TMC2    C4 1306   3.958   1.791  11.021 -0.5006 -0.5938  0.0886
   84TMC2    C5 1307   4.005   1.755  10.898  0.1955  0.5978 -0.1056
   84TMC2    C6 1308   4.107   1.818  10.831 -0.6363 -0.4665 -0.9103
   84TMC2     C 1309   3.951   1.962  11.200  0.3694  0.1666 -0.5913
   84TMC2     O 1310   3.892   1.879  11.269 -0.2378  0.1601  0.4348
   84TMC2     H 1311   4.147   2.074  11.073  0.4287 -0.2680  1.0549
   84TMC2    H1 1312   3.876   1.740  11.069 -1.4079  0.4377 -0.3700
   84TMC2    H2 1313   4.134   1.791  10.729  2.0638  3.2339 -1.1846
   84TMC2    C7 1314   3.956   1.633  10.852  0.3938 -0.0191 -0.2891
   84TMC2    C8 1315   4.255   2.007  10.833 -0.0770  1.0523 -0.6444
   84TMC2    O1 1316   3.832   1.619  10.852 -0.0017  0.3041 -0.7591
   84TMC2    O2 1317   4.335   1.943  10.764  0.3981 -0.1702  0.0813
   84TMC2    O5 1318   4.224   2.138  10.835 -0.2433  0.5544 -0.5467
   84TMC2    H5 1319   4.142   2.161  10.884  0.6125  2.5336 -0.0783
   85TMC2    C1 1320   0.396   4.674  15.858 -0.7048  0.5288 -0.6894
   85TMC2    C2 1321   0.375   0.041  15.949  0.2022  0.4054 -0.6115
   85TMC2    C3 1322   0.352   0.165  15.888 -0.0987  0.4491 -0.0769
   85TMC2    C4 1323   0.388   4.685  15.719  0.3081  0.1992  0.0172
   85TMC2    C5 1324   0.370   0.078  15.682  0.2562 -0.7070  0.5626
   85TMC2    C6 1325   0.346   0.189  15.755  0.0109  0.5484 -0.3425
   85TMC2     C 1326   0.386   4.531  15.902  0.8255 -0.1779 -0.3050
   85TMC2     O 1327   0.348   4.445  15.821 -0.1529  0.3822  0.4017
   85TMC2     H 1328   0.387   0.033  16.057 -1.1201 -1.1570 -0.5750
   85TMC2    H1 1329   0.404   4.610  15.644 -0.5704 -0.0342  0.0607
   85TMC2    H2 1330   0.335   0.293  15.725  1.3627  1.2952  1.7304
   85TMC2    C7 1331   0.386   0.104  15.540 -0.0483 -0.0456 -1.1230
   85TMC2    C8 1332   0.336   0.282  15.972  0.0080  0.1715  0.6067
   85TMC2    O1 1333   0.430   0.010  15.472 -0.5843 -0.2447  0.2657
   85TMC2    O2 1334   0.323   0.398  15.934 -0.5158  0.2407  0.2646
   85TMC2    O5 1335   0.283   0.244  16.086  0.1489  0.1433  0.3721
   85TMC2    H5 1336   0.258   0.152  16.108 -1.3775  0.8568  1.6321
   86MPD2     C 1337   0.239   4.262  16.314  0.5401 -0.0051 -0.6528
   86MPD2    C1 1338   0.203   4.250  16.181  0.2724  0.4432  0.5883
   86MPD2    C2 1339   0.263   4.328  16.088 -1.1018  0.3614 -0.2055
   86MPD2    C3 1340   0.352   4.427  16.125  0.2263  0.5562 -0.8294
   86MPD2    C4 1341   0.406   4.429  16.259  0.4218  0.3471 -0.3852
   86MPD2    C5 1342   0.342   4.347  16.350 -0.4264  0.2339 -0.3407
   86MPD2     H 1343   0.220   4.331  15.988 -1.3146 -1.3843 -0.1531
   86MPD2    H1 1344   0.482   4.498  16.296  1.1465 -1.5264  1.5869
   86MPD2    H2 1345   0.199   4.195  16.390 -1.2539  2.4356  0.5532
   86MPD2    H3 1346   0.369   4.355  16.454 -0.8771  2.2246 -0.3898
   86MPD2     N 1347   0.405   4.524  16.038  0.4921  0.4216 -0.4368
   86MPD2    H5 1348   0.452   4.602  16.082  0.8303  0.1352 -0.2940
   86MPD2    N1 1349   0.106   4.160  16.145  0.2916  0.6149 -0.0184
   86MPD2    H7 1350   0.098   4.140  16.045  2.5655  0.1896 -0.1076
   87TMC2    C1 1351   1.994   3.404   1.028 -0.4693  0.3338  0.0062
   87TMC2    C2 1352   1.880   3.351   1.088 -0.1890  0.2595  0.4880
   87TMC2    C3 1353   1.813   3.436   1.169  0.0210 -0.2503 -0.2354
   87TMC2    C4 1354   2.032   3.533   1.045 -0.6127 -0.0150  0.2604
   87TMC2    C5 1355   1.954   3.615   1.123  0.1839  0.5412  0.0968
   87TMC2    C6 1356   1.845   3.566   1.189 -0.1325 -0.3940 -0.1314
   87TMC2     C 1357   2.078   3.323   0.943 -0.2167  0.0915  0.8200
   87TMC2     O 1358   2.164   3.383   0.886  0.1753 -0.4312  0.0483
   87TMC2     H 1359   1.848   3.249   1.070 -0.1152  0.5761 -1.4221
   87TMC2    H1 1360   2.130   3.568   1.012 -0.5810 -2.5316 -2.3421
   87TMC2    H2 1361   1.779   3.622   1.253 -0.3838  1.3853 -1.9507
   87TMC2    C7 1362   1.977   3.761   1.103 -0.6247  0.1023 -0.2666
   87TMC2    C8 1363   1.677   3.406   1.212  0.0566 -0.2538 -0.0691
   87TMC2    O1 1364   2.062   3.787   1.017  0.0504  0.0450 -0.5052
   87TMC2    O2 1365   1.639   3.432   1.321  0.2901 -0.6463 -0.0585
   87TMC2    O5 1366   1.596   3.421   1.104 -0.4121  0.0345  0.1160
   87TMC2    H5 1367   1.633   3.408   1.014 -0.7620  1.1140 -0.1843
   88MPD2     C 1368   1.793   4.063   1.188  0.5275  0.4770 -0.0683
   88MPD2    C1 1369   1.893   3.993   1.127  0.5060  1.0748 -0.1134
   88MPD2    C2 1370   1.950   4.041   1.006 -0.4220  0.1573 -0.1709
   88MPD2    C3 1371   1.922   4.168   0.966  0.1961  0.2774 -0.6314
   88MPD2    C4 1372   1.832   4.243   1.041  0.0059 -0.0643  0.0739
   88MPD2    C5 1373   1.773   4.195   1.152 -0.9774 -1.0235  0.0097
   88MPD2     H 1374   2.011   3.975   0.945  0.5180  1.9665 -1.1816
   88MPD2    H1 1375   1.813   4.345   1.011 -0.7253 -0.2284 -0.0309
   88MPD2    H2 1376   1.731   4.018   1.264 -2.8206  0.8924 -2.5594
   88MPD2    H3 1377   1.696   4.249   1.208  0.8025  0.9712  0.5439
   88MPD2     N 1378   1.966   4.215   0.844  0.5393  0.1383  0.4684
   88MPD2    H5 1379   1.915   4.296   0.810  0.2851  0.3559  1.3722
   88MPD2    N1 1380   1.900   3.856   1.166  0.3255  0.3345  0.0892
   88MPD2    H7 1381   1.840   3.818   1.238 -0.3028 -3.0544 -2.2188
   89TMC2    C1 1382   3.559   0.356   1.561  0.7348  0.2330  0.8776
   89TMC2    C2 1383   3.691   0.362   1.520 -0.3600  0.4285 -0.1077
   89TMC2    C3 1384   3.725   0.462   1.433  0.0954 -0.1624 -0.0213
   89TMC2    C4 1385   3.469   0.451   1.514  0.8875  0.0898 -0.5809
   89TMC2    C5 1386   3.514   0.545   1.425  0.1091  0.0764  0.6114
   89TMC2    C6 1387   3.646   0.558   1.381  0.0111 -0.7278  0.6032
   89TMC2     C 1388   3.504   0.229   1.595  0.2432 -0.4542 -0.2075
   89TMC2     O 1389   3.585   0.138   1.609 -0.0844 -0.1937 -0.5823
   89TMC2     H 1390   3.755   0.276   1.536 -0.3051  0.4632 -0.1436
   89TMC2    H1 1391   3.370   0.466   1.555  0.9793 -1.2611  0.1113
   89TMC2    H2 1392   3.686   0.640   1.323 -1.5473 -1.3033 -1.3295
   89TMC2    C7 1393   3.406   0.623   1.361  0.6385  0.7450 -0.4733
   89TMC2    C8 1394   3.866   0.484   1.399 -0.2162 -0.1229  0.9141
   89TMC2    O1 1395   3.294   0.592   1.390 -0.3166 -0.2917  0.1306
   89TMC2    O2 1396   3.902   0.562   1.311 -0.3175  0.0215 -0.0835
   89TMC2    O5 1397   3.943   0.453   1.508  0.2085 -0.0762 -0.6079
   89TMC2    H5 1398   3.894   0.425   1.588  1.5455 -1.7999 -0.3945
   90MPD2     C 1399   3.103   4.653   1.674 -0.3215 -0.2466  0.5424
   90MPD2    C1 1400   3.055   0.036   1.620 -0.0605  0.7747  0.8610
   90MPD2    C2 1401   3.145   0.141   1.603  0.8768 -0.3493 -0.2737
   90MPD2    C3 1402   3.278   0.120   1.623 -0.9144 -0.2810  0.2970
   90MPD2    C4 1403   3.325   4.732   1.667 -0.5259 -0.8061 -0.4162
   90MPD2    C5 1404   3.236   4.637   1.697 -0.0728  0.2003  0.0316
   90MPD2     H 1405   3.107   0.231   1.557 -1.8260  0.3203  3.2891
   90MPD2    H1 1406   3.427   4.712   1.698 -0.3104 -1.3680 -1.4925
   90MPD2    H2 1407   3.028   4.576   1.687  0.5112 -0.7958  2.1130
   90MPD2    H3 1408   3.271   4.536   1.716  1.3003  0.3426 -1.7942
   90MPD2     N 1409   3.367   0.231   1.592  0.2201 -0.2078 -0.3330
   90MPD2    H5 1410   3.325   0.321   1.570 -0.9085 -0.9117 -1.0692
   90MPD2    N1 1411   2.923   0.041   1.581 -0.4994 -0.2249  0.2381
   90MPD2    H7 1412   2.856   4.705   1.606 -0.2183 -0.9525 -1.0689
   91TMC2    C1 1413   0.020   0.540  15.841 -0.5088  0.2224  0.9572
   91TMC2    C2 1414   4.664   0.623  15.904 -0.5977  0.6435  0.4617
   91TMC2    C3 1415   4.542   0.571  15.927  0.3467 -0.6030 -0.8034
   91TMC2    C4 1416   4.728   0.411  15.808  0.4801 -0.5876 -0.3112
   91TMC2    C5 1417   4.599   0.362  15.830  0.6556 -0.2220 -0.9221
   91TMC2    C6 1418   4.500   0.442  15.889  1.3685  0.1757 -0.6171
   91TMC2     C 1419   0.132   0.603  15.769 -0.1852 -0.2391 -0.3688
   91TMC2     O 1420   0.168   0.535  15.679 -0.3128  0.4090 -0.5192
   91TMC2     H 1421   4.687   0.727  15.923  2.0958 -0.0970  1.1809
   91TMC2    H1 1422   0.062   0.350  15.752  0.8354  0.0522 -0.5658
   91TMC2    H2 1423   4.404   0.405  15.921  1.5415 -0.0912 -0.4112
   91TMC2    C7 1424   4.565   0.226  15.778  0.0237 -0.0061 -0.4421
   91TMC2    C8 1425   4.447   0.647  16.006  0.6974  0.8606  0.0626
   91TMC2    O1 1426   4.660   0.149  15.779 -0.0090 -0.5123 -0.0639
   91TMC2    O2 1427   4.389   0.617  16.106  0.3229 -0.3081  0.7987
   91TMC2    O5 1428   4.481   0.780  15.990 -0.8001 -0.0473  0.3067
   91TMC2    H5 1429   4.535   0.802  15.912  0.4771  0.5395  1.3541
   92MPD2     C 1430   0.321   0.798  15.645 -0.1785  0.6132 -0.3334
   92MPD2    C1 1431   0.286   0.799  15.777 -0.0846  0.1409  0.0727
   92MPD2    C2 1432   0.353   0.887  15.865  0.4971  0.5526  0.7353
   92MPD2    C3 1433   0.460   0.961  15.818 -0.0295 -0.9137  0.2712
   92MPD2    C4 1434   0.505   0.941  15.691 -0.1038  0.1738 -0.3875
   92MPD2    C5 1435   0.429   0.873  15.602 -0.6495 -0.1642  0.3164
   92MPD2     H 1436   0.315   0.907  15.964  0.9019  0.5094  0.8964
   92MPD2    H1 1437   0.587   1.004  15.657  1.3481  0.1021  2.9711
   92MPD2    H2 1438   0.264   0.753  15.565 -0.9519  2.5152 -0.8606
   92MPD2    H3 1439   0.465   0.858  15.501  0.1052 -0.8918  0.6939
   92MPD2     N 1440   0.533   1.035  15.908 -0.4648  0.1263 -0.0897
   92MPD2    H5 1441   0.507   1.023  16.006  0.1418 -2.1281 -0.1933
   92MPD2    N1 1442   0.183   0.717  15.833  0.0303  0.0096 -0.1290
   92MPD2    H7 1443   0.140   0.735  15.923 -0.0156 -1.8669  0.2061
   93TMC2    C1 1444   2.023   0.829  13.669 -0.4884 -0.0073 -0.1639
   93TMC2    C2 1445   1.944   0.935  13.660  0.1178  0.3085 -0.1712
   93TMC2    C3 1446   2.007   1.053  13.677 -0.2792  0.5983  0.2223
   93TMC2    C4 1447   2.162   0.828  13.693 -0.1168 -0.5660 -0.3116
   93TMC2    C5 1448   2.218   0.946  13.709  0.4645 -0.8087  0.2973
   93TMC2    C6 1449   2.139   1.061  13.717 -0.1117 -0.1331  0.1261
   93TMC2     C 1450   1.955   0.702  13.637 -0.1960  0.3204  0.0842
   93TMC2     O 1451   2.026   0.609  13.594  0.5423 -0.2441  0.7455
   93TMC2     H 1452   1.849   0.944  13.608  1.4014 -0.3502 -2.6045
   93TMC2    H1 1453   2.213   0.734  13.670  0.6120  0.0340 -1.1455
   93TMC2    H2 1454   2.178   1.160  13.739 -0.1486 -0.3709  1.3016
   93TMC2    C7 1455   2.349   0.954  13.762 -0.5896 -0.0810 -0.9966
   93TMC2    C8 1456   1.947   1.166  13.604  0.6953  0.2324  0.4029
   93TMC2    O1 1457   2.410   0.852  13.757  0.2229  0.6374  0.6872
   93TMC2    O2 1458   1.829   1.188  13.584 -0.1371  0.3523  0.6614
   93TMC2    O5 1459   2.037   1.261  13.586  0.0406 -0.3303 -0.2145
   93TMC2    H5 1460   2.128   1.235  13.612  0.3453  1.0110  0.0299
   94MPD2     C 1461   1.745   0.548  13.506 -0.3930 -0.0910 -0.0202
   94MPD2    C1 1462   1.724   0.619  13.626 -0.1064 -1.0995 -0.6948
   94MPD2    C2 1463   1.597   0.634  13.675  0.4096 -0.0078  0.0498
   94MPD2    C3 1464   1.487   0.563  13.619  0.5117  0.7175  0.2417
   94MPD2    C4 1465   1.511   0.495  13.507 -0.4592 -0.7088 -0.1283
   94MPD2    C5 1466   1.634   0.488  13.450 -0.2354 -0.0586  0.7913
   94MPD2     H 1467   1.586   0.697  13.763 -0.4545  0.8358 -0.6557
   94MPD2    H1 1468   1.432   0.437  13.462  0.2148 -1.7102 -0.0271
   94MPD2    H2 1469   1.834   0.549  13.443  1.6248 -1.0691  2.8058
   94MPD2    H3 1470   1.638   0.432  13.358  1.8093  1.2862  0.0534
   94MPD2     N 1471   1.358   0.548  13.676 -0.1669  1.1351 -0.4074
   94MPD2    H5 1472   1.290   0.498  13.620  1.5851 -0.5501 -1.0193
   94MPD2    N1 1473   1.825   0.696  13.687 -0.7670  0.1302 -0.3534
   94MPD2    H7 1474   1.795   0.765  13.756  1.8621  0.1495  0.8040
   95TMC2    C1 1475   2.122   2.857  16.263 -0.3295 -0.5484  0.1678
   95TMC2    C2 1476   2.183   2.754  16.332 -0.3205 -0.4122  0.2337
   95TMC2    C3 1477   2.221   2.797  16.458  0.2889 -0.8273 -0.0314
   95TMC2    C4 1478   2.099   2.988  16.310  0.6316  1.5190 -0.1615
   95TMC2    C5 1479   2.150   3.010  16.434 -0.3611 -0.1897 -0.1745
   95TMC2    C6 1480   2.212   2.919  16.513  0.6653  0.2723  0.8256
   95TMC2     C 1481   2.160   2.862  16.125  0.0182  0.3437 -0.0524
   95TMC2     O 1482   2.207   2.971  16.099  0.0517 -0.1071  0.3792
   95TMC2     H 1483   2.210   2.655  16.296  0.4562 -0.1948  0.2311
   95TMC2    H1 1484   2.066   3.062  16.237 -0.2920  1.3430  0.0740
   95TMC2    H2 1485   2.250   2.950  16.610  0.2882 -0.0137  1.0646
   95TMC2    C7 1486   2.192   3.146  16.466 -0.7218 -0.3574  0.2807
   95TMC2    C8 1487   2.331   2.721  16.512  0.7668  0.3333  0.2557
   95TMC2    O1 1488   2.194   3.183  16.583  0.1261  0.2276 -0.5244
   95TMC2    O2 1489   2.449   2.755  16.527 -0.1945 -0.0905 -0.3490
   95TMC2    O5 1490   2.283   2.591  16.515  0.4225 -0.2459  0.2179
   95TMC2    H5 1491   2.186   2.587  16.529  0.2218  2.6181 -0.3042
   96MPD2     C 1492   2.170   2.625  15.676  0.4441  0.8537 -0.0045
   96MPD2    C1 1493   2.249   2.726  15.722 -0.4078  0.2833 -0.6867
   96MPD2    C2 1494   2.227   2.770  15.850 -0.0666  0.4471 -0.7869
   96MPD2    C3 1495   2.143   2.708  15.933  0.2855  0.0716  0.0959
   96MPD2    C4 1496   2.068   2.605  15.887  0.0524  0.3492 -0.0723
   96MPD2    C5 1497   2.080   2.562  15.762 -0.2940  0.0996  0.3930
   96MPD2     H 1498   2.274   2.866  15.868 -3.2840  1.6648  1.0857
   96MPD2    H1 1499   2.007   2.543  15.951  0.9153  1.9339  2.2854
   96MPD2    H2 1500   2.183   2.582  15.577 -1.8817 -1.2240  0.6106
   96MPD2    H3 1501   2.032   2.468  15.739 -0.6367  0.4211 -0.2162
   96MPD2     N 1502   2.135   2.742  16.066  0.0804 -0.2387  0.2850
   96MPD2    H5 1503   2.066   2.690  16.120 -0.1268 -0.3957 -0.1276
   96MPD2    N1 1504   2.349   2.769  15.628  0.2725  0.4631 -0.2711
   96MPD2    H7 1505   2.338   2.736  15.533 -1.8115 -3.4470  1.2988
   97TMC2    C1 1506   4.340   1.083   0.715  0.4452 -0.6277  0.3478
   97TMC2    C2 1507   4.225   1.148   0.763 -0.1643 -0.9747  0.1866
   97TMC2    C3 1508   4.192   1.267   0.693  0.3103 -0.6051  0.5971
   97TMC2    C4 1509   4.402   1.122   0.599 -0.9634  0.6066 -0.5643
   97TMC2    C5 1510   4.366   1.244   0.542 -0.7972  0.0518 -0.2718
   97TMC2    C6 1511   4.260   1.317   0.587  0.0587 -0.2957  0.1219
   97TMC2     C 1512   4.369   0.952   0.769 -0.1278 -0.7696  0.4908
   97TMC2     O 1513   4.294   0.907   0.851  0.1558  0.2245 -0.0844
   97TMC2     H 1514   4.181   1.119   0.858  1.2494 -0.6577  0.9406
   97TMC2    H1 1515   4.474   1.056   0.553 -1.0617 -0.2224  0.4771
   97TMC2    H2 1516   4.227   1.410   0.541  0.7509  0.3958  1.0150
   97TMC2    C7 1517   4.444   1.309   0.442  0.1099 -0.3051  0.0433
   97TMC2    C8 1518   4.064   1.311   0.721  0.4081  0.3747 -0.0121
   97TMC2    O1 1519   4.399   1.418   0.405  0.1460  0.0001  0.2002
   97TMC2    O2 1520   4.014   1.422   0.697 -0.2947  0.4473  0.2340
   97TMC2    O5 1521   3.985   1.197   0.724 -0.4703 -0.5855  0.2453
   97TMC2    H5 1522   4.031   1.116   0.695  3.8247  1.2473  1.9836
   98MPD2     C 1523   4.636   0.517   0.782 -0.2852  0.1326  0.5884
   98MPD2    C1 1524   4.515   0.542   0.840 -0.5194  0.4003  0.1959
   98MPD2    C2 1525   4.469   0.674   0.838 -0.4165 -0.4381 -0.0424
   98MPD2    C3 1526   4.544   0.777   0.774  0.8587 -0.2871 -0.2552
   98MPD2    C4 1527   4.667   0.746   0.726 -0.0554 -0.5586 -0.1214
   98MPD2    C5 1528   4.720   0.621   0.736 -0.0645 -0.3295  0.8622
   98MPD2     H 1529   4.374   0.698   0.883  0.0599 -1.6097  1.5923
   98MPD2    H1 1530   4.724   0.827   0.683 -1.3872 -1.6206 -3.9412
   98MPD2    H2 1531   4.668   0.414   0.786  0.7741  0.3852 -1.1283
   98MPD2    H3 1532   0.082   0.603   0.692  0.0995  1.0278  0.6451
   98MPD2     N 1533   4.495   0.908   0.742 -0.3486  0.3256  0.0789
   98MPD2    H5 1534   4.563   0.968   0.697 -1.4039  1.5853  0.1841
   98MPD2    N1 1535   4.432   0.433   0.886  0.2031 -0.2474  0.1431
   98MPD2    H7 1536   4.458   0.339   0.858  1.2214  0.7102 -2.1548
   99TMC2    C1 1537   2.807   3.082   1.272 -0.0400 -0.2398  0.1207
   99TMC2    C2 1538   2.841   3.211   1.298 -0.3414  0.6836  0.2332
   99TMC2    C3 1539   2.769   3.274   1.394 -0.0950  0.2714  0.1993
   99TMC2    C4 1540   2.706   3.013   1.331 -0.0702  0.3975  0.3053
   99TMC2    C5 1541   2.626   3.085   1.412 -0.6247  0.1933  0.1530
   99TMC2    C6 1542   2.657   3.213   1.445  0.2420  0.2503 -0.3055
   99TMC2     C 1543   2.916   3.005   1.218  0.5850  0.2607  0.2837
   99TMC2     O 1544   3.031   3.055   1.217 -0.2464  0.1950 -0.2585
   99TMC2     H 1545   2.920   3.257   1.240  1.5260 -0.1725  2.1042
   99TMC2    H1 1546   2.680   2.910   1.309 -0.1227  0.2987  0.8353
   99TMC2    H2 1547   2.582   3.262   1.506  0.5388  0.1083  0.1693
   99TMC2    C7 1548   2.505   3.026   1.478  0.2127 -0.3568  0.4520
   99TMC2    C8 1549   2.765   3.421   1.375  0.0920 -0.5277  0.2934
   99TMC2    O1 1550   2.472   3.084   1.581  0.1642  0.3535 -0.3675
   99TMC2    O2 1551   2.658   3.480   1.391 -0.4368 -0.1364  0.1682
   99TMC2    O5 1552   2.886   3.472   1.375 -0.1882 -0.5134 -0.0128
   99TMC2    H5 1553   2.961   3.409   1.383  0.2375 -0.1999 -1.5335
  100MPD2     C 1554   3.076   2.822   1.052 -0.5456  0.9639 -0.1864
  100MPD2    C1 1555   2.940   2.809   1.077 -0.1253  0.3507 -0.6271
  100MPD2    C2 1556   2.866   2.701   1.020 -0.7197 -0.4926 -0.3349
  100MPD2    C3 1557   2.926   2.604   0.948 -0.1034  0.8951  0.2756
  100MPD2    C4 1558   3.060   2.626   0.919 -0.6373  0.1527  0.5178
  100MPD2    C5 1559   3.133   2.731   0.970 -0.6109 -0.2344  0.1476
  100MPD2     H 1560   2.761   2.694   1.044 -1.6312 -1.3861 -4.6138
  100MPD2    H1 1561   3.111   2.551   0.860 -2.4115 -1.0733  0.5613
  100MPD2    H2 1562   3.139   2.905   1.083 -3.7903  2.8926  1.2492
  100MPD2    H3 1563   3.237   2.736   0.940 -0.3264 -1.3926  0.9444
  100MPD2     N 1564   2.856   2.492   0.894 -0.1425 -0.2996 -0.3017
  100MPD2    H5 1565   2.755   2.493   0.891 -0.1100  1.2066 -1.1145
  100MPD2    N1 1566   2.866   2.888   1.164 -0.5141 -0.0057 -0.6571
  100MPD2    H7 1567   2.769   2.861   1.175 -0.9137  1.6126 -0.1467
  101TMC2    C1 1568   3.190   3.502  13.337  0.2293 -0.0076 -0.4039
  101TMC2    C2 1569   3.165   3.562  13.461  0.3854 -0.5193 -0.0378
  101TMC2    C3 1570   3.146   3.700  13.471  0.1427  0.3085 -0.3492
  101TMC2    C4 1571   3.208   3.580  13.230  0.3363  0.9082  0.3227
  101TMC2    C5 1572   3.202   3.716  13.244 -0.8027  0.2154  0.1096
  101TMC2    C6 1573   3.169   3.778  13.361 -0.0558  0.3964  0.3542
  101TMC2     C 1574   3.154   3.364  13.325 -0.7214 -0.1171  0.0251
  101TMC2     O 1575   3.081   3.316  13.411  0.3185 -0.0470 -0.0191
  101TMC2     H 1576   3.152   3.497  13.547  0.7364  1.3780  1.4480
  101TMC2    H1 1577   3.214   3.541  13.129  0.0407 -1.3976  1.2104
  101TMC2    H2 1578   3.154   3.885  13.364  0.5402  0.3916  2.9607
  101TMC2    C7 1579   3.242   3.790  13.127  0.0462 -0.5169 -0.8785
  101TMC2    C8 1580   3.179   3.751  13.602  1.0308  0.8913  0.4003
  101TMC2    O1 1581   3.317   3.731  13.047  0.0423 -0.1824 -0.4083
  101TMC2    O2 1582   3.141   3.689  13.702 -0.0348  0.0406  0.3582
  101TMC2    O5 1583   3.276   3.848  13.593 -0.0278  0.3289 -0.2174
  101TMC2    H5 1584   3.300   3.863  13.499 -1.0059 -0.0484 -0.5325
  102MPD2     C 1585   3.145   3.155  13.023 -0.6364 -0.3781 -0.8119
  102MPD2    C1 1586   3.144   3.182  13.157  0.4039 -0.5521  0.7734
  102MPD2    C2 1587   3.083   3.086  13.236 -0.1006  0.0468  0.1362
  102MPD2    C3 1588   3.030   2.967  13.192  0.3354 -0.3002  0.4248
  102MPD2    C4 1589   3.017   2.950  13.058 -0.3062 -0.5429  0.6878
  102MPD2    C5 1590   3.091   3.033  12.979 -0.4462  0.1059 -0.2959
  102MPD2     H 1591   3.076   3.100  13.343  0.1214  0.9840  0.0324
  102MPD2    H1 1592   2.966   2.866  13.012 -0.7899 -0.1689  0.5500
  102MPD2    H2 1593   3.181   3.229  12.951 -3.2725  1.4424 -0.2442
  102MPD2    H3 1594   3.087   3.021  12.872 -1.1417  1.3364 -0.4034
  102MPD2     N 1595   2.976   2.876  13.291 -0.7187  0.3644 -0.1800
  102MPD2    H5 1596   2.962   2.912  13.385  2.4350 -1.9193  1.1753
  102MPD2    N1 1597   3.195   3.306  13.206  0.2393  0.8969  0.5156
  102MPD2    H7 1598   3.248   3.368  13.146  0.3830  0.7059  0.4419
  103TMC2    C1 1599   1.400   3.236  12.426  0.0469  0.1530 -0.7644
  103TMC2    C2 1600   1.496   3.315  12.377 -0.3040  0.4916 -0.2661
  103TMC2    C3 1601   1.608   3.334  12.458  0.0374 -0.7893  0.3687
  103TMC2    C4 1602   1.406   3.184  12.555 -0.5368 -0.1221 -0.4285
  103TMC2    C5 1603   1.513   3.222  12.634  0.1685 -0.1825  0.6673
  103TMC2    C6 1604   1.619   3.293  12.585 -0.3277  0.0790 -1.2277
  103TMC2     C 1605   1.302   3.186  12.336 -0.3258 -0.0870 -0.8625
  103TMC2     O 1606   1.289   3.244  12.233 -0.1817  0.1653 -0.2198
  103TMC2     H 1607   1.489   3.353  12.276 -0.4332 -2.4721 -1.3804
  103TMC2    H1 1608   1.324   3.128  12.599 -0.2777  0.7112  1.1131
  103TMC2    H2 1609   1.699   3.329  12.649 -0.4552  0.4496 -1.2783
  103TMC2    C7 1610   1.505   3.193  12.773 -0.2842  0.8660  0.0922
  103TMC2    C8 1611   1.731   3.372  12.385 -0.1573  0.2842  0.8214
  103TMC2    O1 1612   1.393   3.158  12.815  0.3202  0.5732  0.2613
  103TMC2    O2 1613   1.734   3.336  12.269  0.2780 -0.1768  0.3935
  103TMC2    O5 1614   1.830   3.381  12.477  0.3477 -0.4321  0.1712
  103TMC2    H5 1615   1.812   3.422  12.563 -0.1735  0.7140 -0.4950
  104MPD2     C 1616   1.174   2.839  12.300 -0.5715 -0.1696 -0.7324
  104MPD2    C1 1617   1.173   2.977  12.281  0.0861  0.3691  0.3724
  104MPD2    C2 1618   1.068   3.033  12.211 -0.1602 -0.2229 -0.2336
  104MPD2    C3 1619   0.971   2.958  12.153 -0.8745  0.3606 -0.4185
  104MPD2    C4 1620   0.983   2.816  12.156  0.3948  0.2749 -0.0729
  104MPD2    C5 1621   1.085   2.758  12.231 -0.8801 -0.7524 -0.4204
  104MPD2     H 1622   1.054   3.140  12.213  1.1764 -0.1240  3.6409
  104MPD2    H1 1623   0.916   2.751  12.100 -1.3830  2.4841 -0.5164
  104MPD2    H2 1624   1.251   2.784  12.355  0.2603  1.4201 -0.2958
  104MPD2    H3 1625   1.101   2.651  12.236  0.9180 -0.4939 -0.5352
  104MPD2     N 1626   0.866   3.027  12.081 -0.3363 -0.4611 -0.0302
  104MPD2    H5 1627   0.875   3.128  12.082 -1.4100 -0.3435 -2.4087
  104MPD2    N1 1628   1.266   3.055  12.363 -0.0270 -0.5717  0.0570
  104MPD2    H7 1629   1.313   3.014  12.443 -1.0001 -2.0155 -0.0996
  105TMC2    C1 1630   2.656   2.925   0.272 -0.3950  0.2778 -0.1911
  105TMC2    C2 1631   2.734   3.039   0.281 -0.9667  0.0358 -1.0003
  105TMC2    C3 1632   2.705   3.118   0.394 -0.3323 -0.1293  0.2829
  105TMC2    C4 1633   2.554   2.898   0.363 -1.0558  0.1795  0.0664
  105TMC2    C5 1634   2.530   2.985   0.461  0.9518  0.4258  0.1559
  105TMC2    C6 1635   2.601   3.093   0.485 -0.0073  0.5511 -0.6081
  105TMC2     C 1636   2.713   2.803   0.216 -0.2161  0.1268 -0.5434
  105TMC2     O 1637   2.660   2.701   0.249 -0.0634  0.0022  0.3257
  105TMC2     H 1638   2.825   3.050   0.223  0.1239 -2.4463  0.2452
  105TMC2    H1 1639   2.487   2.813   0.350  0.1317 -0.9037  1.0095
  105TMC2    H2 1640   2.597   3.132   0.586 -2.3372 -2.4745  0.4694
  105TMC2    C7 1641   2.436   2.935   0.560 -0.1954  0.1064 -0.3149
  105TMC2    C8 1642   2.806   3.221   0.428 -0.5457  0.2369  0.2241
  105TMC2    O1 1643   2.408   2.817   0.558 -0.0315  0.3754 -0.4439
  105TMC2    O2 1644   2.918   3.218   0.380  0.1894 -0.1028  0.0011
  105TMC2    O5 1645   2.759   3.307   0.513  0.2389 -0.2158  0.3478
  105TMC2    H5 1646   2.667   3.308   0.546 -0.1421 -1.2315 -0.6755
  106MPD2     C 1647   3.025   2.531  17.670 -0.2405 -0.4649  0.0355
  106MPD2    C1 1648   3.062   2.663  17.657 -0.6162 -0.4401 -0.1366
  106MPD2    C2 1649   3.007   2.758  17.737  0.1226 -0.0232 -0.1033
  106MPD2    C3 1650   2.903   2.723   0.083 -0.5120 -0.5275  0.5648
  106MPD2    C4 1651   2.874   2.590   0.098 -0.2717  0.4285  0.6070
  106MPD2    C5 1652   2.943   2.499   0.035  0.8194 -0.2737 -0.0824
  106MPD2     H 1653   3.040   2.861  17.725 -0.6019  0.1860 -0.3171
  106MPD2    H1 1654   2.811   2.556   0.179 -2.7474 -1.0695 -1.9427
  106MPD2    H2 1655   3.066   2.451  17.609 -3.2591  0.0092 -2.6508
  106MPD2    H3 1656   2.904   2.399   0.049 -1.2661  0.4617 -0.6091
  106MPD2     N 1657   2.825   2.822   0.142  0.2631  0.0568  0.2166
  106MPD2    H5 1658   2.848   2.916   0.112  0.3709 -0.2943 -0.7934
  106MPD2    N1 1659   3.170   2.704  17.572  0.1330 -0.2086 -0.5946
  106MPD2    H7 1660   3.174   2.805  17.565 -2.4063 -0.2030 -1.7004
  107TMC2    C1 1661   3.271   2.145  11.902 -0.2796  0.5452 -0.7442
  107TMC2    C2 1662   3.272   2.012  11.902  0.1646  0.3236  0.3283
  107TMC2    C3 1663   3.369   1.947  11.828 -0.4312 -0.4128 -0.8578
  107TMC2    C4 1664   3.343   2.215  11.810  0.8088  0.0466 -0.5471
  107TMC2    C5 1665   3.426   2.145  11.724  0.1100 -0.2316  0.2608
  107TMC2    C6 1666   3.446   2.013  11.736  0.4835  0.1628  0.9103
  107TMC2     C 1667   3.167   2.206  11.979  0.4115 -0.9304  0.0378
  107TMC2     O 1668   3.112   2.139  12.065  0.0332  0.0746  0.5204
  107TMC2     H 1669   3.222   1.956  11.980 -2.9074  2.6224  0.0104
  107TMC2    H1 1670   3.346   2.323  11.808  2.6001  0.0094  0.3037
  107TMC2    H2 1671   3.525   1.947  11.702  0.5406 -1.2179  3.7117
  107TMC2    C7 1672   3.517   2.227  11.646 -0.5006 -1.0508  0.6507
  107TMC2    C8 1673   3.358   1.806  11.816  0.1047 -0.4003 -0.8007
  107TMC2    O1 1674   3.481   2.341  11.634  0.0906 -0.5061 -0.1117
  107TMC2    O2 1675   3.361   1.759  11.701  0.1605  0.4166  0.5103
  107TMC2    O5 1676   3.423   1.758  11.921 -0.3740  1.1789 -0.4640
  107TMC2    H5 1677   3.409   1.810  12.004  2.2152  0.8453  0.1838
  108MPD2     C 1678   2.993   2.525  11.943 -0.0226  0.0672  0.1878
  108MPD2    C1 1679   3.043   2.415  12.005  0.0395 -0.2490  0.8200
  108MPD2    C2 1680   2.994   2.395  12.128 -0.2841  0.8720  0.3254
  108MPD2    C3 1681   2.907   2.486  12.193  0.0123 -0.4644  0.6738
  108MPD2    C4 1682   2.868   2.604  12.127  0.2752  0.3132 -0.3340
  108MPD2    C5 1683   2.905   2.612  11.994 -0.3166 -0.1997 -0.7565
  108MPD2     H 1684   3.016   2.306  12.185 -1.7047 -0.4979 -1.2763
  108MPD2    H1 1685   2.814   2.682  12.179 -1.5035 -0.8169 -0.4866
  108MPD2    H2 1686   3.022   2.537  11.839  0.3896 -2.0831  0.0604
  108MPD2    H3 1687   2.882   2.703  11.939 -2.0639  0.7447  1.5208
  108MPD2     N 1688   2.869   2.482  12.332 -0.0284  0.5927 -0.7640
  108MPD2    H5 1689   2.791   2.542  12.356  0.8822  2.2651 -2.0299
  108MPD2    N1 1690   3.139   2.332  11.938 -0.2835  0.4623 -0.2252
  108MPD2    H7 1691   3.186   2.367  11.855  1.7176  2.0143  1.5575
  109TMC2    C1 1692   3.311   0.476   0.368 -0.1788 -0.5469  0.0162
  109TMC2    C2 1693   3.342   0.610   0.336  0.2784 -0.6645  0.3840
  109TMC2    C3 1694   3.462   0.661   0.379 -0.3080  0.8187  0.0713
  109TMC2    C4 1695   3.410   0.396   0.416 -0.4258 -0.3437 -0.1999
  109TMC2    C5 1696   3.530   0.448   0.454  0.4493 -0.1868  0.6628
  109TMC2    C6 1697   3.553   0.579   0.441  1.1776 -0.1090 -0.7935
  109TMC2     C 1698   3.179   0.432   0.344  0.3320  0.5786  0.1541
  109TMC2     O 1699   3.125   0.482   0.251 -0.2143  0.2659  0.1325
  109TMC2     H 1700   3.267   0.672   0.289  1.1172  0.1481  0.1083
  109TMC2    H1 1701   3.396   0.290   0.431  0.3283 -0.5756 -1.1804
  109TMC2    H2 1702   3.650   0.623   0.461  0.7228  1.7477 -2.6812
  109TMC2    C7 1703   3.643   0.365   0.503  0.6165 -0.5333 -0.2139
  109TMC2    C8 1704   3.464   0.810   0.389  0.2498  0.4450 -0.5697
  109TMC2    O1 1705   3.713   0.407   0.595  0.2328 -0.5228  0.3814
  109TMC2    O2 1706   3.547   0.887   0.342 -0.2078 -0.4307 -0.4625
  109TMC2    O5 1707   3.352   0.847   0.452  0.6208 -0.5785  0.4978
  109TMC2    H5 1708   3.309   0.771   0.497  0.2104  0.4239  1.8102
  110MPD2     C 1709   2.722   0.217   0.464 -0.0952 -0.2662 -0.4129
  110MPD2    C1 1710   2.813   0.179   0.560 -0.7253  0.2318  0.3977
  110MPD2    C2 1711   2.951   0.209   0.541  0.0274 -0.6555  0.3940
  110MPD2    C3 1712   2.989   0.299   0.439 -0.6107  0.6228  0.0473
  110MPD2    C4 1713   2.888   0.337   0.346 -0.4530  0.3041  0.8200
  110MPD2    C5 1714   2.763   0.296   0.360 -0.0480 -0.2474  0.4810
  110MPD2     H 1715   3.025   0.189   0.618 -0.2460 -2.1706  0.2640
  110MPD2    H1 1716   2.913   0.394   0.256 -0.8810 -0.9024 -0.0571
  110MPD2    H2 1717   2.620   0.183   0.476 -0.3238 -1.0423 -4.5804
  110MPD2    H3 1718   2.696   0.321   0.279  1.7996 -3.1316 -1.9749
  110MPD2     N 1719   3.130   0.340   0.434  0.7279  0.2987  0.5359
  110MPD2    H5 1720   3.191   0.318   0.512  1.5393 -0.4685 -0.3124
  110MPD2    N1 1721   2.767   0.102   0.666  0.4812  0.8647 -0.1288
  110MPD2    H7 1722   2.668   0.096   0.684  0.9226  0.0502  2.0094
  111TMC2    C1 1723   3.062   4.124  11.652  0.3593  0.5664 -0.1243
  111TMC2    C2 1724   2.952   4.084  11.724  0.0667 -0.4247 -0.0062
  111TMC2    C3 1725   2.962   3.981  11.814 -0.1275 -0.7472  0.2353
  111TMC2    C4 1726   3.179   4.056  11.666  0.6685  0.6041 -0.3348
  111TMC2    C5 1727   3.187   3.952  11.756  0.5485 -0.2808 -0.4987
  111TMC2    C6 1728   3.083   3.923  11.843  0.3087  0.1574 -0.6511
  111TMC2     C 1729   3.042   4.220  11.545 -0.3524 -0.1408  0.2963
  111TMC2     O 1730   3.119   4.216  11.449  0.3783  0.3828  0.3768
  111TMC2     H 1731   2.856   4.126  11.698 -0.3444 -0.6021  1.2414
  111TMC2    H1 1732   3.262   4.070  11.596  1.6124  0.4269  0.7535
  111TMC2    H2 1733   3.095   3.858  11.929 -0.2924 -0.2622 -0.8897
  111TMC2    C7 1734   3.323   3.937  11.825 -0.6258  0.4152 -0.1753
  111TMC2    C8 1735   2.866   3.975  11.924  0.4749 -0.5781  0.3632
  111TMC2    O1 1736   3.330   3.854  11.916  0.1490 -0.2962 -0.3467
  111TMC2    O2 1737   2.854   3.879  12.001  0.2691 -0.7422  0.2531
  111TMC2    O5 1738   2.848   4.102  11.974 -0.3321  0.1082  0.0014
  111TMC2    H5 1739   2.890   4.175  11.923 -0.1010 -0.4490 -0.6209
  112MPD2     C 1740   2.909   4.715  11.432  0.8617  0.6493 -0.2476
  112MPD2    C1 1741   2.959   4.615  11.356  0.3279  0.2674  0.4336
  112MPD2    C2 1742   2.992   4.492  11.412  0.0376 -0.5226  0.8869
  112MPD2    C3 1743   2.968   4.458  11.544  0.8275 -0.5107  0.8307
  112MPD2    C4 1744   2.911   4.560  11.623 -0.6163  0.0854 -0.6330
  112MPD2    C5 1745   2.885   4.683  11.570 -0.4506  0.2538 -0.7775
  112MPD2     H 1746   3.024   4.418  11.340  3.0354  0.6390  0.9961
  112MPD2    H1 1747   2.882   4.537  11.725  2.4604 -0.7262  0.0323
  112MPD2    H2 1748   2.889   0.080  11.394 -3.5193  0.2282  1.0447
  112MPD2    H3 1749   2.831   0.020  11.631 -0.5249 -0.0742 -0.4604
  112MPD2     N 1750   2.989   4.333  11.601 -0.0478 -0.1285 -0.5389
  112MPD2    H5 1751   2.955   4.329  11.697 -0.0286  2.2195 -0.4291
  112MPD2    N1 1752   2.990   4.639  11.216  0.0686  0.5656  0.4643
  112MPD2    H7 1753   3.039   4.564  11.168  1.9635  2.6995 -0.9437
  113TMC2    C1 1754   1.511   2.129   0.130  0.1122 -0.4794 -0.4501
  113TMC2    C2 1755   1.522   2.182   0.004  0.9271 -0.3257  0.5164
  113TMC2    C3 1756   1.498   2.098  17.641  0.5113  0.3848  0.0574
  113TMC2    C4 1757   1.475   2.000   0.159  0.2561  0.2872  0.3135
  113TMC2    C5 1758   1.450   1.928   0.048 -0.2277  0.0834 -0.1744
  113TMC2    C6 1759   1.471   1.969  17.660  0.0151 -0.5624 -0.3006
  113TMC2     C 1760   1.525   2.227   0.238  0.2999 -0.9354 -0.1940
  113TMC2     O 1761   1.513   2.345   0.202  0.3405  0.2678  0.1937
  113TMC2     H 1762   1.554   2.283  17.716  0.1285 -0.7849 -2.2335
  113TMC2    H1 1763   1.432   1.972   0.255  0.1008  0.7121  0.3703
  113TMC2    H2 1764   1.443   1.916  17.569  0.9067 -2.3336  0.4589
  113TMC2    C7 1765   1.412   1.788   0.059 -0.7966  0.0370 -0.2491
  113TMC2    C8 1766   1.417   2.151  17.529 -0.1331 -1.3642 -0.2116
  113TMC2    O1 1767   1.347   1.740  17.708  0.4650  0.2873 -0.2959
  113TMC2    O2 1768   1.464   2.169  17.419  0.3177  0.3443  0.2142
  113TMC2    O5 1769   1.290   2.130  17.567  1.7217 -0.0111  0.5674
  113TMC2    H5 1770   1.283   2.129  17.665 -0.7626  0.5650  0.4016
  114MPD2     C 1771   1.698   2.393   0.690  0.2028 -0.1187 -0.7019
  114MPD2    C1 1772   1.609   2.455   0.598 -0.4121  0.8481 -0.8219
  114MPD2    C2 1773   1.564   2.384   0.488 -0.2375  0.3911 -0.3159
  114MPD2    C3 1774   1.610   2.256   0.471 -0.0650  0.1797  0.8572
  114MPD2    C4 1775   1.701   2.204   0.561  0.8094 -0.5313  0.4277
  114MPD2    C5 1776   1.751   2.270   0.666 -0.3187 -0.0699 -0.0941
  114MPD2     H 1777   1.491   2.432   0.424 -2.0179  0.7361  1.9488
  114MPD2    H1 1778   1.714   2.097   0.551  2.6165 -0.2823 -0.0091
  114MPD2    H2 1779   1.710   2.443   0.785  0.9980  0.4489 -1.0931
  114MPD2    H3 1780   1.826   2.226   0.731 -0.1635  2.7067  1.5977
  114MPD2     N 1781   1.574   2.177   0.356  0.0532  0.1828 -0.0918
  114MPD2    H5 1782   1.604   2.081   0.354  0.9849  0.4820 -0.2702
  114MPD2    N1 1783   1.567   2.590   0.610 -0.3950 -0.2353  0.5957
  114MPD2    H7 1784   1.501   2.619   0.539 -0.3552 -1.3893  0.0851
  115TMC2    C1 1785   3.290   0.127  17.359 -0.3113 -0.0821 -0.1697
  115TMC2    C2 1786   3.334   0.036  17.451  0.0939  0.1283  0.3155
  115TMC2    C3 1787   3.451   0.061  17.521 -0.0167  0.5904  0.6262
  115TMC2    C4 1788   3.352   0.244  17.328  0.2368  0.1181 -0.0053
  115TMC2    C5 1789   3.464   0.269  17.410  0.0409  0.6153 -0.5642
  115TMC2    C6 1790   3.510   0.182  17.503 -0.0912 -0.2726 -0.5884
  115TMC2     C 1791   3.173   0.085  17.287 -0.4933  0.7519  0.4690
  115TMC2     O 1792   3.130   4.712  17.305 -0.0898 -0.1898 -0.1313
  115TMC2     H 1793   3.269   4.687  17.476  1.6706 -0.5742  2.0412
  115TMC2    H1 1794   3.339   0.300  17.236  0.3865  2.7321  1.5761
  115TMC2    H2 1795   3.604   0.193  17.556 -0.8750 -1.3995  1.0595
  115TMC2    C7 1796   3.508   0.405  17.418 -0.0042 -0.3923 -0.0029
  115TMC2    C8 1797   3.461   4.726  17.649 -0.3000 -0.0504  0.5748
  115TMC2    O1 1798   3.594   0.422  17.502 -0.9292 -0.4349  0.3210
  115TMC2    O2 1799   3.534   0.044  17.730 -0.4226 -1.0838 -0.5177
  115TMC2    O5 1800   3.442   4.599  17.634  0.4739 -0.0754  0.0312
  115TMC2    H5 1801   3.408   4.574  17.546  2.1267 -0.6004 -0.4536
  116MPD2     C 1802   2.850   0.151  16.879 -0.6454 -0.0713 -0.1365
  116MPD2    C1 1803   2.872   0.037  16.964  0.3699  0.6164  0.3646
  116MPD2    C2 1804   2.954   0.048  17.076 -0.0438  0.1087 -0.2189
  116MPD2    C3 1805   3.032   0.159  17.098  0.0354 -0.1389 -0.4584
  116MPD2    C4 1806   3.021   0.263  17.007 -0.0615  0.6497 -0.1290
  116MPD2    C5 1807   2.930   0.262  16.911  0.3339  0.0819  0.2971
  116MPD2     H 1808   2.956   4.705  17.152  1.7129  1.1950  0.8613
  116MPD2    H1 1809   3.083   0.352  17.016 -0.0313  0.6979 -0.8797
  116MPD2    H2 1810   2.789   0.160  16.790 -0.9664  0.2586  0.1173
  116MPD2    H3 1811   2.922   0.350  16.848 -2.2577 -1.6603 -1.8162
  116MPD2     N 1812   3.132   0.178  17.196 -0.2374  0.1101  0.3925
  116MPD2    H5 1813   3.186   0.264  17.190 -0.5423  0.3361  0.9831
  116MPD2    N1 1814   2.797   4.658  16.930 -0.2724  0.2501  0.5611
  116MPD2    H7 1815   2.725   4.669  16.859 -0.3624  1.5462  0.8381
  117TMC2    C1 1816   0.582   1.297  13.880  0.4165  1.1622 -0.0886
  117TMC2    C2 1817   0.641   1.170  13.868 -0.2823  0.2160  0.0736
  117TMC2    C3 1818   0.771   1.154  13.878  0.4722 -0.5259  0.3546
  117TMC2    C4 1819   0.657   1.413  13.901 -0.3082 -0.4310  0.2743
  117TMC2    C5 1820   0.792   1.389  13.902 -0.1695  0.2661 -0.1090
  117TMC2    C6 1821   0.850   1.264  13.901  0.4357 -0.3269  0.2954
  117TMC2     C 1822   0.459   1.311  13.814 -0.6010  0.0531 -0.5723
  117TMC2     O 1823   0.416   1.214  13.758 -0.1691 -0.4368  0.3123
  117TMC2     H 1824   0.584   1.081  13.847  0.9942 -0.2367 -1.4231
  117TMC2    H1 1825   0.620   1.515  13.902  1.6759  0.3058  0.5257
  117TMC2    H2 1826   0.956   1.251  13.918  0.6809  1.6760  0.2866
  117TMC2    C7 1827   0.874   1.511  13.869 -0.0321  0.0366 -0.0594
  117TMC2    C8 1828   0.814   1.022  13.911 -0.3504  0.8237 -0.0903
  117TMC2    O1 1829   0.839   1.613  13.924  0.7181  0.1985 -0.6840
  117TMC2    O2 1830   0.932   0.994  13.883 -0.2319 -0.0358 -0.0937
  117TMC2    O5 1831   0.741   0.960  14.008  0.2082  0.3640  0.0258
  117TMC2    H5 1832   0.650   0.995  14.022 -0.6181 -1.3799 -0.9282
  118MPD2     C 1833   1.185   1.496  13.689  0.4073 -0.1296  0.2019
  118MPD2    C1 1834   1.083   1.563  13.755 -0.5981  0.2485  0.0239
  118MPD2    C2 1835   1.091   1.698  13.779 -0.0240  0.1828  0.3862
  118MPD2    C3 1836   1.191   1.770  13.721 -0.1113  1.0244  0.0225
  118MPD2    C4 1837   1.299   1.707  13.652 -0.3756  0.4842  0.8832
  118MPD2    C5 1838   1.286   1.569  13.636  0.4761 -0.0753 -0.1178
  118MPD2     H 1839   1.005   1.746  13.824  0.0391 -0.8760  1.6208
  118MPD2    H1 1840   1.383   1.760  13.609 -1.6962  2.0798  0.2565
  118MPD2    H2 1841   1.188   1.389  13.675  0.6667  0.0733 -1.3522
  118MPD2    H3 1842   1.360   1.515  13.578  0.3047 -1.7038  1.1965
  118MPD2     N 1843   1.192   1.908  13.716 -0.4241 -0.1022  0.3203
  118MPD2    H5 1844   1.276   1.949  13.677  0.8289 -3.6235 -0.6474
  118MPD2    N1 1845   0.982   1.478  13.799 -0.4136 -0.0727 -0.1265
  118MPD2    H7 1846   0.991   1.382  13.766  1.4384  0.6674 -1.7776
  119TMC2    C1 1847   3.597   3.148  13.117  0.6727 -0.7597 -0.4086
  119TMC2    C2 1848   3.635   3.167  12.989  0.3773 -0.5937 -0.0126
  119TMC2    C3 1849   3.561   3.112  12.893 -0.2269 -0.2508  0.2813
  119TMC2    C4 1850   3.503   3.051  13.149  0.5050 -0.9170 -0.0746
  119TMC2    C5 1851   3.444   2.993  13.040 -0.5553  0.2382 -0.2288
  119TMC2    C6 1852   3.450   3.029  12.917 -0.5049  1.2249  0.0254
  119TMC2     C 1853   3.687   3.175  13.234 -0.8910 -0.0214  0.0283
  119TMC2     O 1854   3.688   3.089  13.324  0.3431 -0.2633  0.2350
  119TMC2     H 1855   3.712   3.242  12.975 -1.3545  1.5041  1.7096
  119TMC2    H1 1856   3.461   3.045  13.248 -0.9139 -1.5759 -0.7117
  119TMC2    H2 1857   3.381   2.993  12.841  1.4676  0.8860 -1.6287
  119TMC2    C7 1858   3.367   2.874  13.057 -0.0906  0.0763  0.1025
  119TMC2    C8 1859   3.563   3.188  12.768 -0.8293 -0.2976  0.1617
  119TMC2    O1 1860   3.314   2.814  12.959  0.5480  0.0453 -0.0844
  119TMC2    O2 1861   3.588   3.306  12.756  0.2624  0.3780  0.4567
  119TMC2    O5 1862   3.494   3.118  12.677  0.5280 -0.0796 -0.0961
  119TMC2    H5 1863   3.505   3.023  12.698 -0.5588 -0.3714 -0.8379
  120MPD2     C 1864   4.102   3.395  13.412  0.5218  0.2170 -0.3102
  120MPD2    C1 1865   4.056   3.271  13.439 -0.6125 -0.0689 -0.2179
  120MPD2    C2 1866   3.941   3.233  13.375  0.0236  0.0488 -0.7979
  120MPD2    C3 1867   3.877   3.319  13.282  0.0751  0.0697  0.3290
  120MPD2    C4 1868   3.934   3.440  13.258  0.6556  0.2437 -0.3424
  120MPD2    C5 1869   4.043   3.481  13.328 -0.5385 -0.4159  0.4817
  120MPD2     H 1870   3.898   3.136  13.397 -1.1001  0.6085 -0.5685
  120MPD2    H1 1871   3.893   3.502  13.179 -0.3564  1.3574  1.0430
  120MPD2    H2 1872   4.186   3.440  13.465 -0.4164 -2.3630  3.3078
  120MPD2    H3 1873   4.076   3.583  13.308  2.5583 -1.3516  0.8424
  120MPD2     N 1874   3.763   3.284  13.209  0.2216 -0.2569 -0.2329
  120MPD2    H5 1875   3.733   3.349  13.137  0.3276  3.0619  2.7233
  120MPD2    N1 1876   4.111   3.208  13.552 -0.1673 -0.0501 -0.7996
  120MPD2    H7 1877   4.181   3.257  13.607 -0.3809 -0.6920  0.0575
  121TMC2    C1 1878   0.693   4.161  14.193 -0.1166 -0.0637 -0.1074
  121TMC2    C2 1879   0.790   4.063  14.185 -0.6442  0.0208 -0.0982
  121TMC2    C3 1880   0.750   3.926  14.193  0.8925  0.6277  0.7064
  121TMC2    C4 1881   0.564   4.127  14.220  0.4622 -0.0863  0.4874
  121TMC2    C5 1882   0.534   3.994  14.243 -0.1709 -0.7085 -0.1051
  121TMC2    C6 1883   0.623   3.893  14.230 -0.3714 -1.0269 -0.9970
  121TMC2     C 1884   0.712   4.303  14.151 -0.0579 -0.1838  0.5025
  121TMC2     O 1885   0.607   4.366  14.180  0.1945  0.0627 -0.2829
  121TMC2     H 1886   0.893   4.095  14.174 -0.8684  0.6853 -0.2470
  121TMC2    H1 1887   0.490   4.205  14.226 -0.6245 -1.1730  1.1875
  121TMC2    H2 1888   0.597   3.790  14.251  0.4734 -1.0088  0.1617
  121TMC2    C7 1889   0.399   3.962  14.285  0.1932 -0.7018  0.2926
  121TMC2    C8 1890   0.851   3.821  14.179 -0.4867  0.7248  0.0123
  121TMC2    O1 1891   0.391   3.879  14.371 -0.2664 -0.0182 -0.4051
  121TMC2    O2 1892   0.824   3.711  14.227 -0.2578  0.1726 -0.5862
  121TMC2    O5 1893   0.969   3.854  14.117  0.4503  0.2748  0.0196
  121TMC2    H5 1894   0.961   3.942  14.074  0.3364  0.8072  1.1362
  122MPD2     C 1895   0.786   4.568  14.078 -0.1673  0.3809  0.4976
  122MPD2    C1 1896   0.854   4.456  14.039 -0.2405  0.6164  0.0685
  122MPD2    C2 1897   0.957   4.473  13.948 -0.9137  0.7500 -0.5157
  122MPD2    C3 1898   0.994   4.596  13.894 -0.0806  0.0939 -0.0224
  122MPD2    C4 1899   0.928   4.706  13.948 -0.2335 -0.0415  0.4739
  122MPD2    C5 1900   0.822   4.688  14.033 -0.3850 -0.2426 -0.3835
  122MPD2     H 1901   1.003   4.384  13.908 -0.6562  0.4895  0.3752
  122MPD2    H1 1902   0.935   0.068  13.900  0.8225 -1.8666 -3.0548
  122MPD2    H2 1903   0.699   4.572  14.143  0.4431  0.8232  1.2750
  122MPD2    H3 1904   0.765   0.039  14.065 -1.6448 -1.1204 -0.2503
  122MPD2     N 1905   1.064   4.624  13.780 -0.0861  0.0178  0.5530
  122MPD2    H5 1906   1.040   4.706  13.724 -0.8310 -0.2186  0.5288
  122MPD2    N1 1907   0.826   4.324  14.081 -0.7794  0.1409  0.5099
  122MPD2    H7 1908   0.885   4.249  14.047  1.4163  0.4791  3.4580
  123TMC2    C1 1909   3.972   2.772  10.969 -0.4553  0.3121  0.6343
  123TMC2    C2 1910   4.107   2.772  10.991  0.8705 -0.0493  0.9441
  123TMC2    C3 1911   4.169   2.891  10.957 -0.0906  0.1147 -0.3199
  123TMC2    C4 1912   3.905   2.876  10.904 -0.0942  0.3501  0.4827
  123TMC2    C5 1913   3.977   2.994  10.882  0.2221  0.3876 -0.6777
  123TMC2    C6 1914   4.106   3.005  10.918  0.2323 -0.0973 -0.2953
  123TMC2     C 1915   3.910   2.640  10.989 -1.5981 -0.2227 -0.6108
  123TMC2     O 1916   3.956   2.556  11.069 -0.3123  0.9382 -0.5371
  123TMC2     H 1917   4.163   2.697  11.046  0.5059 -2.3371 -1.8471
  123TMC2    H1 1918   3.796   2.878  10.902 -0.1156 -0.2119  1.3213
  123TMC2    H2 1919   4.159   3.091  10.878  0.0687  0.5988  0.9957
  123TMC2    C7 1920   3.922   3.079  10.783  0.0939  0.4153  0.8137
  123TMC2    C8 1921   4.313   2.884  10.931  0.7278 -0.6393  0.5491
  123TMC2    O1 1922   3.952   3.195  10.787  0.1186 -0.1287 -0.3611
  123TMC2    O2 1923   4.390   2.977  10.949  0.3794 -0.2442 -0.2393
  123TMC2    O5 1924   4.341   2.755  10.900 -0.1529 -1.0285  0.5159
  123TMC2    H5 1925   4.259   2.705  10.883 -0.9236  0.9411 -1.4331
  124MPD2     C 1926   3.542   2.318  10.846 -0.0046 -0.7968 -0.4148
  124MPD2    C1 1927   3.551   2.413  10.748  0.6265  0.5670  0.6392
  124MPD2    C2 1928   3.654   2.503  10.770 -0.4902 -0.2151  0.2161
  124MPD2    C3 1929   3.729   2.516  10.877 -0.4611 -0.6505 -0.7360
  124MPD2    C4 1930   3.712   2.428  10.979 -0.3176  0.8864 -0.6430
  124MPD2    C5 1931   3.621   2.324  10.957 -0.7994  0.1480 -1.1261
  124MPD2     H 1932   3.672   2.572  10.688  2.0592  0.1921  1.0992
  124MPD2    H1 1933   3.748   2.437  11.080  0.9635  0.3318 -1.0434
  124MPD2    H2 1934   3.457   2.252  10.838  1.7470 -2.8325 -2.0994
  124MPD2    H3 1935   3.596   2.249  11.031  0.1899 -1.0415 -1.9906
  124MPD2     N 1936   3.828   2.615  10.884 -0.4356 -0.2015  0.1144
  124MPD2    H5 1937   3.837   2.675  10.802 -2.3739 -0.2992 -0.1610
  124MPD2    N1 1938   3.450   2.423  10.648 -0.3406 -0.4000  0.1243
  124MPD2    H7 1939   3.375   2.355  10.650 -1.4038  0.7342 -1.0919
  125TMC2    C1 1940   4.604   0.778   9.264 -0.2993 -0.0060  0.1346
  125TMC2    C2 1941   4.655   0.903   9.287  0.2699  0.1651  0.0375
  125TMC2    C3 1942   0.018   0.946   9.196 -0.5739  0.3391 -0.5413
  125TMC2    C4 1943   4.647   0.701   9.160 -0.3900 -0.1906  0.5183
  125TMC2    C5 1944   0.016   0.741   9.082  0.0736  0.4593 -0.0586
  125TMC2    C6 1945   0.072   0.863   9.105 -0.1521 -0.0523 -0.0146
  125TMC2     C 1946   4.496   0.738   9.348 -0.0868  0.0426 -0.7217
  125TMC2     O 1947   4.443   0.814   9.434 -0.2939  0.5598  0.3992
  125TMC2     H 1948   4.627   0.975   9.363  1.4905  0.8538 -0.1664
  125TMC2    H1 1949   4.599   0.605   9.141 -0.1057 -0.1459 -0.4625
  125TMC2    H2 1950   0.159   0.899   9.052 -0.0292  0.4731  0.5449
  125TMC2    C7 1951   0.040   0.661   8.960  0.0540  0.2980  0.2618
  125TMC2    C8 1952   0.080   1.073   9.219  0.0473  0.1799 -0.1362
  125TMC2    O1 1953   0.086   0.720   8.864 -0.0653  0.2936 -0.3796
  125TMC2    O2 1954   0.195   1.099   9.178  0.2551 -0.2437 -0.5204
  125TMC2    O5 1955   4.719   1.165   9.204 -0.1643 -0.0447 -0.0346
  125TMC2    H5 1956   4.633   1.118   9.198 -0.0913 -0.2069  0.1988
  126MPD1     C 1957   4.184   0.403   9.585 -0.0886  0.2705  0.1637
  126MPD1    C1 1958   4.240   0.343   9.468  0.2433  0.0843 -0.7493
  126MPD1    C2 1959   4.332   0.410   9.386 -0.4405  0.0782  0.5775
  126MPD1    C3 1960   4.376   0.538   9.422 -0.9666 -0.5589  0.1624
  126MPD1    C4 1961   4.325   0.593   9.543  0.4443 -0.1542 -0.0300
  126MPD1    C5 1962   4.224   0.533   9.612  0.5100 -0.3408  1.1092
  126MPD1     H 1963   4.366   0.369   9.291  1.9552 -1.7576  2.2178
  126MPD1    H1 1964   4.349   0.687   9.591 -1.4527  1.2887 -1.8922
  126MPD1    H2 1965   4.113   0.353   9.649  1.0877 -0.0189  1.2543
  126MPD1    H3 1966   4.182   0.580   9.700 -2.9010 -1.4629  0.0871
  126MPD1     N 1967   4.461   0.609   9.335  0.2788 -0.2986 -0.3634
  126MPD1    H5 1968   4.518   0.560   9.267 -0.5466 -0.5780 -0.8547
  126MPD1    N1 1969   4.199   0.214   9.429  0.0157  0.5069  0.3361
  126MPD1    H6 1970   4.130   0.174   9.492  1.1487  2.1023  2.6099
  126MPD1    H7 1971   4.166   0.222   9.333 -3.9056  0.5705  1.6882
  127TMC2    C1 1972   0.579   3.395  10.451  0.3391 -0.3464  0.2783
  127TMC2    C2 1973   0.658   3.387  10.560  0.0876  0.1576 -1.0337
  127TMC2    C3 1974   0.598   3.348  10.675  0.2867  0.3945 -0.0638
  127TMC2    C4 1975   0.451   3.354  10.446  0.2567 -0.5079 -0.2388
  127TMC2    C5 1976   0.400   3.312  10.567 -0.4979  0.1869  0.3583
  127TMC2    C6 1977   0.473   3.318  10.684 -0.6558  0.0693  0.4214
  127TMC2     C 1978   0.636   3.472  10.344  0.1184  0.5928  0.4230
  127TMC2     O 1979   0.728   3.548  10.365  0.0745 -0.2478  0.2360
  127TMC2     H 1980   0.757   3.432  10.564  0.4484 -0.8109  0.8388
  127TMC2    H1 1981   0.385   3.370  10.361 -0.0954 -1.4270 -0.1369
  127TMC2    H2 1982   0.439   3.278  10.779  0.4065  0.3844  0.9402
  127TMC2    C7 1983   0.285   3.232  10.555 -0.0356 -0.0617 -0.7514
  127TMC2    C8 1984   0.668   3.401  10.799  0.2355 -0.1869  0.2109
  127TMC2    O1 1985   0.223   3.248  10.448  0.1423  0.4593 -1.0686
  127TMC2    O2 1986   0.778   3.356  10.828 -0.4589  0.5997  0.2543
  127TMC2    O5 1987   0.645   3.530  10.784  0.3419 -0.2707 -0.2073
  127TMC2    H5 1988   0.569   3.576  10.744 -0.5037 -2.3037 -0.9421
  128MPD2     C 1989   0.552   3.460   9.993 -0.2859  0.8464  0.6970
  128MPD2    C1 1990   0.602   3.515  10.109 -0.4788  0.1216  1.2218
  128MPD2    C2 1991   0.676   3.632  10.094  0.1386  0.1104 -0.0107
  128MPD2    C3 1992   0.693   3.693   9.968 -0.9840 -0.6103  0.1553
  128MPD2    C4 1993   0.638   3.638   9.854 -0.6201 -0.5537  0.2805
  128MPD2    C5 1994   0.562   3.520   9.870  0.3741 -0.3879  0.2158
  128MPD2     H 1995   0.714   3.680  10.184  0.2037  1.2012 -0.6251
  128MPD2    H1 1996   0.641   3.686   9.757  1.3076  1.9707  1.5741
  128MPD2    H2 1997   0.483   3.376   9.993  0.9078 -0.1347  0.4667
  128MPD2    H3 1998   0.513   3.471   9.787  0.7223 -0.5621  0.1136
  128MPD2     N 1999   0.763   3.813   9.959 -0.7780 -0.1650 -0.2633
  128MPD2    H5 2000   0.820   3.849  10.035  2.4742  0.0570 -2.8094
  128MPD2    N1 2001   0.566   3.450  10.229  0.1465  0.5381  0.6487
  128MPD2    H7 2002   0.502   3.371  10.232  0.0379  0.6414  1.0743
  129TMC2    C1 2003   3.370   4.391   1.385 -0.7975 -0.3345  0.1744
  129TMC2    C2 2004   3.450   4.327   1.473  0.9816 -0.6233  0.9540
  129TMC2    C3 2005   3.395   4.258   1.580 -0.0121  0.7875  0.4047
  129TMC2    C4 2006   3.236   4.373   1.403 -0.3398  0.8758 -0.0633
  129TMC2    C5 2007   3.180   4.306   1.510  0.0700  0.7842 -1.1531
  129TMC2    C6 2008   3.260   4.248   1.608 -0.0408 -0.9701 -0.1049
  129TMC2     C 2009   3.416   4.432   1.250  0.8350  0.2093 -0.4741
  129TMC2     O 2010   3.345   4.504   1.180  0.2994 -0.1717 -0.5120
  129TMC2     H 2011   3.557   4.339   1.472  0.9714 -0.8725 -1.9142
  129TMC2    H1 2012   3.166   4.410   1.329  1.6267  2.5509 -1.1105
  129TMC2    H2 2013   3.222   4.172   1.675 -0.2123 -0.6902  0.1148
  129TMC2    C7 2014   3.040   4.300   1.531  0.7829  0.3890 -0.2448
  129TMC2    C8 2015   3.486   4.222   1.684 -0.0245 -0.1103 -0.6413
  129TMC2    O1 2016   2.972   4.330   1.433 -0.6033 -0.1736  0.0664
  129TMC2    O2 2017   3.608   4.230   1.672  0.0777 -0.0729 -0.3019
  129TMC2    O5 2018   3.416   4.196   1.798  0.4760 -0.4724  0.0445
  129TMC2    H5 2019   3.319   4.194   1.783  0.3562 -0.5336  0.8567
  130MPD2     C 2020   3.571   4.514   1.003 -0.3540 -0.1868 -0.2687
  130MPD2    C1 2021   3.621   4.429   1.105  1.1961 -0.0429  0.9500
  130MPD2    C2 2022   3.757   4.396   1.102  0.0720 -0.0112  0.3486
  130MPD2    C3 2023   3.830   4.435   0.992 -0.0184  0.0304 -0.6201
  130MPD2    C4 2024   3.785   4.512   0.889 -0.4081  0.2930 -0.4178
  130MPD2    C5 2025   3.657   4.548   0.896  0.1697  0.5004 -0.2884
  130MPD2     H 2026   3.802   4.331   1.176 -0.7621 -0.1055  0.7754
  130MPD2    H1 2027   3.838   4.540   0.799 -0.2213  1.7124  0.1295
  130MPD2    H2 2028   3.469   4.550   1.000 -0.5107 -0.5766  0.3356
  130MPD2    H3 2029   3.618   4.602   0.811  0.8818  0.7010 -0.4841
  130MPD2     N 2030   3.971   4.403   0.994  0.1964 -0.4382  0.1324
  130MPD2    H5 2031   3.996   4.342   1.070  2.2883 -0.6433 -0.7073
  130MPD2    N1 2032   3.547   4.387   1.221  0.1667  0.9108  0.0956
  130MPD2    H7 2033   3.598   4.341   1.296  0.2485 -0.9231 -1.0724
  131TMC2    C1 2034   3.346   3.440  10.589 -0.5257  0.7268  0.0052
  131TMC2    C2 2035   3.269   3.543  10.541  0.4273 -0.3077  0.6322
  131TMC2    C3 2036   3.306   3.668  10.566  0.1943 -0.7953  0.2992
  131TMC2    C4 2037   3.454   3.466  10.673 -1.1084 -0.7625 -0.8622
  131TMC2    C5 2038   3.491   3.599  10.695 -0.0711  0.0693 -0.3909
  131TMC2    C6 2039   3.414   3.701  10.640  0.6808 -0.0524 -0.1899
  131TMC2     C 2040   3.325   3.305  10.540 -0.6575  0.4125 -0.1792
  131TMC2     O 2041   3.358   3.209  10.607  0.2107  0.0600  0.0464
  131TMC2     H 2042   3.182   3.531  10.477 -1.3689  1.0379  2.8452
  131TMC2    H1 2043   3.529   3.390  10.688  0.4427  1.0491  0.5942
  131TMC2    H2 2044   3.421   3.805  10.669 -0.9901  0.0114 -0.0359
  131TMC2    C7 2045   3.611   3.614  10.775  0.7750 -0.3734 -0.6728
  131TMC2    C8 2046   3.239   3.775  10.492 -0.1790  0.0230  0.3262
  131TMC2    O1 2047   3.647   3.520  10.848 -0.1075  0.2481  0.1722
  131TMC2    O2 2048   3.124   3.782  10.461 -0.6341 -0.2492 -0.2485
  131TMC2    O5 2049   3.337   3.850  10.443 -0.3110  0.5388 -0.1190
  131TMC2    H5 2050   3.427   3.821  10.472 -2.0389 -3.1555  1.5747
  132MPD2     C 2051   3.166   3.245  10.220  0.0110 -0.2211 -0.5168
  132MPD2    C1 2052   3.232   3.209  10.328 -0.0167 -0.0255 -0.4105
  132MPD2    C2 2053   3.230   3.081  10.366 -0.2253 -0.6260  0.0757
  132MPD2    C3 2054   3.178   2.982  10.281  0.0776 -0.5493 -0.3066
  132MPD2    C4 2055   3.112   3.022  10.167  0.1379 -0.5387  0.3598
  132MPD2    C5 2056   3.105   3.153  10.143 -0.2994  0.5038  0.7516
  132MPD2     H 2057   3.293   3.046  10.446 -1.0904 -0.3622  0.8679
  132MPD2    H1 2058   3.057   2.948  10.111  3.4867 -1.8745 -1.1473
  132MPD2    H2 2059   3.146   3.351  10.205 -0.2572 -0.3495 -1.0539
  132MPD2    H3 2060   3.046   3.196  10.064 -0.4061 -0.4403  0.3217
  132MPD2     N 2061   3.205   2.849  10.309  0.6014  0.3577 -0.2628
  132MPD2    H5 2062   3.261   2.837  10.393 -1.6179 -0.1164  1.1420
  132MPD2    N1 2063   3.281   3.311  10.412  0.4204  0.0979 -0.2264
  132MPD2    H7 2064   3.267   3.403  10.372  1.0681 -0.3335 -1.4717
  133TMC2    C1 2065   3.816   4.128   9.643  0.7216  0.1904 -0.1423
  133TMC2    C2 2066   3.876   4.038   9.715 -0.4096  0.5306  0.4987
  133TMC2    C3 2067   3.934   4.081   9.837  0.7220  0.2222 -0.2630
  133TMC2    C4 2068   3.804   4.263   9.672 -0.3236 -0.5366  0.3697
  133TMC2    C5 2069   3.869   4.303   9.793  0.4335  0.0762 -0.2104
  133TMC2    C6 2070   3.943   4.211   9.869 -0.8040  0.2841 -0.5901
  133TMC2     C 2071   3.724   4.088   9.540  1.2016  0.3163 -0.4185
  133TMC2     O 2072   3.712   3.967   9.523 -0.0588  0.0839 -0.3427
  133TMC2     H 2073   3.878   3.936   9.678 -2.3637 -0.5303  3.2965
  133TMC2    H1 2074   3.740   4.336   9.623 -1.0114 -0.3612  1.5209
  133TMC2    H2 2075   3.987   4.244   9.963 -1.7554 -1.0714  0.3300
  133TMC2    C7 2076   3.875   4.444   9.833  0.0971 -0.3271  0.4131
  133TMC2    C8 2077   4.016   3.992   9.914 -0.3357  0.7144  0.1664
  133TMC2    O1 2078   3.887   4.464   9.953 -0.0039  0.1313  0.0105
  133TMC2    O2 2079   4.004   3.868   9.907  0.1392 -0.3987 -0.4514
  133TMC2    O5 2080   4.140   4.055   9.915  0.0986 -0.7006 -0.3964
  133TMC2    H5 2081   4.144   4.150   9.890  0.2430 -0.0069  2.2421
  134MPD2     C 2082   3.562   4.320   9.301 -0.2698  0.2702  0.0665
  134MPD2    C1 2083   3.584   4.204   9.366 -0.0611 -0.3655  0.3831
  134MPD2    C2 2084   3.483   4.112   9.353 -0.1485 -0.0647 -0.0523
  134MPD2    C3 2085   3.376   4.124   9.267  0.1252  0.3845  0.1907
  134MPD2    C4 2086   3.371   4.238   9.186 -0.7797 -0.5496  0.1502
  134MPD2    C5 2087   3.464   4.333   9.216 -0.1037 -0.1922 -1.1114
  134MPD2     H 2088   3.492   4.021   9.411  1.6082  0.7304  0.9153
  134MPD2    H1 2089   3.292   4.250   9.113  1.0542  3.2393 -1.2026
  134MPD2    H2 2090   3.627   4.406   9.320 -2.2003  0.9923  3.4256
  134MPD2    H3 2091   3.457   4.430   9.169 -1.3310 -0.5322 -1.6275
  134MPD2     N 2092   3.284   4.025   9.238 -0.4037 -0.1556 -0.0908
  134MPD2    H5 2093   3.215   4.045   9.166 -2.6644 -1.0675  1.8055
  134MPD2    N1 2094   3.692   4.195   9.455 -0.1035 -0.6830  0.6620
  134MPD2    H7 2095   3.747   4.279   9.463 -2.0776  0.6383  0.5070
  135TMC2    C1 2096   4.660   0.485   9.662 -0.6304  0.2033  0.5753
  135TMC2    C2 2097   4.577   0.545   9.753  0.2877  0.2082  0.1907
  135TMC2    C3 2098   4.507   0.468   9.843  0.0521  0.1506 -0.5291
  135TMC2    C4 2099   4.703   0.363   9.692  0.1763  0.2706 -0.1569
  135TMC2    C5 2100   4.633   0.288   9.779 -0.2122 -0.1680 -0.4909
  135TMC2    C6 2101   4.532   0.339   9.850  0.1488  0.1782 -0.5431
  135TMC2     C 2102   4.725   0.574   9.567 -0.5102 -0.3029  0.5361
  135TMC2     O 2103   4.711   0.693   9.577 -0.5223 -0.0713  0.6961
  135TMC2     H 2104   4.549   0.648   9.738 -3.0445 -0.9310 -1.2616
  135TMC2    H1 2105   0.052   0.319   9.641  0.2377 -2.3994  2.2679
  135TMC2    H2 2106   4.481   0.274   9.919  1.9505  0.6490  1.2398
  135TMC2    C7 2107   4.637   0.143   9.755 -0.2493  0.5021 -0.1093
  135TMC2    C8 2108   4.404   0.523   9.920  0.0317  0.2471  0.6327
  135TMC2    O1 2109   4.670   0.119   9.640 -0.2459  0.5237 -0.5476
  135TMC2    O2 2110   4.388   0.642   9.934 -0.1196  0.5636 -0.3891
  135TMC2    O5 2111   4.291   0.449   9.915  0.5898  0.0137 -0.2078
  135TMC2    H5 2112   4.294   0.351   9.910 -0.6654 -0.0075 -0.6150
  136MPD2     C 2113   0.201   0.680   9.388 -0.1832 -0.6473 -0.2531
  136MPD2    C1 2114   0.165   0.547   9.394  0.2146 -0.8876 -0.2267
  136MPD2    C2 2115   0.224   0.453   9.320 -0.1193 -0.1424 -0.0641
  136MPD2    C3 2116   0.319   0.498   9.223  0.0226 -0.0963  0.4642
  136MPD2    C4 2117   0.352   0.629   9.213  0.2724 -0.3396 -0.1494
  136MPD2    C5 2118   0.284   0.717   9.286  0.1956 -0.1625 -0.1274
  136MPD2     H 2119   0.190   0.350   9.322  1.7056 -0.7830 -1.6562
  136MPD2    H1 2120   0.413   0.671   9.133  0.6519  0.4796  0.5594
  136MPD2    H2 2121   0.153   0.750   9.456  1.6771  1.8217 -1.4969
  136MPD2    H3 2122   0.287   0.822   9.260  1.0275 -0.2964 -0.5525
  136MPD2     N 2123   0.386   0.417   9.133 -0.4061 -0.3961 -0.2219
  136MPD2    H5 2124   0.451   0.454   9.064  1.3753  0.5125  1.9662
  136MPD2    N1 2125   0.063   0.501   9.479 -0.0933 -0.2297  0.2720
  136MPD2    H7 2126   0.049   0.400   9.479 -1.7680  0.0177 -2.4763
  137TMC2    C1 2127   4.287   4.474   9.668 -0.6747  0.6706  1.0684
  137TMC2    C2 2128   4.343   4.516   9.551  0.5176 -1.0909 -0.6293
  137TMC2    C3 2129   4.364   4.650   9.537 -0.2996  0.2696 -0.1443
  137TMC2    C4 2130   4.242   4.564   9.766 -0.6684  0.1169 -0.2591
  137TMC2    C5 2131   4.265   4.691   9.747 -0.0097 -0.0830 -0.6859
  137TMC2    C6 2132   4.328   0.004   9.634 -0.7354 -0.4593 -0.9889
  137TMC2     C 2133   4.244   4.340   9.685 -0.3410 -0.3438 -0.2718
  137TMC2     O 2134   4.214   4.298   9.796 -0.0151 -0.3559  0.2473
  137TMC2     H 2135   4.389   4.455   9.474 -1.7579 -1.7083 -1.5045
  137TMC2    H1 2136   4.191   4.519   9.851  0.0492  1.9096  1.1216
  137TMC2    H2 2137   4.333   0.112   9.621  0.7252 -0.3616  0.3981
  137TMC2    C7 2138   4.240   0.047   9.857  0.5320 -0.0742  0.4482
  137TMC2    C8 2139   4.472   4.680   9.445  0.6361 -0.0983 -0.3758
  137TMC2    O1 2140   4.273   0.162   9.843 -0.3091 -0.2937 -0.2246
  137TMC2    O2 2141   4.549   4.596   9.411  0.2280 -0.1214  0.6374
  137TMC2    O5 2142   4.462   0.079   9.414 -0.4841  0.2999 -0.4515
  137TMC2    H5 2143   4.376   0.121   9.436 -0.6104 -0.5871  0.7104
  138MPD2     C 2144   4.141   4.107   9.429 -0.4146 -0.0833 -0.4861
  138MPD2    C1 2145   4.212   4.145   9.538 -0.0217  0.0037 -0.9989
  138MPD2    C2 2146   4.258   4.050   9.623 -0.0109 -0.5828 -0.3062
  138MPD2    C3 2147   4.229   3.916   9.607 -0.1575  0.3159  0.3971
  138MPD2    C4 2148   4.149   3.880   9.501 -0.3083 -0.0692  0.0017
  138MPD2    C5 2149   4.104   3.976   9.417  0.7110 -0.2603  0.4024
  138MPD2     H 2150   4.320   4.083   9.706  0.4565 -0.0429 -0.8696
  138MPD2    H1 2151   4.107   3.781   9.488  0.6800 -0.4831 -0.0607
  138MPD2    H2 2152   4.120   4.185   9.356 -0.4102 -1.4600 -1.9578
  138MPD2    H3 2153   4.036   3.946   9.338 -0.7092 -1.6995  2.1568
  138MPD2     N 2154   4.280   3.827   9.705 -0.2813 -0.1096  0.5101
  138MPD2    H5 2155   4.346   3.856   9.776 -0.1001 -1.0223  0.7088
  138MPD2    N1 2156   4.241   4.281   9.560  0.1652  0.7597  0.0829
  138MPD2    H7 2157   4.219   4.351   9.490  1.5017 -0.3377 -1.4365
  139TMC2    C1 2158   0.563   2.519  13.501  0.7784 -0.8135 -0.3928
  139TMC2    C2 2159   0.638   2.590  13.417 -0.2873 -0.1568  0.0233
  139TMC2    C3 2160   0.620   2.724  13.417  0.6040 -0.5689 -0.3869
  139TMC2    C4 2161   0.471   2.583  13.579 -0.0202 -0.4148  0.1452
  139TMC2    C5 2162   0.448   2.715  13.565  0.4369  0.4672  0.2390
  139TMC2    C6 2163   0.523   2.789  13.489  0.6207  0.7142  0.3726
  139TMC2     C 2164   0.572   2.376  13.491  0.3577 -0.2541  0.7686
  139TMC2     O 2165   0.652   2.315  13.423 -0.3967  0.0386  0.7832
  139TMC2     H 2166   0.710   2.547  13.348 -1.0245 -0.9457 -0.2621
  139TMC2    H1 2167   0.424   2.527  13.659 -2.4941  0.6010 -0.6083
  139TMC2    H2 2168   0.507   2.895  13.478 -0.6590  0.4309 -0.4515
  139TMC2    C7 2169   0.348   2.777  13.655 -0.2799  0.2201 -0.0319
  139TMC2    C8 2170   0.720   2.799  13.341 -0.3300 -0.3763 -0.2275
  139TMC2    O1 2171   0.351   2.899  13.672  0.2163  0.4192  0.1335
  139TMC2    O2 2172   0.760   2.743  13.238  0.0257 -0.0665 -0.2886
  139TMC2    O5 2173   0.795   2.875  13.429  0.4712  0.1301 -0.8930
  139TMC2    H5 2174   0.764   2.880  13.522  1.3287 -1.0401 -0.5507
  140MPD2     C 2175   0.307   2.150  13.628  0.2418  0.3751 -0.2184
  140MPD2    C1 2176   0.430   2.191  13.580 -0.1370 -0.2132  1.1120
  140MPD2    C2 2177   0.539   2.102  13.575 -0.3701 -0.8911 -0.0215
  140MPD2    C3 2178   0.518   1.970  13.604  0.3997  0.7841  0.4888
  140MPD2    C4 2179   0.387   1.931  13.636 -0.2798 -0.4537 -0.5558
  140MPD2    C5 2180   0.288   2.022  13.650  0.2247 -0.5701  0.4917
  140MPD2     H 2181   0.636   2.131  13.536 -0.1930  1.3417  2.1063
  140MPD2    H1 2182   0.374   1.823  13.645 -0.5027 -0.3118  0.9191
  140MPD2    H2 2183   0.220   2.214  13.637 -2.0099 -2.2766 -3.0430
  140MPD2    H3 2184   0.190   1.984  13.676 -0.2511 -0.0504 -0.5376
  140MPD2     N 2185   0.628   1.880  13.590 -0.4196 -0.0572 -0.1680
  140MPD2    H5 2186   0.713   1.914  13.548  0.3334 -0.6693  0.8618
  140MPD2    N1 2187   0.458   2.326  13.548  0.0067  0.0745  0.1326
  140MPD2    H7 2188   0.374   2.382  13.563 -0.4206 -0.0050 -2.0589
  141TMC2    C1 2189   1.508   3.225  14.337 -0.3964  0.0478  0.3025
  141TMC2    C2 2190   1.503   3.151  14.457  0.1089  0.1829 -0.1389
  141TMC2    C3 2191   1.561   3.205  14.567  0.0777 -0.3566 -0.0572
  141TMC2    C4 2192   1.563   3.355  14.331  0.1435 -0.5237 -0.1299
  141TMC2    C5 2193   1.624   3.397  14.442 -0.9840  0.7254  0.3172
  141TMC2    C6 2194   1.616   3.331  14.561 -0.4185  0.3538  0.5217
  141TMC2     C 2195   1.415   3.197  14.235  0.3848  0.3962  0.1114
  141TMC2     O 2196   1.415   3.278  14.143 -0.5253  0.2126 -0.3688
  141TMC2     H 2197   1.463   3.051  14.450  0.6188 -0.0465  0.1935
  141TMC2    H1 2198   1.571   3.409  14.237 -1.3948  0.7696  0.4718
  141TMC2    H2 2199   1.670   3.367  14.647 -2.7418  0.8320  1.7907
  141TMC2    C7 2200   1.733   3.495  14.423  0.5085 -0.5715 -0.4128
  141TMC2    C8 2201   1.582   3.125  14.690 -0.4367 -0.1290 -0.5483
  141TMC2    O1 2202   1.775   3.540  14.530 -0.0093 -0.3540 -0.1458
  141TMC2    O2 2203   1.667   3.163  14.766  0.0649  0.4036  0.5191
  141TMC2    O5 2204   1.465   3.050  14.718  0.1936 -0.1647  0.2820
  141TMC2    H5 2205   1.411   3.015  14.644  0.2059 -1.0497  0.6907
  142TMC2    C1 2206   3.533   2.491  10.076  0.1652  0.1058  0.4190
  142TMC2    C2 2207   3.525   2.544   9.948  0.5135  0.1995 -1.0837
  142TMC2    C3 2208   3.544   2.680   9.932 -0.4544 -0.2574 -0.3130
  142TMC2    C4 2209   3.586   2.563  10.176 -0.2268  0.4760 -0.6472
  142TMC2    C5 2210   3.621   2.694  10.149 -0.9044 -0.2618 -0.4096
  142TMC2    C6 2211   3.600   2.765  10.031 -0.3817 -0.7368 -0.4907
  142TMC2     C 2212   3.463   2.368  10.114  0.0574 -0.4309  0.1886
  142TMC2     O 2213   3.474   2.330  10.231 -0.0296  0.0155 -0.0318
  142TMC2     H 2214   3.483   2.493   9.863  1.0777  1.3929 -2.0813
  142TMC2    H1 2215   3.603   2.531  10.278  0.0215  1.4020 -0.3992
  142TMC2    H2 2216   3.647   2.860  10.007 -1.5745  0.3476  1.4733
  142TMC2    C7 2217   3.671   2.761  10.263  0.2924  0.1382 -0.1926
  142TMC2    C8 2218   3.561   2.725   9.800 -0.0086 -0.6025  0.1938
  142TMC2    O1 2219   3.766   2.707  10.327  0.2342 -0.0210 -0.3614
  142TMC2    O2 2220   3.672   2.739   9.753 -0.4037  0.1103 -0.3106
  142TMC2    O5 2221   3.478   2.830   9.806 -0.4319 -0.0340  0.1380
  142TMC2    H5 2222   3.397   2.823   9.862 -0.5650 -0.2003 -0.0750
  143MPD2     C 2223   3.134   1.991  10.001  0.1083 -0.0044  0.3509
  143MPD2    C1 2224   3.203   2.001  10.117  0.1828 -0.2207  0.2686
  143MPD2    C2 2225   3.289   2.113  10.133 -0.3860 -0.3134  0.1197
  143MPD2    C3 2226   3.310   2.193  10.018 -0.4422 -0.0884  0.0609
  143MPD2    C4 2227   3.249   2.159   9.899  0.0161  0.8767  0.1412
  143MPD2    C5 2228   3.161   2.058   9.888 -0.1562 -0.1217 -0.1717
  143MPD2     H 2229   3.352   2.132  10.219  2.1893 -3.1859 -1.1406
  143MPD2    H1 2230   3.273   2.206   9.804  2.3027  0.4458  0.5300
  143MPD2    H2 2231   3.065   1.908   9.992 -1.4765  1.1473  1.9465
  143MPD2    H3 2232   3.118   2.016   9.797  2.4302 -0.7773 -1.0968
  143MPD2     N 2233   3.384   2.318  10.016  0.5031  0.8567 -0.7221
  143MPD2    H5 2234   3.369   2.359   9.924  3.2732  1.5867 -0.8503
  143MPD2    N1 2235   3.180   1.902  10.213  0.2405  0.3715  0.5216
  143MPD2    H7 2236   3.096   1.847  10.203  1.3110 -1.8620  3.6514
  144TMC2    C1 2237   2.041   1.442   0.467  0.4296 -0.3268 -0.1531
  144TMC2    C2 2238   2.092   1.319   0.482  0.3403  0.5506  0.5033
  144TMC2    C3 2239   2.178   1.300   0.583 -0.7398  0.5018  0.7649
  144TMC2    C4 2240   2.062   1.534   0.562  0.0545  0.0211  0.2885
  144TMC2    C5 2241   2.162   1.519   0.658 -0.4506 -0.2357  0.1345
  144TMC2    C6 2242   2.227   1.399   0.662 -0.8173  0.1893 -0.7625
  144TMC2     C 2243   1.929   1.460   0.379  0.3715 -0.3734  0.5386
  144TMC2     O 2244   1.871   1.364   0.328  0.2404  0.5260  0.7820
  144TMC2     H 2245   2.080   1.242   0.406 -0.1971  2.3939 -1.3001
  144TMC2    H1 2246   2.026   1.636   0.555 -0.9403 -0.3326  0.2382
  144TMC2    H2 2247   2.302   1.374   0.736 -1.6851  1.9769  0.7100
  144TMC2    C7 2248   2.171   1.629   0.757  0.2633 -0.3628 -0.0057
  144TMC2    C8 2249   2.237   1.165   0.603 -0.4149 -0.2760  0.1185
  144TMC2    O1 2250   2.083   1.712   0.762  0.0733 -0.1269 -0.2573
  144TMC2    O2 2251   2.220   1.069   0.527  0.2921 -0.0275 -0.7132
  144TMC2    O5 2252   2.287   1.161   0.725  0.3677  0.9706 -0.0552
  144TMC2    H5 2253   2.240   1.217   0.791  1.5868  1.7085  0.1845
  145MPD2     C 2254   1.746   1.756   0.013 -0.2698 -0.7621  0.1800
  145MPD2    C1 2255   1.729   1.624   0.024 -0.2673 -0.1820 -0.2653
  145MPD2    C2 2256   1.794   1.566   0.131 -0.0813  0.4449  0.6686
  145MPD2    C3 2257   1.849   1.636   0.229 -0.8908 -0.1608 -0.7037
  145MPD2    C4 2258   1.848   1.775   0.225  0.0518 -0.0338  0.3267
  145MPD2    C5 2259   1.796   1.837   0.113  0.0539 -0.3314 -0.1857
  145MPD2     H 2260   1.808   1.459   0.137 -2.5571  0.0948  0.0470
  145MPD2    H1 2261   1.869   1.844   0.306  2.3121 -1.0481  0.6019
  145MPD2    H2 2262   1.708   1.812  17.667  1.3817  1.2423  0.7617
  145MPD2    H3 2263   1.806   1.945   0.105 -0.5176 -0.2649  0.0354
  145MPD2     N 2264   1.919   1.589   0.338 -0.5876 -0.3006  0.2968
  145MPD2    H5 2265   1.953   1.660   0.403  0.0977 -0.3206 -0.0405
  145MPD2    N1 2266   1.655   1.547  17.676  0.2657  0.0076 -0.1723
  145MPD2    H7 2267   1.651   1.452  17.711 -2.6460  0.1874  0.0076
  146TMC2    C1 2268   3.232   4.696  12.617  0.0512 -0.6012  0.4429
  146TMC2    C2 2269   3.179   4.724  12.493  0.7398  0.1720  0.8766
  146TMC2    C3 2270   3.223   4.655  12.386  0.1825  0.0026  0.0035
  146TMC2    C4 2271   3.321   4.595  12.636 -0.4622 -0.0787  0.5028
  146TMC2    C5 2272   3.377   4.547  12.521  0.9523  0.6756 -0.3811
  146TMC2    C6 2273   3.332   4.575  12.387 -0.2910 -0.4658 -0.5800
  146TMC2     C 2274   3.192   0.052  12.722  0.1592 -0.4027  0.3123
  146TMC2     O 2275   3.106   0.134  12.692  0.7342 -0.1212  0.2287
  146TMC2     H 2276   3.089   0.049  12.490  1.9715  1.8582 -2.4964
  146TMC2    H1 2277   3.358   4.562  12.732  1.0112 -1.4205 -0.5239
  146TMC2    H2 2278   3.375   4.531  12.298  0.1416 -1.1125 -0.0493
  146TMC2    C7 2279   3.500   4.474  12.517  0.2300  0.4066  0.9553
  146TMC2    C8 2280   3.145   4.686  12.273 -0.0167  0.0561 -0.1524
  146TMC2    O1 2281   3.558   4.456  12.410  0.2165  0.2446 -0.0509
  146TMC2    O2 2282   3.107   0.062  12.238  0.1485 -0.0047  0.1655
  146TMC2    O5 2283   3.170   4.580  12.189 -0.1374 -0.0903 -0.4347
  146TMC2    H5 2284   3.161   4.503  12.249  0.4198 -0.1982 -0.4918
  147MPD2     C 2285   3.920   4.316  12.774  0.2076  0.3115 -0.4666
  147MPD2    C1 2286   3.807   4.317  12.861  0.6977  0.0335 -0.1237
  147MPD2    C2 2287   3.684   4.349  12.812 -0.8001  0.1298 -1.0129
  147MPD2    C3 2288   3.668   4.385  12.679  0.7315  0.5343 -0.1051
  147MPD2    C4 2289   3.776   4.387  12.596  0.0030  1.0895 -0.8881
  147MPD2    C5 2290   3.895   4.352  12.641  0.4450 -0.2481  0.5594
  147MPD2     H 2291   3.601   4.346  12.881 -2.2185 -0.4059 -2.7720
  147MPD2    H1 2292   3.768   4.420  12.493  1.6298 -1.7637 -1.9138
  147MPD2    H2 2293   4.017   4.280  12.805 -0.1151 -0.2079 -0.0640
  147MPD2    H3 2294   3.992   4.354  12.591  0.0820 -0.5872 -0.1448
  147MPD2     N 2295   3.544   4.441  12.639 -0.1878  0.8488  0.2158
  147MPD2    H5 2296   3.475   4.449  12.714  0.5272  0.5418  0.9117
  147MPD2    N1 2297   3.824   4.268  12.993  0.2043 -0.2351 -0.5840
  147MPD2    H7 2298   3.919   4.246  13.019  0.4636 -1.5709 -2.7072
  148TMC2    C1 2299   2.870   4.011  10.373 -0.4271 -0.9699 -0.2689
  148TMC2    C2 2300   2.975   4.101  10.375 -0.6090 -0.6754 -0.7516
  148TMC2    C3 2301   3.051   4.119  10.487 -0.0885 -0.0300  0.2704
  148TMC2    C4 2302   2.829   3.940  10.486  0.3527 -0.3863  1.2714
  148TMC2    C5 2303   2.911   3.964  10.601 -0.3883 -0.3021  0.3455
  148TMC2    C6 2304   3.019   4.046  10.603 -0.5077 -0.2961 -0.3521
  148TMC2     C 2305   2.805   3.997  10.239  0.0978  0.5774  0.5345
  148TMC2     O 2306   2.846   4.061  10.143 -0.3211 -0.0900 -0.3411
  148TMC2     H 2307   3.000   4.150  10.282 -2.2254 -1.5364 -1.6389
  148TMC2    H1 2308   2.749   3.867  10.490  2.2485 -2.7408 -2.5463
  148TMC2    H2 2309   3.063   4.095  10.690  0.8321 -2.5905  0.2417
  148TMC2    C7 2310   2.908   3.858  10.696  0.0996  0.3956  0.6587
  148TMC2    C8 2311   3.146   4.218  10.491 -0.6915 -0.1270 -0.6068
  148TMC2    O1 2312   2.817   3.775  10.694 -0.3841  0.0711  0.3494
  148TMC2    O2 2313   3.213   4.229  10.592 -0.1217  0.2576  0.8972
  148TMC2    O5 2314   3.103   4.323  10.417 -0.0900  0.3102  0.2156
  148TMC2    H5 2315   3.015   4.311  10.374  0.5697  0.2105 -1.1013
  149MPD2     C 2316   2.677   3.858  10.000  0.0064 -1.0311 -0.2125
  149MPD2    C1 2317   2.675   3.811  10.130  0.3603 -0.1502 -0.1162
  149MPD2    C2 2318   2.613   3.690  10.162  0.2308 -0.4108 -0.4938
  149MPD2    C3 2319   2.552   3.617  10.060  0.9245  0.3250  0.4901
  149MPD2    C4 2320   2.572   3.656   9.929 -0.2532  0.0707  0.1774
  149MPD2    C5 2321   2.627   3.777   9.897  0.5946  0.1454  0.4741
  149MPD2     H 2322   2.611   3.643  10.260 -4.6282  3.0931  1.0904
  149MPD2    H1 2323   2.556   3.593   9.843  1.4745  0.2409 -0.2842
  149MPD2    H2 2324   2.716   3.958   9.982  0.8738 -1.1269  1.1421
  149MPD2    H3 2325   2.640   3.813   9.795  0.6935  1.1147  0.8283
  149MPD2     N 2326   2.476   3.495  10.081  0.7116  0.8287  0.1356
  149MPD2    H5 2327   2.466   3.442   9.995  2.4825  0.5337  0.1157
  149MPD2    N1 2328   2.726   3.876  10.242 -0.4744 -0.4217 -0.2348
  149MPD2    H7 2329   2.716   3.828  10.331  1.5428 -1.7132 -0.7006
  150TMC2    C1 2330   0.462   2.335  12.344 -0.5563  0.0646 -0.3013
  150TMC2    C2 2331   0.404   2.448  12.287 -0.0477  0.1717  0.4085
  150TMC2    C3 2332   0.491   2.539  12.235 -0.2399 -0.0108 -0.7393
  150TMC2    C4 2333   0.599   2.330  12.369  0.2575  0.3730 -0.3127
  150TMC2    C5 2334   0.677   2.431  12.317  0.4700  0.3625 -0.6159
  150TMC2    C6 2335   0.623   2.530  12.249 -0.5150 -0.1687 -0.2805
  150TMC2     C 2336   0.389   2.223  12.399 -0.2178  0.0750  0.6593
  150TMC2     O 2337   0.436   2.171  12.501 -0.0411 -0.0326  0.0605
  150TMC2     H 2338   0.296   2.457  12.288 -0.0710 -0.1728  1.2206
  150TMC2    H1 2339   0.638   2.248  12.428 -1.6973  0.4421  1.1064
  150TMC2    H2 2340   0.680   2.618  12.223 -0.5848  0.0492  0.3103
  150TMC2    C7 2341   0.823   2.444  12.340  0.2134 -1.0129  0.3931
  150TMC2    C8 2342   0.431   2.652  12.182  0.0925 -0.2439  0.6763
  150TMC2    O1 2343   0.895   2.501  12.257 -0.9292  0.1915 -0.0420
  150TMC2    O2 2344   0.309   2.666  12.178  0.5615 -0.9376  0.2073
  150TMC2    O5 2345   0.490   2.650  12.068  0.7659  0.4287  0.5186
  150TMC2    H5 2346   0.565   2.587  12.062  0.6563  0.3169  0.3150
  151MPD2     C 2347   4.665   2.022  12.495 -0.0227 -0.0342  0.2143
  151MPD2    C1 2348   4.648   2.112  12.395  0.7440 -0.3467  0.6153
  151MPD2    C2 2349   0.025   2.181  12.360  0.0284 -0.2179  0.0768
  151MPD2    C3 2350   0.153   2.154  12.407  0.2869  0.2044 -1.3192
  151MPD2    C4 2351   0.162   2.069  12.513  0.0740 -0.2135 -0.2641
  151MPD2    C5 2352   0.048   2.006  12.552 -0.1114  0.3261  0.2117
  151MPD2     H 2353   0.008   2.260  12.287 -2.3250  0.8679  1.7829
  151MPD2    H1 2354   0.254   2.030  12.553  0.0050  0.0320  0.1335
  151MPD2    H2 2355   4.577   1.966  12.526 -0.2005  0.2164  0.1673
  151MPD2    H3 2356   0.064   1.930  12.628 -4.1952 -1.5408 -0.7434
  151MPD2     N 2357   0.262   2.215  12.338  0.0003 -0.1542 -0.2993
  151MPD2    H5 2358   0.242   2.266  12.253 -1.1271 -1.2651 -0.6981
  151MPD2    N1 2359   4.520   2.136  12.337  0.2666  0.2244  0.8268
  151MPD2    H7 2360   4.441   2.093  12.385 -0.7802 -1.6110 -2.5691
  152TMC2    C1 2361   0.107   2.445  12.628  0.6055  0.6906 -0.0297
  152TMC2    C2 2362   0.144   2.339  12.703  0.2293  0.3561  0.2948
  152TMC2    C3 2363   0.281   2.331  12.726  0.2306 -0.2097  0.6629
  152TMC2    C4 2364   0.199   2.540  12.589  0.0885  0.8220  0.5946
  152TMC2    C5 2365   0.328   2.536  12.631 -0.2062 -0.5051 -0.3653
  152TMC2    C6 2366   0.372   2.431  12.702  0.1337 -0.1030 -0.6617
  152TMC2     C 2367   4.703   2.457  12.583  0.4061  0.0423  1.1528
  152TMC2     O 2368   4.671   2.549  12.506  0.2296  0.3606  0.2048
  152TMC2     H 2369   0.078   2.253  12.716  3.5808 -2.2646 -0.1197
  152TMC2    H1 2370   0.173   2.624  12.525  0.0514 -1.0267 -1.8278
  152TMC2    H2 2371   0.474   2.420  12.737 -0.4653 -1.8893  0.5408
  152TMC2    C7 2372   0.423   2.634  12.569 -0.0053 -0.2837  0.1100
  152TMC2    C8 2373   0.325   2.212  12.797 -0.8343 -0.5042  0.1906
  152TMC2    O1 2374   0.381   2.702  12.482  0.0349 -0.1663  0.3616
  152TMC2    O2 2375   0.248   2.154  12.876 -0.3561 -0.2586  0.8402
  152TMC2    O5 2376   0.454   2.193  12.785  0.1143  0.1307 -0.7194
  152TMC2    H5 2377   0.494   2.230  12.704  2.2555 -0.5004  0.0519
  153MPD2     C 2378   4.437   2.222  12.689  0.5126 -0.0726  0.1603
  153MPD2    C1 2379   4.486   2.335  12.625 -0.3751 -0.0473 -0.2899
  153MPD2    C2 2380   4.393   2.427  12.567 -0.2459 -0.3374 -0.4647
  153MPD2    C3 2381   4.254   2.406  12.572 -0.6945 -0.0308  0.2371
  153MPD2    C4 2382   4.201   2.296  12.642  0.9034 -0.5776 -0.3406
  153MPD2    C5 2383   4.295   2.208  12.707  0.2315 -0.0134 -0.0082
  153MPD2     H 2384   4.435   2.511  12.514 -2.3701  0.6379 -0.6001
  153MPD2    H1 2385   4.100   2.293  12.679  0.5606  2.2482 -1.1019
  153MPD2    H2 2386   4.507   2.154  12.736  0.2720 -0.5416 -0.1558
  153MPD2    H3 2387   4.253   2.124  12.760 -0.9226  0.6422  0.1185
  153MPD2     N 2388   4.159   2.500  12.522  0.0125  0.8428  0.2516
  153MPD2    H5 2389   4.064   2.494  12.555  0.3132  1.0450  1.1607
  153MPD2    N1 2390   4.624   2.357  12.631 -0.9079  0.0400  0.1995
  153MPD2    H7 2391   4.678   2.293  12.689 -0.1454 -1.1864 -1.8780
  154TMC2    C1 2392   2.420   2.780  17.676 -0.1648  0.3709 -0.8712
  154TMC2    C2 2393   2.382   2.701   0.039 -0.3596  0.3994 -0.3592
  154TMC2    C3 2394   2.446   2.580   0.047 -0.8881  0.4021  0.5274
  154TMC2    C4 2395   2.510   2.742  17.576  0.1517  0.2995 -0.2348
  154TMC2    C5 2396   2.558   2.617  17.587  0.0996  0.3542  0.7334
  154TMC2    C6 2397   2.534   2.531  17.689 -0.5355  0.2829  0.0033
  154TMC2     C 2398   2.353   2.908  17.673 -0.6897  0.1181 -0.8101
  154TMC2     O 2399   2.245   2.912  17.724 -0.5198 -0.5160  0.2546
  154TMC2     H 2400   2.311   2.741   0.110 -1.2285 -0.7324 -0.5842
  154TMC2    H1 2401   2.507   2.792  17.480 -1.1495  0.6380 -0.0188
  154TMC2    H2 2402   2.578   2.432  17.696  1.2674  1.1384  0.7151
  154TMC2    C7 2403   2.662   2.568  17.496  0.0600  0.6409  0.3080
  154TMC2    C8 2404   2.404   2.491   0.150  0.7148 -0.4300 -0.3021
  154TMC2    O1 2405   2.688   2.449  17.490  0.2819  0.4021  0.2586
  154TMC2    O2 2406   2.341   2.391   0.132  0.2516 -0.7386 -0.1689
  154TMC2    O5 2407   2.483   2.510   0.263  0.1406  0.3103  0.0744
  154TMC2    H5 2408   2.558   2.573   0.260 -0.6329  1.2464  0.0483
  155MPD2     C 2409   2.498   3.241  17.564 -0.5025 -0.3727 -0.5807
  155MPD2    C1 2410   2.404   3.148  17.604  0.4342 -0.6248 -0.0898
  155MPD2    C2 2411   2.276   3.187  17.612  0.2704  0.4376 -0.1312
  155MPD2    C3 2412   2.239   3.316  17.591  0.4851  0.2850 -0.6157
  155MPD2    C4 2413   2.331   3.407  17.548  0.2348  0.2043 -0.0795
  155MPD2    C5 2414   2.461   3.368  17.537  0.1413 -0.1716 -0.7101
  155MPD2     H 2415   2.201   3.115  17.642 -0.2243  0.2661 -1.7647
  155MPD2    H1 2416   2.308   3.511  17.530  1.7463  0.4745 -0.5008
  155MPD2    H2 2417   2.601   3.210  17.552 -0.5475 -0.8463  0.3091
  155MPD2    H3 2418   2.543   3.437  17.521 -0.0718  0.1079 -0.5845
  155MPD2     N 2419   2.105   3.350  17.622  0.7562 -0.4662 -0.2661
  155MPD2    H5 2420   2.053   3.273  17.664  0.4305 -0.3051 -0.3688
  155MPD2    N1 2421   2.435   3.005  17.605  0.3419 -0.5196  0.6865
  155MPD2    H7 2422   2.521   2.976  17.561 -0.6357 -1.3063 -0.7030
  156TMC2    C1 2423   1.233   0.112  12.139  0.4408 -0.4393  0.2410
  156TMC2    C2 2424   1.324   0.009  12.147  1.3791  0.0113 -0.0872
  156TMC2    C3 2425   1.342   4.676  12.027 -0.3748  0.0168  0.3401
  156TMC2    C4 2426   1.174   0.147  12.027 -0.4258  0.8733 -0.0774
  156TMC2    C5 2427   1.212   0.086  11.910  0.1358  1.1290 -0.1731
  156TMC2    C6 2428   1.286   4.708  11.907 -0.0547 -0.1738 -1.0609
  156TMC2     C 2429   1.142   0.143  12.250  0.2433  0.8081  0.2537
  156TMC2     O 2430   1.031   0.195  12.226  0.4476 -0.3744  0.6557
  156TMC2     H 2431   1.386   4.716  12.231 -0.3994 -1.3587  0.7870
  156TMC2    H1 2432   1.094   0.219  12.021  1.6962  3.3005  0.5795
  156TMC2    H2 2433   1.303   4.656  11.814 -0.6315  0.9306 -1.7898
  156TMC2    C7 2434   1.146   0.146  11.791  0.3103 -0.6604 -0.2340
  156TMC2    C8 2435   1.378   4.533  12.037  0.3350 -0.7824 -0.0663
  156TMC2    O1 2436   1.095   0.257  11.799  0.2847 -0.1629 -0.4012
  156TMC2    O2 2437   1.431   4.457  11.956  0.0199  0.2315 -0.7286
  156TMC2    O5 2438   1.344   4.489  12.161  0.0622 -0.3597  0.2017
  156TMC2    H5 2439   1.285   4.546  12.214  2.8646  1.7758  1.0100
  157MPD2     C 2440   1.225   0.136  12.618 -0.5865 -0.5486 -0.0837
  157MPD2    C1 2441   1.147   0.148  12.504 -0.0055  0.3819 -0.2143
  157MPD2    C2 2442   1.016   0.181  12.523 -0.3718 -0.1561 -0.5940
  157MPD2    C3 2443   0.963   0.223  12.643 -0.4810 -0.6623 -0.3800
  157MPD2    C4 2444   1.046   0.215  12.751 -0.7751  0.0933  0.8143
  157MPD2    C5 2445   1.175   0.172  12.740 -0.6077  0.4850  0.3724
  157MPD2     H 2446   0.957   0.197  12.434  0.1880 -1.0424 -1.1255
  157MPD2    H1 2447   1.020   0.237  12.853 -0.0853  1.6265  0.6545
  157MPD2    H2 2448   1.322   0.089  12.603  0.2407  1.2658 -0.3191
  157MPD2    H3 2449   1.242   0.162  12.824 -0.6012  1.0491  0.4334
  157MPD2     N 2450   0.823   0.253  12.653  0.4169  0.3227 -0.2971
  157MPD2    H5 2451   0.766   0.245  12.569 -1.4201  0.2884  0.9403
  157MPD2    N1 2452   1.205   0.126  12.375 -0.0160 -0.3301 -0.3611
  157MPD2    H7 2453   1.303   0.102  12.367 -0.3757 -1.1265 -2.3894
  158TMC2    C1 2454   0.620   3.761  13.342  0.3851 -0.4264 -0.1419
  158TMC2    C2 2455   0.637   3.803  13.218 -0.1044 -0.0978 -0.8599
  158TMC2    C3 2456   0.529   3.820  13.140 -0.2876 -0.2447 -0.1302
  158TMC2    C4 2457   0.489   3.742  13.386  0.2018  0.5010 -0.5147
  158TMC2    C5 2458   0.384   3.757  13.300  0.2587  0.8728 -0.5898
  158TMC2    C6 2459   0.403   3.801  13.175 -0.1417 -0.0621 -0.1520
  158TMC2     C 2460   0.735   3.780  13.432 -0.0959 -0.4995 -0.9916
  158TMC2     O 2461   0.811   3.872  13.396  0.1045 -0.3809 -0.2622
  158TMC2     H 2462   0.737   3.824  13.180  0.6615  0.7028  1.5594
  158TMC2    H1 2463   0.484   3.703  13.487 -1.9349  2.6988  0.2222
  158TMC2    H2 2464   0.320   3.821  13.108  1.1565  1.7489 -1.2013
  158TMC2    C7 2465   0.253   3.801  13.356  1.1022 -0.1637 -0.1692
  158TMC2    C8 2466   0.536   3.825  12.996  0.5296 -0.4958 -0.0358
  158TMC2    O1 2467   0.203   3.907  13.322  0.1326 -0.4359  0.1357
  158TMC2    O2 2468   0.447   3.862  12.924 -0.0178  0.3567  0.2417
  158TMC2    O5 2469   0.638   3.749  12.954 -0.5207 -0.2720  0.2673
  158TMC2    H5 2470   0.677   3.711  13.036  1.2285  1.9502  0.4585
  159MPD2     C 2471   1.074   3.657  13.796  0.4140  0.3381  0.0612
  159MPD2    C1 2472   0.968   3.575  13.813  0.0779 -0.6673 -0.7739
  159MPD2    C2 2473   0.856   3.588  13.729 -0.0569 -0.1655  0.0474
  159MPD2    C3 2474   0.856   3.689  13.633  0.2210  0.0713  0.7144
  159MPD2    C4 2475   0.967   3.769  13.621  0.5141  0.3325  0.2251
  159MPD2    C5 2476   1.073   3.753  13.703 -0.2568 -0.7249 -0.1470
  159MPD2     H 2477   0.770   3.525  13.746  1.2214 -1.3904  1.9948
  159MPD2    H1 2478   0.981   3.844  13.544  1.1014 -0.2963 -0.2723
  159MPD2    H2 2479   1.157   3.631  13.860  1.7319 -0.3176 -1.9366
  159MPD2    H3 2480   1.169   3.804  13.700 -1.9910  2.3636 -3.4028
  159MPD2     N 2481   0.744   3.693  13.543 -0.3758 -0.0852 -0.3661
  159MPD2    H5 2482   0.682   3.614  13.558  1.4047 -1.1891  1.0144
  159MPD2    N1 2483   0.972   3.481  13.916  0.2381 -0.2930 -0.2247
  159MPD2    H7 2484   1.064   3.458  13.952  0.6208 -0.7723 -1.4946
  160TMC2    C1 2485   0.591   1.673   0.781 -0.2929 -1.0552 -0.5825
  160TMC2    C2 2486   0.545   1.545   0.782  0.6785  0.1262 -0.6612
  160TMC2    C3 2487   0.640   1.444   0.763 -0.2639  0.9405  0.3741
  160TMC2    C4 2488   0.726   1.699   0.781  0.2840 -0.3922 -0.1364
  160TMC2    C5 2489   0.821   1.604   0.775 -0.3318 -0.3998  0.7295
  160TMC2    C6 2490   0.776   1.469   0.770 -0.4206 -0.0145  0.0017
  160TMC2     C 2491   0.498   1.781   0.808 -0.0066  0.1216  0.3645
  160TMC2     O 2492   0.378   1.745   0.820  0.3271  0.2433 -0.2979
  160TMC2     H 2493   0.440   1.522   0.766  0.0963  1.8631  0.7293
  160TMC2    H1 2494   0.759   1.802   0.778  0.9674 -0.6092 -0.1088
  160TMC2    H2 2495   0.849   1.391   0.754 -3.1120 -2.9904  2.4199
  160TMC2    C7 2496   0.958   1.632   0.726  0.9474  0.0525 -0.3748
  160TMC2    C8 2497   0.595   1.304   0.773 -0.3294 -0.1043  0.8018
  160TMC2    O1 2498   1.013   1.552   0.653  0.2014 -0.4991 -0.2418
  160TMC2    O2 2499   0.518   1.268   0.861  0.2881 -0.4168  0.2074
  160TMC2    O5 2500   0.687   1.223   0.722  0.0252  0.3701  0.2839
  160TMC2    H5 2501   0.751   1.259   0.657 -0.9891 -1.4883 -1.7190
  161MPD2     C 2502   0.590   2.119   0.956  0.0643 -0.3779 -0.1735
  161MPD2    C1 2503   0.507   2.025   0.893 -0.2707 -0.2135 -0.2939
  161MPD2    C2 2504   0.383   2.059   0.840  0.2696  0.1309 -0.0718
  161MPD2    C3 2505   0.347   2.192   0.843 -0.0395  0.1500  0.8619
  161MPD2    C4 2506   0.425   2.282   0.905  0.0540 -0.4009  0.1100
  161MPD2    C5 2507   0.541   2.243   0.963  0.4595 -0.4142  0.0693
  161MPD2     H 2508   0.319   1.991   0.786  1.1707 -1.0023  0.2927
  161MPD2    H1 2509   0.401   2.388   0.912  0.7667 -0.2993  0.9690
  161MPD2    H2 2510   0.687   2.097   0.999 -0.3544 -1.1825  0.3537
  161MPD2    H3 2511   0.608   2.312   1.012 -0.9107 -0.5483  2.1362
  161MPD2     N 2512   0.227   2.236   0.776  0.5132  0.3948  0.2805
  161MPD2    H5 2513   0.205   2.334   0.791  1.0686  0.7922 -1.5217
  161MPD2    N1 2514   0.560   1.892   0.871 -0.5198 -0.0341  0.3200
  161MPD2    H7 2515   0.658   1.881   0.893 -0.1600 -0.1895 -1.3971
  162TMC2    C1 2516   2.883   4.377   0.525 -0.6653  0.5413  1.0241
  162TMC2    C2 2517   2.931   4.473   0.430 -0.3582  0.5196  0.6959
  162TMC2    C3 2518   2.856   4.580   0.394  0.2664  1.0051  0.0583
  162TMC2    C4 2519   2.753   4.375   0.552  0.6376  0.3350  0.4199
  162TMC2    C5 2520   2.678   4.479   0.509  0.0738 -0.4174  0.4316
  162TMC2    C6 2521   2.723   4.581   0.424  0.3287 -0.8904 -0.2787
  162TMC2     C 2522   2.966   4.261   0.569  0.1837  0.1299  0.3374
  162TMC2     O 2523   3.069   4.252   0.510  0.1132 -0.1815 -0.1133
  162TMC2     H 2524   3.036   4.478   0.405 -0.5673  0.6247 -0.1615
  162TMC2    H1 2525   2.712   4.306   0.626  0.8953  1.6860  1.8177
  162TMC2    H2 2526   2.663   4.665   0.392 -0.6241 -2.0927 -1.6414
  162TMC2    C7 2527   2.548   4.505   0.564  0.5194  0.2391 -0.7220
  162TMC2    C8 2528   2.911   4.670   0.291  0.2505 -1.2217  0.2032
  162TMC2    O1 2529   2.499   4.613   0.528  0.8261  0.1213 -0.8778
  162TMC2    O2 2530   3.028   4.715   0.297 -0.0877  0.7536 -0.0219
  162TMC2    O5 2531   2.816   4.690   0.196  0.0558  0.7269  0.5642
  162TMC2    H5 2532   2.764   4.608   0.193 -0.3192  0.9537  0.8334
  163MPD2     C 2533   3.010   3.787   0.783  0.0442 -0.7417  0.8159
  163MPD2    C1 2534   3.066   3.847   0.666 -0.5448  0.0850  0.2552
  163MPD2    C2 2535   3.035   3.978   0.631 -0.6654  0.9964 -0.7750
  163MPD2    C3 2536   2.950   4.053   0.708 -0.4738 -0.3295  0.0645
  163MPD2    C4 2537   2.907   3.999   0.827 -0.2647  0.4090  0.7665
  163MPD2    C5 2538   2.939   3.872   0.865 -0.5830 -0.5427 -0.3174
  163MPD2     H 2539   3.083   4.034   0.551  2.4244  0.5872  0.8002
  163MPD2    H1 2540   2.844   4.052   0.898  0.9024  1.6259  0.8852
  163MPD2    H2 2541   3.028   3.685   0.816  1.9217 -0.4594  0.6240
  163MPD2    H3 2542   2.912   3.839   0.965 -0.5973 -0.8744 -0.4317
  163MPD2     N 2543   2.916   4.182   0.675 -0.1663  0.0486 -0.2838
  163MPD2    H5 2544   2.838   4.219   0.728 -0.0808 -0.3258  0.1064
  163MPD2    N1 2545   3.144   3.761   0.577 -0.0139  0.5152  0.0490
  163MPD2    H7 2546   3.174   3.673   0.619  0.1998  0.2200 -0.7182
  164TMC2    C1 2547   3.705   3.440  11.213 -0.0533  0.3614 -0.6408
  164TMC2    C2 2548   3.820   3.479  11.275 -0.5689  0.4137  0.6403
  164TMC2    C3 2549   3.819   3.606  11.327  1.1712  0.0786 -0.2752
  164TMC2    C4 2550   3.587   3.504  11.228 -0.9019  1.1880  0.0694
  164TMC2    C5 2551   3.592   3.631  11.275  0.6879  0.5221 -0.2378
  164TMC2    C6 2552   3.707   3.687  11.326  0.4425  0.0276  0.1223
  164TMC2     C 2553   3.703   3.311  11.147  0.6682 -0.1348  0.2510
  164TMC2     O 2554   3.812   3.280  11.102 -0.3667 -0.4159  0.4583
  164TMC2     H 2555   3.915   3.427  11.267  0.0576  1.6804 -0.1941
  164TMC2    H1 2556   3.502   3.469  11.170 -0.2318  0.6743 -0.6059
  164TMC2    H2 2557   3.704   3.781  11.379  0.4225  0.5333 -0.7755
  164TMC2    C7 2558   3.475   3.709  11.294  0.3060 -0.2044  0.2895
  164TMC2    C8 2559   3.947   3.640  11.393 -0.9179  0.6757  0.3107
  164TMC2    O1 2560   3.458   3.808  11.224 -0.1483  0.7662 -0.2889
  164TMC2    O2 2561   4.031   3.562  11.434  0.1034 -0.0211  0.4611
  164TMC2    O5 2562   3.951   3.771  11.421  0.2063  0.0576 -0.2338
  164TMC2    H5 2563   3.873   3.816  11.383  0.4445 -1.5394 -2.5646
  165TMC2    C1 2564   0.260   1.489   1.098 -0.5855  0.2126 -0.1460
  165TMC2    C2 2565   0.190   1.604   1.077 -0.8100 -0.2954 -0.3933
  165TMC2    C3 2566   0.258   1.720   1.098  0.2786 -0.7261  0.0540
  165TMC2    C4 2567   0.395   1.489   1.121 -0.4357 -0.5701 -0.4427
  165TMC2    C5 2568   0.457   1.606   1.129 -0.0853 -0.0181  0.1058
  165TMC2    C6 2569   0.391   1.726   1.118 -0.6361  0.4197 -0.4320
  165TMC2     C 2570   0.196   1.362   1.094  0.2765 -0.3329  0.1685
  165TMC2     O 2571   0.272   1.266   1.099 -0.3147  0.0112  0.2238
  165TMC2     H 2572   0.082   1.605   1.063 -0.8313 -0.0006 -0.2109
  165TMC2    H1 2573   0.447   1.394   1.127 -1.5780 -1.1639  0.1186
  165TMC2    H2 2574   0.436   1.823   1.101  0.2932  0.0517 -0.0212
  165TMC2    C7 2575   0.600   1.600   1.139  0.1409  0.1125  0.9854
  165TMC2    C8 2576   0.186   1.834   1.052  0.1439 -0.8854  0.0320
  165TMC2    O1 2577   0.657   1.502   1.091 -0.7164  0.5114  0.1618
  165TMC2    O2 2578   0.090   1.823   0.979  0.0610 -0.0028 -0.3324
  165TMC2    O5 2579   0.217   1.937   1.133 -0.9003  0.6456  0.0767
  165TMC2    H5 2580   0.305   1.923   1.173 -0.5682 -2.2263 -1.5653
  166MPD2     C 2581   4.542   1.041   1.038  0.2846  0.1475 -0.3279
  166MPD2    C1 2582   4.673   1.014   1.058 -0.1747  0.6098 -0.8149
  166MPD2    C2 2583   0.023   1.122   1.093 -0.2432  0.4574 -0.0347
  166MPD2    C3 2584   4.709   1.257   1.095  0.2619  0.1768  0.1995
  166MPD2    C4 2585   4.573   1.276   1.074 -0.4272 -0.1504  0.6580
  166MPD2    C5 2586   4.488   1.170   1.052 -0.2762 -0.4834  0.4705
  166MPD2     H 2587   0.124   1.101   1.127 -0.1529  0.2074 -0.4626
  166MPD2    H1 2588   4.530   1.375   1.086  0.6402  0.4369 -0.3087
  166MPD2    H2 2589   4.469   0.962   1.025  2.2657 -1.5028 -1.2921
  166MPD2    H3 2590   4.382   1.185   1.036 -0.0153  1.1340  0.3481
  166MPD2     N 2591   0.059   1.367   1.112  1.0029 -0.4288 -0.1764
  166MPD2    H5 2592   0.009   1.453   1.130 -1.0943 -1.4653 -1.1107
  166MPD2    N1 2593   4.717   0.885   1.054 -0.0785 -0.0595 -0.3712
  166MPD2    H7 2594   4.650   0.810   1.063 -2.0021  1.7434  0.4587
  167TMC2    C1 2595   2.834   3.564  12.939 -0.6912  0.2583 -1.1583
  167TMC2    C2 2596   2.811   3.582  13.074 -0.3676  0.2426 -0.0810
  167TMC2    C3 2597   2.779   3.476  13.149  0.3488 -0.1106 -0.4871
  167TMC2    C4 2598   2.818   3.441  12.884 -0.1802 -0.6523 -0.3187
  167TMC2    C5 2599   2.780   3.339  12.960 -0.1313 -0.3750  0.4560
  167TMC2    C6 2600   2.775   3.349  13.096 -0.3361 -0.2713  0.7332
  167TMC2     C 2601   2.939   3.643  12.886 -0.2380  0.8914  0.5208
  167TMC2     O 2602   2.992   3.716  12.967  0.5561  0.2192  0.7464
  167TMC2     H 2603   2.852   3.666  13.127 -0.3637  0.3786 -0.2992
  167TMC2    H1 2604   2.818   3.415  12.779  0.2409  1.3267 -0.8130
  167TMC2    H2 2605   2.747   3.268  13.163  1.1731 -0.8491  0.6580
  167TMC2    C7 2606   2.753   3.207  12.904  0.2673  0.1328 -0.2344
  167TMC2    C8 2607   2.766   3.485  13.289 -0.1700 -0.2674 -0.2282
  167TMC2    O1 2608   2.678   3.141  12.979 -0.5833 -0.0240  0.0088
  167TMC2    O2 2609   2.811   3.400  13.363 -1.1671  0.4092  0.0141
  167TMC2    O5 2610   2.756   3.613  13.323  0.2029 -0.7950 -0.3429
  167TMC2    H5 2611   2.722   3.674  13.255 -0.7145 -0.1650  0.6942
  168MPD2     C 2612   3.163   3.741  12.713 -0.6903 -0.2529 -0.3388
  168MPD2    C1 2613   3.053   3.669  12.666  0.0536  0.3963  0.0865
  168MPD2    C2 2614   3.035   3.648  12.531 -0.1611 -0.3617 -0.7032
  168MPD2    C3 2615   3.130   3.694  12.444 -0.1099  0.1227 -0.1175
  168MPD2    C4 2616   3.246   3.761  12.493  0.9246 -0.9642 -0.2802
  168MPD2    C5 2617   3.258   3.793  12.627 -0.0055 -0.8017 -0.2670
  168MPD2     H 2618   2.956   3.581  12.500  0.7864 -0.2731 -3.3395
  168MPD2    H1 2619   3.331   3.775  12.429  0.7278 -2.8705 -0.9609
  168MPD2    H2 2620   3.180   3.755  12.819 -0.8838 -2.1561 -0.0543
  168MPD2    H3 2621   3.351   3.838  12.661 -0.2529  0.0490 -0.7126
  168MPD2     N 2622   3.138   3.667  12.302 -0.3421  0.2605  0.2127
  168MPD2    H5 2623   3.210   3.718  12.251 -1.5464  0.6223 -1.1003
  168MPD2    N1 2624   2.958   3.615  12.757  0.1520 -0.0617 -0.5124
  168MPD2    H7 2625   2.889   3.560  12.708 -1.0321  1.5963 -0.7003
  169MPD1     C 2626   0.668   1.528   8.955 -0.1382 -0.7564 -0.2086
  169MPD1    C1 2627   0.590   1.535   9.070 -0.0467 -0.4691  0.2380
  169MPD1    C2 2628   0.588   1.647   9.144 -0.5309 -0.1899  0.4655
  169MPD1    C3 2629   0.675   1.755   9.117 -0.4318  0.3101 -0.3300
  169MPD1    C4 2630   0.754   1.744   9.002  0.5506  0.3112  0.2844
  169MPD1    C5 2631   0.757   1.627   8.929 -1.0390  0.1228 -0.1862
  169MPD1     H 2632   0.534   1.648   9.237 -0.3038 -0.1908  0.5975
  169MPD1    H1 2633   0.822   1.823   8.970 -0.7990  0.9966 -0.8789
  169MPD1    H2 2634   0.680   1.433   8.904  0.6428 -0.4368 -0.6321
  169MPD1    H3 2635   0.823   1.619   8.843 -0.0374  0.7951  0.5222
  169MPD1     N 2636   0.693   1.866   9.209  0.1435 -0.2126  0.0085
  169MPD1    H5 2637   0.631   1.865   9.290 -0.1928  0.9385 -0.2393
  169MPD1    N1 2638   0.499   1.432   9.098 -0.1613  1.0401  0.3887
  169MPD1    H6 2639   0.533   1.337   9.083  0.1466  1.2732 -0.4076
  169MPD1    H7 2640   0.463   1.443   9.193 -0.7144 -0.2342  0.3348
  170MPD1     C 2641   0.328   0.654  13.430 -0.7543 -0.2971  0.1159
  170MPD1    C1 2642   0.234   0.690  13.338 -0.4888 -0.2514 -1.1177
  170MPD1    C2 2643   0.108   0.700  13.387  0.0196 -0.2067 -0.4399
  170MPD1    C3 2644   0.068   0.662  13.516  0.5058  0.4470  0.6618
  170MPD1    C4 2645   0.160   0.602  13.596 -0.1835 -0.0099 -0.3094
  170MPD1    C5 2646   0.295   0.608  13.554  0.9746  0.2150  0.1829
  170MPD1     H 2647   0.037   0.738  13.314 -1.8116  0.8822  1.9118
  170MPD1    H1 2648   0.148   0.566  13.697  2.2332  0.4884  0.1518
  170MPD1    H2 2649   0.430   0.631  13.404  0.0804  1.1610  2.0558
  170MPD1    H3 2650   0.369   0.578  13.627  0.4129  0.3386  0.7999
  170MPD1     N 2651   4.673   0.675  13.569  0.9602 -0.1975 -0.1599
  170MPD1    H5 2652   4.672   0.650  13.667  2.2686 -0.1213 -0.1214
  170MPD1    N1 2653   0.277   0.749  13.214 -0.4908  0.1014  0.4654
  170MPD1    H6 2654   0.360   0.696  13.192 -1.2668 -0.4373 -1.1308
  170MPD1    H7 2655   0.204   0.734  13.145 -2.4904  2.4285  2.0276
  171MPD1     C 2656   2.368   1.681  15.442  0.1794 -0.2738 -1.0254
  171MPD1    C1 2657   2.421   1.754  15.543 -0.2906  0.1030 -0.0131
  171MPD1    C2 2658   2.545   1.712  15.588 -0.4401  0.8294 -0.0859
  171MPD1    C3 2659   2.623   1.618  15.514 -0.1420  0.2330 -0.5986
  171MPD1    C4 2660   2.560   1.552  15.408 -0.2317  0.3551 -0.4353
  171MPD1    C5 2661   2.439   1.587  15.372 -0.3752  0.2840  0.7927
  171MPD1     H 2662   2.579   1.749  15.684  1.5249 -1.9560  0.3019
  171MPD1    H1 2663   2.617   1.480  15.350  1.5957  3.2774 -2.2571
  171MPD1    H2 2664   2.285   1.728  15.391  0.2916  0.9212 -0.0922
  171MPD1    H3 2665   2.386   1.532  15.295  0.9524 -2.3812  1.7650
  171MPD1     N 2666   2.754   1.570  15.555  0.0878  0.0474 -0.0634
  171MPD1    H5 2667   2.797   1.492  15.507 -1.1946  0.4412 -1.8268
  171MPD1    N1 2668   2.348   1.843  15.627  0.1277 -0.3453 -0.3514
  171MPD1    H6 2669   2.265   1.881  15.582 -0.9661 -2.3332 -0.0323
  171MPD1    H7 2670   2.404   1.923  15.656 -1.3390  0.5793 -0.0757
  172MPD1     C 2671   2.709   1.058   0.587 -0.3196 -0.2174 -0.3204
  172MPD1    C1 2672   2.732   1.190   0.602 -0.3860  0.0033  0.4081
  172MPD1    C2 2673   2.653   1.283   0.524 -0.4721 -0.2754  0.4376
  172MPD1    C3 2674   2.571   1.237   0.418 -0.0690  0.7433 -0.2916
  172MPD1    C4 2675   2.578   1.103   0.386 -0.0923  0.1551  0.5136
  172MPD1    C5 2676   2.639   1.016   0.471 -0.0262 -0.2587 -0.4204
  172MPD1     H 2677   2.679   1.387   0.540  0.4722 -0.5916  0.9401
  172MPD1    H1 2678   2.516   1.057   0.311  0.3567 -2.5767  1.8259
  172MPD1    H2 2679   2.746   0.980   0.651  0.9604  0.8074  0.1801
  172MPD1    H3 2680   2.621   0.910   0.456  4.1381 -1.2011  1.1907
  172MPD1     N 2681   2.487   1.321   0.344  0.8700  0.2256 -0.5532
  172MPD1    H5 2682   2.432   1.277   0.271  0.4479  0.1846 -0.2097
  172MPD1    N1 2683   2.816   1.235   0.708  0.1705 -0.8054 -0.1573
  172MPD1    H6 2684   2.839   1.334   0.706  0.3444 -0.8203  1.0931
  172MPD1    H7 2685   2.892   1.168   0.721  2.3211  1.5685 -0.4400
  173MPD1     C 2686   3.610   1.311  13.799  0.3319  0.1983 -0.2861
  173MPD1    C1 2687   3.480   1.300  13.838  0.5233 -0.2941 -0.7918
  173MPD1    C2 2688   3.457   1.236  13.956 -0.3126  0.1235  0.0853
  173MPD1    C3 2689   3.555   1.163  14.022 -0.2575  0.0365 -0.4091
  173MPD1    C4 2690   3.679   1.162  13.967 -0.5273 -0.0095  0.2306
  173MPD1    C5 2691   3.712   1.236  13.859  0.1249  0.2769  0.8129
  173MPD1     H 2692   3.354   1.225  13.988 -1.2135  1.1310 -2.4381
  173MPD1    H1 2693   3.762   1.111  14.014  2.0204  0.6922 -3.4286
  173MPD1    H2 2694   3.642   1.371  13.714  0.5592  1.1218  0.4467
  173MPD1    H3 2695   3.815   1.228  13.825 -0.2254  0.3990 -0.2765
  173MPD1     N 2696   3.522   1.088  14.137 -0.7218  0.3928  0.1775
  173MPD1    H5 2697   3.434   1.103  14.185  0.2739 -1.5400  2.5598
  173MPD1    N1 2698   3.385   1.381  13.775 -0.1044  0.4271  0.1143
  173MPD1    H6 2699   3.296   1.333  13.782  1.0176 -1.2903  2.9501
  173MPD1    H7 2700   3.404   1.393  13.676  3.4559  0.1331  0.7526
  174MPD1     C 2701   3.545   0.124  14.642  0.4588 -0.6461  0.3918
  174MPD1    C1 2702   3.649   0.211  14.618 -1.0357 -0.2485  0.6150
  174MPD1    C2 2703   3.624   0.332  14.559  0.9669  0.2538 -0.5597
  174MPD1    C3 2704   3.495   0.374  14.521 -0.0359  0.2607 -0.0601
  174MPD1    C4 2705   3.391   0.284  14.540 -0.8459 -0.1411 -0.2094
  174MPD1    C5 2706   3.419   0.156  14.595 -0.6574 -0.0082 -0.1199
  174MPD1     H 2707   3.708   0.401  14.549  1.7594 -0.6474 -0.0976
  174MPD1    H1 2708   3.289   0.300  14.506 -0.1454  0.7480 -1.8986
  174MPD1    H2 2709   3.567   0.027  14.685  2.8918 -0.7615 -1.0824
  174MPD1    H3 2710   3.347   0.075  14.601  0.6271 -1.0167  1.5325
  174MPD1     N 2711   3.475   0.497  14.450 -0.3359 -0.9586 -1.1869
  174MPD1    H5 2712   3.382   0.511  14.413 -0.8496  2.1193  1.2295
  174MPD1    N1 2713   3.779   0.180  14.674  0.1800  0.3406 -0.0033
  174MPD1    H6 2714   3.844   0.229  14.613  0.5545  1.2464  1.1176
  174MPD1    H7 2715   3.799   0.080  14.680 -0.6249  0.2169  0.5796
  175MPD1     C 2716   1.684   1.958  15.417  0.7177 -0.1069 -0.4062
  175MPD1    C1 2717   1.773   1.878  15.475  0.1841 -0.3341  0.1674
  175MPD1    C2 2718   1.784   1.884  15.612 -0.5303  0.7647 -0.2121
  175MPD1    C3 2719   1.705   1.973  15.689  1.0854 -0.6307  0.5135
  175MPD1    C4 2720   1.609   2.047  15.626  0.1983 -0.2853  0.5431
  175MPD1    C5 2721   1.601   2.043  15.488 -0.3189 -0.5273 -0.2945
  175MPD1     H 2722   1.848   1.809  15.657  0.9450  1.9123 -0.3938
  175MPD1    H1 2723   1.535   2.109  15.676  0.4317  0.4972 -0.0715
  175MPD1    H2 2724   1.692   1.960  15.309 -1.7136  1.5040 -0.5823
  175MPD1    H3 2725   1.531   2.100  15.428  3.5834  3.9567 -0.5922
  175MPD1     N 2726   1.697   1.980  15.827 -0.1052  0.2939  0.3297
  175MPD1    H5 2727   1.614   2.022  15.866 -0.0004  1.8600 -1.1712
  175MPD1    N1 2728   1.860   1.796  15.403  0.1296  0.1737  0.4157
  175MPD1    H6 2729   1.888   1.714  15.456  1.7825 -0.0122 -0.7242
  175MPD1    H7 2730   1.818   1.756  15.320  1.3940  1.0571 -0.6508
  176MPD1     C 2731   3.558   4.189  17.222 -0.3830 -0.6915  0.2146
  176MPD1    C1 2732   3.624   4.257  17.125 -0.6035 -0.9546 -0.3740
  176MPD1    C2 2733   3.747   4.300  17.163 -1.0076  0.4682 -0.2383
  176MPD1    C3 2734   3.813   4.259  17.278 -0.4844 -0.9455  0.4454
  176MPD1    C4 2735   3.749   4.184  17.365 -0.3522  0.3923 -1.0164
  176MPD1    C5 2736   3.618   4.158  17.338  0.7228 -0.2419  1.2656
  176MPD1     H 2737   3.794   4.365  17.091  3.3773 -1.2546  1.0846
  176MPD1    H1 2738   3.788   4.155  17.462  0.4596  2.0328 -0.8611
  176MPD1    H2 2739   3.457   4.150  17.222 -1.2158  1.5118  1.8336
  176MPD1    H3 2740   3.556   4.107  17.410  1.9149 -1.6324  1.3016
  176MPD1     N 2741   3.942   4.312  17.296  0.5795 -0.0369  0.6395
  176MPD1    H5 2742   3.975   4.386  17.234  0.6626 -1.3528 -0.8678
  176MPD1    N1 2743   3.563   4.309  17.010 -0.2137  0.2489 -0.8549
  176MPD1    H6 2744   3.482   4.259  16.974 -0.4384 -1.7153  2.4049
  176MPD1    H7 2745   3.625   4.333  16.932 -0.4784  0.8934 -0.8731
  177MPD1     C 2746   1.588   3.819  10.193  0.9803 -0.2424 -0.1082
  177MPD1    C1 2747   1.491   3.718  10.155 -0.3144 -0.0491  0.7272
  177MPD1    C2 2748   1.374   3.770  10.093 -0.1212  0.5087 -0.5421
  177MPD1    C3 2749   1.350   3.905  10.071  0.0194  0.6130  0.4739
  177MPD1    C4 2750   1.452   3.995  10.107 -0.6888  0.4434  0.3388
  177MPD1    C5 2751   1.559   3.954  10.170 -0.1574 -0.5749 -0.1025
  177MPD1     H 2752   1.301   3.702  10.050 -1.0777 -0.2083  2.1929
  177MPD1    H1 2753   1.442   4.103  10.111  0.3239  0.5283  0.6577
  177MPD1    H2 2754   1.686   3.791  10.229  1.4621  0.1432 -1.1283
  177MPD1    H3 2755   1.632   4.034  10.173  0.7073 -1.3199 -1.1971
  177MPD1     N 2756   1.227   3.944  10.018 -0.1867  0.2482  1.3368
  177MPD1    H5 2757   1.174   3.860   9.995 -0.2039  0.3997  0.8205
  177MPD1    N1 2758   1.515   3.579  10.174 -0.0020  0.2400  0.1010
  177MPD1    H6 2759   1.427   3.529  10.188  0.5348 -0.4590  0.9596
  177MPD1    H7 2760   1.566   3.573  10.262  0.2499 -2.6879 -0.2625
  178MPD1     C 2761   4.483   3.613   0.014 -0.4652  1.0731 -0.5141
  178MPD1    C1 2762   4.613   3.630  17.732  0.7537 -0.3049 -0.5081
  178MPD1    C2 2763   4.660   3.716  17.636 -0.5002 -0.1267 -0.1631
  178MPD1    C3 2764   4.575   3.815  17.594 -0.0033  0.5677  0.0526
  178MPD1    C4 2765   4.438   3.806  17.637  0.5491  0.0776  0.3968
  178MPD1    C5 2766   4.391   3.702  17.710 -0.1270 -0.0334 -0.0105
  178MPD1     H 2767   0.027   3.702  17.599  0.0100  0.8422  0.8977
  178MPD1    H1 2768   4.361   3.866  17.592  0.4396 -0.1429  0.2903
  178MPD1    H2 2769   4.445   3.536   0.079 -1.8686  1.0410 -1.3652
  178MPD1    H3 2770   4.287   3.676  17.725 -0.1374  0.4462  0.7430
  178MPD1     N 2771   4.610   3.903  17.481 -0.1281 -0.5373 -0.4246
  178MPD1    H5 2772   4.541   3.969  17.448  0.4804 -0.9708 -2.5567
  178MPD1    N1 2773   4.689   3.525   0.038  0.1216  0.5816 -0.2139
  178MPD1    H6 2774   0.053   3.545   0.049  0.3924  0.6411 -2.7833
  178MPD1    H7 2775   4.662   3.496   0.132  0.0673  2.5237  0.3654
  179MPD1     C 2776   3.935   3.126  15.232  0.2181 -0.7217 -0.1014
  179MPD1    C1 2777   3.973   3.107  15.366  0.2342 -0.8012  0.2572
  179MPD1    C2 2778   3.943   2.984  15.417  0.1551  0.5041 -0.3892
  179MPD1    C3 2779   3.865   2.889  15.349  0.0767 -0.3005  1.0838
  179MPD1    C4 2780   3.822   2.922  15.225 -0.4340  0.4936 -0.7015
  179MPD1    C5 2781   3.872   3.032  15.166 -0.2058  0.7760 -0.8574
  179MPD1     H 2782   3.967   2.970  15.522  0.4655 -1.7043 -0.7604
  179MPD1    H1 2783   3.754   2.862  15.166  0.9204 -1.4160 -0.2943
  179MPD1    H2 2784   3.966   3.210  15.172  0.5071 -0.2803  0.6652
  179MPD1    H3 2785   3.837   3.058  15.067 -3.6225  2.2432  0.7011
  179MPD1     N 2786   3.822   2.764  15.408  0.1321  0.0744  0.2531
  179MPD1    H5 2787   3.771   2.694  15.355  1.4442  0.8911 -2.0398
  179MPD1    N1 2788   4.032   3.207  15.443  0.1065  0.1287 -0.1366
  179MPD1    H6 2789   4.105   3.169  15.503 -0.5336  0.8216  1.0851
  179MPD1    H7 2790   4.060   3.284  15.383 -1.3472  0.5092 -0.3272
  180MPD1     C 2791   3.720   4.363  15.603 -0.1855  0.8389  0.3120
  180MPD1    C1 2792   3.808   4.303  15.510  0.2599  0.2855  0.0672
  180MPD1    C2 2793   3.753   4.209  15.425 -0.1263  0.1581  1.3308
  180MPD1    C3 2794   3.613   4.205  15.406  0.6270 -0.4333 -0.3335
  180MPD1    C4 2795   3.527   4.278  15.492  0.3182  0.4641  0.7479
  180MPD1    C5 2796   3.587   4.357  15.582 -0.2396 -0.2117  0.7895
  180MPD1     H 2797   3.814   4.149  15.359  0.1461  2.6229 -0.6511
  180MPD1    H1 2798   3.420   4.269  15.475  0.5076 -0.3129 -0.0359
  180MPD1    H2 2799   3.758   4.436  15.674  1.3200 -0.3223  0.7069
  180MPD1    H3 2800   3.528   4.421  15.646  1.2513  0.4414  1.5324
  180MPD1     N 2801   3.559   4.109  15.310  0.1662 -0.0304 -0.4349
  180MPD1    H5 2802   3.626   4.061  15.251  0.6844  0.9909 -0.6700
  180MPD1    N1 2803   3.947   4.319  15.519 -0.5911  0.1246  0.3329
  180MPD1    H6 2804   3.990   4.303  15.428 -3.6317  1.9325 -1.4246
  180MPD1    H7 2805   3.959   4.420  15.526 -0.1098  0.0865  0.0769
  181MPD1     C 2806   1.482   1.657   9.685 -0.3517  0.3017  0.0081
  181MPD1    C1 2807   1.404   1.546   9.704  0.3633 -0.3379 -0.7274
  181MPD1    C2 2808   1.306   1.555   9.804  0.3570  0.3153 -0.0041
  181MPD1    C3 2809   1.300   1.658   9.895  0.4903  0.7238  0.3713
  181MPD1    C4 2810   1.373   1.769   9.871  0.0259 -0.2759 -0.4703
  181MPD1    C5 2811   1.464   1.765   9.764 -1.0670  0.2885 -0.2902
  181MPD1     H 2812   1.246   1.466   9.817 -3.1637  2.7348  0.3115
  181MPD1    H1 2813   1.362   1.859   9.930  2.9952  0.9964 -1.8299
  181MPD1    H2 2814   1.551   1.660   9.601 -0.7137  1.2373 -0.2514
  181MPD1    H3 2815   1.526   1.850   9.739  0.9230 -0.2208  2.8710
  181MPD1     N 2816   1.208   1.656  10.005  0.4084  0.3407  0.4061
  181MPD1    H5 2817   1.205   1.742  10.059  1.3642  0.9450 -0.5057
  181MPD1    N1 2818   1.408   1.436   9.619  0.1608  0.3557 -0.0299
  181MPD1    H6 2819   1.378   1.349   9.662 -1.0841  0.0732 -1.4475
  181MPD1    H7 2820   1.494   1.408   9.572  0.4081  0.7179  0.2049
  182MPD1     C 2821   0.990   1.016   0.945  0.5944 -0.1510  0.2860
  182MPD1    C1 2822   1.122   1.020   0.951  0.6146 -0.4239 -0.5994
  182MPD1    C2 2823   1.208   0.998   0.833 -0.6984 -0.3746 -0.0303
  182MPD1    C3 2824   1.158   1.012   0.708 -0.1902  0.2802  0.3899
  182MPD1    C4 2825   1.018   1.023   0.704  0.3409 -0.2252 -0.4232
  182MPD1    C5 2826   0.944   1.031   0.819  0.1509  0.3181  0.3201
  182MPD1     H 2827   1.309   0.960   0.844 -0.5931 -0.2499 -0.5500
  182MPD1    H1 2828   0.960   1.042   0.614  1.2120  0.9349 -0.7312
  182MPD1    H2 2829   0.932   1.022   1.036  2.2273 -0.6452  1.3742
  182MPD1    H3 2830   0.836   1.032   0.811  0.2763 -0.6510 -1.4186
  182MPD1     N 2831   1.234   1.005   0.594  0.0390 -0.3124 -0.5800
  182MPD1    H5 2832   1.191   0.979   0.506  0.0529 -0.2477 -0.6062
  182MPD1    N1 2833   1.178   0.986   1.077 -0.2656  0.1503 -0.4084
  182MPD1    H6 2834   1.269   1.032   1.085  0.2190 -0.8180 -0.3811
  182MPD1    H7 2835   1.115   1.016   1.151 -1.3127 -0.7772 -0.9256
  183MPD1     C 2836   1.164   0.312   8.842 -0.0558  0.0218 -0.3305
  183MPD1    C1 2837   1.171   0.243   8.961 -0.0926  1.2019  1.1338
  183MPD1    C2 2838   1.128   0.306   9.079 -0.5000  0.0800  0.1751
  183MPD1    C3 2839   1.081   0.438   9.074  0.1997 -0.1336 -0.1807
  183MPD1    C4 2840   1.078   0.498   8.952  0.8354 -0.0531 -0.4458
  183MPD1    C5 2841   1.107   0.432   8.838  0.0612 -0.3311 -0.1669
  183MPD1     H 2842   1.130   0.246   9.170  0.1313 -2.3917 -1.4774
  183MPD1    H1 2843   1.043   0.599   8.931 -2.8435 -0.7808  2.2619
  183MPD1    H2 2844   1.200   0.263   8.752  0.7630 -0.2113  0.1187
  183MPD1    H3 2845   1.090   0.487   8.746 -0.0124 -0.3985 -0.1935
  183MPD1     N 2846   1.057   0.508   9.198  0.4468 -0.2900  0.3688
  183MPD1    H5 2847   1.061   0.449   9.281 -1.9230 -0.3518  0.4491
  183MPD1    N1 2848   1.260   0.134   8.967 -0.5461 -0.0091 -0.6955
  183MPD1    H6 2849   1.267   0.081   8.881  0.0488  0.9959 -1.2678
  183MPD1    H7 2850   1.225   0.061   9.029  0.3785 -0.6705 -0.9524
  184MPD1     C 2851   4.686   3.578  10.628  0.5297 -0.6149  0.0871
  184MPD1    C1 2852   0.040   3.684  10.652  0.0104 -0.2533 -0.1590
  184MPD1    C2 2853   0.124   3.729  10.552 -0.0350 -0.1425 -0.3254
  184MPD1    C3 2854   0.142   3.657  10.433 -0.0225 -0.1335  0.0990
  184MPD1    C4 2855   0.067   3.544  10.417 -0.0183 -0.2397 -0.5110
  184MPD1    C5 2856   4.704   3.510  10.510 -0.6687  0.4683 -0.0068
  184MPD1     H 2857   0.183   3.819  10.567  0.2354 -0.3995  0.1603
  184MPD1    H1 2858   0.075   3.480  10.331  1.0687 -1.0178  0.1731
  184MPD1    H2 2859   4.606   3.553  10.696  0.6724 -3.1734 -0.6616
  184MPD1    H3 2860   4.631   3.440  10.470  2.9730 -0.8545 -4.2160
  184MPD1     N 2861   0.230   3.690  10.326 -0.4212  0.2072  0.2977
  184MPD1    H5 2862   0.213   3.640  10.239 -0.6770  0.6881  0.0714
  184MPD1    N1 2863   0.023   3.758  10.767  0.1665 -0.4025 -0.2185
  184MPD1    H6 2864   4.732   3.695  10.843  0.6609 -0.4489 -0.0893
  184MPD1    H7 2865   0.097   3.821  10.796  0.3035 -1.1234  1.0119
  185MPD1     C 2866   0.054   3.475   9.546 -0.7679  0.4128 -0.2017
  185MPD1    C1 2867   0.054   3.609   9.530 -0.2445  0.7271 -0.2930
  185MPD1    C2 2868   0.109   3.691   9.631  0.3751 -0.7320  1.0364
  185MPD1    C3 2869   0.147   3.631   9.748  0.4822 -0.3953 -0.5451
  185MPD1    C4 2870   0.128   3.497   9.768 -0.2750  0.2667 -0.3706
  185MPD1    C5 2871   0.084   3.421   9.665  0.0532 -0.3423 -0.1391
  185MPD1     H 2872   0.125   3.796   9.612  0.0619 -0.2693  3.2755
  185MPD1    H1 2873   0.140   3.444   9.861 -0.0512  2.9703  1.1517
  185MPD1    H2 2874   0.014   3.402   9.476  1.8376 -1.3133  0.1030
  185MPD1    H3 2875   0.061   3.316   9.678  0.1316  0.0254  2.9367
  185MPD1     N 2876   0.200   3.694   9.862 -1.0069  0.5880  0.2350
  185MPD1    H5 2877   0.219   3.639   9.945  0.6839 -0.0683 -0.5901
  185MPD1    N1 2878   0.025   3.662   9.405 -0.1601 -0.0666  0.1069
  185MPD1    H6 2879   4.693   3.738   9.417 -1.4425 -1.1071 -0.4773
  185MPD1    H7 2880   4.713   3.589   9.352 -2.3025  1.9677 -0.7591
  186MPD1     C 2881   4.630   2.443  16.151  0.0211 -0.9420 -0.0360
  186MPD1    C1 2882   4.693   2.546  16.079 -0.4303  0.0263 -0.1847
  186MPD1    C2 2883   4.636   2.669  16.091  0.5067  0.4322  0.8840
  186MPD1    C3 2884   4.558   2.696  16.202 -0.0938  0.2628  0.2849
  186MPD1    C4 2885   4.512   2.592  16.278  0.6893  0.2529 -0.5993
  186MPD1    C5 2886   4.541   2.461  16.250 -1.0095 -0.3465  0.8015
  186MPD1     H 2887   4.681   2.743  16.026  0.4307 -0.4842 -0.2229
  186MPD1    H1 2888   4.440   2.599  16.359 -0.0118  2.7042 -1.4615
  186MPD1    H2 2889   4.656   2.342  16.122  1.1548 -0.1404 -1.8437
  186MPD1    H3 2890   4.473   2.382  16.279  0.7499 -1.8671  0.7565
  186MPD1     N 2891   4.521   2.823  16.250 -0.3941 -0.0336 -0.4863
  186MPD1    H5 2892   4.479   2.832  16.342  0.3846  0.4802 -0.1822
  186MPD1    N1 2893   0.044   2.512  15.971 -0.0289 -0.5725  0.2434
  186MPD1    H6 2894   0.102   2.593  15.948 -0.0440 -0.6165  0.0496
  186MPD1    H7 2895   0.108   2.438  15.999 -1.8557 -1.8624  1.0152
  187MPD1     C 2896   4.235   0.456   0.229  0.0547  0.2220  0.8206
  187MPD1    C1 2897   4.252   0.359   0.135 -0.4407  0.0663  0.0689
  187MPD1    C2 2898   4.197   0.387   0.008  0.6864  0.5412 -0.4350
  187MPD1    C3 2899   4.112   0.498  17.726  0.0325  0.2855  0.8860
  187MPD1    C4 2900   4.087   0.586   0.091 -0.8042 -0.1217  0.3028
  187MPD1    C5 2901   4.156   0.564   0.206  0.4273  0.3595 -0.3418
  187MPD1     H 2902   4.204   0.319  17.663  0.0687 -0.7350  0.5670
  187MPD1    H1 2903   4.016   0.668   0.095 -0.5122  0.0175  3.0134
  187MPD1    H2 2904   4.284   0.455   0.326 -0.2029 -0.0194  0.9470
  187MPD1    H3 2905   4.138   0.638   0.283  1.3113  0.3050 -0.0838
  187MPD1     N 2906   4.036   0.532  17.611 -0.4951  0.6208 -0.7856
  187MPD1    H5 2907   3.990   0.622  17.606 -0.7703  0.5192  0.0024
  187MPD1    N1 2908   4.352   0.258   0.173 -0.0776 -0.1954  0.3276
  187MPD1    H6 2909   4.343   0.180   0.109 -2.5738  0.7405 -0.4621
  187MPD1    H7 2910   4.334   0.231   0.270 -1.5358  2.1487  0.7142
  188MPD1     C 2911   2.767   0.609  10.246  0.5710 -0.1594  0.7884
  188MPD1    C1 2912   2.830   0.629  10.123  0.5833 -0.4145  0.4128
  188MPD1    C2 2913   2.911   0.523  10.075  0.0306  0.6309 -0.1876
  188MPD1    C3 2914   2.918   0.404  10.148 -0.5940  0.7543  0.5309
  188MPD1    C4 2915   2.835   0.390  10.262 -1.3850  0.2835 -0.2118
  188MPD1    C5 2916   2.764   0.493  10.315  0.2339 -0.3265 -0.3964
  188MPD1     H 2917   2.978   0.541   9.993 -0.8398  0.5539 -0.9155
  188MPD1    H1 2918   2.835   0.294  10.312  0.6845  0.1122 -0.5171
  188MPD1    H2 2919   2.700   0.686  10.285  1.5199  0.7847  0.5519
  188MPD1    H3 2920   2.709   0.485  10.408 -0.8071 -0.0046 -0.9769
  188MPD1     N 2921   3.002   0.291  10.114 -0.4975 -0.7548 -0.0030
  188MPD1    H5 2922   2.997   0.216  10.182  3.0827 -0.7977  0.2474
  188MPD1    N1 2923   2.818   0.758  10.061 -0.0172  0.0704 -0.3071
  188MPD1    H6 2924   2.804   0.735   9.962  2.1888  0.4819 -0.7205
  188MPD1    H7 2925   2.731   0.801  10.091  1.1775  2.3000 -0.0288
  189MPD1     C 2926   0.888   2.103  17.722 -0.1031 -0.4446 -0.1514
  189MPD1    C1 2927   0.836   2.197   0.071 -0.2285 -0.0841  0.3559
  189MPD1    C2 2928   0.705   2.173   0.115  0.0527 -0.3202  0.0728
  189MPD1    C3 2929   0.658   2.042   0.104  0.3056 -1.0123  0.0841
  189MPD1    C4 2930   0.725   1.943   0.032 -0.2250  0.2779 -0.0437
  189MPD1    C5 2931   0.834   1.980  17.701 -0.2540  0.8586 -0.7044
  189MPD1     H 2932   0.644   2.246   0.167  1.5001 -0.1281  1.4728
  189MPD1    H1 2933   0.695   1.839   0.031 -1.9500  0.7945 -0.8739
  189MPD1    H2 2934   0.982   2.117  17.671  0.2201  2.5086  1.2582
  189MPD1    H3 2935   0.877   1.919  17.622  0.7066 -3.8697  3.4092
  189MPD1     N 2936   0.528   2.022   0.151  0.8279  0.2488  0.6052
  189MPD1    H5 2937   0.472   2.101   0.182 -0.3878  0.6962 -2.7263
  189MPD1    N1 2938   0.904   2.326   0.071  0.4316  0.0353  0.5974
  189MPD1    H6 2939   0.866   2.395   0.136 -1.7912 -1.2794  0.6748
  189MPD1    H7 2940   1.005   2.329   0.058  0.5158  2.4736  1.9332
  190MPD1     C 2941   3.661   3.817  15.483 -0.5898 -0.6471 -0.4838
  190MPD1    C1 2942   3.703   3.825  15.613 -0.7581  0.6738  0.2955
  190MPD1    C2 2943   3.833   3.864  15.634  0.0037  0.3690 -0.0197
  190MPD1    C3 2944   3.926   3.877  15.536  0.1135  0.1233  0.2938
  190MPD1    C4 2945   3.886   3.850  15.407  0.5757  0.0366  0.3789
  190MPD1    C5 2946   3.752   3.817  15.386  0.0252 -0.3269  0.3311
  190MPD1     H 2947   3.866   3.884  15.735 -0.7614  0.7130  0.1605
  190MPD1    H1 2948   3.940   3.847  15.313  1.3024  0.7239  0.7721
  190MPD1    H2 2949   3.557   3.809  15.453 -0.4259  0.1888 -1.2732
  190MPD1    H3 2950   3.719   3.799  15.284 -1.1091 -0.4571  0.7198
  190MPD1     N 2951   4.070   3.912  15.569 -0.2674 -0.2536 -0.4988
  190MPD1    H5 2952   4.083   3.939  15.666 -0.5873 -0.4168 -0.4131
  190MPD1    N1 2953   3.611   3.826  15.724  0.4177  0.0724 -0.4498
  190MPD1    H6 2954   3.531   3.771  15.693  0.8792  0.0669 -1.6362
  190MPD1    H7 2955   3.642   3.798  15.817  1.0037 -0.3507 -0.7773
  191MPD1     C 2956   3.464   0.782  13.230  0.3970 -0.1657  0.9704
  191MPD1    C1 2957   3.484   0.777  13.092 -0.6294  0.5296 -0.1066
  191MPD1    C2 2958   3.378   0.825  13.019  0.8924 -0.7789  0.3009
  191MPD1    C3 2959   3.268   0.888  13.070 -0.6283  0.0105  0.4728
  191MPD1    C4 2960   3.254   0.889  13.211 -0.5558  0.5217  0.5720
  191MPD1    C5 2961   3.350   0.833  13.284 -0.3443 -0.0393 -0.1116
  191MPD1     H 2962   3.382   0.815  12.911 -2.0190 -1.3390  0.2409
  191MPD1    H1 2963   3.173   0.945  13.256 -1.5058 -0.6736  0.3845
  191MPD1    H2 2964   3.534   0.738  13.299 -1.1380 -1.3443  1.7876
  191MPD1    H3 2965   3.337   0.824  13.391 -1.5077  0.5058 -0.2043
  191MPD1     N 2966   3.176   0.950  12.977  0.2314  0.2225 -0.5467
  191MPD1    H5 2967   3.186   0.928  12.878  1.4511 -0.6284 -0.2330
  191MPD1    N1 2968   3.591   0.709  13.036 -0.0100  0.2888  0.2253
  191MPD1    H6 2969   3.607   0.729  12.937 -0.5566 -0.2912  0.0120
  191MPD1    H7 2970   3.677   0.712  13.091 -0.2662  2.1694  0.5086
  192MPD1     C 2971   2.404   1.698  12.803 -0.5309 -0.4788 -0.4482
  192MPD1    C1 2972   2.382   1.577  12.870 -0.4485 -0.0557 -0.0122
  192MPD1    C2 2973   2.481   1.475  12.875 -0.1638 -0.0927  0.0132
  192MPD1    C3 2974   2.602   1.504  12.813 -0.7721  0.6374  0.1714
  192MPD1    C4 2975   2.620   1.623  12.749 -0.4586  0.5154  0.5166
  192MPD1    C5 2976   2.526   1.717  12.743 -0.3356 -0.6135 -0.1230
  192MPD1     H 2977   2.454   1.376  12.909 -1.2583  0.9448  2.2491
  192MPD1    H1 2978   2.716   1.650  12.708 -0.0251 -1.0578  0.4883
  192MPD1    H2 2979   2.329   1.777  12.799 -1.0874 -0.9228  0.9278
  192MPD1    H3 2980   2.559   1.807  12.694 -0.3446  0.6243  2.1655
  192MPD1     N 2981   2.710   1.412  12.799 -0.2756  0.0534  0.3892
  192MPD1    H5 2982   2.800   1.445  12.766 -0.8456  1.3107  0.0400
  192MPD1    N1 2983   2.254   1.557  12.925  0.0189 -0.3906  0.3539
  192MPD1    H6 2984   2.198   1.637  12.951  1.7358  1.2021 -0.7825
  192MPD1    H7 2985   2.262   1.499  13.009  0.9690  0.1861  0.6652
  193MPD1     C 2986   2.672   1.297  15.873 -0.0888  0.3493  0.1875
  193MPD1    C1 2987   2.664   1.432  15.908 -0.1275  0.3326 -0.0287
  193MPD1    C2 2988   2.746   1.481  16.006 -1.0706  0.1415 -0.1696
  193MPD1    C3 2989   2.848   1.408  16.061  0.0470  0.0299  0.5071
  193MPD1    C4 2990   2.877   1.285  16.004  0.3387  0.1016  0.1529
  193MPD1    C5 2991   2.787   1.226  15.914 -0.0761 -0.1122  0.4685
  193MPD1     H 2992   2.714   1.580  16.038 -1.7685 -0.5752  1.3379
  193MPD1    H1 2993   2.960   1.226  16.041 -0.5127 -0.9654  0.3523
  193MPD1    H2 2994   2.602   1.255  15.801 -0.7165  0.1226  0.9375
  193MPD1    H3 2995   2.804   1.124  15.882 -0.2173  0.8176 -2.6168
  193MPD1     N 2996   2.937   1.457  16.163  0.6580  0.4435 -0.6853
  193MPD1    H5 2997   3.010   1.391  16.189 -0.2549 -0.5541 -0.6176
  193MPD1    N1 2998   2.546   1.494  15.865 -0.0258  0.4355  0.0539
  193MPD1    H6 2999   2.552   1.596  15.864  1.7966  0.3291  0.8892
  193MPD1    H7 3000   2.476   1.473  15.936 -0.4504  2.5622  0.2753
  194MPD1     C 3001   0.990   4.631  16.904 -0.2898 -0.3296  0.7691
  194MPD1    C1 3002   0.919   4.573  16.795  0.5094 -0.0617 -0.1384
  194MPD1    C2 3003   0.962   4.444  16.759  0.0699  0.3467  0.1134
  194MPD1    C3 3004   1.064   4.382  16.816 -0.3711  0.1862  1.1834
  194MPD1    C4 3005   1.133   4.445  16.919 -1.1458 -0.5383  0.1486
  194MPD1    C5 3006   1.102   4.573  16.954 -0.3238 -0.3359  0.2545
  194MPD1     H 3007   0.905   4.407  16.674 -3.0967 -0.5246  2.6132
  194MPD1    H1 3008   1.207   4.389  16.975  0.7997 -0.4353 -2.3419
  194MPD1    H2 3009   0.979   4.730  16.946  1.2209  0.1520  0.0270
  194MPD1    H3 3010   1.153   4.622  17.036 -0.8541 -0.0526  0.4119
  194MPD1     N 3011   1.108   4.248  16.791  0.4267  0.1758  0.9581
  194MPD1    H5 3012   1.191   4.227  16.845  1.0351 -0.9741 -0.4444
  194MPD1    N1 3013   0.796   4.630  16.760  0.4458 -0.2172  0.0263
  194MPD1    H6 3014   0.791   4.732  16.754  0.8881 -0.3714 -2.9126
  194MPD1    H7 3015   0.756   4.600  16.671  0.4690 -1.5329  0.4646
  195MPD1     C 3016   3.019   1.278  17.594 -0.7143  0.2788 -0.0854
  195MPD1    C1 3017   3.146   1.283  17.648 -0.3481 -0.2428  0.2218
  195MPD1    C2 3018   3.205   1.158  17.669 -0.3940  0.1024 -0.7790
  195MPD1    C3 3019   3.135   1.039  17.654 -0.0512 -0.0598 -0.1131
  195MPD1    C4 3020   3.000   1.044  17.625  0.3337  0.0770 -0.3693
  195MPD1    C5 3021   2.949   1.163  17.588 -0.0000 -0.2263 -0.4684
  195MPD1     H 3022   3.310   1.148  17.694 -0.3939 -1.0813 -1.3015
  195MPD1    H1 3023   2.931   0.962  17.606  0.1283 -0.2499  1.7338
  195MPD1    H2 3024   2.968   1.366  17.557 -0.5754 -1.4911 -4.4846
  195MPD1    H3 3025   2.847   1.159  17.552 -1.0956  1.7536  2.4535
  195MPD1     N 3026   3.196   0.907  17.669  0.5718  0.1663 -0.0080
  195MPD1    H5 3027   3.130   0.830  17.662 -0.7068  1.2192  0.5515
  195MPD1    N1 3028   3.233   1.396  17.648  0.4346 -0.4161  0.6150
  195MPD1    H6 3029   3.182   1.481  17.670  1.3156  0.0843  0.7260
  195MPD1    H7 3030   3.303   1.387  17.721  1.3594 -0.4316 -0.2574
  196MPD1     C 3031   2.316   4.281  17.416 -0.2611 -0.4230 -0.1417
  196MPD1    C1 3032   2.374   4.405  17.416  0.1375  0.5434  0.1915
  196MPD1    C2 3033   2.400   4.475  17.531  0.1576 -0.4832  0.0916
  196MPD1    C3 3034   2.364   4.413  17.653 -0.2490 -0.4387 -0.4349
  196MPD1    C4 3035   2.311   4.286  17.659 -0.8531  0.0117 -0.5310
  196MPD1    C5 3036   2.276   4.226  17.539  0.5270  0.2200 -0.1645
  196MPD1     H 3037   2.445   4.573  17.543  2.4275 -1.3169 -1.7303
  196MPD1    H1 3038   2.286   4.244   0.017  0.8934  0.8268  0.2691
  196MPD1    H2 3039   2.297   4.229  17.323 -2.9357 -0.1737  0.2633
  196MPD1    H3 3040   2.216   4.136  17.541  1.7732 -0.6260 -0.7851
  196MPD1     N 3041   2.353   4.479   0.038 -0.3583  0.2390 -0.6136
  196MPD1    H5 3042   2.335   4.419   0.118  0.4816 -1.4593 -1.6934
  196MPD1    N1 3043   2.423   4.443  17.288 -0.8014 -0.7754 -0.2146
  196MPD1    H6 3044   2.356   4.429  17.212 -0.2206 -0.8034 -0.7217
  196MPD1    H7 3045   2.447   4.542  17.292 -0.6111 -1.0233  4.7296
  197MPD1     C 3046   1.797   1.582  17.273  0.7009 -0.7091 -0.4417
  197MPD1    C1 3047   1.868   1.674  17.335  0.3014  0.1466  0.2569
  197MPD1    C2 3048   1.936   1.763  17.261  0.8648  0.3807 -0.1452
  197MPD1    C3 3049   1.904   1.780  17.127 -0.2516  0.4199 -0.1802
  197MPD1    C4 3050   1.829   1.684  17.065  0.1722  0.2804  0.8085
  197MPD1    C5 3051   1.784   1.577  17.139  0.8380  0.3228 -0.8299
  197MPD1     H 3052   2.007   1.826  17.313  2.1306  0.0943 -1.5207
  197MPD1    H1 3053   1.806   1.679  16.959 -2.6456 -2.1275  1.5715
  197MPD1    H2 3054   1.756   1.498  17.328 -1.8589  0.9553  0.2170
  197MPD1    H3 3055   1.736   1.498  17.082  1.7663  1.1969 -2.8366
  197MPD1     N 3056   1.949   1.895  17.056 -0.1794 -0.0963 -0.2593
  197MPD1    H5 3057   1.929   1.894  16.957 -1.0239  0.9750 -0.1080
  197MPD1    N1 3058   1.907   1.647  17.466  0.1779 -0.6673  0.3526
  197MPD1    H6 3059   1.825   1.637  17.527  0.1086 -0.8115  0.2339
  197MPD1    H7 3060   1.975   1.710  17.508 -1.8646  0.4726  1.9589
  198MPD1     C 3061   4.180   0.709  14.584 -0.0541 -0.2983  0.0480
  198MPD1    C1 3062   4.039   0.680  14.585 -0.1532  0.3588 -0.1472
  198MPD1    C2 3063   3.979   0.621  14.700 -0.6938  0.6167 -0.7394
  198MPD1    C3 3064   4.064   0.569  14.800 -0.4476 -0.8593 -0.6321
  198MPD1    C4 3065   4.198   0.589  14.792 -0.0851 -0.5876 -0.4181
  198MPD1    C5 3066   4.250   0.661  14.689  0.3929 -0.0621 -0.5365
  198MPD1     H 3067   3.873   0.619  14.720 -0.0062  0.6045  2.9050
  198MPD1    H1 3068   4.263   0.542  14.866  0.1619 -0.0452 -0.2832
  198MPD1    H2 3069   4.233   0.740  14.494 -1.0621  2.3073  0.3375
  198MPD1    H3 3070   4.357   0.665  14.669  0.1445  0.5259 -1.7174
  198MPD1     N 3071   4.001   0.495  14.905  0.0957 -0.2344  0.5726
  198MPD1    H5 3072   3.901   0.484  14.915 -0.0540 -0.5437 -1.2616
  198MPD1    N1 3073   3.951   0.741  14.485  0.4485  0.3490  1.0032
  198MPD1    H6 3074   3.993   0.751  14.393  2.4602  0.6748  1.9730
  198MPD1    H7 3075   3.868   0.681  14.488  0.1094  0.6903 -1.4989
  199MPD1     C 3076   1.486   2.646  10.289 -0.2851  0.3241 -0.5857
  199MPD1    C1 3077   1.432   2.681  10.411 -0.9532 -0.5063 -0.4237
  199MPD1    C2 3078   1.312   2.616  10.446 -0.3640  0.6579 -0.3665
  199MPD1    C3 3079   1.262   2.511  10.371  0.0184 -0.4226  0.1663
  199MPD1    C4 3080   1.320   2.486  10.249 -0.2333  0.4790 -0.2943
  199MPD1    C5 3081   1.428   2.553  10.209 -0.1855 -0.3528  1.0634
  199MPD1     H 3082   1.261   2.643  10.538 -0.5404 -0.6376 -0.0843
  199MPD1    H1 3083   1.282   2.403  10.189  1.5137  0.0581 -0.8214
  199MPD1    H2 3084   1.573   2.695  10.248 -2.3743  4.7223  0.3252
  199MPD1    H3 3085   1.468   2.523  10.113  0.1210  0.5892  0.8975
  199MPD1     N 3086   1.141   2.436  10.394 -0.2742 -0.1460  0.1537
  199MPD1    H5 3087   1.106   2.381  10.317  0.0370 -2.4040  1.6255
  199MPD1    N1 3088   1.480   2.794  10.479  0.2285 -0.6684 -0.3909
  199MPD1    H6 3089   1.576   2.808  10.449  0.1438  1.0382  0.1276
  199MPD1    H7 3090   1.483   2.782  10.580 -0.7296 -0.1677 -0.3051
  200MPD1     C 3091   0.589   1.733  15.890  0.1580 -0.3295 -0.9513
  200MPD1    C1 3092   0.603   1.734  15.752  0.8230 -0.1457 -0.1681
  200MPD1    C2 3093   0.608   1.858  15.687 -0.0145 -0.6778  0.5296
  200MPD1    C3 3094   0.587   1.982  15.755 -0.2956  0.1727  0.4066
  200MPD1    C4 3095   0.573   1.975  15.897  0.6836  0.5814 -0.8255
  200MPD1    C5 3096   0.574   1.850  15.956  0.3480  0.4992 -0.4294
  200MPD1     H 3097   0.623   1.853  15.580 -0.5052  1.5548  0.3524
  200MPD1    H1 3098   0.570   2.066  15.955  1.2269 -0.6886  1.1999
  200MPD1    H2 3099   0.595   1.641  15.947  0.3204 -1.5172 -2.8877
  200MPD1    H3 3100   0.564   1.857  16.064 -0.4866  2.2327 -0.6304
  200MPD1     N 3101   0.591   2.101  15.675 -0.1244 -0.4854 -0.2323
  200MPD1    H5 3102   0.592   2.090  15.574  0.7805 -1.2807 -0.1318
  200MPD1    N1 3103   0.631   1.608  15.686 -0.4808 -0.4467  0.2231
  200MPD1    H6 3104   0.593   1.622  15.593 -0.0016  2.2326  0.4218
  200MPD1    H7 3105   0.596   1.527  15.736 -0.0969 -1.0222 -0.4507
  201MPD1     C 3106   1.988   1.001  13.295  0.0535  0.0024 -0.5809
  201MPD1    C1 3107   1.914   0.886  13.267 -0.0638 -0.2512  0.1831
  201MPD1    C2 3108   1.979   0.762  13.284 -0.0391  0.1179 -0.2380
  201MPD1    C3 3109   2.117   0.766  13.309 -0.0142  0.7015 -0.2429
  201MPD1    C4 3110   2.189   0.883  13.326 -0.5783 -0.0419 -0.4235
  201MPD1    C5 3111   2.126   1.003  13.315  0.1821 -0.5092  0.1683
  201MPD1     H 3112   1.924   0.669  13.281 -0.3908  0.3229 -0.2108
  201MPD1    H1 3113   2.297   0.888  13.321 -0.7463  2.5750 -1.4491
  201MPD1    H2 3114   1.942   1.098  13.304 -0.7410 -0.6624  2.4959
  201MPD1    H3 3115   2.172   1.098  13.341  0.2926 -1.1967  2.4853
  201MPD1     N 3116   2.188   0.645  13.300 -0.5396  0.5187  0.2801
  201MPD1    H5 3117   2.125   0.567  13.281  1.2595 -0.0990 -3.1130
  201MPD1    N1 3118   1.774   0.892  13.263  0.4525 -0.1309 -0.4475
  201MPD1    H6 3119   1.729   0.809  13.226  1.8467 -1.0754 -0.0301
  201MPD1    H7 3120   1.732   0.977  13.225  3.5704  0.8287 -1.7347
  202MPD1     C 3121   1.799   0.472   9.129  0.1412  0.9198  0.0361
  202MPD1    C1 3122   1.808   0.343   9.094 -0.4306 -0.7568 -0.0416
  202MPD1    C2 3123   1.800   0.244   9.186  0.0296  0.0883 -0.5123
  202MPD1    C3 3124   1.817   0.274   9.321  0.9932  0.8770 -0.9440
  202MPD1    C4 3125   1.812   0.407   9.361  0.5617  0.7096 -0.2267
  202MPD1    C5 3126   1.799   0.507   9.264  0.5175 -0.1043  0.8136
  202MPD1     H 3127   1.808   0.140   9.155  0.2263  0.5177 -1.8805
  202MPD1    H1 3128   1.816   0.428   9.467  2.1275  2.0122 -0.5321
  202MPD1    H2 3129   1.766   0.551   9.061 -0.5159  0.2825 -0.3798
  202MPD1    H3 3130   1.782   0.611   9.290  1.0752  0.5636 -1.4769
  202MPD1     N 3131   1.808   0.180   9.429 -0.1168 -0.1377 -0.3886
  202MPD1    H5 3132   1.798   0.225   9.520 -1.5442  1.0466 -1.1267
  202MPD1    N1 3133   1.769   0.317   8.958 -0.2569 -0.3464 -0.0449
  202MPD1    H6 3134   1.817   0.238   8.918  0.9328  0.7074 -0.6850
  202MPD1    H7 3135   1.808   0.393   8.902 -0.3290 -0.1892  0.1166
  203MPD1     C 3136   0.398   0.504  12.428 -0.0809 -1.0890  0.2386
  203MPD1    C1 3137   0.484   0.472  12.327  0.2785 -0.6696  0.6757
  203MPD1    C2 3138   0.619   0.501  12.343  0.0847  0.1919  0.2064
  203MPD1    C3 3139   0.670   0.542  12.466 -0.2353 -0.7635 -0.2597
  203MPD1    C4 3140   0.584   0.565  12.569  1.0229 -0.5019  0.8173
  203MPD1    C5 3141   0.447   0.551  12.554 -0.4480 -0.1994 -0.1387
  203MPD1     H 3142   0.688   0.473  12.264  1.3549  0.6736  1.1397
  203MPD1    H1 3143   0.617   0.592  12.668  0.0188 -0.8340  1.2494
  203MPD1    H2 3144   0.290   0.495  12.424 -0.4162  2.7279  0.7711
  203MPD1    H3 3145   0.390   0.569  12.644  0.0724 -1.7488  0.4992
  203MPD1     N 3146   0.811   0.568  12.470 -0.1492  0.3804  0.4763
  203MPD1    H5 3147   0.861   0.543  12.386  2.4859  1.6560  1.6398
  203MPD1    N1 3148   0.432   0.434  12.208  0.0594 -0.3706 -0.0900
  203MPD1    H6 3149   0.502   0.382  12.156  0.2203 -0.5675  0.3268
  203MPD1    H7 3150   0.354   0.370  12.219  0.0895 -0.2002  1.0811
  204MPD1     C 3151   0.141   2.429  17.627 -1.1302  0.0082 -0.0095
  204MPD1    C1 3152   0.258   2.467  17.574 -0.1028  0.1841  0.5148
  204MPD1    C2 3153   0.349   2.365  17.550  0.3594  0.3371 -0.2913
  204MPD1    C3 3154   0.317   2.231  17.585  0.4895 -0.3783  0.3608
  204MPD1    C4 3155   0.196   2.200  17.630  0.2205 -0.2910 -0.2997
  204MPD1    C5 3156   0.101   2.297  17.649 -0.3226 -0.6761 -0.5041
  204MPD1     H 3157   0.445   2.385  17.504  0.6602 -3.0183 -1.1382
  204MPD1    H1 3158   0.164   2.100  17.655 -1.7626  0.6084  0.6866
  204MPD1    H2 3159   0.071   2.507  17.655 -1.4269 -0.0250 -0.6598
  204MPD1    H3 3160   0.002   2.266  17.679 -0.1084  0.4426  1.4012
  204MPD1     N 3161   0.418   2.132  17.549  0.4190 -0.4562 -0.4540
  204MPD1    H5 3162   0.498   2.170  17.499 -0.4239 -1.2345 -2.4111
  204MPD1    N1 3163   0.301   2.597  17.566  0.7447 -0.0919  0.2979
  204MPD1    H6 3164   0.356   2.607  17.481  1.0012 -2.3892  0.1842
  204MPD1    H7 3165   0.212   2.644  17.553  0.9304 -0.7474 -3.1294
  205MPD1     C 3166   1.714   1.155   0.136  0.4909  0.1598 -0.1423
  205MPD1    C1 3167   1.592   1.200   0.181  0.8122 -1.0613 -0.5529
  205MPD1    C2 3168   1.476   1.166   0.108  0.0307  0.3223  0.0530
  205MPD1    C3 3169   1.482   1.090  17.735 -0.3380  0.0515  0.1465
  205MPD1    C4 3170   1.603   1.065  17.680  0.1287 -1.2095  0.4050
  205MPD1    C5 3171   1.718   1.100   0.012  0.4665  0.1710 -0.2207
  205MPD1     H 3172   1.379   1.197   0.146  0.7430  0.1854  1.9632
  205MPD1    H1 3173   1.609   1.018  17.582 -3.0138 -1.1712  0.1992
  205MPD1    H2 3174   1.801   1.174   0.198 -0.7883 -4.8712  3.1738
  205MPD1    H3 3175   1.814   1.067  17.710  1.0566 -1.0755  2.1574
  205MPD1     N 3176   1.369   1.041  17.669  0.2475 -0.2943  0.0989
  205MPD1    H5 3177   1.388   0.972  17.597  1.1671  0.2728 -0.2000
  205MPD1    N1 3178   1.582   1.269   0.305 -0.0608 -0.0921 -0.5416
  205MPD1    H6 3179   1.488   1.306   0.318 -0.4202 -1.4118  0.5095
  205MPD1    H7 3180   1.659   1.336   0.312 -2.5935  2.3761  3.2281
  206MPD1     C 3181   1.491   3.896  16.773 -0.2948 -0.1758 -0.4096
  206MPD1    C1 3182   1.438   3.772  16.762  0.3058 -0.2171 -0.5805
  206MPD1    C2 3183   1.364   3.750  16.648 -0.0759 -0.1883 -0.2857
  206MPD1    C3 3184   1.337   3.851  16.554 -0.4549  0.4422  1.0261
  206MPD1    C4 3185   1.386   3.973  16.578 -0.1265  0.1561  0.1014
  206MPD1    C5 3186   1.466   3.995  16.686  0.2069 -0.1434 -0.1097
  206MPD1     H 3187   1.321   3.652  16.635  0.1930 -0.2326 -0.8668
  206MPD1    H1 3188   1.368   4.066  16.525 -0.4245  0.9111  1.5325
  206MPD1    H2 3189   1.556   3.919  16.856  0.0139 -0.8768 -0.4604
  206MPD1    H3 3190   1.500   4.096  16.705 -0.9637 -0.1903  2.2987
  206MPD1     N 3191   1.267   3.833  16.437 -0.7384  0.0190  1.1545
  206MPD1    H5 3192   1.259   3.918  16.384 -2.0616  1.4688  3.6868
  206MPD1    N1 3193   1.489   3.660  16.837  0.0998 -0.0777  0.0086
  206MPD1    H6 3194   1.427   3.579  16.841 -0.8705  0.6580 -0.2266
  206MPD1    H7 3195   1.530   3.684  16.927 -0.2399  1.1940 -0.1747
  207MPD1     C 3196   2.625   1.189  10.584 -0.5142  0.5951 -0.2970
  207MPD1    C1 3197   2.643   1.251  10.464  0.3045 -0.2807 -0.2348
  207MPD1    C2 3198   2.766   1.319  10.458  0.3926  0.2036  0.3791
  207MPD1    C3 3199   2.843   1.346  10.572  1.0109 -0.3699 -0.0374
  207MPD1    C4 3200   2.825   1.276  10.689  0.6033 -0.5168 -1.0346
  207MPD1    C5 3201   2.717   1.196  10.690 -0.4941  0.1779  0.5711
  207MPD1     H 3202   2.788   1.346  10.356  2.3256  1.2212  1.0643
  207MPD1    H1 3203   2.880   1.288  10.782  1.9294 -1.4744 -1.6938
  207MPD1    H2 3204   2.546   1.116  10.595  0.7923 -0.3488  2.8209
  207MPD1    H3 3205   2.693   1.141  10.780 -1.6801  0.4351  0.4115
  207MPD1     N 3206   2.951   1.434  10.567  0.2643  0.0083  0.3529
  207MPD1    H5 3207   2.994   1.450  10.658  1.1392  2.7557 -0.5135
  207MPD1    N1 3208   2.570   1.222  10.346 -0.9869 -0.5487  0.1423
  207MPD1    H6 3209   2.482   1.186  10.381 -0.8844  0.1332  1.1058
  207MPD1    H7 3210   2.550   1.308  10.296 -1.0095 -2.1033 -2.5189
  208MPD1     C 3211   2.550   0.368  16.911 -0.1237  0.0184 -0.4336
  208MPD1    C1 3212   2.454   0.467  16.880 -0.3156  0.6319  0.3285
  208MPD1    C2 3213   2.356   0.493  16.981  0.1289 -0.6418 -0.1608
  208MPD1    C3 3214   2.353   0.435  17.105  0.2605  0.3986  0.8955
  208MPD1    C4 3215   2.462   0.366  17.138  0.2550 -0.2520 -0.6481
  208MPD1    C5 3216   2.556   0.328  17.041  0.3476  0.7820 -1.0034
  208MPD1     H 3217   2.272   0.555  16.952 -0.4882 -1.1251  0.6184
  208MPD1    H1 3218   2.480   0.317  17.233  4.5504 -1.8954 -2.2860
  208MPD1    H2 3219   2.622   0.337  16.837 -2.3825 -1.8914 -1.8387
  208MPD1    H3 3220   2.635   0.257  17.057 -0.7467 -0.4918 -1.2461
  208MPD1     N 3221   2.240   0.457  17.186  0.0210 -0.1472  0.8747
  208MPD1    H5 3222   2.163   0.507  17.145  2.2008  2.0819 -0.5029
  208MPD1    N1 3223   2.421   0.499  16.745 -0.0865  0.3322 -0.0668
  208MPD1    H6 3224   2.362   0.581  16.737 -0.9839 -0.2240  0.8369
  208MPD1    H7 3225   2.503   0.513  16.685 -0.9998  1.9427 -0.9267
  209MPD1     C 3226   3.772   0.488  11.240 -0.2785  0.1003  0.7854
  209MPD1    C1 3227   3.698   0.574  11.326 -0.2155 -0.2264 -0.7013
  209MPD1    C2 3228   3.701   0.710  11.298  0.3019 -0.3527  0.0730
  209MPD1    C3 3229   3.784   0.758  11.197  0.3795  0.1971  0.1977
  209MPD1    C4 3230   3.860   0.672  11.125 -0.1065  0.0123  0.3881
  209MPD1    C5 3231   3.857   0.543  11.148  0.6435  0.4166  0.2795
  209MPD1     H 3232   3.640   0.779  11.355 -0.1035 -1.1624  0.6162
  209MPD1    H1 3233   3.912   0.700  11.035 -0.7107 -0.1559 -0.0136
  209MPD1    H2 3234   3.777   0.381  11.261  1.5730  0.1549  0.6991
  209MPD1    H3 3235   3.917   0.480  11.083  0.8698  3.1070 -2.1250
  209MPD1     N 3236   3.793   0.898  11.189  0.3351  0.1927  0.5212
  209MPD1    H5 3237   3.743   0.954  11.258  0.1804  1.1588 -0.3871
  209MPD1    N1 3238   3.602   0.522  11.415  0.2316 -0.2712 -0.2448
  209MPD1    H6 3239   3.592   0.579  11.498  0.8543 -0.1343 -0.2670
  209MPD1    H7 3240   3.631   0.435  11.459  0.4874  0.1486  0.3999
  210MPD1     C 3241   4.455   1.770  11.116  0.3230 -0.4118 -0.3051
  210MPD1    C1 3242   4.477   1.648  11.045 -0.6953  0.3621 -0.4284
  210MPD1    C2 3243   4.383   1.548  11.065  0.0776  0.5360 -0.3238
  210MPD1    C3 3244   4.262   1.572  11.125  0.5607  0.4897 -0.1226
  210MPD1    C4 3245   4.239   1.694  11.189  0.0822  0.4321  0.9331
  210MPD1    C5 3246   4.338   1.796  11.183 -0.2306  0.2088  0.2546
  210MPD1     H 3247   4.402   1.450  11.022  1.2000  0.8841 -0.6109
  210MPD1    H1 3248   4.149   1.703  11.248 -1.7550 -0.3471 -1.7550
  210MPD1    H2 3249   4.536   1.842  11.120  0.5621 -0.6476 -0.8561
  210MPD1    H3 3250   4.323   1.883  11.246  0.7363 -1.0477  2.2344
  210MPD1     N 3251   4.156   1.486  11.138  0.1863  0.1421  0.1215
  210MPD1    H5 3252   4.073   1.518  11.187 -0.6643 -1.2252 -0.4063
  210MPD1    N1 3253   4.608   1.618  10.995  0.0032  0.1298 -0.3250
  210MPD1    H6 3254   4.605   1.546  10.923 -2.3356  0.3221 -0.4112
  210MPD1    H7 3255   4.653   1.699  10.953  0.0712  0.1023 -0.3050
  211MPD1     C 3256   0.773   0.562  16.578  0.9204  0.1381 -0.3490
  211MPD1    C1 3257   0.644   0.600  16.543 -1.1618 -0.3397 -0.5166
  211MPD1    C2 3258   0.627   0.720  16.478 -0.2620  0.1016 -0.4481
  211MPD1    C3 3259   0.734   0.805  16.445  0.4120 -0.3737  0.1515
  211MPD1    C4 3260   0.864   0.759  16.477  0.1079 -0.0587 -0.5640
  211MPD1    C5 3261   0.881   0.648  16.551  0.1217 -0.3274 -0.2102
  211MPD1     H 3262   0.531   0.755  16.440 -0.0047  1.8433  0.5117
  211MPD1    H1 3263   0.960   0.806  16.456  1.1817 -2.1580 -0.2807
  211MPD1    H2 3264   0.805   0.477  16.637 -1.1808 -1.0299 -0.8794
  211MPD1    H3 3265   0.984   0.625  16.577 -1.1905 -0.1556  5.1376
  211MPD1     N 3266   0.707   0.921  16.368 -0.1331  0.2498  0.2748
  211MPD1    H5 3267   0.619   0.927  16.318  0.2828  0.4051 -0.4343
  211MPD1    N1 3268   0.538   0.514  16.570 -0.2471 -0.2587  0.0709
  211MPD1    H6 3269   0.549   0.456  16.653  1.6427  1.9866  1.3601
  211MPD1    H7 3270   0.448   0.562  16.575  0.4986  1.0954  0.5225
  212MPD1     C 3271   0.610   4.121  16.848  0.9168  0.2601  0.1730
  212MPD1    C1 3272   0.637   4.005  16.782  0.1992  0.9402  0.0541
  212MPD1    C2 3273   0.578   3.883  16.828 -0.3805 -0.3913  0.3266
  212MPD1    C3 3274   0.506   3.882  16.947  0.0911 -0.2998 -0.3312
  212MPD1    C4 3275   0.484   4.007  17.007  0.1308 -0.0366  0.3741
  212MPD1    C5 3276   0.536   4.122  16.951  0.2031  0.0651  0.4860
  212MPD1     H 3277   0.597   3.790  16.775 -1.2508  1.6651 -3.6008
  212MPD1    H1 3278   0.424   4.024  17.095 -0.0007 -1.5246  0.5756
  212MPD1    H2 3279   0.642   4.221  16.818 -1.0695  1.4487  2.0099
  212MPD1    H3 3280   0.510   4.212  17.005  0.2457 -0.1275  0.8271
  212MPD1     N 3281   0.440   3.771  16.998  0.0638 -0.1850 -0.4111
  212MPD1    H5 3282   0.395   3.781  17.088 -1.4433  1.0882 -1.3255
  212MPD1    N1 3283   0.696   4.012  16.660  0.5649  0.4682 -0.1622
  212MPD1    H6 3284   0.738   3.926  16.625  0.3366 -0.7125  2.4679
  212MPD1    H7 3285   0.767   4.085  16.657  0.7788  0.2855  0.5818
  213MPD1     C 3286   3.301   4.400  15.780 -0.6435 -0.5472  0.0505
  213MPD1    C1 3287   3.225   4.309  15.707 -0.7237  0.3715 -0.2132
  213MPD1    C2 3288   3.129   4.381  15.643  0.1316  0.0530  0.0667
  213MPD1    C3 3289   3.113   4.519  15.634  0.3863 -1.1138  0.0185
  213MPD1    C4 3290   3.207   4.598  15.692  0.0809 -0.2712 -0.4946
  213MPD1    C5 3291   3.299   4.535  15.765  0.0143  0.4992 -0.0666
  213MPD1     H 3292   3.043   4.324  15.611  0.5320 -0.7926  0.5088
  213MPD1    H1 3293   3.202   4.706  15.694 -3.4647 -0.4141 -0.5710
  213MPD1    H2 3294   3.386   4.365  15.838 -0.9185 -0.3027  0.6024
  213MPD1    H3 3295   3.376   4.595  15.813  0.0600  0.5207 -0.1662
  213MPD1     N 3296   2.994   4.561  15.569  0.0744 -0.2628  0.7079
  213MPD1    H5 3297   2.927   4.494  15.530 -1.6503  1.7177  0.2490
  213MPD1    N1 3298   3.199   4.180  15.755 -0.8734 -0.0037 -0.1453
  213MPD1    H6 3299   3.277   4.138  15.805 -1.7093  1.7423  2.6564
  213MPD1    H7 3300   3.166   4.111  15.688  0.8961  1.1064 -2.1448
  214MPD1     C 3301   2.328   4.125  15.109 -0.3569 -0.0485 -0.1737
  214MPD1    C1 3302   2.299   4.193  15.226 -0.2925 -0.2792  0.2751
  214MPD1    C2 3303   2.382   4.301  15.260  0.2029 -0.3860 -0.6667
  214MPD1    C3 3304   2.497   4.331  15.180  0.2349  0.5862 -0.0817
  214MPD1    C4 3305   2.529   4.259  15.068  0.0403 -0.4599 -0.7595
  214MPD1    C5 3306   2.441   4.163  15.032  0.2668 -0.8799  0.4498
  214MPD1     H 3307   2.353   4.366  15.341  1.7189 -0.0128 -0.4222
  214MPD1    H1 3308   2.620   4.273  15.012  0.3689 -0.7491 -0.2981
  214MPD1    H2 3309   2.263   4.047  15.072  0.1160 -0.3330 -0.3991
  214MPD1    H3 3310   2.473   4.101  14.949  1.7814 -2.0017  1.8545
  214MPD1     N 3311   2.578   4.442  15.210 -0.2659 -0.3621 -0.2372
  214MPD1    H5 3312   2.648   4.464  15.140  0.7952 -1.4713  0.4861
  214MPD1    N1 3313   2.176   4.179  15.280  0.3587 -0.0405 -0.6421
  214MPD1    H6 3314   2.173   4.207  15.378 -0.2628 -0.7669 -0.4515
  214MPD1    H7 3315   2.136   4.085  15.281  1.3823 -0.5019 -2.7858
  215MPD1     C 3316   2.087   1.356  10.960 -0.0074 -0.2055  0.0879
  215MPD1    C1 3317   2.104   1.486  10.995  0.3282 -0.2808  0.3470
  215MPD1    C2 3318   2.194   1.518  11.100  0.1101 -0.3258  0.2732
  215MPD1    C3 3319   2.281   1.423  11.152  0.5765  0.2756 -0.6494
  215MPD1    C4 3320   2.267   1.291  11.104  0.4215  0.5221  0.0221
  215MPD1    C5 3321   2.168   1.260  11.018 -0.1154 -0.4166  0.4422
  215MPD1     H 3322   2.194   1.618  11.142 -1.2251  0.1382 -0.8572
  215MPD1    H1 3323   2.324   1.210  11.149 -2.7328 -2.1388 -0.8031
  215MPD1    H2 3324   2.004   1.335  10.893  0.2380  0.7558 -0.5299
  215MPD1    H3 3325   2.143   1.155  11.014 -0.5061 -0.4284  2.8362
  215MPD1     N 3326   2.377   1.465  11.247  0.5024 -0.5338  0.5419
  215MPD1    H5 3327   2.381   1.564  11.269 -0.3027 -0.0593 -1.4205
  215MPD1    N1 3328   2.008   1.584  10.958 -0.4111  0.6705  0.0724
  215MPD1    H6 3329   1.965   1.575  10.866 -1.2006 -1.7558  0.6661
  215MPD1    H7 3330   2.034   1.680  10.980 -0.3309  0.3022  1.5874
  216MPD1     C 3331   0.275   3.369  17.611 -0.3301 -0.7863 -0.5484
  216MPD1    C1 3332   0.242   3.238  17.617 -0.1419 -0.0211 -1.2621
  216MPD1    C2 3333   0.291   3.154  17.520  0.0066  0.6695  0.1626
  216MPD1    C3 3334   0.383   3.193  17.422 -0.2180 -0.7131 -0.1034
  216MPD1    C4 3335   0.419   3.326  17.426 -0.0369  0.2647 -0.0729
  216MPD1    C5 3336   0.370   3.412  17.521 -0.1369 -0.6372 -0.4240
  216MPD1     H 3337   0.276   3.047  17.526 -0.3163  0.6569 -0.9265
  216MPD1    H1 3338   0.486   3.373  17.354 -1.0508  3.6733  1.2302
  216MPD1    H2 3339   0.221   3.436  17.677  0.4778 -1.0111  0.3529
  216MPD1    H3 3340   0.412   3.511  17.508 -4.0533  1.7247  4.9648
  216MPD1     N 3341   0.424   3.095  17.324 -0.5421  0.0761 -0.8993
  216MPD1    H5 3342   0.378   3.005  17.329  0.2771 -0.2186  1.7976
  216MPD1    N1 3343   0.144   3.193  17.708 -0.3422 -0.6570 -0.2163
  216MPD1    H6 3344   0.153   3.100   0.010  0.0558 -0.4473  0.1768
  216MPD1    H7 3345   0.131   3.267   0.039  1.0514 -0.8046  0.1966
  217MPD1     C 3346   0.943   0.468   8.369  0.7075 -0.3610  0.2023
  217MPD1    C1 3347   0.922   0.554   8.472 -0.3740  0.2169 -0.6433
  217MPD1    C2 3348   0.849   0.506   8.580  0.0694  0.2400 -0.4641
  217MPD1    C3 3349   0.811   0.373   8.581 -0.1473 -0.0993 -0.5111
  217MPD1    C4 3350   0.837   0.289   8.476  0.2771  0.9531 -0.2420
  217MPD1    C5 3351   0.897   0.338   8.368 -0.0358 -0.3294 -0.1339
  217MPD1     H 3352   0.848   0.562   8.672  1.3581 -0.9460  0.2736
  217MPD1    H1 3353   0.795   0.190   8.462 -1.3012  1.8887 -2.0694
  217MPD1    H2 3354   0.991   0.499   8.278 -0.1822 -3.2653 -1.2738
  217MPD1    H3 3355   0.914   0.278   8.279 -1.0343 -1.1046  0.2022
  217MPD1     N 3356   0.740   0.312   8.685 -0.0150 -0.0394 -0.7888
  217MPD1    H5 3357   0.732   0.211   8.683  1.8251 -0.1487 -2.5344
  217MPD1    N1 3358   0.973   0.687   8.476 -0.2469  0.9429 -0.2024
  217MPD1    H6 3359   0.982   0.721   8.571  3.2787 -0.1578 -0.1236
  217MPD1    H7 3360   1.059   0.700   8.422 -0.0958 -0.3117 -0.2621
  218MPD1     C 3361   2.070   1.333  13.198  0.5294 -0.7530  0.8760
  218MPD1    C1 3362   2.203   1.357  13.222 -0.9108  0.4847 -0.4040
  218MPD1    C2 3363   2.292   1.293  13.132 -0.2660 -0.3380 -0.5173
  218MPD1    C3 3364   2.251   1.218  13.025  0.2630 -0.3040 -0.6553
  218MPD1    C4 3365   2.113   1.201  13.005  0.0020  0.5301 -0.3710
  218MPD1    C5 3366   2.026   1.268  13.089 -0.5813  0.5574 -0.2402
  218MPD1     H 3367   2.397   1.293  13.158 -0.6193 -2.5615  0.9303
  218MPD1    H1 3368   2.070   1.144  12.923 -0.6400  3.1816 -1.9083
  218MPD1    H2 3369   1.994   1.387  13.254 -0.0672  0.7624 -1.3907
  218MPD1    H3 3370   1.920   1.250  13.079 -0.5241 -0.2737  0.7024
  218MPD1     N 3371   2.339   1.140  12.952 -0.0685 -0.6474 -0.0098
  218MPD1    H5 3372   2.432   1.137  12.992 -0.6635 -0.4443  1.3572
  218MPD1    N1 3373   2.252   1.426  13.337  0.1567 -0.3264 -0.0632
  218MPD1    H6 3374   2.190   1.484  13.393  0.2928  1.6512 -1.9776
  218MPD1    H7 3375   2.343   1.467  13.322 -0.1599  0.1325 -0.7222
  219MPD1     C 3376   2.477   1.095  11.968  0.0942 -0.6350  0.1749
  219MPD1    C1 3377   2.579   1.164  12.032 -0.4994  0.8536 -0.0454
  219MPD1    C2 3378   2.598   1.137  12.169 -0.1279 -0.4324 -0.1149
  219MPD1    C3 3379   2.511   1.048  12.231 -0.3681  0.2515 -0.0521
  219MPD1    C4 3380   2.404   0.982  12.161  0.3126 -0.5283 -0.2148
  219MPD1    C5 3381   2.399   1.000  12.026  0.6309  0.2021 -0.3507
  219MPD1     H 3382   2.667   1.193  12.231 -0.2577  0.7579 -1.0417
  219MPD1    H1 3383   2.331   0.916  12.207  0.5067 -0.1217  0.6645
  219MPD1    H2 3384   2.454   1.113  11.864 -1.6991  1.8053  1.0068
  219MPD1    H3 3385   2.325   0.949  11.966  1.9745  0.0510 -1.8711
  219MPD1     N 3386   2.510   1.019  12.368  0.5717 -0.7060 -0.2049
  219MPD1    H5 3387   2.440   0.957  12.407  0.0956  0.5494  0.9567
  219MPD1    N1 3388   2.652   1.265  11.973 -1.0686  0.4730 -0.5375
  219MPD1    H6 3389   2.639   1.272  11.873  2.6380  1.2280 -0.9883
  219MPD1    H7 3390   2.752   1.275  11.991 -1.1861 -0.6788  0.6913
  220MPD1     C 3391   2.882   1.728   9.606  0.0807 -0.3548  0.3651
  220MPD1    C1 3392   2.748   1.737   9.630 -0.0807 -0.1823  0.1778
  220MPD1    C2 3393   2.715   1.760   9.759 -0.0830  0.0610  1.1675
  220MPD1    C3 3394   2.800   1.738   9.867 -0.5685  0.2037  0.5028
  220MPD1    C4 3395   2.936   1.707   9.839 -0.6881 -0.2011 -0.1400
  220MPD1    C5 3396   2.972   1.720   9.705 -0.1392 -0.2880 -0.1022
  220MPD1     H 3397   2.616   1.797   9.782  0.1451  1.7710 -0.5613
  220MPD1    H1 3398   3.011   1.682   9.913  2.1882 -1.0534 -3.3446
  220MPD1    H2 3399   2.923   1.738   9.507 -0.4781 -0.3942  0.1259
  220MPD1    H3 3400   3.079   1.719   9.687 -0.4341  0.1091 -1.8013
  220MPD1     N 3401   2.749   1.746  10.002  0.3001  0.5873 -0.1409
  220MPD1    H5 3402   2.653   1.771  10.024  1.3167  1.5531  3.2879
  220MPD1    N1 3403   2.657   1.756   9.529  0.6596  0.6024 -0.4055
  220MPD1    H6 3404   2.566   1.717   9.554 -0.1980  1.0558 -2.7276
  220MPD1    H7 3405   2.684   1.716   9.439 -2.5624  0.7095 -1.4312
  221MPD1     C 3406   0.016   0.671  16.336  0.2030 -0.0900  0.2968
  221MPD1    C1 3407   0.107   0.774  16.337 -0.5660 -0.1796  0.7635
  221MPD1    C2 3408   0.227   0.751  16.278  0.0975 -0.1981  0.1562
  221MPD1    C3 3409   0.247   0.637  16.199 -0.1959 -0.0868 -0.6428
  221MPD1    C4 3410   0.151   0.536  16.195 -0.6184 -0.0558 -0.6973
  221MPD1    C5 3411   0.039   0.550  16.271  0.0380 -1.1130 -1.0612
  221MPD1     H 3412   0.301   0.829  16.293  2.0674 -1.5209 -2.6762
  221MPD1    H1 3413   0.172   0.449  16.133 -0.7995 -0.3366 -0.3606
  221MPD1    H2 3414   4.660   0.677  16.394  0.6043 -0.2928  0.9411
  221MPD1    H3 3415   4.695   0.475  16.270  0.3795 -1.4996  0.4105
  221MPD1     N 3416   0.364   0.610  16.135  0.7874 -0.7614  0.1297
  221MPD1    H5 3417   0.363   0.530  16.072 -2.2641 -2.4868  2.4022
  221MPD1    N1 3418   0.094   0.867  16.435 -0.0819 -0.0610 -0.2008
  221MPD1    H6 3419   4.732   0.887  16.459 -0.0401 -0.6651  0.4740
  221MPD1    H7 3420   0.139   0.956  16.415  0.5494 -0.7691 -1.9256
  222MPD1     C 3421   0.095   3.129   0.356  0.7631  0.2963 -0.2065
  222MPD1    C1 3422   4.725   3.143   0.269  0.1061  0.4021  0.4502
  222MPD1    C2 3423   4.642   3.255   0.279  0.3566 -0.2039 -0.4943
  222MPD1    C3 3424   4.672   3.361   0.374 -0.3005  0.0654  0.3825
  222MPD1    C4 3425   0.051   3.346   0.452 -0.7150  0.3663 -0.1595
  222MPD1    C5 3426   0.125   3.230   0.441 -0.8257 -0.4796 -0.0108
  222MPD1     H 3427   4.552   3.266   0.220 -0.3084 -0.9124  0.3958
  222MPD1    H1 3428   0.090   3.419   0.522 -0.6883 -0.2473  0.4697
  222MPD1    H2 3429   0.151   3.037   0.347  1.5251  0.6148  1.4211
  222MPD1    H3 3430   0.216   3.219   0.499 -0.9254 -1.2458 -0.0106
  222MPD1     N 3431   4.596   3.483   0.393  0.1442 -0.5006  0.6083
  222MPD1    H5 3432   4.642   3.560   0.440 -1.1059  1.7266 -1.8060
  222MPD1    N1 3433   4.688   3.034   0.188 -0.1264 -0.1712  0.0243
  222MPD1    H6 3434   4.621   3.061   0.116 -0.9588  0.1912  0.9343
  222MPD1    H7 3435   0.029   2.974   0.157 -1.6507 -1.6654 -0.8132
  223MPD1     C 3436   3.630   3.614   0.626  0.3527 -0.3491 -0.7841
  223MPD1    C1 3437   3.710   3.500   0.630 -0.2909 -0.4500 -0.4063
  223MPD1    C2 3438   3.843   3.520   0.592 -0.3895  0.2703  0.2524
  223MPD1    C3 3439   3.886   3.629   0.524 -0.1503  0.2175 -0.3911
  223MPD1    C4 3440   3.795   3.722   0.497  0.1566  0.3514 -0.2842
  223MPD1    C5 3441   3.671   3.719   0.548  0.8410 -0.2951  0.4942
  223MPD1     H 3442   3.914   3.444   0.624 -0.3125  0.2917  0.1331
  223MPD1    H1 3443   3.816   3.815   0.446 -0.1246 -1.4917 -3.7599
  223MPD1    H2 3444   3.533   3.630   0.672  1.1068  1.2452  0.2399
  223MPD1    H3 3445   3.610   3.808   0.541  1.0860 -0.1273  0.5374
  223MPD1     N 3446   4.017   3.639   0.488 -0.0507  0.4391  0.6453
  223MPD1    H5 3447   4.075   3.558   0.508  0.8948  0.6954 -1.0673
  223MPD1    N1 3448   3.673   3.386   0.708  0.2678 -0.0669 -0.1312
  223MPD1    H6 3449   3.717   3.300   0.676 -3.0434 -1.7021 -0.2970
  223MPD1    H7 3450   3.574   3.370   0.690  0.2258  0.2906 -0.2291
  224MPD1     C 3451   0.713   0.657   9.139  0.4207  0.1695  0.2116
  224MPD1    C1 3452   0.671   0.764   9.206 -0.0440 -0.0738 -0.2509
  224MPD1    C2 3453   0.670   0.763   9.345 -0.2347 -0.1095 -0.1230
  224MPD1    C3 3454   0.681   0.643   9.416  0.3751 -0.7973 -0.2089
  224MPD1    C4 3455   0.712   0.530   9.340 -0.0840  0.1716  0.1045
  224MPD1    C5 3456   0.737   0.543   9.207  0.1532 -0.3958 -0.2410
  224MPD1     H 3457   0.639   0.850   9.402  1.0982  0.7545 -0.7044
  224MPD1    H1 3458   0.733   0.435   9.390  0.6696  0.2944  0.0329
  224MPD1    H2 3459   0.733   0.654   9.032 -0.1135  1.4077  0.0769
  224MPD1    H3 3460   0.783   0.472   9.140 -0.3071 -0.6626 -0.2739
  224MPD1     N 3461   0.682   0.631   9.555 -0.1154  0.1289  0.5109
  224MPD1    H5 3462   0.728   0.549   9.594  1.4133  0.6386 -0.2069
  224MPD1    N1 3463   0.639   0.877   9.133 -0.1584 -0.4633  0.5134
  224MPD1    H6 3464   0.601   0.857   9.041 -1.8881  1.6476  0.7914
  224MPD1    H7 3465   0.577   0.941   9.182  0.8150  0.4269  0.5778
  225MPD1     C 3466   2.851   2.079  12.351 -0.2496 -0.2623 -0.3670
  225MPD1    C1 3467   2.793   2.007  12.253  0.2168 -0.6507  0.8014
  225MPD1    C2 3468   2.668   1.950  12.283  0.4642  1.0303  0.0054
  225MPD1    C3 3469   2.617   1.962  12.416  0.0766 -0.5764  0.4541
  225MPD1    C4 3470   2.688   2.023  12.508  0.4626 -0.0107 -0.1607
  225MPD1    C5 3471   2.808   2.080  12.480 -0.6364  0.7097  0.4574
  225MPD1     H 3472   2.617   1.890  12.208 -1.7128  2.8387  0.0488
  225MPD1    H1 3473   2.648   2.028  12.609 -0.3667  0.3861 -0.5114
  225MPD1    H2 3474   2.939   2.139  12.327 -0.3292 -0.7428 -1.8258
  225MPD1    H3 3475   2.862   2.124  12.563  1.9547 -0.5583 -0.5287
  225MPD1     N 3476   2.491   1.909  12.459 -0.0889 -0.3242 -0.2579
  225MPD1    H5 3477   2.471   1.919  12.558 -5.6524 -2.8579 -1.1395
  225MPD1    N1 3478   2.830   2.023  12.118  0.2530  0.2109  0.7775
  225MPD1    H6 3479   2.796   1.942  12.066  0.0197  0.6868  0.1985
  225MPD1    H7 3480   2.931   2.033  12.103  0.0314  2.1638  0.6635
  226MPD1     C 3481   1.435   2.345   9.806  0.0045  0.4706  0.2746
  226MPD1    C1 3482   1.371   2.326   9.694  0.2655  0.0800 -0.3698
  226MPD1    C2 3483   1.270   2.228   9.694  1.4489 -0.0933 -0.0431
  226MPD1    C3 3484   1.237   2.158   9.802 -0.5251  0.6445 -0.1518
  226MPD1    C4 3485   1.306   2.181   9.919  0.0764  0.3000 -0.5444
  226MPD1    C5 3486   1.408   2.269   9.914  0.0246 -0.4706  0.0583
  226MPD1     H 3487   1.227   2.193   9.600 -1.5926  0.7158  1.0546
  226MPD1    H1 3488   1.301   2.120  10.009 -2.7682 -0.0390 -0.9355
  226MPD1    H2 3489   1.516   2.417   9.814 -0.9771  1.5549  0.4056
  226MPD1    H3 3490   1.454   2.291  10.010  2.4486  1.5318 -1.5805
  226MPD1     N 3491   1.128   2.062   9.804 -0.0042  0.0631  0.1209
  226MPD1    H5 3492   1.069   2.061   9.722  0.5555 -0.0929 -0.2823
  226MPD1    N1 3493   1.418   2.368   9.569 -0.1564 -0.2530 -0.0544
  226MPD1    H6 3494   1.467   2.457   9.570 -2.8283  1.2277 -0.5568
  226MPD1    H7 3495   1.352   2.363   9.492  0.0826 -1.6359 -0.1704
  227MPD1     C 3496   0.454   1.330  10.244 -0.0435 -0.2366  0.1261
  227MPD1    C1 3497   0.527   1.260  10.152 -0.2605 -0.4726  0.2360
  227MPD1    C2 3498   0.618   1.335  10.079 -0.2965 -0.1792  0.5116
  227MPD1    C3 3499   0.633   1.471  10.104  0.4180 -0.2317 -0.8508
  227MPD1    C4 3500   0.550   1.543  10.194 -0.2033 -0.5944  0.0601
  227MPD1    C5 3501   0.468   1.461  10.268 -0.4316  0.2224  0.1157
  227MPD1     H 3502   0.682   1.279  10.013 -1.6335 -1.0729 -0.0297
  227MPD1    H1 3503   0.542   1.651  10.208  1.4577 -0.3107 -1.2149
  227MPD1    H2 3504   0.373   1.277  10.293 -0.2836  1.2703  1.3454
  227MPD1    H3 3505   0.407   1.509  10.344  0.4418  1.6285 -0.0752
  227MPD1     N 3506   0.719   1.542  10.014 -0.2534 -0.3617  0.6581
  227MPD1    H5 3507   0.748   1.489   9.933 -0.9891  0.6263 -0.2608
  227MPD1    N1 3508   0.514   1.121  10.139  0.3318 -0.4932  0.4317
  227MPD1    H6 3509   0.498   1.085  10.233  0.3034  0.3065  0.7381
  227MPD1    H7 3510   0.600   1.083  10.100 -0.4925 -0.6505 -1.2452
  228MPD1     C 3511   4.574   4.402  13.268  0.1103  0.1426 -0.4633
  228MPD1    C1 3512   4.484   4.479  13.205  0.0745  0.6088 -0.4879
  228MPD1    C2 3513   4.351   4.447  13.212 -0.0519  0.5847  1.0654
  228MPD1    C3 3514   4.318   4.343  13.292 -0.0654  0.2559  0.7403
  228MPD1    C4 3515   4.410   4.269  13.364  0.0484 -0.1881  0.1880
  228MPD1    C5 3516   4.540   4.290  13.344 -1.0536 -0.0753 -0.0223
  228MPD1     H 3517   4.272   4.497  13.158  0.5591 -3.4338 -3.5237
  228MPD1    H1 3518   4.375   4.198  13.437  0.0000 -0.9078 -0.5404
  228MPD1    H2 3519   4.679   4.416  13.246 -0.1204  1.2924 -0.8660
  228MPD1    H3 3520   4.609   4.217  13.385 -0.6988  1.5760  2.3454
  228MPD1     N 3521   4.178   4.321  13.307  0.1891 -0.4232 -0.5447
  228MPD1    H5 3522   4.114   4.387  13.264 -0.2344 -1.0066 -0.8161
  228MPD1    N1 3523   4.523   4.594  13.140  0.2300 -0.5045 -0.6573
  228MPD1    H6 3524   4.463   4.622  13.062  1.4185 -2.0843 -2.1382
  228MPD1    H7 3525   4.618   4.586  13.106  0.1736 -2.2963 -0.3821
  229MPD1     C 3526   4.001   3.655  14.612 -0.0089 -0.1368  0.1843
  229MPD1    C1 3527   4.097   3.703  14.686  0.1980  0.1486  0.2219
  229MPD1    C2 3528   4.163   3.610  14.767  0.0336  0.0565  0.4485
  229MPD1    C3 3529   4.128   3.477  14.773 -0.8173 -0.2078 -0.1231
  229MPD1    C4 3530   4.024   3.425  14.699 -0.7019 -0.4729 -0.2470
  229MPD1    C5 3531   3.960   3.524  14.624 -0.0415  0.5265  0.2623
  229MPD1     H 3532   4.249   3.635  14.827  0.0671  0.3937  0.2585
  229MPD1    H1 3533   4.000   3.319  14.701  0.7922 -0.8318 -0.9784
  229MPD1    H2 3534   3.950   3.730  14.553 -2.0266 -0.9963  0.8245
  229MPD1    H3 3535   3.872   3.499  14.566 -1.2068  2.1619  1.3260
  229MPD1     N 3536   4.199   3.379  14.852 -0.7227 -0.6092 -0.4637
  229MPD1    H5 3537   4.166   3.284  14.866  2.1676 -1.5186  0.1164
  229MPD1    N1 3538   4.150   3.831  14.672 -0.4951 -0.5516  0.1857
  229MPD1    H6 3539   4.081   3.903  14.650  0.1235  0.1894  0.6763
  229MPD1    H7 3540   4.202   3.864  14.752 -0.8992 -1.2187  0.7231
  230MPD1     C 3541   4.352   3.074  15.875 -0.1579 -0.1402  0.3142
  230MPD1    C1 3542   4.444   2.996  15.798 -0.0751 -0.9112 -0.0595
  230MPD1    C2 3543   4.456   3.014  15.662 -0.7954 -0.2686  0.3745
  230MPD1    C3 3544   4.383   3.117  15.607  0.0258 -0.0770 -0.1520
  230MPD1    C4 3545   4.296   3.199  15.680 -0.3668 -0.1208 -0.0828
  230MPD1    C5 3546   4.282   3.175  15.815  0.0033  0.1622 -0.0624
  230MPD1     H 3547   4.529   2.962  15.601 -1.5874 -1.5070  0.4963
  230MPD1    H1 3548   4.228   3.273  15.641  0.4526  0.3187 -0.6735
  230MPD1    H2 3549   4.343   3.063  15.982 -0.2456 -0.0107  0.3199
  230MPD1    H3 3550   4.209   3.221  15.881 -1.2408 -2.1895  0.2146
  230MPD1     N 3551   4.389   3.127  15.464 -0.4824  0.4187 -0.7743
  230MPD1    H5 3552   4.438   3.056  15.411 -3.6651 -1.5947 -1.0586
  230MPD1    N1 3553   4.504   2.887  15.858  0.0356 -0.1937 -0.5872
  230MPD1    H6 3554   4.588   2.853  15.811  1.1217 -0.3137  1.4642
  230MPD1    H7 3555   4.535   2.903  15.953 -0.1831 -0.3904 -0.4844
  231MPD1     C 3556   2.237   4.603  15.409 -0.2892 -0.5275  0.0225
  231MPD1    C1 3557   2.181   4.628  15.287 -0.2974  0.5806 -0.2969
  231MPD1    C2 3558   2.237   4.719  15.199 -0.4112  0.1025  0.1715
  231MPD1    C3 3559   2.347   0.057  15.237 -0.7506  0.3326 -0.1030
  231MPD1    C4 3560   2.390   0.049  15.366  0.3049 -0.2382 -0.9099
  231MPD1    C5 3561   2.337   4.682  15.452  0.2396 -0.2844  0.0454
  231MPD1     H 3562   2.204   4.729  15.097  0.8099 -1.9225 -0.4158
  231MPD1    H1 3563   2.479   0.102  15.399 -0.0335  0.1786 -0.6697
  231MPD1    H2 3564   2.196   4.533  15.481 -1.3229  0.5579  0.4771
  231MPD1    H3 3565   2.383   4.657  15.548 -0.5235 -3.2276 -0.3547
  231MPD1     N 3566   2.404   0.140  15.134  0.0661 -0.3391  0.2697
  231MPD1    H5 3567   2.361   0.127  15.043 -0.6225 -0.9803  0.6816
  231MPD1    N1 3568   2.076   4.530  15.257  0.1270  0.2927 -0.2214
  231MPD1    H6 3569   2.007   4.584  15.207  0.4652  1.8050  0.9282
  231MPD1    H7 3570   2.026   4.501  15.341  1.5963 -0.7829  0.2963
  232MPD1     C 3571   4.376   2.182   0.039 -0.2318  0.2964 -0.8014
  232MPD1    C1 3572   4.324   2.106   0.132  1.3685  0.6218 -0.0763
  232MPD1    C2 3573   4.186   2.082   0.132 -0.8855  0.0993  0.6088
  232MPD1    C3 3574   4.108   2.150   0.046 -0.2080  0.1047  0.8025
  232MPD1    C4 3575   4.164   2.240  17.695  0.0395 -0.1308 -0.3913
  232MPD1    C5 3576   4.299   2.242  17.684  0.4300 -0.1901  0.5722
  232MPD1     H 3577   4.143   2.008   0.199 -0.8596 -0.2852  0.2073
  232MPD1    H1 3578   4.103   2.301  17.629  0.7350 -0.2278 -1.1177
  232MPD1    H2 3579   4.482   2.201   0.037  0.1265 -1.5783 -0.1219
  232MPD1    H3 3580   4.345   2.310  17.614  1.4318  2.2854  3.6048
  232MPD1     N 3581   3.970   2.134   0.048  0.2033 -0.0836 -0.0388
  232MPD1    H5 3582   3.937   2.044   0.081  1.6818 -0.1386  1.2485
  232MPD1    N1 3583   4.405   2.022   0.210 -0.9902 -0.1862  0.3698
  232MPD1    H6 3584   4.356   2.006   0.298  2.3466  1.5675  2.5693
  232MPD1    H7 3585   4.499   2.060   0.221 -1.3552  0.6837  0.5054
  233MPD1     C 3586   4.619   1.102  17.442  0.2996 -0.5163 -0.7138
  233MPD1    C1 3587   4.704   1.141  17.546  0.5018 -0.1221  0.3100
  233MPD1    C2 3588   0.086   1.073  17.567 -0.2574 -0.0918 -0.4545
  233MPD1    C3 3589   0.111   0.955  17.510 -0.0082  0.4677 -0.2317
  233MPD1    C4 3590   0.027   0.921  17.408 -0.0385  0.2592  0.0978
  233MPD1    C5 3591   4.652   0.989  17.370  0.0280 -1.2126 -0.8706
  233MPD1     H 3592   0.157   1.107  17.641 -0.8321 -1.9870  0.9847
  233MPD1    H1 3593   0.054   0.830  17.355 -0.1716  0.8243 -0.9394
  233MPD1    H2 3594   4.537   1.170  17.423  1.9040  1.2982 -1.1519
  233MPD1    H3 3595   4.600   0.956  17.280 -0.5138  1.0303 -1.3698
  233MPD1     N 3596   0.213   0.869  17.556  0.7164 -0.3633  0.4522
  233MPD1    H5 3597   0.216   0.777  17.512  0.4856 -0.2750  0.2551
  233MPD1    N1 3598   4.671   1.265  17.613 -0.1726  0.4295 -0.3813
  233MPD1    H6 3599   4.706   1.266  17.708  0.9590 -1.2155 -0.7817
  233MPD1    H7 3600   4.570   1.281  17.615 -0.3744 -1.3577  3.0398
  234MPD1     C 3601   1.383   3.765   9.645 -0.0479 -0.9591  0.8404
  234MPD1    C1 3602   1.272   3.820   9.592  0.1583 -0.7786  0.6796
  234MPD1    C2 3603   1.252   3.954   9.606  0.0648 -0.4359 -0.1057
  234MPD1    C3 3604   1.351   4.036   9.655 -0.1737  0.3296 -0.3833
  234MPD1    C4 3605   1.470   3.980   9.692 -0.6486 -0.7368  0.9209
  234MPD1    C5 3606   1.480   3.846   9.697  0.2740 -0.0218  0.0188
  234MPD1     H 3607   1.155   3.997   9.585  0.8974  2.3244  1.6831
  234MPD1    H1 3608   1.555   4.039   9.725 -0.3681  0.1010 -1.3469
  234MPD1    H2 3609   1.415   3.661   9.654  1.0282 -0.7160 -0.3079
  234MPD1    H3 3610   1.571   3.801   9.734 -0.3910 -1.3628  0.0473
  234MPD1     N 3611   1.330   4.173   9.639 -0.7939 -0.3492 -0.1455
  234MPD1    H5 3612   1.241   4.207   9.604 -0.2034  1.8961  0.5050
  234MPD1    N1 3613   1.167   3.731   9.568  0.0951 -0.1670  0.4088
  234MPD1    H6 3614   1.207   3.646   9.529 -0.5815 -0.8742  1.2572
  234MPD1    H7 3615   1.110   3.778   9.499  1.1166 -1.5513 -1.3813
  235MPD1     C 3616   2.685   2.074  10.086 -0.7489 -0.5931 -0.3231
  235MPD1    C1 3617   2.761   2.139   9.997 -0.1867 -0.1579 -0.2802
  235MPD1    C2 3618   2.862   2.219  10.037 -0.0166  0.5042 -0.4044
  235MPD1    C3 3619   2.898   2.206  10.170  0.1344 -0.4775 -0.1098
  235MPD1    C4 3620   2.819   2.137  10.265 -0.0338  0.1574 -0.1085
  235MPD1    C5 3621   2.701   2.085  10.219  0.0842 -1.2276 -0.2333
  235MPD1     H 3622   2.917   2.274   9.961  0.2601  1.8869  0.8072
  235MPD1    H1 3623   2.842   2.135  10.370 -1.5466  0.3093  0.2181
  235MPD1    H2 3624   2.592   2.023  10.063 -0.7604 -1.1916  1.0355
  235MPD1    H3 3625   2.624   2.043  10.283 -1.0972 -2.5937 -2.5315
  235MPD1     N 3626   3.008   2.276  10.216  0.6059  0.5568  0.1052
  235MPD1    H5 3627   3.052   2.335  10.146  1.0265 -1.3926 -1.2763
  235MPD1    N1 3628   2.733   2.128   9.865  1.1274 -0.3371 -0.6181
  235MPD1    H6 3629   2.718   2.028   9.855 -1.9008 -0.0777  1.1925
  235MPD1    H7 3630   2.793   2.170   9.795  1.9178 -1.0996 -0.4020
  236MPD1     C 3631   1.882   3.136   9.540 -0.1549 -0.1126 -0.3805
  236MPD1    C1 3632   1.878   3.045   9.645 -0.3032 -0.1815  0.0779
  236MPD1    C2 3633   1.954   3.076   9.759 -0.1247 -0.0806 -0.4074
  236MPD1    C3 3634   2.030   3.193   9.770 -0.2683 -0.1569 -0.0626
  236MPD1    C4 3635   2.031   3.283   9.664 -0.5422 -0.0871  0.2555
  236MPD1    C5 3636   1.958   3.255   9.556  1.2548  0.1994 -0.0454
  236MPD1     H 3637   1.932   3.011   9.843 -1.0985  0.1424 -0.4846
  236MPD1    H1 3638   2.090   3.374   9.658 -2.2916  1.0960  0.8318
  236MPD1    H2 3639   1.835   3.120   9.443  0.4262  0.5198 -0.7671
  236MPD1    H3 3640   1.959   3.329   9.476  1.7938 -0.1349 -0.3503
  236MPD1     N 3641   2.115   3.215   9.878 -0.3585 -0.5865  0.2616
  236MPD1    H5 3642   2.174   3.297   9.874 -0.3729 -0.5146  1.4010
  236MPD1    N1 3643   1.774   2.960   9.656 -0.5221 -0.5486 -0.1770
  236MPD1    H6 3644   1.786   2.880   9.718 -1.3252  0.1149  0.8385
  236MPD1    H7 3645   1.748   2.927   9.564  1.3916 -0.1541 -0.8536
  237MPD1     C 3646   3.012   2.133  14.978  0.0156  0.1467  0.1140
  237MPD1    C1 3647   2.954   2.111  14.855  0.6670  0.0029 -0.2794
  237MPD1    C2 3648   2.912   1.983  14.832 -0.4759 -0.1010  0.1153
  237MPD1    C3 3649   2.940   1.879  14.918 -0.3657  0.5236 -0.0815
  237MPD1    C4 3650   3.006   1.901  15.033  0.1032 -0.6854  0.3329
  237MPD1    C5 3651   3.035   2.026  15.064  0.2749  0.6311  0.3752
  237MPD1     H 3652   2.829   1.972  14.763 -0.5661 -0.3058  0.2561
  237MPD1    H1 3653   3.023   1.825  15.109  0.6580 -1.3854 -0.4974
  237MPD1    H2 3654   3.026   2.238  15.002  1.4648  0.4834 -2.1649
  237MPD1    H3 3655   3.090   2.032  15.157  2.8943  1.0585 -1.2201
  237MPD1     N 3656   2.877   1.753  14.906 -0.3181 -0.7439  0.1450
  237MPD1    H5 3657   2.874   1.686  14.981  0.8836  1.8060  2.4571
  237MPD1    N1 3658   2.912   2.225  14.785  0.2376 -0.3854  0.6194
  237MPD1    H6 3659   2.917   2.203  14.685 -2.4988  0.6763  0.2411
  237MPD1    H7 3660   2.970   2.306  14.808  0.5374 -0.6617  0.8285
  238MPD1     C 3661   4.591   4.231  15.286  0.6395  0.0171 -0.0683
  238MPD1    C1 3662   4.487   4.261  15.369  0.1310  0.2539 -0.7790
  238MPD1    C2 3663   4.366   4.293  15.312  1.2394  0.5836  0.2997
  238MPD1    C3 3664   4.345   4.300  15.176  0.3754  0.2274  1.1808
  238MPD1    C4 3665   4.458   4.277  15.093 -0.3845  0.0061 -0.3652
  238MPD1    C5 3666   4.577   4.234  15.148 -0.0738 -0.3543 -0.4451
  238MPD1     H 3667   4.284   4.321  15.377  1.5577  0.3444  0.8028
  238MPD1    H1 3668   4.450   4.279  14.985  2.5438  0.1718 -0.5924
  238MPD1    H2 3669   4.680   4.186  15.329  0.1978 -1.1078 -0.3347
  238MPD1    H3 3670   4.657   4.210  15.078 -1.2695  1.4358 -2.4284
  238MPD1     N 3671   4.229   4.355  15.111  0.6564  0.1029 -0.1561
  238MPD1    H5 3672   4.228   4.368  15.011 -0.2812 -1.3146 -0.3349
  238MPD1    N1 3673   4.496   4.242  15.506 -0.6778  0.5145  0.6228
  238MPD1    H6 3674   4.592   4.256  15.535  0.0283 -1.7760 -0.6208
  238MPD1    H7 3675   4.431   4.298  15.561  1.7327  4.1562 -0.2623
  239MPD1     C 3676   4.728   1.251  14.958  0.2596 -0.3345 -0.4007
  239MPD1    C1 3677   4.634   1.149  14.965  0.4197  0.4946 -0.3493
  239MPD1    C2 3678   4.575   1.105  14.849  0.1992 -0.1828 -0.2324
  239MPD1    C3 3679   4.607   1.163  14.723  0.7518  0.6115  0.7006
  239MPD1    C4 3680   4.701   1.259  14.726 -0.4919 -0.3254 -0.3404
  239MPD1    C5 3681   0.025   1.302  14.840  0.3873  0.0299  0.8593
  239MPD1     H 3682   4.491   1.038  14.861  1.8739 -2.1087  0.6754
  239MPD1    H1 3683   4.733   1.309  14.636 -0.7470 -2.0322 -1.3654
  239MPD1    H2 3684   0.038   1.296  15.046 -0.6315 -2.0199  0.9128
  239MPD1    H3 3685   0.090   1.388  14.825  0.1007  0.2243  0.7264
  239MPD1     N 3686   4.539   1.128  14.600 -0.2052  0.1915  0.2450
  239MPD1    H5 3687   4.574   1.173  14.515 -0.5688  1.2655  0.6639
  239MPD1    N1 3688   4.593   1.105  15.090  0.9837 -0.7060 -0.1098
  239MPD1    H6 3689   4.663   1.116  15.162 -0.5391  1.7969  0.9869
  239MPD1    H7 3690   4.571   1.006  15.095  0.8353 -0.6175  0.9971
  240MPD1     C 3691   3.880   0.662  13.507 -0.2150  0.1914 -0.0085
  240MPD1    C1 3692   3.765   0.694  13.579 -0.2751  0.3058 -0.5996
  240MPD1    C2 3693   3.765   0.657  13.713 -0.1553  0.2289  0.1871
  240MPD1    C3 3694   3.870   0.590  13.771 -0.4293  0.0740  0.5992
  240MPD1    C4 3695   3.973   0.546  13.685 -0.9720 -0.0033 -0.0028
  240MPD1    C5 3696   3.973   0.583  13.560  0.0121 -0.0096 -0.0662
  240MPD1     H 3697   3.681   0.695  13.769  1.4839 -0.3382  2.9954
  240MPD1    H1 3698   4.060   0.491  13.719 -1.3121 -0.6644 -0.2108
  240MPD1    H2 3699   3.901   0.685  13.403  2.6949 -0.4294  0.4264
  240MPD1    H3 3700   4.068   0.559  13.512 -0.2884 -0.5137 -0.4099
  240MPD1     N 3701   3.852   0.539  13.899  0.5499  0.1668  0.7996
  240MPD1    H5 3702   3.763   0.556  13.945  0.3166  1.4780 -0.1334
  240MPD1    N1 3703   3.666   0.773  13.524  0.0828  0.2953  0.5320
  240MPD1    H6 3704   3.612   0.828  13.590  1.1902  2.1073 -0.0957
  240MPD1    H7 3705   3.695   0.833  13.448  0.5838 -2.0868 -1.1584
  241MPD1     C 3706   4.504   0.239  14.615 -0.3925 -0.0139  0.6365
  241MPD1    C1 3707   4.384   0.257  14.678  0.3202 -0.3823 -0.1075
  241MPD1    C2 3708   4.268   0.271  14.601  0.5906  0.4210 -0.2153
  241MPD1    C3 3709   4.275   0.273  14.463  1.2445 -0.3516 -0.1223
  241MPD1    C4 3710   4.401   0.275  14.405  0.5688 -0.2303 -0.1096
  241MPD1    C5 3711   4.512   0.266  14.482  0.3582 -1.0683  0.1910
  241MPD1     H 3712   4.172   0.282  14.650  0.1662 -1.1547 -0.6719
  241MPD1    H1 3713   4.415   0.271  14.298 -0.4003 -0.2416 -0.2392
  241MPD1    H2 3714   4.598   0.238  14.669  0.4698 -1.7534 -0.8581
  241MPD1    H3 3715   4.609   0.252  14.435  1.8681 -0.0126  2.9655
  241MPD1     N 3716   4.164   0.280  14.380  0.1139 -0.8645  0.4806
  241MPD1    H5 3717   4.193   0.285  14.283  0.3938  1.7586  0.7053
  241MPD1    N1 3718   4.380   0.237  14.815 -0.0542 -0.0574  0.3777
  241MPD1    H6 3719   4.288   0.263  14.852 -0.6385 -0.8404 -0.5296
  241MPD1    H7 3720   4.379   0.137  14.834 -0.4791 -0.7711 -3.3808
  242MPD1     C 3721   3.351   2.659  15.710  0.0561 -0.1106 -0.2093
  242MPD1    C1 3722   3.463   2.711  15.770  1.0216  0.1762  0.2356
  242MPD1    C2 3723   3.512   2.824  15.715 -0.0832  0.1150  0.1482
  242MPD1    C3 3724   3.468   2.876  15.596  0.1278 -0.5893  0.6001
  242MPD1    C4 3725   3.369   2.814  15.529 -0.0912 -0.2966 -0.2054
  242MPD1    C5 3726   3.311   2.702  15.584 -0.6163  0.0267 -0.1973
  242MPD1     H 3727   3.588   2.876  15.772  2.6390  0.4988 -3.8924
  242MPD1    H1 3728   3.331   2.852  15.435 -0.1345  1.8206  0.6600
  242MPD1    H2 3729   3.300   2.571  15.749 -0.0817  0.4222  0.8024
  242MPD1    H3 3730   3.233   2.647  15.534 -0.8425 -0.3199  0.5269
  242MPD1     N 3731   3.521   2.995  15.543 -0.1044  0.5637 -0.0559
  242MPD1    H5 3732   3.469   3.027  15.462  1.2200 -1.0768 -1.5563
  242MPD1    N1 3733   3.497   2.677  15.907 -0.4184  0.2686  0.2054
  242MPD1    H6 3734   3.596   2.698  15.911 -1.1078  3.0693  2.5648
  242MPD1    H7 3735   3.483   2.579  15.931 -0.7447  0.3155  0.2092
  243MPD1     C 3736   4.552   1.908  17.618 -0.6496 -0.2345 -0.4123
  243MPD1    C1 3737   4.582   1.775  17.644  0.4435 -0.5277 -0.1893
  243MPD1    C2 3738   4.692   1.723  17.569 -0.2667 -0.3962 -0.4406
  243MPD1    C3 3739   0.039   1.803  17.496  0.0675  0.5662  0.4137
  243MPD1    C4 3740   0.016   1.938  17.491 -0.1636  0.4877 -0.3044
  243MPD1    C5 3741   4.635   1.989  17.542  0.0933 -0.0976 -0.0244
  243MPD1     H 3742   4.717   1.618  17.583  0.1852 -0.1620  0.5505
  243MPD1    H1 3743   0.079   2.011  17.443 -0.0044  0.7342  0.2766
  243MPD1    H2 3744   4.463   1.950  17.665 -1.1244 -1.6862  0.0031
  243MPD1    H3 3745   4.631   2.097  17.542  0.6282 -0.0697  1.6291
  243MPD1     N 3746   0.141   1.731  17.423 -0.6090  0.3735 -0.2323
  243MPD1    H5 3747   0.157   1.632  17.443 -0.4438  0.4575  0.0570
  243MPD1    N1 3748   4.494   1.698  17.722 -0.4530 -0.3077  0.1195
  243MPD1    H6 3749   4.470   1.748   0.069  1.9969 -0.8711  1.1267
  243MPD1    H7 3750   4.544   1.617   0.021  0.5100  0.9930  1.6303
  244MPD1     C 3751   0.412   0.877  17.053  0.6687  0.6716  0.9995
  244MPD1    C1 3752   0.476   0.962  16.964 -0.4327 -0.2855 -0.0208
  244MPD1    C2 3753   0.460   1.097  16.981 -0.5366  0.8952  0.1006
  244MPD1    C3 3754   0.414   1.144  17.100  0.4238  0.8237  0.3758
  244MPD1    C4 3755   0.353   1.064  17.187 -0.1881  0.3750 -0.8051
  244MPD1    C5 3756   0.354   0.933  17.161 -0.1684 -0.3831 -0.0139
  244MPD1     H 3757   0.499   1.167  16.907  1.4257 -1.3005 -0.9386
  244MPD1    H1 3758   0.324   1.094  17.287  0.0534 -2.1688  0.0381
  244MPD1    H2 3759   0.390   0.773  17.032  0.2835  0.5661  1.9652
  244MPD1    H3 3760   0.311   0.878  17.243 -0.6957 -0.8208 -0.5844
  244MPD1     N 3761   0.417   1.282  17.118 -0.9363  0.1561 -0.3841
  244MPD1    H5 3762   0.440   1.333  17.034 -0.7525 -0.7922 -0.8996
  244MPD1    N1 3763   0.521   0.917  16.843 -0.3836 -0.4249 -0.8713
  244MPD1    H6 3764   0.587   0.976  16.792 -0.9839  0.7271 -0.3251
  244MPD1    H7 3765   0.564   0.826  16.854  0.6701  0.0833 -0.8100
  245MPD1     C 3766   2.368   2.729  12.938 -0.1113 -0.2667  0.0637
  245MPD1    C1 3767   2.283   2.833  12.934 -0.2921  0.3122 -0.2242
  245MPD1    C2 3768   2.315   2.950  12.999 -0.0663  0.5328 -0.4044
  245MPD1    C3 3769   2.425   2.952  13.091 -0.3763 -0.6226  0.3523
  245MPD1    C4 3770   2.497   2.837  13.112 -0.5183  0.6449 -0.0214
  245MPD1    C5 3771   2.470   2.732  13.028 -0.0646 -0.8271 -0.3468
  245MPD1     H 3772   2.257   3.038  12.973 -0.0371  0.9242  0.8627
  245MPD1    H1 3773   2.584   2.843  13.176 -1.6814  0.0233  1.5987
  245MPD1    H2 3774   2.354   2.643  12.874 -0.3630  0.0601 -0.3225
  245MPD1    H3 3775   2.527   2.640  13.018  2.5445  0.8509 -0.6750
  245MPD1     N 3776   2.467   3.072  13.164 -0.1085 -0.1640  0.0535
  245MPD1    H5 3777   2.544   3.065  13.229  0.6236 -0.1309 -0.8099
  245MPD1    N1 3778   2.189   2.833  12.832  0.1164  0.4883  0.2545
  245MPD1    H6 3779   2.153   2.739  12.821 -1.3602  1.0767  0.0473
  245MPD1    H7 3780   2.116   2.899  12.858 -0.9805 -1.0382  1.0248
  246MPD1     C 3781   3.890   0.216   9.701 -0.0758 -0.4969 -0.9461
  246MPD1    C1 3782   3.887   0.139   9.585  0.0818 -0.1085 -0.4556
  246MPD1    C2 3783   3.895   4.734   9.595  0.3427 -0.2510 -0.5124
  246MPD1    C3 3784   3.885   4.665   9.720 -0.7324  0.0971 -0.6575
  246MPD1    C4 3785   3.874   0.009   9.837 -0.2394 -0.2133 -0.5764
  246MPD1    C5 3786   3.886   0.148   9.829  0.5612 -0.4869  1.0814
  246MPD1     H 3787   3.915   4.685   9.501 -0.2748 -2.2676  0.4181
  246MPD1    H1 3788   3.874   4.695   9.934  2.4184  2.4972  0.7981
  246MPD1    H2 3789   3.871   0.323   9.696  1.3028 -0.2507 -0.7867
  246MPD1    H3 3790   3.882   0.209   9.918  2.9976  2.7540 -1.0378
  246MPD1     N 3791   3.886   4.525   9.724  0.0044  0.3151 -0.4300
  246MPD1    H5 3792   3.893   4.469   9.639 -0.8126  0.4095 -0.5559
  246MPD1    N1 3793   3.898   0.199   9.458 -0.6929  0.1499 -0.1758
  246MPD1    H6 3794   3.891   0.300   9.456  2.9144  0.4330  1.0261
  246MPD1    H7 3795   3.841   0.159   9.383 -1.3651  1.7773 -0.5256
  247MPD1     C 3796   2.322   3.614  16.318  1.3201 -1.3462 -0.2964
  247MPD1    C1 3797   2.249   3.569  16.427  0.6164 -1.0308  0.3447
  247MPD1    C2 3798   2.232   3.436  16.447 -0.3163 -0.5365  0.6040
  247MPD1    C3 3799   2.267   3.344  16.352 -0.1385  0.4769  1.0696
  247MPD1    C4 3800   2.330   3.393  16.240 -1.0595 -0.4959  0.4023
  247MPD1    C5 3801   2.361   3.521  16.229  0.5508  0.3881  0.7080
  247MPD1     H 3802   2.174   3.408  16.535 -3.0815  1.5549 -0.5829
  247MPD1    H1 3803   2.363   3.329  16.158 -3.3145  0.1173 -0.9753
  247MPD1    H2 3804   2.344   3.718  16.294 -1.9437 -0.4537  0.6081
  247MPD1    H3 3805   2.406   3.562  16.139  0.6331 -2.5290 -0.5906
  247MPD1     N 3806   2.242   3.205  16.356 -0.1057 -0.0020  0.4462
  247MPD1    H5 3807   2.260   3.146  16.276 -1.1219  1.7350 -1.0689
  247MPD1    N1 3808   2.215   3.659  16.529  0.5496  0.4509 -0.2908
  247MPD1    H6 3809   2.176   3.741  16.484  1.6137  2.2642  2.0903
  247MPD1    H7 3810   2.148   3.618  16.594 -0.0106 -0.8704 -1.6833
  248MPD1     C 3811   3.022   2.657  17.136 -0.1615 -0.2013  0.6573
  248MPD1    C1 3812   2.953   2.770  17.144 -0.1443 -0.6812  0.4380
  248MPD1    C2 3813   2.865   2.777  17.253 -0.1267 -0.5842 -0.0199
  248MPD1    C3 3814   2.829   2.657  17.324 -0.1226  0.8228  0.0995
  248MPD1    C4 3815   2.903   2.541  17.302  0.0879 -0.7855 -0.1486
  248MPD1    C5 3816   3.001   2.543  17.208  0.9220 -0.0960 -0.2320
  248MPD1     H 3817   2.802   2.859  17.283 -1.4672 -2.9182  3.4835
  248MPD1    H1 3818   2.881   2.445  17.346 -0.2138  0.3492  2.1612
  248MPD1    H2 3819   3.098   2.649  17.060  2.3550  0.1503  3.1380
  248MPD1    H3 3820   3.059   2.453  17.190  1.2191  0.4178 -1.8250
  248MPD1     N 3821   2.717   2.670  17.418  0.7109  0.5528  0.1193
  248MPD1    H5 3822   2.687   2.765  17.438  0.6365 -0.0132  2.7143
  248MPD1    N1 3823   2.991   2.889  17.072 -0.0735 -0.1198 -0.0900
  248MPD1    H6 3824   3.029   2.868  16.980 -0.3629 -2.0536  0.2301
  248MPD1    H7 3825   2.914   2.955  17.062  0.2714  0.1277 -1.0683
  249MPD1     C 3826   3.221   1.038  11.555  1.1496 -0.0965  0.3569
  249MPD1    C1 3827   3.287   0.920  11.534 -0.6413 -0.1723  0.2928
  249MPD1    C2 3828   3.335   0.891  11.414  0.3184  0.0649 -0.1670
  249MPD1    C3 3829   3.326   0.974  11.311 -0.0651  0.2704 -0.3290
  249MPD1    C4 3830   3.254   1.090  11.318  0.2279 -0.9693  0.2013
  249MPD1    C5 3831   3.198   1.118  11.443  0.3451  0.2071  0.5497
  249MPD1     H 3832   3.383   0.794  11.400 -0.0857  0.0218 -1.2500
  249MPD1    H1 3833   3.260   1.171  11.246 -0.8860 -1.5676 -0.5502
  249MPD1    H2 3834   3.179   1.064  11.651  0.0731 -0.8010  0.0814
  249MPD1    H3 3835   3.139   1.208  11.461 -0.5241  0.1728 -2.1927
  249MPD1     N 3836   3.398   0.929  11.192  0.5452 -0.1698 -0.8998
  249MPD1    H5 3837   3.446   0.839  11.198  0.9892  0.2054  1.2324
  249MPD1    N1 3838   3.297   0.826  11.635 -0.1450  0.1821  0.4092
  249MPD1    H6 3839   3.301   0.863  11.730  1.2216  2.1424 -0.4099
  249MPD1    H7 3840   3.378   0.768  11.614 -2.0417 -2.4735  0.3130
  250MPD2     C 3841   0.008   1.574  13.245  0.8472  0.0349  1.0114
  250MPD2    C1 3842   0.099   1.617  13.151  0.3247 -0.0634  0.0622
  250MPD2    C2 3843   0.125   1.526  13.051  0.1454 -0.3534 -0.6783
  250MPD2    C3 3844   0.055   1.403  13.037  0.6322  0.5010  0.5051
  250MPD2    C4 3845   4.687   1.370  13.128  0.8860  0.0875  0.0473
  250MPD2    C5 3846   4.669   1.461  13.233 -0.5418  0.6651  0.9412
  250MPD2     H 3847   0.200   1.552  12.977 -0.4564 -0.5565 -1.3595
  250MPD2    H1 3848   4.628   1.280  13.116  0.1581  0.3518  1.6461
  250MPD2    H2 3849   0.007   1.633  13.336 -0.3142  0.0583  0.9838
  250MPD2    H3 3850   4.595   1.447  13.311 -2.1872 -0.0561 -0.7426
  250MPD2     N 3851   0.095   1.307  12.944  0.5001  0.6187  0.2494
  250MPD2    H5 3852   0.049   1.217  12.954 -0.0408  0.7718 -0.8702
  250MPD2    N1 3853   0.164   1.740  13.153 -0.2675  0.2379 -0.5054
  250MPD2    H7 3854   0.243   1.743  13.089  0.0137 -1.2790 -0.2268
  251TMC3    C1 3855   0.237   1.952  13.231  0.0842 -0.1358  0.4997
  251TMC3    C2 3856   0.205   2.085  13.207  0.7332 -0.6121  0.5428
  251TMC3    C3 3857   0.307   2.179  13.211 -0.0442 -0.2605 -1.0789
  251TMC3    C4 3858   0.367   1.915  13.258 -0.1584 -0.0803  0.0507
  251TMC3    C5 3859   0.469   2.006  13.243  0.1534  0.2553  0.0204
  251TMC3    C6 3860   0.443   2.141  13.226 -0.0264  0.0770  0.6501
  251TMC3     C 3861   0.132   1.850  13.237  0.1865 -1.0241 -0.6402
  251TMC3     O 3862   0.040   1.865  13.318  0.0309 -0.4107  0.1089
  251TMC3     H 3863   0.101   2.112  13.191  0.2976 -2.5007  0.1547
  251TMC3    H1 3864   0.386   1.817  13.301  2.7666  0.3353 -0.3112
  251TMC3    H2 3865   0.525   2.209  13.246  1.3073 -0.5613 -2.5890
  251TMC3    C7 3866   0.603   1.949  13.268 -0.4724 -0.8516 -0.7118
  251TMC3    C8 3867   0.281   2.311  13.160  1.1273 -1.1265  0.0029
  251TMC3    O1 3868   0.612   1.827  13.287  0.2399  0.5456 -0.9773
  251TMC3    O2 3869   0.164   2.348  13.163  0.1229  0.0857  0.0684
  252TMC3    C1 3870   0.750   2.084   9.286 -0.0319  0.2613  0.0991
  252TMC3    C2 3871   0.799   2.207   9.252  0.0704  0.2870 -0.4142
  252TMC3    C3 3872   0.828   2.305   9.344 -0.0670  0.3537 -0.4452
  252TMC3    C4 3873   0.749   2.058   9.423 -0.5161 -0.0748  0.5135
  252TMC3    C5 3874   0.784   2.158   9.512  0.1470  0.4489  0.2845
  252TMC3    C6 3875   0.820   2.285   9.478 -0.7901  0.2606  0.5327
  252TMC3     C 3876   0.776   1.979   9.191 -0.3972 -0.4586 -0.1178
  252TMC3     O 3877   0.880   1.991   9.120 -0.6163 -0.0353  0.1126
  252TMC3     H 3878   0.819   2.225   9.147  0.8317  0.5812 -0.2229
  252TMC3    H1 3879   0.752   1.953   9.452  0.9591 -0.4361 -0.9438
  252TMC3    H2 3880   0.860   2.355   9.550 -1.5512  0.8601  0.3741
  252TMC3    C7 3881   0.776   2.126   9.651  0.2420 -0.6183  0.3513
  252TMC3    C8 3882   0.864   2.439   9.292 -0.1640  0.6262  0.0246
  252TMC3    O1 3883   0.875   2.164   9.714 -0.3366  0.1387  0.8264
  252TMC3    O2 3884   0.931   2.445   9.192 -0.1451  0.3606  0.5181
  253MPD2     C 3885   2.065   1.546  15.281 -0.1988 -0.6725  0.3053
  253MPD2    C1 3886   1.958   1.557  15.200  0.1416  0.1518  0.5347
  253MPD2    C2 3887   1.832   1.532  15.250  0.2331  0.0667 -0.2287
  253MPD2    C3 3888   1.814   1.492  15.379 -0.1546 -0.6436 -0.6174
  253MPD2    C4 3889   1.919   1.471  15.458 -0.2159  0.4809 -0.3407
  253MPD2    C5 3890   2.048   1.494  15.408 -0.7569  0.2828 -0.1972
  253MPD2     H 3891   1.749   1.543  15.182  0.0939  0.0006 -0.0684
  253MPD2    H1 3892   1.917   1.427  15.557 -1.1387 -0.0936 -0.6113
  253MPD2    H2 3893   2.164   1.570  15.243  0.0004  1.8731  2.4026
  253MPD2    H3 3894   2.137   1.480  15.468 -0.7041  1.0268 -0.0948
  253MPD2     N 3895   1.691   1.469  15.438  0.0238 -0.1502 -0.1019
  253MPD2    H5 3896   1.693   1.427  15.530 -1.8775  1.3130  0.6084
  253MPD2    N1 3897   1.970   1.598  15.069 -0.2734  0.5575  0.0497
  253MPD2    H7 3898   1.885   1.583  15.016 -1.6631  0.7044  2.2143
  254TMC3    C1 3899   1.453   1.460  15.475 -0.2395  0.0015  0.2136
  254TMC3    C2 3900   1.373   1.562  15.514  1.0811 -0.2038 -0.7511
  254TMC3    C3 3901   1.291   1.551  15.621 -0.6797  0.0835 -0.7442
  254TMC3    C4 3902   1.454   1.340  15.548  0.1107 -0.5274  0.2494
  254TMC3    C5 3903   1.365   1.330  15.649  0.3745  1.0011 -0.3438
  254TMC3    C6 3904   1.283   1.429  15.692  0.6271 -0.5256 -0.1803
  254TMC3     C 3905   1.566   1.497  15.386  0.1001  0.1265 -0.8673
  254TMC3     O 3906   1.538   1.557  15.285  0.1893  0.2286  0.7501
  254TMC3     H 3907   1.385   1.660  15.468  0.3274 -0.2834 -1.1152
  254TMC3    H1 3908   1.520   1.258  15.522  2.0969  1.4428 -0.9024
  254TMC3    H2 3909   1.210   1.410  15.770 -0.9529 -0.5385 -1.6625
  254TMC3    C7 3910   1.382   1.218  15.734  0.0765 -0.0633  0.0856
  254TMC3    C8 3911   1.201   1.661  15.647  0.4074  0.4428  0.3112
  254TMC3    O1 3912   1.482   1.145  15.721  0.0824  0.1630  0.3576
  254TMC3    O2 3913   1.175   1.734  15.552  1.2105 -0.1226  0.0949
  255MPD2     C 3914   4.354   3.602  10.508 -0.4416 -0.3046  0.5134
  255MPD2    C1 3915   4.323   3.651  10.386 -0.2602 -0.4010  0.0278
  255MPD2    C2 3916   4.276   3.570  10.284 -0.5804 -0.0184  0.5598
  255MPD2    C3 3917   4.271   3.432  10.297  0.3989 -0.4663  0.1394
  255MPD2    C4 3918   4.309   3.382  10.425 -0.1240  0.0075  0.5870
  255MPD2    C5 3919   4.340   3.467  10.531  0.3392  0.0564  0.4457
  255MPD2     H 3920   4.245   3.619  10.192 -0.6908 -0.0228  0.5948
  255MPD2    H1 3921   4.308   3.276  10.446  1.1624 -0.2655 -0.7501
  255MPD2    H2 3922   4.369   3.663  10.596 -0.5608 -0.3376  0.5580
  255MPD2    H3 3923   4.365   3.417  10.624 -2.5585 -2.2003 -0.0179
  255MPD2     N 3924   4.237   3.350  10.193  0.1102 -0.3025  0.2465
  255MPD2    H5 3925   4.215   3.257  10.228 -1.2674  0.2464  0.8538
  255MPD2    N1 3926   4.324   3.789  10.375  0.1701 -0.0629 -0.9401
  255MPD2    H7 3927   4.369   3.843  10.449 -0.1191  0.7437 -1.3453
  256TMC3    C1 3928   4.317   4.003  10.268  0.8385 -0.9819 -0.8568
  256TMC3    C2 3929   4.355   4.060  10.151 -0.1299  0.1116  0.0677
  256TMC3    C3 3930   4.407   4.188  10.150  0.2520  0.3527  0.7371
  256TMC3    C4 3931   4.344   4.064  10.391  0.4736  0.0466 -0.1033
  256TMC3    C5 3932   4.405   4.184  10.390 -0.1919  0.6974 -0.6055
  256TMC3    C6 3933   4.430   4.252  10.268 -0.2560 -0.1862 -0.0459
  256TMC3     C 3934   4.282   3.865  10.265 -0.1211 -0.2908  0.0371
  256TMC3     O 3935   4.244   3.820  10.158  0.5320  0.1287  0.6589
  256TMC3     H 3936   4.333   4.018  10.054  0.7387 -0.8335  0.2910
  256TMC3    H1 3937   4.307   4.016  10.481 -0.6897  1.2490  0.0568
  256TMC3    H2 3938   4.478   4.348  10.276  0.4006 -0.5479  0.3140
  256TMC3    C7 3939   4.394   4.271  10.512 -0.3339  0.4652  0.6353
  256TMC3    C8 3940   4.462   4.231  10.027 -1.0514  0.5210 -0.6677
  256TMC3    O1 3941   4.320   4.229  10.596 -0.3801 -0.2027 -0.2004
  256TMC3    O2 3942   4.488   4.149   9.941  0.4533  0.9883  0.1751
  257MPD2     C 3943   3.904   1.270  13.258 -0.2184  0.4168 -0.1519
  257MPD2    C1 3944   3.991   1.198  13.180  0.8075 -0.3075  0.6382
  257MPD2    C2 3945   4.051   1.090  13.233 -0.8285 -0.2161 -0.0415
  257MPD2    C3 3946   4.048   1.067  13.372  0.0688  0.0879 -0.1260
  257MPD2    C4 3947   3.967   1.145  13.451 -0.9766 -0.6533 -0.1215
  257MPD2    C5 3948   3.900   1.245  13.392 -0.4891 -0.2166  0.0442
  257MPD2     H 3949   4.096   1.019  13.164 -3.3003 -0.0624 -1.8451
  257MPD2    H1 3950   3.961   1.144  13.560  0.5303 -2.2946 -0.0555
  257MPD2    H2 3951   3.846   1.353  13.219 -1.8327 -1.2897 -1.3975
  257MPD2    H3 3952   3.836   1.303  13.458 -1.5601  0.5149 -1.6288
  257MPD2     N 3953   4.120   0.949  13.422  0.1466  0.1013  0.3018
  257MPD2    H5 3954   4.180   0.902  13.355  0.5287  2.1216 -0.8040
  257MPD2    N1 3955   3.985   1.218  13.042  0.4872 -0.3230  0.5137
  257MPD2    H7 3956   3.905   1.262  12.997  0.5538  1.2364  1.9179
  258TMC3    C1 3957   4.216   0.813  13.591  0.2695  0.0669  0.5156
  258TMC3    C2 3958   4.334   0.795  13.522  0.0566  0.1945  0.2613
  258TMC3    C3 3959   4.439   0.731  13.583  0.3552  0.7258 -0.5222
  258TMC3    C4 3960   4.208   0.763  13.720 -1.2687 -0.2865 -0.4885
  258TMC3    C5 3961   4.318   0.713  13.775  0.1228 -0.4797  0.6609
  258TMC3    C6 3962   4.434   0.692  13.713  0.3961 -0.1172  0.2191
  258TMC3     C 3963   4.124   0.919  13.554  0.2871  0.1445  0.2776
  258TMC3     O 3964   4.066   0.970  13.649 -0.1971  0.0554  0.2136
  258TMC3     H 3965   4.338   0.838  13.422 -1.8304 -1.7396 -0.6615
  258TMC3    H1 3966   4.116   0.770  13.776  0.2738  1.0040  1.8769
  258TMC3    H2 3967   4.518   0.644  13.762 -0.2821  0.0284  1.5107
  258TMC3    C7 3968   4.323   0.689  13.920  0.1592  1.3119  0.4268
  258TMC3    C8 3969   4.561   0.735  13.509 -0.0039  0.0054 -0.2640
  258TMC3    O1 3970   4.211   0.695  13.967 -0.2542  0.2064  0.0905
  258TMC3    O2 3971   4.556   0.798  13.407 -0.3439  0.4265 -0.5593
  259MPD2     C 3972   2.668   3.433   1.056  0.0610 -0.0401 -0.7301
  259MPD2    C1 3973   2.598   3.314   1.046  0.2363 -0.0032 -0.0319
  259MPD2    C2 3974   2.658   3.206   0.980 -0.2189 -0.4704  0.2276
  259MPD2    C3 3975   2.785   3.221   0.919 -0.1762  0.2917  0.3952
  259MPD2    C4 3976   2.852   3.348   0.921 -0.3010  0.4962 -0.1792
  259MPD2    C5 3977   2.789   3.456   0.991  0.3020 -0.0060 -0.6373
  259MPD2     H 3978   2.612   3.108   0.979 -0.0955 -0.5363  0.8014
  259MPD2    H1 3979   2.950   3.372   0.881 -0.0825 -1.4898 -0.7926
  259MPD2    H2 3980   2.635   3.514   1.119  1.4796  0.2945 -0.4106
  259MPD2    H3 3981   2.833   3.555   0.989 -1.1817  0.6541  0.0978
  259MPD2     N 3982   2.834   3.111   0.846 -0.2130  0.9362 -0.2337
  259MPD2    H5 3983   2.778   3.026   0.849 -2.2186  2.1748 -2.9760
  259MPD2    N1 3984   2.483   3.316   1.126  0.2157  0.1486  0.5059
  259MPD2    H7 3985   2.460   3.398   1.181  1.7289  1.5457 -0.9405
  260TMC3    C1 3986   2.976   3.000   0.695 -0.1889 -0.2909 -0.3222
  260TMC3    C2 3987   3.058   3.008   0.588 -0.0784  0.4519 -0.6292
  260TMC3    C3 3988   3.062   2.916   0.489 -0.3742 -0.4318  0.3193
  260TMC3    C4 3989   2.904   2.891   0.720 -0.3513  0.5121  0.2467
  260TMC3    C5 3990   2.908   2.794   0.623  0.7370 -0.2765  0.1959
  260TMC3    C6 3991   2.990   2.810   0.512  0.7172 -0.0301 -0.3836
  260TMC3     C 3992   2.950   3.115   0.780 -0.5799  0.5071  0.5740
  260TMC3     O 3993   3.036   3.200   0.772  0.4465 -0.4670  0.1056
  260TMC3     H 3994   3.115   3.099   0.580  0.6412  0.0605 -0.0499
  260TMC3    H1 3995   2.861   2.873   0.818  0.5876  2.0647  0.9436
  260TMC3    H2 3996   2.991   2.728   0.441 -3.4527  0.0624 -0.5163
  260TMC3    C7 3997   2.813   2.686   0.624 -0.8673 -1.3338  0.9208
  260TMC3    C8 3998   3.158   2.929   0.376  0.4612 -0.1835  0.3158
  260TMC3    O1 3999   2.715   2.699   0.695 -0.2466  0.0424  0.8540
  260TMC3    O2 4000   3.204   3.041   0.356  0.2049  0.1112  0.3677
  261MPD2     C 4001   0.189   0.934  12.099 -0.5377  0.8958  0.6152
  261MPD2    C1 4002   0.184   1.053  12.160  0.1125  0.7554 -0.4393
  261MPD2    C2 4003   0.172   1.159  12.074  0.1932 -0.1788 -0.0606
  261MPD2    C3 4004   0.173   1.153  11.940 -0.4056  0.1232  0.1987
  261MPD2    C4 4005   0.187   1.031  11.872  0.0276  0.2069  0.7092
  261MPD2    C5 4006   0.193   0.925  11.958  0.1016 -0.0478  1.1070
  261MPD2     H 4007   0.176   1.258  12.118 -1.5886 -0.3462  0.4774
  261MPD2    H1 4008   0.191   1.024  11.764  0.0193  1.2200  0.6359
  261MPD2    H2 4009   0.198   0.838  12.150 -1.8624  0.2739 -0.3342
  261MPD2    H3 4010   0.201   0.823  11.920 -1.1232  0.4493 -0.5042
  261MPD2     N 4011   0.148   1.272  11.872  0.7166 -0.1004 -0.7588
  261MPD2    H5 4012   0.112   1.358  11.913 -0.2099 -1.3507  1.0774
  261MPD2    N1 4013   0.206   1.056  12.303  0.4817  0.0920 -0.1911
  261MPD2    H7 4014   0.246   0.971  12.341  0.7890  1.7373  3.2213
  262TMC3    C1 4015   0.131   1.422  11.703 -0.5843  0.5523 -0.4582
  262TMC3    C2 4016   0.014   1.472  11.754  1.0616  0.0748  0.1003
  262TMC3    C3 4017   4.729   1.610  11.733 -0.5601  0.5963  0.1270
  262TMC3    C4 4018   0.231   1.501  11.651 -0.1065  0.7551  0.4556
  262TMC3    C5 4019   0.214   1.637  11.648 -0.4227  0.3452  0.2270
  262TMC3    C6 4020   0.100   1.691  11.688  0.2238  0.1405  0.3868
  262TMC3     C 4021   0.175   1.295  11.737 -0.1258  0.7468  0.4975
  262TMC3     O 4022   0.241   1.228  11.659  0.2463 -0.1695  0.1747
  262TMC3     H 4023   4.678   1.400  11.793  2.2071  0.5651  3.1008
  262TMC3    H1 4024   0.311   1.442  11.606  2.2494  3.9067  0.5389
  262TMC3    H2 4025   0.088   1.798  11.678 -0.6658 -0.0221 -0.3698
  262TMC3    C7 4026   0.316   1.709  11.578 -0.3446  0.8459 -0.3458
  262TMC3    C8 4027   4.606   1.669  11.776  0.4094  0.6500  0.2183
  262TMC3    O1 4028   0.408   1.639  11.554 -0.1921 -0.1202 -0.0872
  262TMC3    O2 4029   4.615   1.788  11.795  0.1493 -0.6336 -0.4257
  263MPD2     C 4030   1.144   0.427  11.056 -0.0800 -0.3327 -0.4074
  263MPD2    C1 4031   1.158   0.511  11.161 -0.4183 -0.1979  0.1789
  263MPD2    C2 4032   1.142   0.644  11.133 -0.0105  0.4873  0.3120
  263MPD2    C3 4033   1.107   0.689  11.002  0.2555 -0.5229  0.1440
  263MPD2    C4 4034   1.095   0.591  10.905  0.2771 -0.2236 -0.1580
  263MPD2    C5 4035   1.105   0.464  10.936  0.3196  0.3936  0.3685
  263MPD2     H 4036   1.151   0.713  11.217  1.0134 -0.4835  1.0006
  263MPD2    H1 4037   1.067   0.614  10.803  0.4964 -1.0726 -0.4058
  263MPD2    H2 4038   1.155   0.320  11.065 -0.1570 -0.3541 -0.5566
  263MPD2    H3 4039   1.096   0.393  10.855 -3.0015 -0.9574  1.9060
  263MPD2     N 4040   1.078   0.825  10.981 -0.0775 -0.2747 -0.4502
  263MPD2    H5 4041   1.098   0.891  11.056  0.6576  0.9067 -1.6919
  263MPD2    N1 4042   1.208   0.460  11.284  0.0002 -0.6767  0.3943
  263MPD2    H7 4043   1.233   0.361  11.288  3.6716  0.2559  0.6261
  264TMC3    C1 4044   1.100   1.022  10.845 -0.7098 -0.1911  0.1269
  264TMC3    C2 4045   1.108   1.096  10.958  0.2318  0.2963  1.1785
  264TMC3    C3 4046   1.145   1.224  10.943 -0.4802 -0.3191 -0.1876
  264TMC3    C4 4047   1.130   1.068  10.721 -0.2121  0.1558 -0.3389
  264TMC3    C5 4048   1.169   1.204  10.706  0.2357 -0.4063 -0.1964
  264TMC3    C6 4049   1.168   1.278  10.816 -0.4616  0.3923 -0.1450
  264TMC3     C 4050   1.064   0.879  10.854 -0.1932 -0.4251 -0.2917
  264TMC3     O 4051   1.045   0.823  10.746  0.8924  0.3558 -0.1069
  264TMC3     H 4052   1.089   1.057  11.058 -1.0298  1.0718  1.2470
  264TMC3    H1 4053   1.111   1.002  10.638  0.1136 -0.6911  0.2619
  264TMC3    H2 4054   1.202   1.381  10.820 -1.5244  0.8699 -4.2282
  264TMC3    C7 4055   1.200   1.258  10.575 -0.8550 -0.0639  0.5388
  264TMC3    C8 4056   1.145   1.319  11.055 -0.1734 -0.5962  0.3922
  264TMC3    O1 4057   1.250   1.185  10.494  0.5138 -0.5138 -0.0086
  264TMC3    O2 4058   1.196   1.428  11.033  0.0062  0.0030  0.8394
  265MPD2     C 4059   3.096   0.927  15.661  0.9125 -0.4468  0.7817
  265MPD2    C1 4060   3.093   1.039  15.581  0.4084  0.9634 -0.2007
  265MPD2    C2 4061   3.118   1.021  15.441 -0.2825  0.1960 -0.4108
  265MPD2    C3 4062   3.140   0.896  15.393  0.3118 -0.1270 -0.6002
  265MPD2    C4 4063   3.151   0.785  15.478  0.0767  0.0172 -0.1475
  265MPD2    C5 4064   3.138   0.806  15.611  0.8122 -0.6243 -0.1925
  265MPD2     H 4065   3.119   1.108  15.375  1.3165  1.1410  0.8548
  265MPD2    H1 4066   3.164   0.681  15.451  0.9682 -0.1973  1.0910
  265MPD2    H2 4067   3.077   0.937  15.767  0.4836  1.9191  0.4851
  265MPD2    H3 4068   3.138   0.722  15.680 -1.6570 -1.2967 -1.0110
  265MPD2     N 4069   3.167   0.865  15.254  0.5782 -0.2248 -0.5909
  265MPD2    H5 4070   3.205   0.774  15.230  0.8922 -0.5406  1.0565
  265MPD2    N1 4071   3.080   1.169  15.625  0.5816 -0.7602 -0.7340
  265MPD2    H7 4072   3.067   1.240  15.554  0.3629 -2.3821 -2.3279
  266TMC3    C1 4073   3.076   1.355  15.747  0.5501 -0.2073  0.3607
  266TMC3    C2 4074   3.140   1.421  15.850  0.3437  0.5226  0.7411
  266TMC3    C3 4075   3.121   1.558  15.869  0.2138 -0.1423 -0.6895
  266TMC3    C4 4076   2.981   1.424  15.669 -0.1163 -0.1044  0.0006
  266TMC3    C5 4077   2.959   1.559  15.689  0.4046  0.1626 -0.3041
  266TMC3    C6 4078   3.027   1.627  15.790 -0.5091  0.5068 -0.2281
  266TMC3     C 4079   3.087   1.208  15.751 -0.2313 -0.7083 -0.5722
  266TMC3     O 4080   3.132   1.141  15.843  0.1580  0.0097  0.0011
  266TMC3     H 4081   3.221   1.367  15.898 -0.7916  0.4396  2.6021
  266TMC3    H1 4082   2.936   1.362  15.593  1.0100 -0.0092 -0.7393
  266TMC3    H2 4083   3.006   1.731  15.812  0.2938  0.4571  0.7929
  266TMC3    C7 4084   2.831   1.621  15.657 -0.1366 -0.0499 -0.4957
  266TMC3    C8 4085   3.221   1.625  15.944  0.3042 -0.2843 -0.5952
  266TMC3    O1 4086   2.801   1.721  15.721 -0.1492  0.5255 -0.4394
  266TMC3    O2 4087   3.323   1.566  15.960  0.2444  0.3129 -0.2106
  267MPD2     C 4088   1.207   2.613  16.883  0.5520  0.0815 -0.1174
  267MPD2    C1 4089   1.190   2.734  16.957 -0.1002 -0.0772  0.3965
  267MPD2    C2 4090   1.069   2.802  16.941  0.2012 -0.2764  0.1996
  267MPD2    C3 4091   0.967   2.740  16.871 -0.6381 -0.5700 -0.0711
  267MPD2    C4 4092   0.988   2.616  16.815 -0.2698 -0.5945  0.2281
  267MPD2    C5 4093   1.109   2.560  16.802  0.2700 -0.1127 -0.5900
  267MPD2     H 4094   1.045   2.899  16.983  0.3337 -0.0832 -0.1753
  267MPD2    H1 4095   0.912   2.567  16.755 -0.1702 -0.5082  0.0303
  267MPD2    H2 4096   1.300   2.557  16.888  0.5310 -0.0680 -1.3395
  267MPD2    H3 4097   1.135   2.466  16.755 -0.2798  0.2438 -1.6293
  267MPD2     N 4098   0.836   2.794  16.862 -0.0114  0.3195 -0.4808
  267MPD2    H5 4099   0.763   2.733  16.826  0.5025 -0.0170 -0.9488
  267MPD2    N1 4100   1.290   2.777  17.043  0.4268  0.3869  0.0978
  267MPD2    H7 4101   1.365   2.715  17.070 -0.4782 -1.1018 -0.8379
  268TMC3    C1 4102   1.390   2.911  17.208  0.0810 -0.1993  0.2543
  268TMC3    C2 4103   1.421   3.047  17.221 -0.4921 -0.2204  0.0471
  268TMC3    C3 4104   1.423   3.102  17.348 -0.4838  0.0966  0.4435
  268TMC3    C4 4105   1.374   2.832  17.321 -0.4871  0.6715 -0.0216
  268TMC3    C5 4106   1.374   2.893  17.445  0.3483 -0.1023 -0.2345
  268TMC3    C6 4107   1.408   3.025  17.469 -0.1709  1.6162 -0.6861
  268TMC3     C 4108   1.289   2.895  17.103  0.6403  0.6051 -0.7767
  268TMC3     O 4109   1.229   2.994  17.071  0.0828 -0.3213 -0.0972
  268TMC3     H 4110   1.421   3.112  17.134 -1.8920 -2.6113 -1.7327
  268TMC3    H1 4111   1.317   2.740  17.312 -0.1501  0.5473 -0.9240
  268TMC3    H2 4112   1.393   3.077  17.563  0.3985  0.6517 -0.0552
  268TMC3    C7 4113   1.282   2.829  17.538 -0.2913 -0.9092 -0.4987
  268TMC3    C8 4114   1.437   3.249  17.362  0.1572 -0.1038  0.0244
  268TMC3    O1 4115   1.280   2.707  17.552  0.0630  0.6392 -0.0942
  268TMC3    O2 4116   1.452   3.284  17.480 -0.1549  0.5999 -0.0303
  269MPD2     C 4117   1.515   1.871  15.054 -0.2089 -0.3640 -0.1005
  269MPD2    C1 4118   1.391   1.838  15.112 -0.4528  0.6092 -0.0477
  269MPD2    C2 4119   1.315   1.945  15.154 -0.2205 -0.2866  0.4707
  269MPD2    C3 4120   1.368   2.075  15.152  0.6391  0.4819 -0.5917
  269MPD2    C4 4121   1.487   2.102  15.084 -0.1339  0.0026  0.8160
  269MPD2    C5 4122   1.564   1.997  15.047 -0.0337  0.1572  0.2376
  269MPD2     H 4123   1.225   1.933  15.213 -0.0953 -2.0975  0.3062
  269MPD2    H1 4124   1.513   2.206  15.066 -1.4745  0.0161 -1.0923
  269MPD2    H2 4125   1.578   1.790  15.020 -0.2140  0.0083 -0.9971
  269MPD2    H3 4126   1.664   2.014  15.011  0.4699 -1.8090  0.7491
  269MPD2     N 4127   1.295   2.187  15.199  1.0318 -0.5625 -0.1823
  269MPD2    H5 4128   1.202   2.165  15.232  1.2265  0.1961  0.8657
  269MPD2    N1 4129   1.360   1.702  15.137  0.0028 -0.2155  0.1413
  269MPD2    H7 4130   1.431   1.629  15.138  0.0896 -0.1148  1.4942
  270TMC3    C1 4131   1.225   1.510  15.196  0.2123  0.0397 -0.0220
  270TMC3    C2 4132   1.127   1.476  15.284 -0.0435 -0.0092  0.1621
  270TMC3    C3 4133   1.096   1.347  15.304 -0.2322  0.2691 -0.3006
  270TMC3    C4 4134   1.319   1.421  15.146 -0.4868  0.5470  0.1011
  270TMC3    C5 4135   1.301   1.293  15.186 -0.0073  0.0462  0.0591
  270TMC3    C6 4136   1.192   1.259  15.262 -0.3402  0.0108 -0.2910
  270TMC3     C 4137   1.231   1.652  15.168 -0.4141  0.0483  0.1875
  270TMC3     O 4138   1.130   1.721  15.181  0.2497 -0.4864 -0.0257
  270TMC3     H 4139   1.061   1.557  15.315  1.3773  0.5165  1.7929
  270TMC3    H1 4140   1.399   1.459  15.083 -0.1334 -2.2817 -1.1464
  270TMC3    H2 4141   1.176   1.155  15.286  1.4394  0.0197  1.0056
  270TMC3    C7 4142   1.418   1.217  15.205  0.1168 -0.4946  0.4405
  270TMC3    C8 4143   0.974   1.304  15.239 -0.0904  0.2952 -0.4543
  270TMC3    O1 4144   1.419   1.139  15.298 -0.5053 -0.5406 -0.6690
  270TMC3    O2 4145   0.991   1.236  15.136  0.2198 -0.3643 -0.6264
  271MPD2     C 4146   4.699   1.389  13.857  0.0725  0.0304  0.3438
  271MPD2    C1 4147   4.659   1.480  13.961  0.1108 -0.6218  0.2742
  271MPD2    C2 4148   4.552   1.566  13.931 -0.2993  0.1672  0.1368
  271MPD2    C3 4149   4.485   1.556  13.809  0.2695 -0.7989  0.3021
  271MPD2    C4 4150   4.522   1.455  13.720  0.2453 -0.4931 -0.1883
  271MPD2    C5 4151   4.633   1.377  13.736 -0.5908 -0.2150  0.8168
  271MPD2     H 4152   4.524   1.642  14.003 -0.3412  0.4059 -0.1294
  271MPD2    H1 4153   4.461   1.433  13.633 -1.1941 -1.6124  1.1107
  271MPD2    H2 4154   0.042   1.314  13.868 -0.3862 -0.5665 -0.4592
  271MPD2    H3 4155   4.661   1.308  13.658  0.0356  1.9947 -0.9131
  271MPD2     N 4156   4.368   1.634  13.787 -0.9371 -0.0737  0.0233
  271MPD2    H5 4157   4.315   1.631  13.701  0.5038  0.1834 -0.8733
  271MPD2    N1 4158   4.730   1.490  14.091  0.4307  0.1386 -0.5563
  271MPD2    H7 4159   4.703   1.562  14.157  2.0036  1.1890 -1.0590
  272TMC3    C1 4160   0.133   1.427  14.275  0.7959 -0.2042 -0.6872
  272TMC3    C2 4161   0.231   1.339  14.312  0.0690 -0.5181  0.7937
  272TMC3    C3 4162   0.264   1.346  14.450 -0.1921 -0.3730  0.2436
  272TMC3    C4 4163   0.068   1.506  14.366  0.7876 -0.9382 -0.2512
  272TMC3    C5 4164   0.091   1.500  14.501  0.0211 -0.5072  0.1925
  272TMC3    C6 4165   0.199   1.426  14.538  0.1350  0.9594  0.0581
  272TMC3     C 4166   0.092   1.406  14.135 -0.1456 -1.3548 -0.0158
  272TMC3     O 4167   0.132   1.306  14.081 -1.0191 -0.4099 -0.3995
  272TMC3     H 4168   0.283   1.274  14.242  1.0864 -0.3967  1.4360
  272TMC3    H1 4169   4.734   1.577  14.321  0.0558 -1.2401  0.4100
  272TMC3    H2 4170   0.239   1.432  14.639  2.1356  0.1138 -0.6842
  272TMC3    C7 4171   0.050   1.604  14.591 -0.2340  0.2913 -0.0725
  272TMC3    C8 4172   0.397   1.300  14.491  0.4721  0.4473 -0.5339
  272TMC3    O1 4173   4.668   1.637  14.612 -0.4052 -0.0285 -0.5772
  272TMC3    O2 4174   0.401   1.261  14.609  0.0410  0.6574  0.1879
  273MPD2     C 4175   1.503   4.170  11.677 -0.5451 -0.7161  0.3232
  273MPD2    C1 4176   1.606   4.253  11.644  0.2709  0.3140 -0.5968
  273MPD2    C2 4177   1.643   4.263  11.516 -0.4261  0.5106 -0.5114
  273MPD2    C3 4178   1.586   4.184  11.418 -0.3345 -0.3942 -0.6166
  273MPD2    C4 4179   1.481   4.097  11.452 -1.0296 -0.1012 -1.1215
  273MPD2    C5 4180   1.445   4.083  11.586 -0.2072 -0.0889 -0.4136
  273MPD2     H 4181   1.723   4.330  11.487 -1.8469  1.6467 -1.7929
  273MPD2    H1 4182   1.430   4.035  11.379  0.1395 -1.7652 -0.5303
  273MPD2    H2 4183   1.470   4.158  11.780  0.5605 -0.2341  0.7373
  273MPD2    H3 4184   1.369   4.013  11.618  2.4258 -1.7532  2.2360
  273MPD2     N 4185   1.629   4.190  11.286  0.1924 -0.0202  0.5353
  273MPD2    H5 4186   1.574   4.143  11.215  1.8720  1.6386 -1.8624
  273MPD2    N1 4187   1.663   4.322  11.755 -0.4439 -0.0724 -0.3871
  273MPD2    H7 4188   1.632   4.312  11.851 -2.7137 -0.0552 -1.1288
  274TMC3    C1 4189   1.720   4.299  11.097  0.7665 -0.0885 -0.3402
  274TMC3    C2 4190   1.588   4.317  11.049 -0.4181  0.4368  0.5128
  274TMC3    C3 4191   1.566   4.419  10.959  0.1314 -0.7262 -0.7520
  274TMC3    C4 4192   1.818   4.391  11.065  0.2116  0.5230 -0.7283
  274TMC3    C5 4193   1.784   4.498  10.993  0.4313  0.2190  0.4306
  274TMC3    C6 4194   1.664   4.511  10.927  0.4019  0.3693  0.2985
  274TMC3     C 4195   1.736   4.261  11.236 -0.1075 -0.4395  0.5968
  274TMC3     O 4196   1.833   4.304  11.298 -0.2234  0.7234 -0.9016
  274TMC3     H 4197   1.508   4.245  11.063 -0.8142  0.6240 -0.7448
  274TMC3    H1 4198   1.920   4.370  11.093 -0.7785 -1.9860  1.0420
  274TMC3    H2 4199   1.635   4.600  10.873 -0.3593 -1.5909 -2.5007
  274TMC3    C7 4200   1.811   4.618  11.055  0.6600 -0.0780  0.0240
  274TMC3    C8 4201   1.451   4.402  10.867  1.3579  0.0634  0.7504
  274TMC3    O1 4202   1.756   4.722  11.024  0.1059 -0.1735  0.2627
  274TMC3    O2 4203   1.358   4.336  10.916 -0.1812 -0.3097  0.5710
  275MPD2     C 4204   1.464   2.663  14.452  0.5477  0.1177  0.1168
  275MPD2    C1 4205   1.413   2.643  14.581  0.2656 -0.2771 -0.2639
  275MPD2    C2 4206   1.270   2.621  14.586  0.5996 -0.1193 -1.2482
  275MPD2    C3 4207   1.196   2.633  14.469  0.5265  0.3601  0.3739
  275MPD2    C4 4208   1.255   2.659  14.345 -0.5334 -0.7462  0.1551
  275MPD2    C5 4209   1.387   2.674  14.341 -0.2541  0.2134  0.6572
  275MPD2     H 4210   1.233   2.605  14.687 -0.4490 -1.3977 -1.8328
  275MPD2    H1 4211   1.203   2.650  14.250 -0.1401  0.3816 -0.1752
  275MPD2    H2 4212   1.566   2.691  14.432  1.5708 -2.7043  1.4410
  275MPD2    H3 4213   1.434   2.701  14.247 -1.1077  1.4468  0.5698
  275MPD2     N 4214   1.054   2.625  14.476  0.2981  0.5199 -0.4432
  275MPD2    H5 4215   1.009   2.643  14.387 -2.3600 -0.9323  0.6232
  275MPD2    N1 4216   1.487   2.648  14.698  0.1360 -0.1422  0.3265
  275MPD2    H7 4217   1.443   2.618  14.785 -0.4488 -0.8665 -0.2197
  276TMC3    C1 4218   1.655   2.718  14.850 -0.8393  0.3072  0.3115
  276TMC3    C2 4219   1.634   2.612  14.938 -0.0387 -0.1992 -1.0843
  276TMC3    C3 4220   1.654   2.637  15.067 -1.0306 -0.1599 -0.3795
  276TMC3    C4 4221   1.697   2.837  14.903 -0.3411  0.1541 -0.1906
  276TMC3    C5 4222   1.731   2.851  15.031 -0.4483  0.1056 -0.2047
  276TMC3    C6 4223   1.699   2.753  15.126  0.7346  0.2098 -0.5308
  276TMC3     C 4224   1.610   2.713  14.710  1.0986  0.7060 -0.3354
  276TMC3     O 4225   1.666   2.784  14.626 -0.2904 -0.5923 -0.2539
  276TMC3     H 4226   1.592   2.517  14.908  1.3041 -1.6355  1.5445
  276TMC3    H1 4227   1.711   2.917  14.831 -0.7488  0.8155  0.4619
  276TMC3    H2 4228   1.729   2.760  15.230 -0.6017  2.3868 -0.2913
  276TMC3    C7 4229   1.858   2.912  15.064  0.4177 -0.3638 -0.0883
  276TMC3    C8 4230   1.686   2.520  15.151 -0.0708  0.5207 -0.0683
  276TMC3    O1 4231   1.882   2.920  15.185 -0.1816 -0.5978 -0.4803
  276TMC3    O2 4232   1.687   2.537  15.274 -0.1375 -0.2028  0.2800
  277MPD2     C 4233   3.371   1.229  13.268 -0.3105  0.7825 -1.6243
  277MPD2    C1 4234   3.242   1.233  13.319  0.4337 -0.3413 -0.5417
  277MPD2    C2 4235   3.221   1.174  13.443  0.0161  0.4753 -0.4530
  277MPD2    C3 4236   3.323   1.101  13.505 -0.0337  0.1397  0.5782
  277MPD2    C4 4237   3.453   1.087  13.449  0.0117 -0.6831  0.1733
  277MPD2    C5 4238   3.472   1.157  13.334  0.1525  0.1978 -0.6471
  277MPD2     H 4239   3.130   1.182  13.502  0.4078  0.0691  0.2048
  277MPD2    H1 4240   3.529   1.025  13.495  0.5834  0.5565  0.8738
  277MPD2    H2 4241   3.403   1.272  13.174 -1.0015 -0.3227 -2.3698
  277MPD2    H3 4242   3.571   1.157  13.289  0.4050 -2.6993 -0.0832
  277MPD2     N 4243   3.281   1.042  13.628 -0.5460 -0.2965  0.8729
  277MPD2    H5 4244   3.189   1.064  13.664 -1.0106 -1.1983  0.2299
  277MPD2    N1 4245   3.148   1.305  13.246  0.4291  0.7654 -0.2559
  277MPD2    H7 4246   3.172   1.345  13.156  3.9535 -0.7035  0.0344
  278TMC3    C1 4247   3.279   0.900  13.820  0.4102 -0.0642 -0.0459
  278TMC3    C2 4248   3.263   0.765  13.822 -0.1201  0.0271 -0.6869
  278TMC3    C3 4249   3.142   0.726  13.865 -0.0825  0.2921  0.4223
  278TMC3    C4 4250   3.185   0.992  13.860  0.5421 -0.2294 -0.0384
  278TMC3    C5 4251   3.064   0.943  13.903  0.5058 -0.0458  0.2897
  278TMC3    C6 4252   3.034   0.811  13.905  0.2184 -0.3652  0.6993
  278TMC3     C 4253   3.351   0.945  13.700  0.1470  0.3393  0.6075
  278TMC3     O 4254   3.462   0.896  13.669 -0.0940 -0.2385  0.0822
  278TMC3     H 4255   3.334   0.696  13.779  0.7216 -0.2886  1.2171
  278TMC3    H1 4256   3.213   1.097  13.864 -0.3015  0.0475 -1.4405
  278TMC3    H2 4257   2.953   0.778  13.969 -0.2928 -0.8666 -0.2103
  278TMC3    C7 4258   2.966   1.037  13.949  0.5598 -0.3609 -0.5597
  278TMC3    C8 4259   3.117   0.589  13.849  0.2472  0.0473 -0.3372
  278TMC3    O1 4260   3.005   1.152  13.967  0.1280 -0.6735  0.1820
  278TMC3    O2 4261   3.208   0.505  13.868  0.5663 -1.1120  0.1616
  279MPD2     C 4262   2.334   1.160  17.550 -0.0283  0.5315 -0.1516
  279MPD2    C1 4263   2.342   1.305  17.536  0.6146  0.4561 -0.3484
  279MPD2    C2 4264   2.368   1.356  17.412  0.1740  0.2144 -0.2352
  279MPD2    C3 4265   2.385   1.272  17.304  0.0831  0.1679  0.4182
  279MPD2    C4 4266   2.359   1.136  17.318  0.2486 -0.7312 -0.0321
  279MPD2    C5 4267   2.334   1.081  17.436  0.2686 -0.3376  0.4785
  279MPD2     H 4268   2.379   1.463  17.407  2.2977  0.0739  1.1028
  279MPD2    H1 4269   2.368   1.074  17.229  1.1032 -0.5259 -0.0912
  279MPD2    H2 4270   2.315   1.106  17.642 -0.3806 -0.2830 -0.6966
  279MPD2    H3 4271   2.311   0.975  17.442 -3.6685  0.2940 -3.1873
  279MPD2     N 4272   2.436   1.323  17.182  0.1707  0.1608  0.3585
  279MPD2    H5 4273   2.441   1.251  17.112  1.1746  1.0272 -0.4573
  279MPD2    N1 4274   2.310   1.379  17.649  0.4849 -0.6149  0.2263
  279MPD2    H7 4275   2.310   1.323  17.733 -3.7612 -0.1613  0.5109
  280TMC3    C1 4276   2.294   1.551   0.068  0.2057  0.0711  0.0429
  280TMC3    C2 4277   2.371   1.476   0.160  0.3472  0.8971  0.7019
  280TMC3    C3 4278   2.366   1.515   0.291  0.1705 -0.3964 -0.1651
  280TMC3    C4 4279   2.220   1.658   0.111  0.0955 -0.1503  0.2595
  280TMC3    C5 4280   2.232   1.699   0.240 -0.8448  0.3229  0.1935
  280TMC3    C6 4281   2.286   1.619   0.337  0.1299  0.1051  0.4329
  280TMC3     C 4282   2.303   1.516  17.668  0.3255  0.7322  0.6384
  280TMC3     O 4283   2.311   1.608  17.591  0.2321  0.0015  0.0865
  280TMC3     H 4284   2.444   1.407   0.121  0.7859  0.3837  2.4035
  280TMC3    H1 4285   2.157   1.705   0.037  1.1551 -1.0530 -1.2097
  280TMC3    H2 4286   2.298   1.642   0.442  0.6948 -1.1016  0.6432
  280TMC3    C7 4287   2.193   1.830   0.293  0.3804 -0.0009  0.5396
  280TMC3    C8 4288   2.445   1.443   0.393  0.9774 -0.3775 -0.6012
  280TMC3    O1 4289   2.182   1.844   0.412  0.2639  0.2929  0.0978
  280TMC3    O2 4290   2.474   1.494   0.502 -0.9969 -0.7334  0.1535
  281TMC3    C1 4291   0.721   1.664  13.572 -0.0186 -0.7117  0.6705
  281TMC3    C2 4292   0.842   1.704  13.526 -0.1283  0.1163  0.4317
  281TMC3    C3 4293   0.899   1.620  13.437  0.1501  0.1899 -0.5821
  281TMC3    C4 4294   0.666   1.541  13.547  0.3495  0.5296 -0.9337
  281TMC3    C5 4295   0.740   1.458  13.475 -0.1269 -0.2246  0.1528
  281TMC3    C6 4296   0.858   1.492  13.417  0.1847  0.4223 -0.1941
  281TMC3     C 4297   0.635   1.749  13.642 -0.3079  0.3580 -0.4834
  281TMC3     O 4298   0.555   1.694  13.712  0.5113  0.3251  0.2296
  281TMC3     H 4299   0.891   1.795  13.557  0.2949  0.7362 -2.0714
  281TMC3    H1 4300   0.572   1.507  13.590 -1.2815  0.8153 -4.2977
  281TMC3    H2 4301   0.912   1.437  13.341  0.5176 -0.3655  0.6167
  281TMC3    C7 4302   0.671   1.333  13.430  0.0418  0.0065 -0.5558
  281TMC3    C8 4303   1.039   1.643  13.373 -0.1410  0.3609 -0.1216
  281TMC3    O1 4304   0.551   1.350  13.419  0.3577  0.1394 -0.1326
  281TMC3    O2 4305   1.106   1.537  13.358 -0.0601 -0.2651  0.0875
  282MPD2     C 4306   3.227   2.825  14.711 -0.1897  0.0083  0.3255
  282MPD2    C1 4307   3.105   2.865  14.755  0.2361 -0.4902  1.5025
  282MPD2    C2 4308   3.001   2.864  14.664 -0.2858 -0.4879  0.6610
  282MPD2    C3 4309   3.015   2.818  14.537  0.2965  0.2012  0.5704
  282MPD2    C4 4310   3.135   2.772  14.495 -0.1531 -0.2209 -0.1122
  282MPD2    C5 4311   3.246   2.785  14.580  0.3152 -0.0340  0.3733
  282MPD2     H 4312   2.905   2.900  14.698  0.3174 -0.9791  2.8518
  282MPD2    H1 4313   3.145   2.734  14.394 -2.4658  0.6843 -0.6774
  282MPD2    H2 4314   3.305   2.819  14.785  0.5622  2.4884 -0.2896
  282MPD2    H3 4315   3.344   2.744  14.558 -0.9165 -1.3877 -2.5013
  282MPD2     N 4316   2.898   2.809  14.459 -0.1737  0.1892  0.0078
  282MPD2    H5 4317   2.823   2.872  14.486 -1.8188 -1.5530 -0.4345
  282MPD2    N1 4318   3.078   2.909  14.877 -0.3914 -0.1975  0.0521
  282MPD2    H7 4319   2.982   2.915  14.908 -0.4821  0.5002 -0.3527
  283TMC3    C1 4320   3.118   2.987  15.097 -0.7379  0.6862  0.0665
  283TMC3    C2 4321   3.183   3.096  15.159 -0.4028  0.2348  0.5132
  283TMC3    C3 4322   3.183   3.097  15.298 -0.9905 -0.1971 -0.3397
  283TMC3    C4 4323   3.073   2.880  15.166 -0.1466  0.0949  0.2029
  283TMC3    C5 4324   3.080   2.885  15.301  0.3424 -0.1594  0.4334
  283TMC3    C6 4325   3.119   2.994  15.368 -0.8141 -0.5294  0.0247
  283TMC3     C 4326   3.171   2.946  14.968 -0.2219  0.0754  0.1173
  283TMC3     O 4327   3.287   2.966  14.954 -0.3760 -0.1491 -0.0660
  283TMC3     H 4328   3.234   3.170  15.099  0.5216  1.0198  2.2664
  283TMC3    H1 4329   3.039   2.797  15.105 -1.3235  0.9004 -0.2356
  283TMC3    H2 4330   3.126   3.000  15.476  0.2323  0.7659 -0.1061
  283TMC3    C7 4331   2.987   2.804  15.366 -0.2650  0.1313 -1.0870
  283TMC3    C8 4332   3.249   3.196  15.380 -0.5719 -0.6285 -0.5756
  283TMC3    O1 4333   2.995   2.797  15.485  0.4210  0.5118 -0.0564
  283TMC3    O2 4334   3.297   3.157  15.483 -0.6224 -0.3318  0.1489
  284MPD2     C 4335   0.615   2.142  12.066  0.0656 -0.3154  0.7254
  284MPD2    C1 4336   0.742   2.199  12.077 -0.1480  0.1025  0.5466
  284MPD2    C2 4337   0.828   2.142  12.167 -0.3108  0.6025  0.0977
  284MPD2    C3 4338   0.798   2.029  12.244 -0.5915 -1.2038  0.3782
  284MPD2    C4 4339   0.674   1.966  12.228 -0.1638 -0.0598  0.5983
  284MPD2    C5 4340   0.590   2.026  12.134  0.2943 -0.2800  0.3014
  284MPD2     H 4341   0.922   2.193  12.182 -1.5169  2.4530  1.4626
  284MPD2    H1 4342   0.643   1.877  12.282  0.8954 -1.0077 -0.3587
  284MPD2    H2 4343   0.533   2.173  12.002  1.3777  4.3117  1.2973
  284MPD2    H3 4344   0.501   1.970  12.108  1.0866 -1.4343  0.0678
  284MPD2     N 4345   0.899   1.971  12.327  0.2587 -0.9537  0.2834
  284MPD2    H5 4346   0.867   1.887  12.374 -2.0581 -0.9535 -1.3065
  284MPD2    N1 4347   0.784   2.314  11.998  0.0795 -0.3950 -0.5770
  284MPD2    H7 4348   0.882   2.341  12.003  0.7521 -2.7904 -0.5671
  285TMC3    C1 4349   0.799   2.487  11.861 -1.0914  0.2248  0.6498
  285TMC3    C2 4350   0.927   2.441  11.818 -0.0925 -0.4838 -0.7000
  285TMC3    C3 4351   1.000   2.528  11.737  0.6715 -0.2705  0.5425
  285TMC3    C4 4352   0.754   2.611  11.829  0.0746  0.7703  0.6757
  285TMC3    C5 4353   0.842   2.691  11.752  0.0994 -0.0289 -0.3389
  285TMC3    C6 4354   0.966   2.656  11.708  0.1314  0.4981 -0.1612
  285TMC3     C 4355   0.712   2.398  11.937  0.2679 -0.0277 -0.0582
  285TMC3     O 4356   0.599   2.429  11.959  0.3043  0.2087 -0.2372
  285TMC3     H 4357   0.957   2.336  11.824  3.7762  0.5117 -2.2544
  285TMC3    H1 4358   0.665   2.660  11.867 -0.8943 -1.3411  1.0989
  285TMC3    H2 4359   1.030   2.733  11.665  1.3316  0.4256  1.5093
  285TMC3    C7 4360   0.805   2.831  11.726  0.1087  0.8595 -0.5422
  285TMC3    C8 4361   1.118   2.482  11.669  0.0336 -0.4643 -0.4574
  285TMC3    O1 4362   0.901   2.910  11.726 -0.0312  0.3767  0.8760
  285TMC3    O2 4363   1.179   2.387  11.714 -0.0389 -0.3044 -0.7652
  286MPD2     C 4364   1.528   1.038   1.166  0.1920 -0.4377 -0.4697
  286MPD2    C1 4365   1.522   1.043   1.024 -0.1187  0.1260  0.1337
  286MPD2    C2 4366   1.587   0.938   0.961  0.3649  0.1385 -0.7518
  286MPD2    C3 4367   1.641   0.831   1.028 -0.0369 -0.4593  0.5777
  286MPD2    C4 4368   1.634   0.824   1.174  0.0960 -0.0184 -0.0826
  286MPD2    C5 4369   1.582   0.936   1.236 -0.1333  0.4023 -0.1626
  286MPD2     H 4370   1.595   0.943   0.853  0.6442  1.7602 -0.6566
  286MPD2    H1 4371   1.677   0.751   1.241  0.0526 -0.9625 -1.0973
  286MPD2    H2 4372   1.475   1.107   1.231  1.4557 -0.3097  0.4221
  286MPD2    H3 4373   1.599   0.951   1.342  0.9961  1.5396 -0.5064
  286MPD2     N 4374   1.710   0.721   0.967  0.5196  0.5681  0.1511
  286MPD2    H5 4375   1.769   0.661   1.024  1.9346  0.8150 -1.0512
  286MPD2    N1 4376   1.469   1.150   0.946 -0.4128 -0.9396 -0.4880
  286MPD2    H7 4377   1.488   1.156   0.846  0.3119 -1.1220 -0.3597
  287TMC3    C1 4378   1.791   0.596   0.784 -0.3821  0.3016  0.3054
  287TMC3    C2 4379   1.770   0.560   0.657 -0.7259 -0.4157  0.1023
  287TMC3    C3 4380   1.869   0.480   0.603  0.5899  0.0750 -0.1622
  287TMC3    C4 4381   1.900   0.565   0.860  0.1807 -0.7862  1.1127
  287TMC3    C5 4382   1.986   0.478   0.809  0.2186  0.1192  0.3270
  287TMC3    C6 4383   1.971   0.429   0.683  0.6201 -0.3047  0.1147
  287TMC3     C 4384   1.680   0.684   0.838  0.4500  1.0063 -0.4636
  287TMC3     O 4385   1.598   0.730   0.758 -0.2558  0.2779 -0.1636
  287TMC3     H 4386   1.694   0.607   0.596 -0.2610 -0.8931 -0.8504
  287TMC3    H1 4387   1.924   0.601   0.960  0.9562  1.6160  0.0605
  287TMC3    H2 4388   2.047   0.355   0.659 -0.2558 -0.9047 -0.8191
  287TMC3    C7 4389   2.106   0.452   0.887  0.3281  0.0068 -0.2683
  287TMC3    C8 4390   1.851   0.420   0.471  0.0606 -0.5510  0.1823
  287TMC3    O1 4391   2.103   0.482   1.005 -0.5095 -0.0726  0.7102
  287TMC3    O2 4392   1.737   0.394   0.435  0.1202 -0.2995  0.5516
  288TMC3    C1 4393   3.503   0.723  14.402 -0.7507  0.2461  0.7174
  288TMC3    C2 4394   3.376   0.754  14.430  0.8169 -0.6359  0.0367
  288TMC3    C3 4395   3.336   0.879  14.418  0.8611  0.3288 -0.1010
  288TMC3    C4 4396   3.598   0.811  14.349 -0.2558 -0.1655  0.0596
  288TMC3    C5 4397   3.536   0.923  14.307  0.0498 -0.7722 -0.3951
  288TMC3    C6 4398   3.413   0.971  14.355  0.0730 -0.3613  0.0068
  288TMC3     C 4399   3.562   0.601  14.452 -0.4063 -0.7233  0.3597
  288TMC3     O 4400   3.675   0.620  14.495  0.5395  0.4725  0.5495
  288TMC3     H 4401   3.320   0.685  14.492 -0.2425 -0.1876 -0.4173
  288TMC3    H1 4402   3.698   0.776  14.330 -1.3842 -2.3588 -1.7612
  288TMC3    H2 4403   3.392   1.078  14.353  0.7685 -0.2343 -0.5494
  288TMC3    C7 4404   3.593   0.982  14.184  0.2676 -0.1613  0.2514
  288TMC3    C8 4405   3.235   0.932  14.513  0.0762  0.1196  0.0356
  288TMC3    O1 4406   3.681   0.918  14.130  0.4413 -0.3608 -0.2796
  288TMC3    O2 4407   3.246   1.048  14.542  0.1424 -0.5502 -0.1654
  289MPD2     C 4408   3.487   4.647  14.336  0.0496 -0.3521  0.4502
  289MPD2    C1 4409   3.466   0.026  14.276 -0.0240 -0.0078 -0.3788
  289MPD2    C2 4410   3.339   0.063  14.231  0.4452  0.2155 -0.1106
  289MPD2    C3 4411   3.237   4.705  14.242  0.2791  0.3359  0.1228
  289MPD2    C4 4412   3.262   4.586  14.305  0.9391  0.2210  0.0426
  289MPD2    C5 4413   3.385   4.556  14.352 -0.7544 -0.1562  0.9082
  289MPD2     H 4414   3.332   0.160  14.183  0.1854 -0.3138 -1.1284
  289MPD2    H1 4415   3.187   4.508  14.308  0.4347  0.6430 -1.3713
  289MPD2    H2 4416   3.583   4.618  14.377 -0.5191  0.7347  2.5880
  289MPD2    H3 4417   3.403   4.472  14.418 -0.0375 -1.2861 -0.7312
  289MPD2     N 4418   3.108   4.719  14.176  0.8545 -0.5762 -0.1517
  289MPD2    H5 4419   3.035   4.649  14.188  0.4503 -0.0143  0.6286
  289MPD2    N1 4420   3.583   0.109  14.254  0.8213  0.3062 -0.2681
  289MPD2    H7 4421   3.668   0.073  14.298 -0.4731 -0.3485  1.7093
  290TMC3    C1 4422   2.936   0.096  14.056 -0.4249  0.0406 -0.5738
  290TMC3    C2 4423   2.894   0.222  14.022  0.3632  0.1027  0.6972
  290TMC3    C3 4424   2.766   0.233  13.975 -0.6765  0.0644  0.6726
  290TMC3    C4 4425   2.854   4.721  14.045  0.5447 -0.2895  0.2702
  290TMC3    C5 4426   2.733   0.003  13.983  0.3837 -0.1170 -0.2263
  290TMC3    C6 4427   2.689   0.126  13.945  0.3944 -0.0081 -0.2837
  290TMC3     C 4428   3.081   0.086  14.085  0.1090  0.0543  0.2294
  290TMC3     O 4429   3.139   0.182  14.043  0.3392 -0.5097  0.5530
  290TMC3     H 4430   2.955   0.311  14.036  0.8716 -0.1661  0.1928
  290TMC3    H1 4431   2.899   4.623  14.057  1.7768 -0.0033 -2.1630
  290TMC3    H2 4432   2.588   0.142  13.909  0.7946 -1.5144 -2.0612
  290TMC3    C7 4433   2.657   4.623  13.939  0.3746 -0.0548 -0.2710
  290TMC3    C8 4434   2.701   0.361  13.963 -0.1539  0.4022  0.0243
  290TMC3    O1 4435   2.585   4.645  13.842 -0.0921  0.3018  0.5570
  290TMC3    O2 4436   2.606   0.374  13.889  0.5789 -0.0980  0.4626
  291MPD2     C 4437   2.814   0.226  17.313  0.3870  0.4131 -0.6841
  291MPD2    C1 4438   2.875   0.171  17.427  0.0293  0.0730  0.4602
  291MPD2    C2 4439   2.973   0.239  17.496 -0.3737 -0.2776 -0.6980
  291MPD2    C3 4440   3.012   0.368  17.459 -0.4395  0.4526 -0.5279
  291MPD2    C4 4441   2.945   0.429  17.361 -0.6011  0.6175  0.1863
  291MPD2    C5 4442   2.847   0.358  17.292 -0.1928  0.1746 -0.4598
  291MPD2     H 4443   3.015   0.191  17.583 -0.7417 -0.6710 -0.7386
  291MPD2    H1 4444   2.957   0.535  17.340  1.9077  0.2882  0.0163
  291MPD2    H2 4445   2.735   0.182  17.253  0.6210 -1.1207  0.1332
  291MPD2    H3 4446   2.791   0.408  17.213 -0.9450 -0.1073 -0.1003
  291MPD2     N 4447   3.096   0.452  17.536  0.2825  0.5046 -0.2030
  291MPD2    H5 4448   3.095   0.551  17.516 -0.9819  1.2238  3.4429
  291MPD2    N1 4449   2.835   0.046  17.478  0.3366  0.3028 -0.2014
  291MPD2    H7 4450   2.899   0.009  17.547 -2.0662 -0.3831  1.6860
  292TMC3    C1 4451   2.752   4.561  17.467 -0.6882  0.2838  1.0667
  292TMC3    C2 4452   2.762   4.545  17.608  0.1266 -1.1343  0.1855
  292TMC3    C3 4453   2.767   4.412  17.649  0.2731  0.9065 -0.7129
  292TMC3    C4 4454   2.729   4.456  17.380  0.7602 -0.2998  0.4204
  292TMC3    C5 4455   2.746   4.329  17.426  0.1683 -0.0148  0.6937
  292TMC3    C6 4456   2.759   4.310  17.563  0.6793  0.2485  0.8362
  292TMC3     C 4457   2.757   4.691  17.407  0.0628 -0.4428  0.4587
  292TMC3     O 4458   2.691   4.701  17.304  0.0452 -0.0161  0.1914
  292TMC3     H 4459   2.772   4.620  17.685 -0.2586 -2.3640  1.4423
  292TMC3    H1 4460   2.700   4.470  17.277  0.8796 -3.1735  0.0014
  292TMC3    H2 4461   2.753   4.209  17.602 -1.4236 -0.0590 -0.3067
  292TMC3    C7 4462   2.718   4.209  17.349  0.1251  0.1561  0.6200
  292TMC3    C8 4463   2.742   4.396   0.049  0.0133 -0.5387 -0.7634
  292TMC3    O1 4464   2.782   4.109  17.375 -0.0549  0.3431  0.1518
  292TMC3    O2 4465   2.683   4.484   0.114  0.9472  0.2151  0.0448
  293MPD2     C 4466   4.607   1.309  12.540 -0.5635  0.3719 -0.2614
  293MPD2    C1 4467   4.521   1.210  12.571 -0.6736 -0.4076  0.2770
  293MPD2    C2 4468   4.473   1.204  12.704  0.1032  0.0376  0.1329
  293MPD2    C3 4469   4.479   1.320  12.786 -0.0709  0.4651 -0.0333
  293MPD2    C4 4470   4.550   1.434  12.744  0.3651  0.9727 -0.3977
  293MPD2    C5 4471   4.621   1.414  12.626  0.5960 -0.8100 -0.0415
  293MPD2     H 4472   4.418   1.120  12.746  2.3549 -0.9803  1.0400
  293MPD2    H1 4473   4.551   1.527  12.800  1.5092  2.1481 -2.3292
  293MPD2    H2 4474   4.646   1.330  12.441  2.3846 -2.1141  0.3813
  293MPD2    H3 4475   4.683   1.495  12.588 -0.6605  0.1349 -0.0671
  293MPD2     N 4476   4.397   1.325  12.909  0.0180  0.5410  0.3117
  293MPD2    H5 4477   4.344   1.241  12.929  0.1905  0.0915 -1.0720
  293MPD2    N1 4478   4.474   1.121  12.464  0.0437 -0.1158 -0.2380
  293MPD2    H7 4479   4.501   1.150  12.371 -0.0820 -1.8185 -0.7948
  294TMC3    C1 4480   4.314   1.003  12.350  0.4251  0.1517 -0.5649
  294TMC3    C2 4481   4.181   0.969  12.339 -0.1831  1.8452 -0.3961
  294TMC3    C3 4482   4.135   0.923  12.223  0.0008  0.0081  0.1473
  294TMC3    C4 4483   4.404   0.986  12.242 -0.3722 -0.1058 -0.6847
  294TMC3    C5 4484   4.346   0.940  12.121  1.0113 -0.5464  0.4322
  294TMC3    C6 4485   4.207   0.934  12.106  0.4792  0.0126  0.3743
  294TMC3     C 4486   4.358   1.053  12.471  0.0791  0.3426  1.2060
  294TMC3     O 4487   4.284   1.034  12.571 -0.1579  0.0523  0.3777
  294TMC3     H 4488   4.127   0.962  12.433  0.6804  0.0260 -0.0312
  294TMC3    H1 4489   4.512   1.000  12.240 -0.3164 -0.4357  0.2954
  294TMC3    H2 4490   4.164   0.912  12.009 -0.4074  0.4525  0.6638
  294TMC3    C7 4491   4.439   0.922  12.010  0.3192 -0.1981 -0.0990
  294TMC3    C8 4492   4.000   0.964  12.225  0.0361  0.8420 -0.4501
  294TMC3    O1 4493   4.553   0.969  12.024  0.2738 -0.1154  0.3783
  294TMC3    O2 4494   3.976   1.076  12.272 -0.1107 -0.0265  0.2163
  295MPD2     C 4495   0.314   4.430   0.801  0.3010 -0.3527  0.0128
  295MPD2    C1 4496   0.226   4.447   0.701  0.0912 -0.5006 -0.2963
  295MPD2    C2 4497   0.089   4.436   0.730 -0.3922  0.5135 -0.2023
  295MPD2    C3 4498   0.047   4.403   0.858 -0.3642 -1.0394  0.3525
  295MPD2    C4 4499   0.134   4.372   0.954 -0.7799  0.0071  0.1381
  295MPD2    C5 4500   0.270   4.380   0.923 -0.1756  0.0127  0.2129
  295MPD2     H 4501   0.013   4.452   0.654 -2.1957 -2.4121  1.0077
  295MPD2    H1 4502   0.102   4.366   1.058 -1.5096  1.1082 -0.0267
  295MPD2    H2 4503   0.421   4.441   0.786 -0.1391  1.5196 -1.7361
  295MPD2    H3 4504   0.349   4.356   0.993 -0.6309 -2.9644 -0.2739
  295MPD2     N 4505   4.648   4.410   0.907 -0.9595  0.5492  0.4569
  295MPD2    H5 4506   4.637   4.387   1.005  0.1543  2.8951  1.1435
  295MPD2    N1 4507   0.267   4.467   0.566 -0.2090  0.4725 -0.2996
  295MPD2    H7 4508   0.196   4.474   0.493  0.2198  0.7277 -0.6950
  296TMC3    C1 4509   4.424   4.439   0.931  0.1102 -0.7824 -0.5174
  296TMC3    C2 4510   4.447   4.493   1.055 -0.0363 -0.4534  0.4629
  296TMC3    C3 4511   4.343   4.485   1.149  0.7497 -0.0532 -0.7947
  296TMC3    C4 4512   4.302   4.406   0.885  0.9034 -0.4377  0.5174
  296TMC3    C5 4513   4.195   4.411   0.969 -0.8199  0.5646 -0.5322
  296TMC3    C6 4514   4.221   4.436   1.103 -0.5836 -0.3277 -0.1848
  296TMC3     C 4515   4.540   4.442   0.837 -0.1473  0.0214  0.2224
  296TMC3     O 4516   4.521   4.446   0.718 -0.2077 -0.3683  0.0359
  296TMC3     H 4517   4.544   4.534   1.082  0.5883 -0.4968 -1.7659
  296TMC3    H1 4518   4.296   4.399   0.777  3.4110 -1.2706  0.4296
  296TMC3    H2 4519   4.134   4.456   1.165 -0.9177 -0.9054 -0.4650
  296TMC3    C7 4520   4.069   4.455   0.913  0.3019 -0.4571  0.6822
  296TMC3    C8 4521   4.335   4.600   1.238 -0.2736  0.5253 -0.3116
  296TMC3    O1 4522   4.061   4.520   0.810  0.2821  0.1224  0.2079
  296TMC3    O2 4523   4.265   4.599   1.340  0.4180  0.2682 -0.0811
  297MPD2     C 4524   2.188   1.872  16.507 -0.0454  0.3081  0.6110
  297MPD2    C1 4525   2.176   1.916  16.375  0.6484  0.1095 -0.3781
  297MPD2    C2 4526   2.291   1.965  16.317 -0.5265  0.1413 -0.3738
  297MPD2    C3 4527   2.412   1.980  16.383  0.9819 -0.0830 -0.5124
  297MPD2    C4 4528   2.415   1.947  16.517  0.0058 -0.3977  0.2101
  297MPD2    C5 4529   2.310   1.890  16.573  0.1356 -0.1309  0.4044
  297MPD2     H 4530   2.275   2.006  16.218 -1.0658  1.4846  0.2652
  297MPD2    H1 4531   2.503   1.965  16.579 -1.1609 -1.5290  2.1972
  297MPD2    H2 4532   2.099   1.832  16.554 -0.1089  4.0562  3.6682
  297MPD2    H3 4533   2.323   1.842  16.670  0.3129  0.5127  0.7007
  297MPD2     N 4534   2.520   2.051  16.313  0.2088  0.7229  0.0772
  297MPD2    H5 4535   2.521   2.058  16.212 -1.0197  1.2194  0.0996
  297MPD2    N1 4536   2.055   1.926  16.308  0.4797 -0.3482  0.2207
  297MPD2    H7 4537   2.051   1.949  16.209 -1.3328 -1.9656 -0.0941
  298TMC3    C1 4538   1.823   1.899  16.268 -0.2233 -0.1074  0.5734
  298TMC3    C2 4539   1.855   1.881  16.137  0.1967 -0.0010  0.2573
  298TMC3    C3 4540   1.769   1.946  16.051 -1.0083  0.0363 -0.1482
  298TMC3    C4 4541   1.725   1.987  16.309  0.2103 -0.3679 -0.0060
  298TMC3    C5 4542   1.651   2.051  16.220  0.5926  0.2774  0.5254
  298TMC3    C6 4543   1.674   2.039  16.086  0.1798  0.7072  0.8969
  298TMC3     C 4544   1.933   1.885  16.362  0.0547  0.2553  0.4877
  298TMC3     O 4545   1.897   1.849  16.475  0.4713  0.7047  0.8576
  298TMC3     H 4546   1.932   1.810  16.109 -1.0149 -0.9539 -0.6858
  298TMC3    H1 4547   1.704   1.986  16.415 -0.0068  1.2620 -0.0246
  298TMC3    H2 4548   1.624   2.102  16.013  0.1413  0.2420  0.5171
  298TMC3    C7 4549   1.565   2.158  16.275 -0.5084 -0.1308 -0.2512
  298TMC3    C8 4550   1.793   1.924  15.914  0.0114 -0.2513 -0.5520
  298TMC3    O1 4551   1.576   2.193  16.391  0.0811  0.0268  0.9681
  298TMC3    O2 4552   1.893   1.865  15.878 -0.4866  0.0963 -0.0706
  299MPD2     C 4553   2.545   2.254  10.473  0.5719  0.1357  0.7946
  299MPD2    C1 4554   2.524   2.148  10.564  0.1347  0.4040  0.2067
  299MPD2    C2 4555   2.429   2.052  10.529 -0.2379  1.2102 -0.0621
  299MPD2    C3 4556   2.355   2.065  10.415  0.2408  0.7576 -0.2498
  299MPD2    C4 4557   2.388   2.163  10.328  0.6964 -0.9365 -0.1925
  299MPD2    C5 4558   2.480   2.259  10.354 -0.1649 -1.0540  0.0392
  299MPD2     H 4559   2.418   1.955  10.576 -1.7700  1.5506  0.2848
  299MPD2    H1 4560   2.340   2.178  10.232 -1.5477 -2.4929  0.6790
  299MPD2    H2 4561   2.615   2.332  10.498 -0.5812  1.5362 -0.3168
  299MPD2    H3 4562   2.506   2.335  10.281 -0.9008 -1.5426 -0.7459
  299MPD2     N 4563   2.246   1.981  10.375  0.1008 -0.3534  0.3277
  299MPD2    H5 4564   2.207   1.999  10.284 -0.0138  2.4025  0.9248
  299MPD2    N1 4565   2.614   2.130  10.672  0.2949 -0.3748 -0.4583
  299MPD2    H7 4566   2.686   2.199  10.691 -0.5787  0.3987  0.0875
  300TMC3    C1 4567   2.087   1.811  10.382  0.1100 -0.2714 -0.2641
  300TMC3    C2 4568   2.033   1.855  10.268 -0.5682 -0.0282 -0.7032
  300TMC3    C3 4569   1.908   1.818  10.230 -0.2837  0.4027  0.4622
  300TMC3    C4 4570   2.007   1.739  10.474 -0.4889  0.6938 -0.2652
  300TMC3    C5 4571   1.881   1.705  10.436  0.0202 -0.2769 -0.1181
  300TMC3    C6 4572   1.830   1.746  10.314  0.2011 -0.0417  0.3369
  300TMC3     C 4573   2.193   1.883  10.451 -0.1562  0.1841  0.0511
  300TMC3     O 4574   2.219   1.856  10.569 -0.0211  0.2171  0.3068
  300TMC3     H 4575   2.086   1.908  10.189 -0.0363  0.6651  0.1194
  300TMC3    H1 4576   2.056   1.703  10.564  0.2194  1.1541 -0.4620
  300TMC3    H2 4577   1.727   1.716  10.298  0.3199  0.3781 -1.1862
  300TMC3    C7 4578   1.800   1.616  10.524 -0.1138 -0.3171  0.2235
  300TMC3    C8 4579   1.844   1.925  10.153  0.0349  0.3603  0.3431
  300TMC3    O1 4580   1.728   1.535  10.462  0.1167  0.5450 -0.5428
  300TMC3    O2 4581   1.898   2.033  10.154  0.7654  0.3445  0.0617
  301MPD2     C 4582   0.095   3.013   0.814 -0.1638 -0.0825  0.1145
  301MPD2    C1 4583   4.729   2.995   0.722 -0.1675  0.0622  0.3339
  301MPD2    C2 4584   4.706   2.875   0.672  0.0236 -0.2869 -0.4248
  301MPD2    C3 4585   0.045   2.767   0.720 -0.1120 -0.1758  0.4950
  301MPD2    C4 4586   0.139   2.782   0.815 -0.4772  0.2272 -0.8171
  301MPD2    C5 4587   0.170   2.909   0.862  0.0156  0.1921  1.1380
  301MPD2     H 4588   4.627   2.855   0.601 -0.3836  1.5468 -0.4886
  301MPD2    H1 4589   0.206   2.700   0.839  0.4068  0.9816 -0.6906
  301MPD2    H2 4590   0.115   3.109   0.859 -1.1800  0.2305 -0.1011
  301MPD2    H3 4591   0.256   2.922   0.926  2.0880 -0.2705 -1.5247
  301MPD2     N 4592   0.030   2.627   0.672 -0.4634 -0.0082 -0.9464
  301MPD2    H5 4593   0.088   2.556   0.715  2.6233  1.8148 -2.0917
  301MPD2    N1 4594   4.640   3.095   0.678  0.0678  0.5644 -0.3144
  301MPD2    H7 4595   4.569   3.054   0.618  0.0997  0.6074 -0.3816
  302TMC3    C1 4596   4.692   2.443   0.545 -1.1672 -0.2474 -0.0915
  302TMC3    C2 4597   0.052   2.377   0.625 -0.5805 -0.2097 -0.0774
  302TMC3    C3 4598   0.033   2.247   0.657 -1.2815 -0.5886  0.0499
  302TMC3    C4 4599   4.582   2.382   0.515 -0.5570  0.4584  0.1572
  302TMC3    C5 4600   4.578   2.243   0.536  0.4387  0.5738 -0.1259
  302TMC3    C6 4601   4.667   2.177   0.616  1.0957 -0.3615  0.2137
  302TMC3     C 4602   4.684   2.580   0.566 -0.2959  0.6579 -0.2449
  302TMC3     O 4603   4.600   2.642   0.505  0.0346  0.2043  0.0174
  302TMC3     H 4604   0.152   2.419   0.629 -0.4300 -0.7248  1.7064
  302TMC3    H1 4605   4.505   2.431   0.457  0.6191  0.9648 -0.9620
  302TMC3    H2 4606   4.665   2.071   0.637 -0.0811 -0.4184 -0.2024
  302TMC3    C7 4607   4.456   2.157   0.511  0.0049  0.1863  0.7023
  302TMC3    C8 4608   0.149   2.170   0.695  0.4659  0.1504  0.3851
  302TMC3    O1 4609   4.458   2.033   0.527  0.0646 -0.9823  0.0399
  302TMC3    O2 4610   0.158   2.054   0.656 -0.5864 -0.4700  0.4596
  303MPD2     C 4611   0.258   0.781  11.365  0.4423  0.0837  0.1436
  303MPD2    C1 4612   0.190   0.771  11.244 -0.2141  0.1446 -0.6306
  303MPD2    C2 4613   0.190   0.883  11.154 -0.0927  0.2937  0.3271
  303MPD2    C3 4614   0.249   1.005  11.179 -0.0139  0.0692  0.1746
  303MPD2    C4 4615   0.315   1.008  11.301  0.2497 -0.2473 -0.1331
  303MPD2    C5 4616   0.318   0.901  11.386 -0.4508 -0.8694  0.3607
  303MPD2     H 4617   0.135   0.870  11.062 -0.2240  1.1330  0.2927
  303MPD2    H1 4618   0.389   1.085  11.319 -1.6771  1.1365  1.8600
  303MPD2    H2 4619   0.273   0.701  11.437 -0.4121 -0.7644 -0.6318
  303MPD2    H3 4620   0.372   0.894  11.480 -2.0844  0.0970  1.3673
  303MPD2     N 4621   0.255   1.111  11.083 -0.0369 -0.9694  0.8184
  303MPD2    H5 4622   0.302   1.190  11.126  0.8655 -0.6635 -0.7427
  303MPD2    N1 4623   0.129   0.649  11.224 -0.2403  0.1327 -0.0587
  303MPD2    H7 4624   0.151   0.576  11.292 -0.2066 -0.5616 -0.8044
  304TMC3    C1 4625   4.713   0.489  11.135  0.0815 -0.1028 -0.8140
  304TMC3    C2 4626   4.579   0.487  11.103 -0.4682 -0.3304 -0.1532
  304TMC3    C3 4627   4.535   0.368  11.059  0.0084 -0.5120 -0.2553
  304TMC3    C4 4628   0.062   0.386  11.098 -1.0146 -0.4662  0.2473
  304TMC3    C5 4629   0.015   0.269  11.049 -0.2803  0.5660 -0.2349
  304TMC3    C6 4630   4.614   0.262  11.029  0.2121 -0.4177 -0.3552
  304TMC3     C 4631   0.034   0.630  11.131  0.0071  0.5171 -0.4188
  304TMC3     O 4632   4.726   0.707  11.045 -0.5921 -0.4615  0.5754
  304TMC3     H 4633   4.512   0.571  11.112 -2.5728 -2.2712  2.3186
  304TMC3    H1 4634   0.169   0.405  11.103 -0.9909 -0.8616  1.0770
  304TMC3    H2 4635   4.565   0.173  10.993 -2.7259  1.4395 -0.9287
  304TMC3    C7 4636   0.089   0.216  10.943 -0.2473 -0.8959  0.1987
  304TMC3    C8 4637   4.449   0.395  10.940  0.3743  0.6857  0.0643
  304TMC3    O1 4638   0.207   0.185  10.960 -0.0792 -0.6761 -0.1687
  304TMC3    O2 4639   4.471   0.321  10.846  0.3567  0.4238  0.9211
  305MPD2     C 4640   2.760   3.223  14.077  0.3047 -0.3500 -0.1305
  305MPD2    C1 4641   2.852   3.116  14.069  0.4542 -0.7565  0.2505
  305MPD2    C2 4642   2.837   3.031  13.960  0.7559  0.4746  0.6624
  305MPD2    C3 4643   2.740   3.045  13.863 -0.5976  0.6068  0.1803
  305MPD2    C4 4644   2.651   3.150  13.879  0.4472  0.4567  0.0992
  305MPD2    C5 4645   2.660   3.234  13.988  0.1622 -0.0465 -0.2187
  305MPD2     H 4646   2.889   2.936  13.953 -3.0189 -1.3095 -3.4734
  305MPD2    H1 4647   2.578   3.175  13.803  2.0943 -1.3012 -2.0369
  305MPD2    H2 4648   2.763   3.289  14.163 -0.7619 -1.5474  0.8314
  305MPD2    H3 4649   2.591   3.315  14.008 -2.3318 -2.1642 -0.3375
  305MPD2     N 4650   2.718   2.955  13.751  0.4016 -0.0023 -0.4408
  305MPD2    H5 4651   2.636   2.966  13.691  0.8761  6.5649  0.0764
  305MPD2    N1 4652   2.959   3.119  14.163 -0.2385 -0.0156  0.1251
  305MPD2    H7 4653   2.951   3.195  14.229 -0.6642  1.1444 -1.2508
  306TMC3    C1 4654   3.162   3.059  14.272  0.3413  0.3642  0.1013
  306TMC3    C2 4655   3.291   3.041  14.244  0.1879 -0.0273  0.2738
  306TMC3    C3 4656   3.380   3.073  14.346  0.7339 -0.8707 -0.2249
  306TMC3    C4 4657   3.116   3.108  14.396 -0.5061 -0.3269 -0.4323
  306TMC3    C5 4658   3.211   3.132  14.496 -0.2580 -0.9639 -0.3906
  306TMC3    C6 4659   3.343   3.123  14.467  0.1201  0.2567  0.0298
  306TMC3     C 4660   3.070   3.041  14.161  0.9472  0.2494  0.5374
  306TMC3     O 4661   3.106   2.967  14.072  0.3629 -0.0532 -0.2288
  306TMC3     H 4662   3.330   3.005  14.149  0.4066  1.2758 -0.1395
  306TMC3    H1 4663   3.010   3.115  14.419 -0.3941 -0.2750  0.0702
  306TMC3    H2 4664   3.423   3.160  14.530 -0.3089 -0.0297  0.7449
  306TMC3    C7 4665   3.165   3.219  14.609 -0.4825 -0.1023 -0.2750
  306TMC3    C8 4666   3.511   3.024  14.327 -0.3092 -0.1131  0.1855
  306TMC3    O1 4667   3.058   3.281  14.596  0.1194 -0.5611  0.7780
  306TMC3    O2 4668   3.553   3.007  14.211 -0.6682  0.2827  0.0712
  307MPD2     C 4669   1.099   1.624  17.403 -0.0861  0.4024 -0.1257
  307MPD2    C1 4670   1.093   1.755  17.456 -0.4996  0.6116  0.3041
  307MPD2    C2 4671   1.065   1.776  17.589  0.0972  0.2472  0.6356
  307MPD2    C3 4672   1.021   1.669  17.665 -0.5043 -0.0963 -0.6107
  307MPD2    C4 4673   0.991   1.550  17.605  0.7600  0.5502 -0.7229
  307MPD2    C5 4674   1.037   1.528  17.476 -0.0757  0.2139 -0.1063
  307MPD2     H 4675   1.082   1.874  17.634 -0.9313  1.2983 -1.2471
  307MPD2    H1 4676   0.949   1.465  17.657 -2.6737  1.9230 -1.2788
  307MPD2    H2 4677   1.136   1.599  17.304 -0.4533  1.1930 -0.4606
  307MPD2    H3 4678   1.030   1.432  17.427 -3.1044  0.4321 -0.1335
  307MPD2     N 4679   0.990   1.677   0.058  0.5459  0.3447 -0.2169
  307MPD2    H5 4680   0.944   1.595   0.095  1.8633 -0.3382 -0.0806
  307MPD2    N1 4681   1.129   1.874  17.389 -0.9095 -0.8054  0.8465
  307MPD2    H7 4682   1.139   1.957  17.446 -0.7668 -0.7388  0.7259
  308TMC3    C1 4683   0.746   1.659   0.348  0.0074  0.4072  0.1917
  308TMC3    C2 4684   0.725   1.764   0.434  0.0932 -0.0361 -0.3786
  308TMC3    C3 4685   0.800   1.876   0.415  0.1519 -0.3231  0.4068
  308TMC3    C4 4686   0.857   1.651   0.274 -0.6060 -0.4813  0.8173
  308TMC3    C5 4687   0.935   1.762   0.255  0.4467  0.0344 -0.0812
  308TMC3    C6 4688   0.903   1.881   0.319  0.4197 -0.0905 -0.1868
  308TMC3     C 4689   0.673   1.539   0.363  0.1198  0.5466  0.1127
  308TMC3     O 4690   0.727   1.428   0.343 -0.3825  0.4853 -0.1700
  308TMC3     H 4691   0.644   1.764   0.506  1.9083  1.2197  1.6646
  308TMC3    H1 4692   0.880   1.564   0.213 -1.3540 -0.6528  0.7746
  308TMC3    H2 4693   0.972   1.963   0.305 -1.3714  1.2762 -1.0175
  308TMC3    C7 4694   1.028   1.768   0.143  0.1343 -0.4553 -0.0121
  308TMC3    C8 4695   0.782   1.990   0.499 -0.1446 -0.4784 -0.2775
  308TMC3    O1 4696   1.105   1.862   0.137 -0.0951 -0.4719  0.3345
  308TMC3    O2 4697   0.713   1.969   0.595 -0.7531  0.1286 -0.2297
  309MPD2     C 4698   0.030   1.516  17.151  0.1069 -0.3619 -0.4918
  309MPD2    C1 4699   4.711   1.621  17.079 -0.5829  0.0441 -0.1526
  309MPD2    C2 4700   4.603   1.682  17.132 -0.7466 -0.4277 -0.2150
  309MPD2    C3 4701   4.541   1.649  17.246 -0.0599  0.8139 -0.4741
  309MPD2    C4 4702   4.581   1.531  17.310 -1.4446  0.7642  0.5382
  309MPD2    C5 4703   4.699   1.473  17.265 -1.0343 -0.6764  0.1966
  309MPD2     H 4704   4.577   1.774  17.082  0.7042  1.2648  2.1277
  309MPD2    H1 4705   4.525   1.500  17.397  0.4145 -0.8198  1.1584
  309MPD2    H2 4706   0.113   1.457  17.113  1.2606  2.4510 -2.4204
  309MPD2    H3 4707   4.725   1.382  17.317  1.6721 -0.2665 -0.4411
  309MPD2     N 4708   4.443   1.724  17.308 -0.1270  0.1915  0.4570
  309MPD2    H5 4709   4.405   1.687  17.395 -0.7483  0.7101  0.4114
  309MPD2    N1 4710   0.031   1.669  16.952 -0.3225  0.5651 -0.1927
  309MPD2    H7 4711   4.724   1.751  16.909  0.7768  1.3491  0.2315
  310TMC3    C1 4712   0.192   1.694  16.783 -0.2371  0.5506  0.5947
  310TMC3    C2 4713   0.099   1.767  16.713 -0.7421  0.7599 -0.0275
  310TMC3    C3 4714   0.137   1.814  16.588  0.4090 -0.7953  0.7857
  310TMC3    C4 4715   0.319   1.668  16.741 -0.1674  0.0288  0.0694
  310TMC3    C5 4716   0.352   1.717  16.619  0.6369  0.2149 -0.0838
  310TMC3    C6 4717   0.262   1.789  16.538 -0.1426 -0.9142 -0.1432
  310TMC3     C 4718   0.152   1.626  16.900  0.5891 -0.6817 -0.3929
  310TMC3     O 4719   0.228   1.541  16.948  0.0022 -0.3102  1.0946
  310TMC3     H 4720   4.728   1.769  16.737 -0.5917 -1.8157  0.8884
  310TMC3    H1 4721   0.379   1.589  16.783  2.9892  3.1433  1.3953
  310TMC3    H2 4722   0.287   1.838  16.444 -0.0152 -2.5510 -0.9754
  310TMC3    C7 4723   0.478   1.685  16.559  0.4732  0.6632 -0.2382
  310TMC3    C8 4724   0.038   1.859  16.489  0.5622  0.7243 -0.3536
  310TMC3    O1 4725   0.547   1.595  16.607  0.1718 -0.3274  0.7236
  310TMC3    O2 4726   0.058   1.844  16.372 -0.1276  0.0287 -0.0409
  311MPD2     C 4727   1.918   2.993  12.402 -0.1733  0.2402 -0.0360
  311MPD2    C1 4728   1.957   2.948  12.529 -0.6283  0.0369 -0.2613
  311MPD2    C2 4729   1.853   2.917  12.618 -0.3401  1.1801 -0.4339
  311MPD2    C3 4730   1.719   2.914  12.583 -0.0572  0.2976 -0.2843
  311MPD2    C4 4731   1.685   2.975  12.464 -0.4738  0.0154 -0.3175
  311MPD2    C5 4732   1.782   3.010  12.373  0.2816  0.0086  0.0323
  311MPD2     H 4733   1.873   2.893  12.722 -0.7688  3.1637  0.1172
  311MPD2    H1 4734   1.585   2.989  12.424 -1.7014 -2.6970  1.7806
  311MPD2    H2 4735   1.984   3.013  12.319 -0.5796 -1.0084 -0.6759
  311MPD2    H3 4736   1.760   3.043  12.272 -1.1553  3.1245  1.3748
  311MPD2     N 4737   1.618   2.869  12.675 -0.5104  0.0706  0.4313
  311MPD2    H5 4738   1.643   2.830  12.765 -1.4776  0.6608  0.9530
  311MPD2    N1 4739   2.086   2.960  12.568 -0.2104 -0.2833  0.2401
  311MPD2    H7 4740   2.108   2.930  12.662 -0.4103 -3.3756 -0.6828
  312TMC3    C1 4741   1.390   2.814  12.743  0.1757  0.0541 -0.5701
  312TMC3    C2 4742   1.266   2.773  12.699 -0.3379 -0.0167 -0.3390
  312TMC3    C3 4743   1.188   2.729  12.803  0.2279  1.2622 -0.8154
  312TMC3    C4 4744   1.427   2.839  12.870  0.2413  0.0747 -0.1340
  312TMC3    C5 4745   1.335   2.801  12.963 -0.8803  0.7530 -0.0121
  312TMC3    C6 4746   1.217   2.736  12.937 -0.3365 -0.4317 -0.5012
  312TMC3     C 4747   1.482   2.859  12.638 -0.2779 -0.1559 -0.1541
  312TMC3     O 4748   1.428   2.880  12.528 -0.8882  0.3708 -0.1263
  312TMC3     H 4749   1.250   2.736  12.599  1.6786 -0.8132 -0.3690
  312TMC3    H1 4750   1.514   2.896  12.902 -0.9310  2.4051 -1.1201
  312TMC3    H2 4751   1.146   2.722  13.017  0.1528  1.6280  0.3143
  312TMC3    C7 4752   1.366   2.834  13.101  0.7434 -0.9587  1.6126
  312TMC3    C8 4753   1.049   2.715  12.773 -0.3899 -0.1441 -0.3636
  312TMC3    O1 4754   1.482   2.810  13.141 -0.2414 -0.3920 -0.0967
  312TMC3    O2 4755   0.979   2.659  12.855  0.6233 -0.2378  0.2175
  313MPD2     C 4756   0.573   2.641  11.398 -0.0928 -0.1794  0.5250
  313MPD2    C1 4757   0.691   2.656  11.332  0.1407 -0.3627  0.5059
  313MPD2    C2 4758   0.792   2.565  11.346 -0.3065  0.1954  0.1109
  313MPD2    C3 4759   0.774   2.453  11.430 -0.3429 -0.0318 -0.1934
  313MPD2    C4 4760   0.655   2.434  11.497  0.2608 -0.1596  0.8793
  313MPD2    C5 4761   0.563   2.533  11.488  0.4155  0.3546  0.3136
  313MPD2     H 4762   0.884   2.572  11.288  0.0343  0.1271  0.6471
  313MPD2    H1 4763   0.639   2.361  11.576  0.4613 -1.1850 -0.0243
  313MPD2    H2 4764   0.490   2.706  11.374  0.2910  0.3827  0.6921
  313MPD2    H3 4765   0.473   2.512  11.545  0.4179  1.7203  0.8295
  313MPD2     N 4766   0.878   2.361  11.433 -0.3196  0.2904  0.4920
  313MPD2    H5 4767   0.952   2.384  11.368 -0.9188 -3.4152 -1.4525
  313MPD2    N1 4768   0.718   2.754  11.231 -0.1746  0.4159 -0.7419
  313MPD2    H7 4769   0.803   2.740  11.178 -1.0615  1.5735 -2.4768
  314TMC3    C1 4770   0.697   2.930  11.070  0.0198 -0.5017 -0.3478
  314TMC3    C2 4771   0.836   2.947  11.071  0.4904 -0.0564  0.7456
  314TMC3    C3 4772   0.882   2.989  10.946  0.1323  0.9556 -0.4433
  314TMC3    C4 4773   0.620   2.962  10.958  0.4022 -0.3061  0.0927
  314TMC3    C5 4774   0.674   3.008  10.846  0.0760  0.1384  0.3766
  314TMC3    C6 4775   0.810   3.027  10.841  0.5751 -0.3301  0.0448
  314TMC3     C 4776   0.636   2.851  11.175  0.2000  0.2121  0.2408
  314TMC3     O 4777   0.519   2.870  11.196 -0.3274  0.0467 -0.6790
  314TMC3     H 4778   0.891   2.941  11.164  1.0002  0.5065  0.4783
  314TMC3    H1 4779   0.514   2.941  10.961  0.6595 -1.9358 -2.1809
  314TMC3    H2 4780   0.867   3.054  10.753 -1.2511  3.0916 -0.0571
  314TMC3    C7 4781   0.591   3.001  10.733 -1.3176  0.2531 -0.1230
  314TMC3    C8 4782   1.026   3.010  10.930  0.1098  0.4694  0.6220
  314TMC3    O1 4783   0.473   3.006  10.755  0.8698 -0.1182  0.3049
  314TMC3    O2 4784   1.067   3.098  10.857  0.3072  0.1358 -0.2086
  315MPD2     C 4785   1.515   1.808  17.043  0.3364  0.6873  0.8086
  315MPD2    C1 4786   1.520   1.803  17.174  0.1939  0.6281  0.7490
  315MPD2    C2 4787   1.578   1.909  17.240 -0.3300  0.9312 -0.0896
  315MPD2    C3 4788   1.639   2.014  17.176 -0.7419  1.0952  1.1212
  315MPD2    C4 4789   1.626   2.020  17.041 -0.0714 -0.4678  0.6489
  315MPD2    C5 4790   1.565   1.918  16.979  0.6132 -0.5168  0.9746
  315MPD2     H 4791   1.575   1.903  17.348 -2.1190  0.3105 -0.1691
  315MPD2    H1 4792   1.674   2.095  16.979  1.5696 -3.9633 -2.3333
  315MPD2    H2 4793   1.477   1.728  16.980 -3.7364  2.7153  0.6785
  315MPD2    H3 4794   1.570   1.917  16.871 -1.3402 -3.6266  0.9165
  315MPD2     N 4795   1.702   2.113  17.251 -0.3649 -0.1286  1.0196
  315MPD2    H5 4796   1.712   2.094  17.351 -2.3988 -0.6582  1.1202
  315MPD2    N1 4797   1.472   1.696  17.250 -0.0118  0.2827 -0.3036
  315MPD2    H7 4798   1.499   1.693  17.348 -1.8368 -1.3989  0.1473
  316TMC3    C1 4799   1.778   2.333  17.310  0.4100 -0.1656 -0.2769
  316TMC3    C2 4800   1.820   2.296  17.438 -0.6645  0.1363 -0.3910
  316TMC3    C3 4801   1.842   2.399  17.527  0.1935 -0.4387  0.0101
  316TMC3    C4 4802   1.761   2.464  17.273  0.5061  0.3708 -0.8808
  316TMC3    C5 4803   1.767   2.558  17.369 -0.1298  0.4984 -0.3166
  316TMC3    C6 4804   1.809   2.526  17.493  0.2865  0.6053 -0.5650
  316TMC3     C 4805   1.761   2.232  17.207 -0.2807 -0.4086 -0.6519
  316TMC3     O 4806   1.760   2.273  17.091 -0.0867  1.0173 -0.0161
  316TMC3     H 4807   1.854   2.198  17.467  0.3165  0.4058 -0.6269
  316TMC3    H1 4808   1.739   2.480  17.168  0.4094  0.7430 -0.8040
  316TMC3    H2 4809   1.818   2.599  17.573  1.0861 -1.5016  1.2434
  316TMC3    C7 4810   1.776   2.700  17.339  0.0181  0.0206 -0.1020
  316TMC3    C8 4811   1.854   2.381  17.669  0.5094  0.1164  0.1103
  316TMC3    O1 4812   1.814   2.777  17.425 -0.3678 -0.1320 -0.6857
  316TMC3    O2 4813   1.830   2.471   0.008  0.4475  0.3137 -0.3043
  317MPD2     C 4814   3.122   0.175  12.986 -0.4547 -0.1279  0.4372
  317MPD2    C1 4815   3.233   0.089  12.961  0.7699 -0.3979 -0.1959
  317MPD2    C2 4816   3.299   0.045  13.076 -0.5438 -0.2099  0.2324
  317MPD2    C3 4817   3.246   0.056  13.208 -0.7926  0.2532  0.0642
  317MPD2    C4 4818   3.123   0.117  13.218 -0.6157 -0.2274 -0.2485
  317MPD2    C5 4819   3.068   0.174  13.103 -0.3176 -0.3786  0.0312
  317MPD2     H 4820   3.380   4.713  13.053 -0.3781  0.2182 -0.4266
  317MPD2    H1 4821   3.071   0.138  13.311  2.3428  0.3476  1.2736
  317MPD2    H2 4822   3.049   0.210  12.915 -1.0193  1.6162  1.8870
  317MPD2    H3 4823   2.972   0.224  13.110 -0.5397 -1.1554  2.4620
  317MPD2     N 4824   3.313   0.013  13.324 -0.0237 -0.1938  0.3468
  317MPD2    H5 4825   3.404   4.704  13.314 -0.1548 -0.3166 -0.3408
  317MPD2    N1 4826   3.272   0.041  12.834  0.1631  0.2119  0.1895
  317MPD2    H7 4827   3.350   4.710  12.836  0.4194  0.5179  0.2341
  318TMC3    C1 4828   3.318   4.603  13.503  0.2223  0.4064  0.1002
  318TMC3    C2 4829   3.248   4.482  13.497  1.3361  0.1625  0.0573
  318TMC3    C3 4830   3.311   4.374  13.548  0.5521  0.1010 -0.4571
  318TMC3    C4 4831   3.450   4.618  13.524 -0.2670 -0.4812 -0.6215
  318TMC3    C5 4832   3.506   4.503  13.571  0.2899 -0.9899 -0.0600
  318TMC3    C6 4833   3.443   4.382  13.589 -0.5906 -0.3092  0.2220
  318TMC3     C 4834   3.254   4.717  13.441 -0.4067  0.5490  0.9199
  318TMC3     O 4835   3.141   0.012  13.477  0.4705 -0.4073  0.7448
  318TMC3     H 4836   3.145   4.492  13.464  2.0684 -1.7202 -2.7283
  318TMC3    H1 4837   3.491   4.717  13.537 -0.5928 -0.0872 -2.5646
  318TMC3    H2 4838   3.497   4.294  13.623  0.2522 -0.1378 -0.6712
  318TMC3    C7 4839   3.648   4.528  13.579 -0.4705  0.2339  0.0049
  318TMC3    C8 4840   3.234   4.249  13.572 -0.4562  0.0589  0.4771
  318TMC3    O1 4841   3.695   4.623  13.518 -0.4277 -0.0048  0.3800
  318TMC3    O2 4842   3.291   4.168  13.648 -0.1425  0.6667  0.4774
  319MPD2     C 4843   4.317   1.358  16.576 -0.2592 -0.3540  0.2936
  319MPD2    C1 4844   4.281   1.247  16.654  0.1990 -0.6569 -0.4233
  319MPD2    C2 4845   4.208   1.152  16.594 -0.2636  0.0989  0.2518
  319MPD2    C3 4846   4.167   1.156  16.460  0.5565  0.0451 -0.3609
  319MPD2    C4 4847   4.216   1.264  16.384  0.2713 -0.0016 -0.0153
  319MPD2    C5 4848   4.284   1.367  16.450  0.2513 -0.6138  0.8252
  319MPD2     H 4849   4.171   1.070  16.654 -2.7317  1.1039  0.1011
  319MPD2    H1 4850   4.206   1.266  16.276 -1.1421 -3.1712  0.0654
  319MPD2    H2 4851   4.384   1.432  16.619  0.6359 -0.3746 -1.0853
  319MPD2    H3 4852   4.317   1.451  16.390 -1.7224  0.0524  0.6876
  319MPD2     N 4853   4.075   1.072  16.387  0.1429  0.0376 -0.5220
  319MPD2    H5 4854   4.054   1.093  16.290 -1.7993 -0.5261 -0.2379
  319MPD2    N1 4855   4.305   1.225  16.795 -0.0337  0.0032 -0.8251
  319MPD2    H7 4856   4.282   1.132  16.831 -0.9535  0.8431  0.7811
  320TMC3    C1 4857   3.934   0.886  16.331 -0.3185 -0.0506  0.0533
  320TMC3    C2 4858   3.863   0.966  16.246 -0.3980  0.2593  0.1256
  320TMC3    C3 4859   3.792   0.898  16.146  0.3258 -0.0050 -0.3992
  320TMC3    C4 4860   3.920   0.754  16.335 -0.1504 -0.2759  0.3835
  320TMC3    C5 4861   3.848   0.691  16.236  0.4468  0.6366  0.0237
  320TMC3    C6 4862   3.785   0.761  16.139  0.5291  0.5073 -0.2149
  320TMC3     C 4863   4.017   0.957  16.431 -0.3414 -0.3074 -0.3120
  320TMC3     O 4864   4.042   0.896  16.532  0.3479 -0.2655 -0.6828
  320TMC3     H 4865   3.829   1.066  16.270 -0.1030 -0.1896  2.5008
  320TMC3    H1 4866   3.980   0.694  16.403 -1.6694 -0.3722  1.6420
  320TMC3    H2 4867   3.721   0.713  16.066  0.4165 -0.2314  0.3641
  320TMC3    C7 4868   3.857   0.543  16.213  1.4847 -0.2574 -0.4292
  320TMC3    C8 4869   3.719   0.980  16.057 -0.1719 -0.0985 -0.8765
  320TMC3    O1 4870   3.831   0.498  16.104  0.2120 -0.1319  0.7656
  320TMC3    O2 4871   3.688   1.087  16.109 -0.1508  0.4029 -0.2284
  321TMC3    C1 4872   4.345   1.263  17.015  0.2871  0.1681 -0.5543
  321TMC3    C2 4873   4.303   1.137  17.029 -0.4231  0.4179  0.0826
  321TMC3    C3 4874   4.212   1.108  17.130  0.4198  0.5645 -0.0430
  321TMC3    C4 4875   4.316   1.360  17.109  0.6406 -0.3821  0.4487
  321TMC3    C5 4876   4.233   1.325  17.208  0.4145 -0.2587 -0.7028
  321TMC3    C6 4877   4.170   1.201  17.220 -0.3798  0.4433  0.5550
  321TMC3     C 4878   4.351   1.314  16.879 -0.4661 -1.1063  0.3595
  321TMC3     O 4879   4.343   1.438  16.860  0.7096 -0.4646 -0.4308
  321TMC3     H 4880   4.335   1.052  16.971  1.1585  1.9819 -1.3295
  321TMC3    H1 4881   4.359   1.459  17.098 -0.8236 -0.0412 -2.3254
  321TMC3    H2 4882   4.098   1.172  17.296 -0.5824 -0.3996  0.0319
  321TMC3    C7 4883   4.265   1.378  17.339  0.1322  0.0033  0.3234
  321TMC3    C8 4884   4.246   0.992  17.209  0.4198 -0.0530 -0.2004
  321TMC3    O1 4885   4.279   1.501  17.359 -0.1889 -0.0299  0.1776
  321TMC3    O2 4886   4.268   1.016  17.327  0.3456  0.2412  0.1585
  322MPD2     C 4887   2.807   2.387  13.543  0.3797  0.0212  0.3300
  322MPD2    C1 4888   2.866   2.316  13.645 -0.1938  1.2190 -0.0180
  322MPD2    C2 4889   2.865   2.176  13.644  0.2376 -0.6246  0.2558
  322MPD2    C3 4890   2.820   2.106  13.534  0.1328 -0.1257 -0.2700
  322MPD2    C4 4891   2.759   2.177  13.431 -0.2796  0.0784 -0.3214
  322MPD2    C5 4892   2.752   2.317  13.439 -0.5348 -0.2575  0.0293
  322MPD2     H 4893   2.918   2.123  13.723 -0.3097 -3.1853 -1.0996
  322MPD2    H1 4894   2.728   2.124  13.342 -0.6996  0.6863 -0.5380
  322MPD2    H2 4895   2.813   2.494  13.531  1.3697 -0.4361 -3.2320
  322MPD2    H3 4896   2.706   2.362  13.351  0.4717  0.9423  0.1238
  322MPD2     N 4897   2.824   1.965  13.537 -0.4056 -0.2053  0.2519
  322MPD2    H5 4898   2.869   1.935  13.623  0.9503 -1.2412 -0.8082
  322MPD2    N1 4899   2.926   2.398  13.751  0.1182  0.1475 -0.3917
  322MPD2    H7 4900   2.929   2.498  13.734 -3.8420  0.0779 -1.4531
  323TMC3    C1 4901   3.045   2.449  13.951  0.7342  0.7137 -0.1152
  323TMC3    C2 4902   3.079   2.578  13.898  0.9372 -0.4369  0.0412
  323TMC3    C3 4903   3.155   2.669  13.970 -0.7667  0.0985 -0.2820
  323TMC3    C4 4904   3.088   2.406  14.074  0.5591  0.3128  0.4294
  323TMC3    C5 4905   3.165   2.501  14.139 -0.4484  0.4793  0.2399
  323TMC3    C6 4906   3.201   2.629  14.089 -0.0506 -0.4147 -0.2776
  323TMC3     C 4907   2.980   2.348  13.867 -0.2584 -0.1100  0.6196
  323TMC3     O 4908   2.991   2.231  13.909  1.0446  0.1138  0.5973
  323TMC3     H 4909   3.045   2.615  13.802  1.6140 -0.4429 -0.2019
  323TMC3    H1 4910   3.073   2.306  14.112  0.5240 -0.4225 -1.5198
  323TMC3    H2 4911   3.259   2.700  14.147 -1.7965  1.5251 -0.9025
  323TMC3    C7 4912   3.241   2.451  14.254 -0.2993  0.8433  0.2138
  323TMC3    C8 4913   3.251   2.751  13.900 -0.3527  0.1336  0.4160
  323TMC3    O1 4914   3.183   2.354  14.305  0.1519  0.1542 -0.0401
  323TMC3    O2 4915   3.356   2.769  13.957 -0.1240  0.3955 -0.0240
  324MPD2     C 4916   4.716   3.788  14.699 -1.0385  0.5000 -0.0812
  324MPD2    C1 4917   4.717   3.698  14.590  0.3831  0.3029  0.2221
  324MPD2    C2 4918   4.602   3.675  14.519 -0.6277  0.2398  0.2242
  324MPD2    C3 4919   4.484   3.749  14.551 -0.6246 -0.4302  0.3315
  324MPD2    C4 4920   4.484   3.840  14.662 -0.5094  0.1433  0.1614
  324MPD2    C5 4921   4.606   3.857  14.724 -0.1930  0.4505  0.1942
  324MPD2     H 4922   4.605   3.604  14.437  1.7056  0.8509 -0.2415
  324MPD2    H1 4923   4.399   3.904  14.682 -1.0977 -0.2934 -0.9256
  324MPD2    H2 4924   0.070   3.807  14.759 -0.0598 -0.5266 -1.1882
  324MPD2    H3 4925   4.620   3.935  14.798  1.1479 -1.8301  2.3607
  324MPD2     N 4926   4.367   3.742  14.473 -0.1235  0.2500  0.5006
  324MPD2    H5 4927   4.280   3.784  14.505  0.0500  0.9508  0.0589
  324MPD2    N1 4928   0.098   3.625  14.551  0.4156 -0.7506 -0.3656
  324MPD2    H7 4929   0.090   3.560  14.473 -0.2459 -1.1961  0.0697
  325TMC3    C1 4930   4.232   3.689  14.288  0.0450  0.0524 -0.0463
  325TMC3    C2 4931   4.147   3.582  14.282 -0.3442  0.3233  0.2730
  325TMC3    C3 4932   4.013   3.618  14.286  0.4042  0.7323 -0.4729
  325TMC3    C4 4933   4.189   3.817  14.286  0.5333 -0.5953  0.1664
  325TMC3    C5 4934   4.060   3.842  14.280 -0.0241 -0.7490  0.8210
  325TMC3    C6 4935   3.967   3.747  14.273  0.4301  0.0434 -0.3125
  325TMC3     C 4936   4.359   3.676  14.353 -0.4721  0.0440  0.5343
  325TMC3     O 4937   4.437   3.608  14.288  0.3568  0.4942 -0.4013
  325TMC3     H 4938   4.183   3.481  14.268  1.4454  0.9493  0.3861
  325TMC3    H1 4939   4.267   3.891  14.299 -0.4415  0.3371  0.7020
  325TMC3    H2 4940   3.865   3.781  14.254  0.2367  0.1084  0.8778
  325TMC3    C7 4941   4.033   3.972  14.339 -0.9521  0.5675  0.3328
  325TMC3    C8 4942   3.922   3.514  14.243  0.6551  0.2133 -0.9735
  325TMC3    O1 4943   4.104   4.064  14.305  0.0934 -0.0782 -0.1985
  325TMC3    O2 4944   3.963   3.412  14.193 -0.9287  0.3012  0.7087
  326MPD2     C 4945   1.216   4.651  11.090  0.9484  0.1819 -0.6101
  326MPD2    C1 4946   1.140   4.725  11.000 -0.9046 -0.2229  0.7590
  326MPD2    C2 4947   1.198   0.080  10.917  0.3420 -0.6600 -0.0081
  326MPD2    C3 4948   1.334   0.098  10.919  0.1410  0.3147  0.0919
  326MPD2    C4 4949   1.411   0.026  11.007  0.5893  1.0554  0.5511
  326MPD2    C5 4950   1.350   4.673  11.098  0.3304 -0.0897 -0.2627
  326MPD2     H 4951   1.143   0.148  10.853  1.0945 -1.2886 -1.3351
  326MPD2    H1 4952   1.517   0.040  10.993  0.4592  2.7891  1.3955
  326MPD2    H2 4953   1.176   4.572  11.152 -0.8354  0.2063 -1.7361
  326MPD2    H3 4954   1.413   4.625  11.172 -1.6036 -0.7235  0.9859
  326MPD2     N 4955   1.404   0.185  10.829 -0.4227 -0.6473  0.0075
  326MPD2    H5 4956   1.502   0.209  10.842 -0.2346 -2.2575  1.5206
  326MPD2    N1 4957   1.002   4.702  10.973  0.3542  0.1360  0.2745
  326MPD2    H7 4958   0.955   0.027  10.906 -0.3152 -1.3758 -0.5995
  327TMC3    C1 4959   0.792   4.607  10.952  0.0907 -0.1303 -0.1192
  327TMC3    C2 4960   0.742   4.732  10.925  0.3632 -0.7066  0.3554
  327TMC3    C3 4961   0.691   0.014  10.802  0.2258 -0.2360 -0.0044
  327TMC3    C4 4962   0.808   4.517  10.852  0.2213  0.0061 -0.3627
  327TMC3    C5 4963   0.778   4.546  10.726 -0.2947 -0.5327 -0.1914
  327TMC3    C6 4964   0.723   4.662  10.698  0.2900 -0.2224  0.1634
  327TMC3     C 4965   0.917   4.604  11.023  1.3021  1.0062  0.6670
  327TMC3     O 4966   0.937   4.510  11.094 -0.3422 -0.2580 -0.1663
  327TMC3     H 4967   0.761   0.088  10.981 -1.7841 -0.6078  0.9221
  327TMC3    H1 4968   0.837   4.420  10.890  4.1342  1.1662 -0.4646
  327TMC3    H2 4969   0.698   4.683  10.594  0.7059  0.0382  0.1181
  327TMC3    C7 4970   0.875   4.527  10.623 -0.6154 -0.1438 -1.0632
  327TMC3    C8 4971   0.627   0.137  10.767 -0.4779 -0.6490 -0.2047
  327TMC3    O1 4972   0.840   4.554  10.511 -0.5892  0.6796  0.5323
  327TMC3    O2 4973   0.633   0.176  10.649  0.2961  0.5136  0.2154
  328MPD2     C 4974   4.111   0.290  17.054 -0.0315 -0.0512  0.4652
  328MPD2    C1 4975   4.052   0.161  17.054  0.6527 -0.1659  0.6104
  328MPD2    C2 4976   3.950   0.135  16.968  0.0498  0.1447 -0.4774
  328MPD2    C3 4977   3.905   0.230  16.875  0.5638 -0.2273 -0.4148
  328MPD2    C4 4978   3.957   0.359  16.881  0.4628  0.5514 -0.0081
  328MPD2    C5 4979   4.068   0.382  16.961  0.1102 -0.2555  0.1445
  328MPD2     H 4980   3.893   0.044  16.956  2.6666 -1.2030 -2.8167
  328MPD2    H1 4981   3.931   0.430  16.803  2.0326  1.1971  0.0610
  328MPD2    H2 4982   4.192   0.305  17.124  0.3713 -0.8759  0.1737
  328MPD2    H3 4983   4.126   0.474  16.957  0.5383 -0.4884  1.0521
  328MPD2     N 4984   3.815   0.197  16.768  0.2569 -0.2133 -0.4768
  328MPD2    H5 4985   3.763   0.271  16.722  1.8751  0.1971 -1.6541
  328MPD2    N1 4986   4.095   0.064  17.152 -0.1069  0.4870 -0.4352
  328MPD2    H7 4987   4.164   0.090  17.221 -0.1112 -0.4670 -0.0642
  329TMC3    C1 4988   4.092   4.608  17.286  0.1369 -0.3425  0.5770
  329TMC3    C2 4989   4.059   4.678  17.398 -0.3326 -0.6029  0.0946
  329TMC3    C3 4990   4.062   4.612  17.517 -0.4133 -0.0009 -0.5590
  329TMC3    C4 4991   4.126   4.473  17.293 -0.2832  0.3047 -1.0159
  329TMC3    C5 4992   4.111   4.407  17.410 -0.2674 -0.1602 -0.6214
  329TMC3    C6 4993   4.078   4.477  17.519 -0.0021  0.2079 -0.4560
  329TMC3     C 4994   4.049   4.666  17.160  0.2646 -0.8846  0.0366
  329TMC3     O 4995   3.978   4.603  17.085  0.1560 -0.3743 -0.1010
  329TMC3     H 4996   4.054   0.051  17.404 -0.1073 -0.4319 -3.0219
  329TMC3    H1 4997   4.158   4.417  17.205 -0.7969 -0.8886 -0.4388
  329TMC3    H2 4998   4.076   4.418  17.611 -0.4312 -0.6366 -1.0090
  329TMC3    C7 4999   4.029   4.283  17.392 -0.3016  0.5723 -0.9152
  329TMC3    C8 5000   4.057   4.682  17.639  0.4732  0.1488  0.6550
  329TMC3    O1 5001   4.017   4.213  17.488 -0.5865 -0.5648 -0.1618
  329TMC3    O2 5002   4.100   4.620  17.739 -0.0916 -0.4624 -0.9447
  330TMC3    C1 5003   0.938   4.191   9.756 -0.1775  0.6079  0.2351
  330TMC3    C2 5004   0.837   4.099   9.772 -0.6392 -0.6919  1.0573
  330TMC3    C3 5005   0.865   3.987   9.850 -0.4530 -0.0841 -0.4627
  330TMC3    C4 5006   1.048   4.184   9.832 -0.3059 -0.0791 -0.0013
  330TMC3    C5 5007   1.066   4.076   9.912  0.4220  0.1078 -0.5545
  330TMC3    C6 5008   0.976   3.970   9.925 -0.3968  0.0259 -0.0923
  330TMC3     C 5009   0.950   4.255   9.624 -0.4054 -0.2375 -0.2732
  330TMC3     O 5010   1.066   4.273   9.588  0.1869  0.0499 -0.3147
  330TMC3     H 5011   0.752   4.104   9.705  0.1953  0.6178  0.0820
  330TMC3    H1 5012   1.127   4.259   9.835 -1.0226  0.6114  1.6016
  330TMC3    H2 5013   0.998   3.880   9.980  2.1489  0.7551  0.0734
  330TMC3    C7 5014   1.189   4.069   9.988 -0.0735 -0.3890  0.4044
  330TMC3    C8 5015   0.767   3.885   9.843 -0.2923 -0.7851 -0.5029
  330TMC3    O1 5016   1.242   4.172  10.027  0.0217  0.3266 -0.7511
  330TMC3    O2 5017   0.705   3.886   9.735  0.2058 -0.3549  0.0526
  331MPD2     C 5018   4.050   3.107  13.095 -0.4245  0.3124  0.7148
  331MPD2    C1 5019   4.110   3.159  12.983  0.1856 -0.5098  0.4230
  331MPD2    C2 5020   4.085   3.103  12.861 -0.0421 -0.6175 -0.6148
  331MPD2    C3 5021   3.991   2.999  12.853  0.4250 -0.1506  0.2926
  331MPD2    C4 5022   3.918   2.960  12.962 -0.3690  0.3150 -0.1566
  331MPD2    C5 5023   3.959   3.012  13.078  0.1060 -0.3546 -0.4846
  331MPD2     H 5024   4.126   3.153  12.774 -2.3915  1.4346 -0.5475
  331MPD2    H1 5025   3.832   2.894  12.958 -1.3031  1.5940 -1.4007
  331MPD2    H2 5026   4.067   3.145  13.195  0.2372 -1.0162  1.1082
  331MPD2    H3 5027   3.905   2.975  13.165 -0.3971 -0.8391 -1.0025
  331MPD2     N 5028   3.966   2.961  12.720  0.3543 -0.2836  0.4444
  331MPD2    H5 5029   4.035   2.992  12.652 -0.9948 -0.2093 -0.8742
  331MPD2    N1 5030   4.188   3.276  12.997 -0.2123 -0.3771  0.0759
  331MPD2    H7 5031   4.176   3.313  13.090 -0.5760 -2.3022  0.8080
  332TMC3    C1 5032   3.906   2.814  12.545 -0.0859 -0.2783  0.9489
  332TMC3    C2 5033   3.895   2.907  12.442  0.2678  0.4733 -0.2892
  332TMC3    C3 5034   3.991   2.894  12.340 -0.2175 -0.3242  0.3611
  332TMC3    C4 5035   3.983   2.703  12.544 -0.1415 -0.2705  0.6590
  332TMC3    C5 5036   4.071   2.692  12.437  0.7635 -0.1425 -0.2881
  332TMC3    C6 5037   4.076   2.787  12.337  0.2795 -0.2301  0.3835
  332TMC3     C 5038   3.881   2.862  12.681 -0.0694  0.5604 -1.1618
  332TMC3     O 5039   3.813   2.790  12.753 -0.5820  0.2721  0.3447
  332TMC3     H 5040   3.835   2.997  12.454 -0.3795  0.1395 -0.9786
  332TMC3    H1 5041   3.993   2.637  12.629 -2.9104  0.3077  1.4261
  332TMC3    H2 5042   4.141   2.781  12.250  2.0827  1.0925  1.6310
  332TMC3    C7 5043   4.187   2.613  12.452  0.6399  0.6491 -0.1373
  332TMC3    C8 5044   4.000   2.996  12.230 -0.4198  0.1975 -0.2212
  332TMC3    O1 5045   4.291   2.651  12.395 -0.2989  0.5333 -0.3919
  332TMC3    O2 5046   4.104   2.995  12.166 -0.2641  0.0758  0.1582
  333MPD2     C 5047   4.097   3.180  11.300 -0.1566  0.1425  0.0202
  333MPD2    C1 5048   4.213   3.109  11.297 -0.7938  0.1763  0.6859
  333MPD2    C2 5049   4.220   2.977  11.338 -0.3526  0.3799  0.9030
  333MPD2    C3 5050   4.104   2.922  11.384  0.0874  0.0856 -0.6370
  333MPD2    C4 5051   3.981   2.990  11.385 -0.6472  0.4489 -0.0379
  333MPD2    C5 5052   3.982   3.120  11.346 -0.2669 -0.0450 -0.4646
  333MPD2     H 5053   4.310   2.916  11.338  0.6848  1.8975  0.3017
  333MPD2    H1 5054   3.885   2.948  11.410 -0.4954  0.2279  0.1780
  333MPD2    H2 5055   4.091   3.283  11.268 -2.6898 -1.2002 -3.7734
  333MPD2    H3 5056   3.895   3.183  11.339 -1.0854 -1.0334  0.7323
  333MPD2     N 5057   4.119   2.793  11.433 -0.9093 -0.0077  0.0575
  333MPD2    H5 5058   4.210   2.752  11.410 -2.1597 -1.5888 -2.0497
  333MPD2    N1 5059   4.322   3.169  11.235  0.1021  0.0961 -0.1021
  333MPD2    H7 5060   4.308   3.267  11.211 -0.8318 -0.0843 -0.2891
  334TMC3    C1 5061   4.534   3.178  11.121 -0.2535 -0.1977 -0.1494
  334TMC3    C2 5062   4.667   3.136  11.119 -0.0834  0.4026 -0.7007
  334TMC3    C3 5063   0.021   3.217  11.047 -0.2169 -0.1452  0.2783
  334TMC3    C4 5064   4.497   3.300  11.065  0.7763  0.0952  0.2687
  334TMC3    C5 5065   4.585   3.369  10.991 -0.9466 -0.4973 -0.6609
  334TMC3    C6 5066   4.715   3.333  10.980  0.6927  0.6195 -0.1661
  334TMC3     C 5067   4.447   3.114  11.224  0.0420  0.7040  0.4050
  334TMC3     O 5068   4.490   3.005  11.262 -0.4444 -0.2227  0.1908
  334TMC3     H 5069   4.705   3.050  11.173 -0.0712  1.3412  0.7788
  334TMC3    H1 5070   4.398   3.342  11.080  0.2489 -0.1980 -2.4649
  334TMC3    H2 5071   0.037   3.395  10.912  0.0137  2.1204  0.6235
  334TMC3    C7 5072   4.554   3.509  10.963 -0.2207  0.1313  0.3223
  334TMC3    C8 5073   0.162   3.185  11.069  0.3790 -0.1141  0.2037
  334TMC3    O1 5074   4.641   3.587  10.995 -0.3628  0.3357 -0.3760
  334TMC3    O2 5075   0.179   3.085  11.134  0.0663 -1.0634 -0.1345
  335TMC3    C1 5076   0.013   4.039  17.351  0.3580 -0.3901  0.0318
  335TMC3    C2 5077   4.636   4.091  17.283 -0.2833  0.5186  0.2589
  335TMC3    C3 5078   4.652   4.210  17.218  0.3310 -0.7435  0.0718
  335TMC3    C4 5079   0.125   4.099  17.344  0.3154 -0.2430 -0.4805
  335TMC3    C5 5080   0.133   4.221  17.278  0.1056  0.4145 -0.2691
  335TMC3    C6 5081   0.035   4.278  17.203 -0.2504  0.2767  0.7025
  335TMC3     C 5082   0.002   3.918  17.432 -0.3365 -0.6431 -0.3671
  335TMC3     O 5083   0.102   3.858  17.459 -0.4518 -0.3290 -0.6294
  335TMC3     H 5084   4.546   4.030  17.280  0.3132 -0.3136 -1.0610
  335TMC3    H1 5085   0.204   4.059  17.406 -0.8330 -0.6700  0.7161
  335TMC3    H2 5086   0.047   4.375  17.157 -0.6078 -0.9675 -2.0259
  335TMC3    C7 5087   0.269   4.285  17.268  0.3805 -0.0841  0.1616
  335TMC3    C8 5088   4.541   4.258  17.132 -0.5427 -0.0870  0.0814
  335TMC3    O1 5089   0.265   4.407  17.248 -0.8070 -0.8315 -0.4061
  335TMC3    O2 5090   4.570   4.339  17.045  0.1393  0.7403  0.5902
  336MPD2     C 5091   4.002   2.165  16.024  0.0744  0.1418  0.7743
  336MPD2    C1 5092   3.936   2.117  15.908  0.5265 -0.4804  0.2778
  336MPD2    C2 5093   3.952   1.983  15.874  0.3355  0.0139  0.7609
  336MPD2    C3 5094   4.010   1.895  15.964  0.1513  0.2789  0.0578
  336MPD2    C4 5095   4.059   1.943  16.080 -0.5114  0.3722 -0.6014
  336MPD2    C5 5096   4.064   2.081  16.107 -0.0126 -0.4388  0.3569
  336MPD2     H 5097   3.903   1.951  15.782 -0.6388  1.3764  0.8011
  336MPD2    H1 5098   4.127   1.886  16.141 -1.3532  1.4647  1.3429
  336MPD2    H2 5099   4.019   2.269  16.050 -1.2280  0.6107 -0.2233
  336MPD2    H3 5100   4.091   2.123  16.203  2.8418  0.6694 -0.9405
  336MPD2     N 5101   4.032   1.758  15.948 -0.0915  0.1369 -0.1450
  336MPD2    H5 5102   4.082   1.717  16.026 -0.7795  2.1174  1.3381
  336MPD2    N1 5103   3.867   2.206  15.829  0.1266 -0.4696  0.3485
  336MPD2    H7 5104   3.797   2.174  15.763  0.4700 -0.4349 -0.0317
  337TMC3    C1 5105   3.806   2.411  15.720  0.0029  0.5864 -0.1591
  337TMC3    C2 5106   3.694   2.364  15.674  0.1618  0.3164  0.4440
  337TMC3    C3 5107   3.621   2.442  15.591  0.2895 -0.0276 -0.4375
  337TMC3    C4 5108   3.864   2.521  15.668 -0.4608 -0.3942 -0.5075
  337TMC3    C5 5109   3.795   2.596  15.574  0.0735  0.0398 -0.3415
  337TMC3    C6 5110   3.669   2.564  15.538  0.2995  0.1690 -0.4191
  337TMC3     C 5111   3.885   2.345  15.823 -0.1413 -0.2117  0.2506
  337TMC3     O 5112   3.977   2.411  15.867 -0.6609 -0.3584  0.0929
  337TMC3     H 5113   3.639   2.275  15.702 -1.6397  1.9208  2.0238
  337TMC3    H1 5114   3.959   2.549  15.711  0.0839 -0.4560 -1.6701
  337TMC3    H2 5115   3.611   2.628  15.472 -2.5185 -1.9718 -0.0323
  337TMC3    C7 5116   3.853   2.723  15.536 -0.4570  0.3245 -0.0562
  337TMC3    C8 5117   3.499   2.392  15.527 -0.0108 -0.1079 -0.2642
  337TMC3    O1 5118   3.943   2.761  15.610  0.1453  0.0464 -0.1484
  337TMC3    O2 5119   3.449   2.299  15.577 -0.3423  0.0414 -0.4377
  338MPD2     C 5120   4.280   1.574   1.156 -0.4341 -0.1742 -0.3326
  338MPD2    C1 5121   4.271   1.595   1.017 -0.2335  0.2433 -0.4780
  338MPD2    C2 5122   4.153   1.567   0.953  0.1962  0.8694 -0.4399
  338MPD2    C3 5123   4.042   1.524   1.025  0.1625  0.3265  0.3110
  338MPD2    C4 5124   4.043   1.523   1.162 -0.3301  0.4194  0.5735
  338MPD2    C5 5125   4.169   1.540   1.225 -0.1281 -0.8613 -0.4805
  338MPD2     H 5126   4.151   1.585   0.846  0.2180 -3.0903 -1.1176
  338MPD2    H1 5127   3.965   1.499   1.233 -0.8711 -0.3110 -0.2758
  338MPD2    H2 5128   4.376   1.590   1.204  0.3767 -1.4314 -1.5254
  338MPD2    H3 5129   4.171   1.517   1.331  0.2866 -0.7492 -0.4655
  338MPD2     N 5130   3.928   1.481   0.953 -0.0756 -0.3245  0.1579
  338MPD2    H5 5131   3.925   1.511   0.856 -1.4654  0.2072  0.3558
  338MPD2    N1 5132   4.371   1.648   0.937 -0.9915 -0.7952  0.4641
  338MPD2    H7 5133   4.344   1.677   0.844  2.1614 -1.1259 -0.5641
  339TMC3    C1 5134   3.726   1.381   0.896 -0.0891  0.7992 -0.5357
  339TMC3    C2 5135   3.629   1.281   0.926  0.0023  0.3103 -0.0242
  339TMC3    C3 5136   3.527   1.260   0.841  0.6417 -0.3552 -0.6629
  339TMC3    C4 5137   3.716   1.459   0.783  0.1028 -0.0172 -0.3720
  339TMC3    C5 5138   3.603   1.445   0.708  0.2679 -0.6892  0.4526
  339TMC3    C6 5139   3.505   1.346   0.734  0.0486 -0.6393  0.0671
  339TMC3     C 5140   3.813   1.423   1.005 -0.1886  0.3398  0.1330
  339TMC3     O 5141   3.779   1.392   1.119 -0.1800 -0.4314  0.5934
  339TMC3     H 5142   3.643   1.232   1.022  0.6326  1.6295  0.5595
  339TMC3    H1 5143   3.786   1.540   0.764 -0.9817  0.4728 -2.2819
  339TMC3    H2 5144   3.432   1.322   0.656 -2.8419  0.9970  2.2779
  339TMC3    C7 5145   3.571   1.543   0.604 -0.4636  0.4217  0.1490
  339TMC3    C8 5146   3.414   1.176   0.880 -0.0877  0.3166  0.0068
  339TMC3    O1 5147   3.666   1.608   0.559 -0.1234  0.0996  0.1553
  339TMC3    O2 5148   3.300   1.207   0.848  0.1902  0.2022 -0.2495
  340MPD2     C 5149   4.460   4.707  10.788  0.7574  0.1642 -0.3256
  340MPD2    C1 5150   4.368   4.607  10.809  0.1701  0.0822  0.4679
  340MPD2    C2 5151   4.370   4.492  10.722 -0.4796  0.5963  0.3321
  340MPD2    C3 5152   4.459   4.489  10.609  0.5648  0.0145  0.0083
  340MPD2    C4 5153   4.544   4.600  10.593 -0.6892 -0.3697 -0.1027
  340MPD2    C5 5154   4.545   4.703  10.682  0.2544 -0.0629 -0.1004
  340MPD2     H 5155   4.309   4.405  10.737  1.4572 -0.7897  0.2413
  340MPD2    H1 5156   4.601   4.607  10.501 -0.6583  2.4259  0.1144
  340MPD2    H2 5157   4.461   0.057  10.855 -1.3993  0.0253 -0.0974
  340MPD2    H3 5158   4.615   0.048  10.661  0.4423 -0.2051 -0.0143
  340MPD2     N 5159   4.457   4.394  10.505 -0.1812 -0.3491 -1.0714
  340MPD2    H5 5160   4.526   4.405  10.431 -0.8324 -1.4658 -1.8298
  340MPD2    N1 5161   4.272   4.626  10.917 -0.1243  0.0422 -0.0251
  340MPD2    H7 5162   4.297   4.690  10.992  1.0673  1.2259 -1.4400
  341TMC3    C1 5163   4.080   4.503  10.832  0.6217  0.6752 -0.2101
  341TMC3    C2 5164   4.014   4.389  10.850 -0.4223 -0.0028  0.1766
  341TMC3    C3 5165   3.972   4.331  10.739 -0.0744  0.1151  0.5486
  341TMC3    C4 5166   4.080   4.578  10.711 -0.3377 -0.4095 -0.1057
  341TMC3    C5 5167   4.022   4.522  10.604 -0.3317 -0.3580 -0.2970
  341TMC3    C6 5168   3.976   4.396  10.620 -0.0212  0.1909  0.2249
  341TMC3     C 5169   4.165   4.538  10.948 -0.0657 -0.3294 -0.3887
  341TMC3     O 5170   4.118   4.514  11.061  0.0259  0.4777  0.6668
  341TMC3     H 5171   4.012   4.329  10.939  1.6758  0.6876  0.7072
  341TMC3    H1 5172   4.142   4.667  10.711 -0.7079 -0.1479  0.9585
  341TMC3    H2 5173   3.938   4.349  10.530  0.5478  2.4583 -1.1768
  341TMC3    C7 5174   4.070   4.558  10.467  0.1488  0.2174  0.0160
  341TMC3    C8 5175   3.910   4.198  10.743  0.1463  0.2969  0.7210
  341TMC3    O1 5176   4.127   4.472  10.398 -1.2143 -0.4188  0.8466
  341TMC3    O2 5177   3.834   4.174  10.650  0.0485 -0.3727 -0.3530
  342MPD2     C 5178   2.419   2.875  17.247 -0.2433  0.6395 -0.0477
  342MPD2    C1 5179   2.531   2.860  17.169  0.4334 -0.3326  0.2969
  342MPD2    C2 5180   2.601   2.968  17.130  0.4331  0.5668  0.0344
  342MPD2    C3 5181   2.570   3.101  17.162 -0.2415  0.0467  0.3735
  342MPD2    C4 5182   2.458   3.111  17.237  0.5034  0.7142 -0.1961
  342MPD2    C5 5183   2.384   3.005  17.286 -0.1409 -0.1525  0.1859
  342MPD2     H 5184   2.683   2.944  17.063 -1.3888  0.1738 -2.0536
  342MPD2    H1 5185   2.434   3.214  17.261  0.9552  0.3485  1.8615
  342MPD2    H2 5186   2.365   2.794  17.293  0.2674  0.3038 -0.0489
  342MPD2    H3 5187   2.305   3.031  17.356  1.2295  1.1664  1.2354
  342MPD2     N 5188   2.635   3.212  17.110 -0.5113  0.2675 -0.1644
  342MPD2    H5 5189   2.597   3.301  17.141 -0.7413 -0.6660  2.2538
  342MPD2    N1 5190   2.570   2.733  17.118 -0.3487  0.0638  0.3104
  342MPD2    H7 5191   2.637   2.731  17.042 -0.8297 -0.5055 -0.0956
  343TMC3    C1 5192   2.552   2.505  17.058 -0.0216 -0.0579 -0.2401
  343TMC3    C2 5193   2.661   2.519  16.969 -0.2404  0.0072  0.5415
  343TMC3    C3 5194   2.705   2.408  16.896  0.1603 -0.3205  0.1206
  343TMC3    C4 5195   2.481   2.386  17.054  0.7057 -0.2290  0.4446
  343TMC3    C5 5196   2.531   2.278  16.981 -0.2964  0.6625  0.0614
  343TMC3    C6 5197   2.644   2.291  16.901  0.9409 -0.3110 -0.4761
  343TMC3     C 5198   2.502   2.613  17.146 -0.7114  0.0351  0.2096
  343TMC3     O 5199   2.411   2.586  17.226 -0.4015  0.0772  0.4193
  343TMC3     H 5200   2.731   2.603  16.967 -0.9103  0.5557  0.2394
  343TMC3    H1 5201   2.390   2.380  17.113 -0.8093 -0.3759 -1.8989
  343TMC3    H2 5202   2.684   2.198  16.864  0.2137 -1.0210  0.5062
  343TMC3    C7 5203   2.464   2.151  16.991  0.0042  0.0253  0.2053
  343TMC3    C8 5204   2.820   2.431  16.814 -0.3394 -0.5447  0.3701
  343TMC3    O1 5205   2.444   2.092  16.882  0.2640 -0.2082 -0.3576
  343TMC3    O2 5206   2.896   2.522  16.849  0.6821  0.3356 -0.1833
  344MPD2     C 5207   3.197   2.438  10.929 -0.2780  0.1281  1.1087
  344MPD2    C1 5208   3.079   2.443  10.857  0.4719  0.7584  0.1913
  344MPD2    C2 5209   3.058   2.558  10.784 -0.4896 -0.2397  0.0090
  344MPD2    C3 5210   3.151   2.657  10.774  0.4902 -0.2730 -0.1116
  344MPD2    C4 5211   3.274   2.642  10.833  0.4863 -0.2593 -0.7210
  344MPD2    C5 5212   3.295   2.533  10.915 -0.4253  0.9281 -0.7338
  344MPD2     H 5213   2.970   2.567  10.720  0.3931 -2.6618 -1.5262
  344MPD2    H1 5214   3.358   2.709  10.825  0.9798 -0.6668  0.9681
  344MPD2    H2 5215   3.232   2.361  10.997 -1.0483 -0.0182  1.3510
  344MPD2    H3 5216   3.391   2.520  10.964 -1.2161  0.7767  0.7725
  344MPD2     N 5217   3.127   2.784  10.706 -1.0470 -0.2073 -0.2765
  344MPD2    H5 5218   3.196   2.856  10.723  0.9832 -2.1534 -0.3621
  344MPD2    N1 5219   2.976   2.352  10.884 -0.3001 -0.1513  0.2332
  344MPD2    H7 5220   2.893   2.361  10.826  0.2912  1.2454 -0.3930
  345TMC3    C1 5221   2.998   2.972  10.637 -0.1074 -0.0233 -0.1436
  345TMC3    C2 5222   3.025   3.039  10.753  0.6967  0.2229 -0.1885
  345TMC3    C3 5223   2.958   3.159  10.774  0.1259 -0.0929 -0.5772
  345TMC3    C4 5224   2.924   3.030  10.534  0.6084 -0.1567  0.5196
  345TMC3    C5 5225   2.874   3.154  10.553  0.4897  0.3130 -0.4504
  345TMC3    C6 5226   2.901   3.223  10.668  0.2149  0.1637  0.0461
  345TMC3     C 5227   3.012   2.825  10.645 -0.4911 -0.1751  0.5885
  345TMC3     O 5228   2.921   2.756  10.592  0.0625  0.1204 -0.1260
  345TMC3     H 5229   3.085   2.992  10.830 -2.8260 -0.2503  2.2580
  345TMC3    H1 5230   2.908   2.969  10.446 -0.9904  0.4899  0.3705
  345TMC3    H2 5231   2.849   3.316  10.685 -1.6229 -1.2305  1.9109
  345TMC3    C7 5232   2.839   3.237  10.440  0.5740 -0.5806 -0.5029
  345TMC3    C8 5233   3.005   3.243  10.879  0.4113  0.0675  0.3961
  345TMC3    O1 5234   2.861   3.357  10.463 -0.6000  0.3682 -0.2448
  345TMC3    O2 5235   3.088   3.202  10.958  0.0984 -0.3196 -0.0330
  346MPD2     C 5236   2.881   3.701  14.530  0.6468  0.3603 -0.6597
  346MPD2    C1 5237   2.970   3.800  14.491  0.7337 -0.3243  0.7362
  346MPD2    C2 5238   3.035   3.869  14.593 -0.2282  0.1095  1.1061
  346MPD2    C3 5239   3.028   3.835  14.726 -0.0943  0.2709  0.6341
  346MPD2    C4 5240   2.937   3.737  14.761  0.3833 -1.0968 -0.7100
  346MPD2    C5 5241   2.865   3.668  14.662  0.9911  0.3822  0.0248
  346MPD2     H 5242   3.099   3.951  14.561  0.4740 -1.3892 -1.3712
  346MPD2    H1 5243   2.944   3.710  14.865  0.5681 -0.0820 -0.4667
  346MPD2    H2 5244   2.829   3.649  14.450 -0.1637 -2.3049  1.5688
  346MPD2    H3 5245   2.806   3.582  14.690  1.4693  0.4493  1.2556
  346MPD2     N 5246   3.124   3.897  14.814 -0.1182 -0.5675 -0.1331
  346MPD2    H5 5247   3.188   3.954  14.760  0.0161 -0.8983 -0.3219
  346MPD2    N1 5248   2.989   3.837  14.354  0.2114  0.4602 -0.2600
  346MPD2    H7 5249   3.043   3.921  14.338  0.2296  0.3179 -0.9693
  347TMC3    C1 5250   3.279   3.930  14.992 -1.0805 -0.1102 -0.9290
  347TMC3    C2 5251   3.381   3.938  14.902 -0.0529 -0.7921 -0.3944
  347TMC3    C3 5252   3.500   3.991  14.932  0.1785 -0.9199 -0.7093
  347TMC3    C4 5253   3.296   3.983  15.112 -0.4962 -0.0533 -0.4272
  347TMC3    C5 5254   3.420   4.035  15.139  0.2712 -0.1535  0.0370
  347TMC3    C6 5255   3.533   4.044  15.055 -0.1311 -0.9379  0.5843
  347TMC3     C 5256   3.149   3.875  14.950 -0.2044 -0.4879  0.8285
  347TMC3     O 5257   3.082   3.812  15.036  0.2084  0.1349  0.1991
  347TMC3     H 5258   3.359   3.882  14.812  1.3465  0.0184 -1.2314
  347TMC3    H1 5259   3.213   3.992  15.182 -0.2450  0.2876 -0.1690
  347TMC3    H2 5260   3.627   4.096  15.071 -0.1661 -0.5694 -0.4018
  347TMC3    C7 5261   3.430   4.094  15.275  0.3584  0.3053  0.1313
  347TMC3    C8 5262   3.601   3.986  14.829  0.2602  0.4205  0.1970
  347TMC3    O1 5263   3.333   4.160  15.309  0.2621 -0.5584  1.1537
  347TMC3    O2 5264   3.597   3.886  14.761 -0.3029 -0.2114  0.5585
  348MPD2     C 5265   2.245   3.456  11.883 -0.0667  0.0614  0.6345
  348MPD2    C1 5266   2.125   3.440  11.823 -0.6305 -0.3654 -0.5721
  348MPD2    C2 5267   2.078   3.537  11.735  0.5138 -0.4870  0.4853
  348MPD2    C3 5268   2.164   3.647  11.706 -0.6113 -0.1518  0.0403
  348MPD2    C4 5269   2.267   3.674  11.793  0.2018  0.2460  0.8955
  348MPD2    C5 5270   2.306   3.578  11.881  0.0485 -0.3779  1.0065
  348MPD2     H 5271   1.983   3.524  11.685  0.9147 -0.6223 -0.2472
  348MPD2    H1 5272   2.326   3.765  11.792  0.1896  0.2719  2.5931
  348MPD2    H2 5273   2.282   3.392  11.962 -3.3426 -1.1638  1.1817
  348MPD2    H3 5274   2.398   3.591  11.936 -1.1984 -1.1658  3.2623
  348MPD2     N 5275   2.121   3.737  11.607 -0.3495  0.5679  0.0767
  348MPD2    H5 5276   2.054   3.698  11.541  0.8641 -2.4031  0.5578
  348MPD2    N1 5277   2.039   3.331  11.850 -0.6683 -0.1662 -0.3182
  348MPD2    H7 5278   1.945   3.320  11.812 -0.6593 -1.2629 -0.0439
  349TMC3    C1 5279   1.957   3.142  11.960 -0.1308  0.3006 -0.3240
  349TMC3    C2 5280   1.973   3.003  11.966  0.8695  0.1246  0.0101
  349TMC3    C3 5281   1.857   2.927  11.957  0.1018  0.1024 -0.1360
  349TMC3    C4 5282   1.840   3.208  11.970  0.6351  0.4708 -0.4242
  349TMC3    C5 5283   1.731   3.130  11.966  1.1250 -0.0032  0.3808
  349TMC3    C6 5284   1.732   2.990  11.955 -0.0768 -1.0563 -0.1002
  349TMC3     C 5285   2.076   3.222  11.926 -0.1799  0.0660  0.7044
  349TMC3     O 5286   2.186   3.190  11.976  1.1371  0.2992  0.1579
  349TMC3     H 5287   2.068   2.957  11.988  0.7328  0.4068  1.1510
  349TMC3    H1 5288   1.837   3.315  11.988  1.8291  0.6606 -1.3415
  349TMC3    H2 5289   1.641   2.931  11.966  0.4299 -1.8588 -0.2309
  349TMC3    C7 5290   1.602   3.196  11.935  0.1270  0.0813  0.4862
  349TMC3    C8 5291   1.853   2.824  12.058 -0.6262 -0.0252 -0.0503
  349TMC3    O1 5292   1.515   3.124  11.891  1.0253 -0.3333  0.4065
  349TMC3    O2 5293   1.756   2.809  12.125 -0.3976  0.1447 -0.4387
  350MPD2     C 5294   1.113   2.067  10.577  0.8501  0.0747  0.7117
  350MPD2    C1 5295   1.074   1.946  10.625  0.4369  0.5935 -0.2879
  350MPD2    C2 5296   1.065   1.928  10.763 -0.5717 -0.2928  0.2978
  350MPD2    C3 5297   1.102   2.024  10.847 -0.6827 -0.2447  1.0168
  350MPD2    C4 5298   1.163   2.136  10.801 -0.3955 -0.3453  0.3255
  350MPD2    C5 5299   1.154   2.159  10.668 -0.0103  0.2953  0.0673
  350MPD2     H 5300   1.026   1.836  10.806 -1.0444  0.3180  1.1948
  350MPD2    H1 5301   1.203   2.217  10.860  0.3306  0.4889 -1.3065
  350MPD2    H2 5302   1.091   2.091  10.474 -2.1149  2.2775  1.8646
  350MPD2    H3 5303   1.182   2.259  10.638  1.3653 -0.5578 -1.5063
  350MPD2     N 5304   1.082   2.006  10.990 -0.2638 -0.4306  0.2355
  350MPD2    H5 5305   1.069   1.909  11.016  1.9146 -0.5949  0.7486
  350MPD2    N1 5306   1.022   1.846  10.531 -0.4426  0.6187 -0.1971
  350MPD2    H7 5307   0.993   1.755  10.565  2.2100 -0.5239 -0.9600
  351TMC3    C1 5308   0.980   1.729  10.340  0.1609  0.0341 -0.1013
  351TMC3    C2 5309   0.931   1.626  10.414 -0.1839  0.2473  0.0906
  351TMC3    C3 5310   0.953   1.502  10.360 -0.3950  0.3150  0.5707
  351TMC3    C4 5311   1.055   1.704  10.226 -0.6239 -0.2505  0.1076
  351TMC3    C5 5312   1.075   1.574  10.179  0.3226 -0.3767 -0.4472
  351TMC3    C6 5313   1.024   1.475  10.245 -1.3927 -0.4647  0.7025
  351TMC3     C 5314   1.010   1.860  10.399 -0.5757  0.1685  0.3487
  351TMC3     O 5315   1.032   1.953  10.326 -0.3069 -0.0676 -0.6962
  351TMC3     H 5316   0.875   1.648  10.504 -2.2670 -2.2569 -0.6164
  351TMC3    H1 5317   1.110   1.785  10.181  2.3686 -2.8410 -0.9361
  351TMC3    H2 5318   1.068   1.377  10.229  0.2372  0.9640 -3.2875
  351TMC3    C7 5319   1.142   1.547  10.057  0.2796  0.2475 -0.4742
  351TMC3    C8 5320   0.902   1.389  10.433 -0.1900  0.6665 -0.2980
  351TMC3    O1 5321   1.139   1.428  10.025 -0.9553 -0.8825 -0.0613
  351TMC3    O2 5322   0.882   1.401  10.553 -0.1974  0.3779  0.2280
  352MPD2     C 5323   4.353   4.069   0.666 -0.1026 -0.7243 -0.4125
  352MPD2    C1 5324   4.235   3.996   0.686 -0.8093  0.5818 -0.0204
  352MPD2    C2 5325   4.257   3.861   0.724  0.1290  0.3009  0.0741
  352MPD2    C3 5326   4.379   3.799   0.735 -0.5790  0.0102 -0.3181
  352MPD2    C4 5327   4.486   3.879   0.712  0.7500  0.4919  0.4897
  352MPD2    C5 5328   4.476   4.012   0.687 -0.6402  0.6568  0.5906
  352MPD2     H 5329   4.169   3.798   0.727 -0.6392  1.3315 -0.8473
  352MPD2    H1 5330   4.586   3.838   0.708  0.8787  0.7816  0.7821
  352MPD2    H2 5331   4.352   4.173   0.633  1.3408 -0.4580  0.3969
  352MPD2    H3 5332   4.565   4.070   0.666  1.1912 -1.9260  1.2676
  352MPD2     N 5333   4.398   3.654   0.743 -1.1119 -0.0039 -0.4241
  352MPD2    H5 5334   4.489   3.614   0.720 -0.4639  0.2408  1.7401
  352MPD2    N1 5335   4.108   4.059   0.683  0.3705 -0.2396 -0.1557
  352MPD2    H7 5336   4.101   4.148   0.636  1.2383  0.0424  0.2439
  353TMC3    C1 5337   4.330   3.425   0.749  0.0952 -1.3108  0.0280
  353TMC3    C2 5338   4.460   3.394   0.760 -0.0291  0.2040 -0.2774
  353TMC3    C3 5339   4.503   3.290   0.684 -0.3360  0.3780 -0.3171
  353TMC3    C4 5340   4.239   3.350   0.682 -0.0161  0.1756  0.0659
  353TMC3    C5 5341   4.289   3.248   0.609  0.6166  0.5333 -0.5907
  353TMC3    C6 5342   4.423   3.226   0.597  0.2407 -0.3731 -0.7414
  353TMC3     C 5343   4.296   3.564   0.764 -0.2322  0.4834  0.2795
  353TMC3     O 5344   4.177   3.586   0.766 -0.1844  0.4160 -0.3158
  353TMC3     H 5345   4.518   3.439   0.839  0.3097 -0.2731 -0.2536
  353TMC3    H1 5346   4.133   3.373   0.681 -0.2267 -0.9495 -3.0416
  353TMC3    H2 5347   4.458   3.144   0.535  0.2310 -1.7527  1.0872
  353TMC3    C7 5348   4.195   3.196   0.514 -0.1239  0.6421 -0.5063
  353TMC3    C8 5349   4.633   3.221   0.718  0.4132  0.9183 -0.1408
  353TMC3    O1 5350   4.079   3.197   0.551  0.7082  0.0695  0.2357
  353TMC3    O2 5351   4.698   3.280   0.807 -0.0984 -0.3512 -0.4262
  354TMC3    C1 5352   1.227   4.594  13.605  0.3377  0.0419  0.5270
  354TMC3    C2 5353   1.251   4.727  13.586 -0.1291  0.3698 -0.5975
  354TMC3    C3 5354   1.276   0.042  13.460 -0.3755  0.0644 -0.2520
  354TMC3    C4 5355   1.245   4.508  13.506  0.5507  0.1007  0.7238
  354TMC3    C5 5356   1.253   4.559  13.377 -0.2113 -0.0433  0.5643
  354TMC3    C6 5357   1.265   4.695  13.355 -0.6262  0.0859 -0.1455
  354TMC3     C 5358   1.159   4.541  13.731 -0.0891 -0.5779 -0.5596
  354TMC3     O 5359   1.182   4.427  13.762  0.5535  0.2977 -0.2798
  354TMC3     H 5360   1.250   0.059  13.672 -0.5964  0.6008 -0.7829
  354TMC3    H1 5361   1.207   4.407  13.508  0.1047  0.2167 -2.0999
  354TMC3    H2 5362   1.277   4.725  13.251  0.5852 -2.8745 -0.8418
  354TMC3    C7 5363   1.274   4.467  13.270 -0.5584 -0.0694 -0.6588
  354TMC3    C8 5364   1.248   0.184  13.447 -0.6136 -0.2137 -0.0744
  354TMC3    O1 5365   1.242   4.348  13.290 -0.4234 -0.0754  0.3995
  354TMC3    O2 5366   1.229   0.250  13.546 -0.1673  0.1096  0.2588
  355MPD2     C 5367   0.919   0.949  11.726 -0.7453  0.3870 -0.2725
  355MPD2    C1 5368   1.025   0.916  11.632  0.5689  0.8144  0.1386
  355MPD2    C2 5369   1.140   0.875  11.687  0.7501 -0.2743 -0.0489
  355MPD2    C3 5370   1.162   0.869  11.826  0.3362  0.2382  0.2810
  355MPD2    C4 5371   1.057   0.889  11.911  0.6588 -0.1300  0.0817
  355MPD2    C5 5372   0.940   0.939  11.859 -0.3157  0.2413  0.5609
  355MPD2     H 5373   1.222   0.865  11.616  0.7051 -0.0671 -0.1273
  355MPD2    H1 5374   1.079   0.888  12.017  2.4941  0.9117 -0.3028
  355MPD2    H2 5375   0.832   1.010  11.704  1.0635  1.9427 -3.1095
  355MPD2    H3 5376   0.868   0.974  11.932 -1.4051  0.6582 -0.7268
  355MPD2     N 5377   1.288   0.854  11.886 -0.8154  0.4667  0.2148
  355MPD2    H5 5378   1.297   0.872  11.986 -0.0362 -1.5438  0.4953
  355MPD2    N1 5379   0.995   0.939  11.492  0.1293  0.0967 -0.3429
  355MPD2    H7 5380   0.896   0.925  11.471  0.3890 -2.5112  0.1437
  356TMC3    C1 5381   1.509   0.924  11.862 -0.0780 -0.5351 -0.3743
  356TMC3    C2 5382   1.591   0.973  11.761  0.4244 -0.3703 -0.0883
  356TMC3    C3 5383   1.682   1.074  11.785  0.6392 -0.4277  0.0635
  356TMC3    C4 5384   1.513   0.980  11.987 -0.0663  0.2391 -0.0670
  356TMC3    C5 5385   1.609   1.073  12.013  0.1659  0.1588 -0.6268
  356TMC3    C6 5386   1.682   1.132  11.911 -0.7705 -0.1837 -0.4110
  356TMC3     C 5387   1.400   0.836  11.816  0.0609  0.1566  0.5700
  356TMC3     O 5388   1.416   0.794  11.700  0.2343 -1.0711 -0.7011
  356TMC3     H 5389   1.586   0.933  11.660  0.6068  1.5691 -0.8650
  356TMC3    H1 5390   1.461   0.926  12.065 -0.3759 -1.3527 -1.3584
  356TMC3    H2 5391   1.773   1.188  11.934  0.4316 -2.2820 -0.0761
  356TMC3    C7 5392   1.620   1.104  12.152 -1.3092 -0.9132 -0.3723
  356TMC3    C8 5393   1.755   1.128  11.674 -0.0778  0.2066 -0.5514
  356TMC3    O1 5394   1.590   1.009  12.226  0.4329  0.1156 -0.2504
  356TMC3    O2 5395   1.719   1.095  11.557  0.5892  0.1081  0.0539
  357MPD2     C 5396   1.247   0.606  17.634  0.4669 -0.5117  0.1012
  357MPD2    C1 5397   1.179   0.670  17.736 -0.0391  0.4411 -0.3628
  357MPD2    C2 5398   1.045   0.689  17.728 -0.8478  0.3710  0.4717
  357MPD2    C3 5399   0.972   0.635  17.617 -0.3826 -0.5821 -0.4629
  357MPD2    C4 5400   1.040   0.564  17.519 -0.2764  0.2110 -0.2600
  357MPD2    C5 5401   1.177   0.548  17.536  0.4556  0.0694 -0.3062
  357MPD2     H 5402   0.987   0.738   0.066  0.1238  0.6564  1.0176
  357MPD2    H1 5403   0.989   0.534  17.428  0.6720  0.4452 -0.8627
  357MPD2    H2 5404   1.352   0.582  17.642  0.5819  1.0093  3.0535
  357MPD2    H3 5405   1.234   0.502  17.456  1.8290  0.7722  0.2625
  357MPD2     N 5406   0.829   0.648  17.606  0.3486  0.0831  0.6612
  357MPD2    H5 5407   0.788   0.595  17.530  0.7451 -0.2174  0.6582
  357MPD2    N1 5408   1.265   0.728   0.099  0.0564  0.1430 -0.1200
  357MPD2    H7 5409   1.362   0.698   0.090  0.5400  1.7445 -0.2945
  358TMC3    C1 5410   1.334   0.861   0.289  0.0859  0.1529  1.1037
  358TMC3    C2 5411   1.430   0.764   0.309 -0.6520 -0.2750 -0.2526
  358TMC3    C3 5412   1.532   0.792   0.399  0.7370 -0.1930 -0.1748
  358TMC3    C4 5413   1.319   0.974   0.366 -0.3944 -0.4313 -0.0459
  358TMC3    C5 5414   1.417   0.991   0.465 -0.1504 -0.7228  0.4427
  358TMC3    C6 5415   1.527   0.906   0.471 -0.0683  0.4735  0.2538
  358TMC3     C 5416   1.231   0.819   0.198  0.0408  0.5104  0.4909
  358TMC3     O 5417   1.120   0.873   0.207 -0.2435 -0.4870 -0.0186
  358TMC3     H 5418   1.420   0.666   0.263 -0.3000 -0.1014 -0.7038
  358TMC3    H1 5419   1.233   1.039   0.360  0.4038  0.6233 -0.1325
  358TMC3    H2 5420   1.592   0.914   0.558  0.4997 -1.3927 -0.0167
  358TMC3    C7 5421   1.370   1.023   0.599  0.3320 -0.1464 -0.2639
  358TMC3    C8 5422   1.659   0.733   0.369  0.0896 -0.1004 -0.0980
  358TMC3    O1 5423   1.442   1.076   0.683  0.0734  0.1529  0.2520
  358TMC3    O2 5424   1.646   0.629   0.299  0.5331  0.4616  0.3600
  359MPD2     C 5425   1.647   4.416  12.473 -0.9973 -0.2780  0.1510
  359MPD2    C1 5426   1.639   4.353  12.352  0.0881  0.2381 -0.3796
  359MPD2    C2 5427   1.581   4.219  12.347 -0.6366  0.7760 -0.5531
  359MPD2    C3 5428   1.545   4.156  12.461 -0.3906  0.1127 -0.3178
  359MPD2    C4 5429   1.566   4.220  12.585 -0.0669 -0.1190  0.1422
  359MPD2    C5 5430   1.623   4.347  12.585 -0.6795  0.1406  0.0269
  359MPD2     H 5431   1.577   4.168  12.252 -0.7004 -2.2519  1.0652
  359MPD2    H1 5432   1.536   4.173  12.678  2.4750 -0.0388  0.9990
  359MPD2    H2 5433   1.689   4.515  12.482 -1.1180 -0.0342 -1.8895
  359MPD2    H3 5434   1.627   4.394  12.683 -1.8189  0.8252 -0.2448
  359MPD2     N 5435   1.479   4.031  12.460 -0.6456  0.1939  0.7356
  359MPD2    H5 5436   1.471   3.995  12.554  0.2077  0.4945  0.9297
  359MPD2    N1 5437   1.687   4.409  12.234 -0.6909 -0.7303 -0.3209
  359MPD2    H7 5438   1.702   4.342  12.158 -0.5115 -0.9893 -0.0605
  360TMC3    C1 5439   1.766   4.552  12.073 -0.3552  0.3087 -0.6019
  360TMC3    C2 5440   1.864   4.650  12.053 -0.4452 -0.2693 -0.1549
  360TMC3    C3 5441   1.958   4.621  11.957  0.1105 -0.1959 -0.3908
  360TMC3    C4 5442   1.729   4.457  11.981  0.6589 -0.3774  0.7573
  360TMC3    C5 5443   1.819   4.434  11.883 -0.0759  0.6727 -0.5616
  360TMC3    C6 5444   1.936   4.515  11.870  0.3865 -0.1526 -0.4217
  360TMC3     C 5445   1.726   4.537  12.215 -0.7292 -1.1217 -0.3404
  360TMC3     O 5446   1.734   4.630  12.289 -0.2370  0.0161 -0.2455
  360TMC3     H 5447   1.876   0.001  12.118 -0.4951 -0.2828 -0.1279
  360TMC3    H1 5448   1.647   4.389  12.000  0.8651 -0.6730  0.5986
  360TMC3    H2 5449   2.015   4.480  11.805  1.5094  2.8018 -0.6405
  360TMC3    C7 5450   1.773   4.401  11.747  0.4784 -0.7484  0.0080
  360TMC3    C8 5451   2.028   4.733  11.895 -0.0896  0.2465 -0.0705
  360TMC3    O1 5452   1.839   4.427  11.647 -0.2703  0.1896  0.1710
  360TMC3    O2 5453   1.990   0.113  11.925  0.8385 -0.2125  0.8811
  361MPD2     C 5454   3.400   2.977  16.245 -0.1389 -0.1691  0.7454
  361MPD2    C1 5455   3.373   3.034  16.363  0.5020 -0.3308  0.1104
  361MPD2    C2 5456   3.443   2.981  16.472 -0.2365 -0.9805  0.1605
  361MPD2    C3 5457   3.529   2.877  16.452  0.6427 -0.6510  0.0976
  361MPD2    C4 5458   3.560   2.823  16.333  0.0950 -0.1337 -0.1543
  361MPD2    C5 5459   3.488   2.879  16.230 -0.0625 -0.3907  0.8129
  361MPD2     H 5460   3.433   3.021  16.573  0.4494 -1.0198  0.2487
  361MPD2    H1 5461   3.626   2.738  16.324  0.7447  0.2924  0.6007
  361MPD2    H2 5462   3.354   3.020  16.157  1.1636  0.5158  0.3965
  361MPD2    H3 5463   3.500   2.840  16.130  0.3260  0.6775  0.4475
  361MPD2     N 5464   3.600   2.816  16.558 -0.4136 -0.9444 -0.8218
  361MPD2    H5 5465   3.659   2.737  16.532  0.2594 -0.5536 -0.4791
  361MPD2    N1 5466   3.289   3.140  16.395 -0.6430 -0.6280  0.2047
  361MPD2    H7 5467   3.260   3.166  16.488 -0.4899 -2.3548  0.7305
  362TMC3    C1 5468   3.161   3.331  16.362 -0.2348  0.6979 -0.4518
  362TMC3    C2 5469   3.180   3.383  16.483  0.1836  0.0001 -0.2485
  362TMC3    C3 5470   3.086   3.464  16.535  0.2989  0.2878 -0.1222
  362TMC3    C4 5471   3.048   3.366  16.285  0.5664  0.4091  0.1023
  362TMC3    C5 5472   2.957   3.460  16.340 -1.0474  0.2516  0.6734
  362TMC3    C6 5473   2.977   3.510  16.469 -0.3797 -0.0831  0.4548
  362TMC3     C 5474   3.236   3.225  16.303 -0.6100  0.1354  0.1561
  362TMC3     O 5475   3.228   3.208  16.183 -0.0718  0.4106  0.1036
  362TMC3     H 5476   3.276   3.363  16.529 -0.2560 -0.4487  0.4824
  362TMC3    H1 5477   3.033   3.322  16.187 -1.4756 -0.5997  0.8621
  362TMC3    H2 5478   2.901   3.578  16.506 -0.4825  1.0027 -1.7053
  362TMC3    C7 5479   2.900   3.559  16.251  0.2310 -0.1242 -1.0619
  362TMC3    C8 5480   3.138   3.540  16.648  0.2226  0.3463  0.3987
  362TMC3    O1 5481   2.904   3.673  16.286 -0.1804  0.5510 -0.2435
  362TMC3    O2 5482   3.215   3.478  16.718  0.3396 -0.5865  0.4359
  363TMC3    C1 5483   1.033   0.694   9.337 -0.0898 -0.7163  0.1791
  363TMC3    C2 5484   1.024   0.619   9.454 -0.1782  0.4369  0.6995
  363TMC3    C3 5485   1.019   0.682   9.572  0.5599  0.5281 -0.8119
  363TMC3    C4 5486   1.035   0.830   9.353 -0.1922 -0.2702  0.4639
  363TMC3    C5 5487   1.024   0.888   9.478  0.4530 -0.4812 -0.5910
  363TMC3    C6 5488   1.016   0.817   9.591 -0.5635 -0.2890  0.2259
  363TMC3     C 5489   1.045   0.647   9.203  0.0783  0.4227 -0.3452
  363TMC3     O 5490   1.060   0.738   9.124 -0.5578 -0.2230 -0.1683
  363TMC3     H 5491   1.011   0.512   9.440 -1.3227  0.5529  0.8794
  363TMC3    H1 5492   1.061   0.899   9.275 -0.2339 -0.2666  0.4531
  363TMC3    H2 5493   1.016   0.858   9.692 -0.6220  1.9165 -0.6660
  363TMC3    C7 5494   1.028   1.036   9.494 -0.3843  0.2583 -0.5136
  363TMC3    C8 5495   1.048   0.599   9.691  0.2341 -0.3683  0.4496
  363TMC3    O1 5496   1.042   1.083   9.606 -0.3024  0.3298 -0.3787
  363TMC3    O2 5497   1.006   0.626   9.805  0.0111 -0.5058 -0.1689
  364MPD2     C 5498   0.351   0.556  10.920 -0.0165 -0.5901  0.7790
  364MPD2    C1 5499   0.367   0.503  10.787 -0.2775 -0.3804 -0.4184
  364MPD2    C2 5500   0.442   0.383  10.770  0.1227  0.2233  0.0785
  364MPD2    C3 5501   0.501   0.314  10.884 -0.0608 -0.3575 -0.1466
  364MPD2    C4 5502   0.480   0.372  11.013 -0.4240  0.3733 -0.2102
  364MPD2    C5 5503   0.407   0.491  11.026  0.1482 -1.9597  0.5882
  364MPD2     H 5504   0.459   0.336  10.674 -2.7533 -2.0604  0.7203
  364MPD2    H1 5505   0.537   0.324  11.092  1.0524  1.5491 -0.5754
  364MPD2    H2 5506   0.290   0.642  10.944 -0.0595 -0.1132 -1.0360
  364MPD2    H3 5507   0.411   0.546  11.120 -0.6482 -1.9206  0.5992
  364MPD2     N 5508   0.567   0.188  10.878  0.4570 -0.7639 -0.4382
  364MPD2    H5 5509   0.576   0.138  10.965  0.7401 -1.6626 -0.9919
  364MPD2    N1 5510   0.307   0.563  10.676 -0.1174  0.1425 -0.0825
  364MPD2    H7 5511   0.227   0.623  10.694 -0.5109 -0.7354  1.0283
  365TMC3    C1 5512   0.246   0.618  10.456  0.1393 -0.2280  0.0406
  365TMC3    C2 5513   0.265   0.587  10.325 -0.8418  0.7494 -0.2139
  365TMC3    C3 5514   0.287   0.688  10.235 -0.3490  0.8021  0.0994
  365TMC3    C4 5515   0.242   0.754  10.497  0.8338  0.0489  0.1246
  365TMC3    C5 5516   0.267   0.858  10.410 -0.0110 -0.2005  0.6948
  365TMC3    C6 5517   0.291   0.820  10.277  0.7053  0.1205  0.1807
  365TMC3     C 5518   0.336   0.544  10.546  0.1500 -0.0811  0.4883
  365TMC3     O 5519   0.447   0.525  10.499  0.2272 -0.1832  0.0460
  365TMC3     H 5520   0.290   0.483  10.308 -0.3013  1.3298 -2.8438
  365TMC3    H1 5521   0.227   0.789  10.599  0.7498 -2.4088  0.9453
  365TMC3    H2 5522   0.336   0.899  10.218  0.8653 -0.8503 -1.0027
  365TMC3    C7 5523   0.366   0.950  10.457  0.1126  1.1603  0.1903
  365TMC3    C8 5524   0.305   0.669  10.097 -0.4607  0.3086  0.3122
  365TMC3    O1 5525   0.399   1.044  10.385 -0.3692 -0.2076 -0.0984
  365TMC3    O2 5526   0.325   0.768  10.022  0.2060  0.0089 -0.0281
  366MPD2     C 5527   3.475   1.195  15.253 -0.6927  0.5256  1.2009
  366MPD2    C1 5528   3.549   1.265  15.165  0.4413 -0.1409 -0.0212
  366MPD2    C2 5529   3.656   1.205  15.099 -0.2681 -0.1010 -0.0755
  366MPD2    C3 5530   3.685   1.072  15.126  0.1361  0.3287 -0.5542
  366MPD2    C4 5531   3.589   0.999  15.196 -0.1840  0.6011  0.3082
  366MPD2    C5 5532   3.488   1.064  15.259  0.2319 -0.4274  0.1808
  366MPD2     H 5533   3.715   1.255  15.023  1.4315 -2.0819 -0.0281
  366MPD2    H1 5534   3.598   0.891  15.209 -0.9346  0.4049 -0.7884
  366MPD2    H2 5535   3.388   1.241  15.298 -1.2995  0.2900  0.2785
  366MPD2    H3 5536   3.431   0.999  15.324  1.7556 -0.1627  1.7782
  366MPD2     N 5537   3.791   1.010  15.055 -0.2309 -0.1784  0.2441
  366MPD2    H5 5538   3.860   1.055  14.996 -0.8972  0.0141 -0.3830
  366MPD2    N1 5539   3.526   1.399  15.136  0.6160 -0.2768  0.3715
  366MPD2    H7 5540   3.600   1.457  15.098 -0.7205  1.7447  0.8734
  367TMC3    C1 5541   3.466   1.618  15.167  0.0161  0.4690 -0.2183
  367TMC3    C2 5542   3.596   1.647  15.200 -0.2526  0.7911 -0.3977
  367TMC3    C3 5543   3.643   1.774  15.174  0.4116 -0.5077  0.8484
  367TMC3    C4 5544   3.383   1.706  15.099 -0.0458 -0.3526  0.0989
  367TMC3    C5 5545   3.433   1.828  15.076  0.3442 -0.2798  0.4798
  367TMC3    C6 5546   3.559   1.867  15.117 -0.1021 -0.0975 -0.7963
  367TMC3     C 5547   3.424   1.476  15.177  0.2100 -0.5085  0.2534
  367TMC3     O 5548   3.308   1.452  15.197 -0.3904  0.3144  0.0370
  367TMC3     H 5549   3.661   1.579  15.255  1.0047  2.1348 -0.2273
  367TMC3    H1 5550   3.285   1.674  15.064 -1.3202  0.0611  3.1982
  367TMC3    H2 5551   3.590   1.967  15.089 -0.7122  0.5855  1.0180
  367TMC3    C7 5552   3.374   1.913  14.971 -0.2089  0.7795 -0.4108
  367TMC3    C8 5553   3.757   1.822  15.253  0.0090 -0.3845 -0.2200
  367TMC3    O1 5554   3.378   2.036  14.988  0.4705 -0.4193  0.6914
  367TMC3    O2 5555   3.820   1.733  15.309  0.4145 -0.4135 -0.2128
  368MPD2     C 5556   4.721   3.456  13.365  0.7156  0.1062  0.8368
  368MPD2    C1 5557   4.719   3.543  13.262 -0.3214  0.1975  0.0759
  368MPD2    C2 5558   0.084   3.540  13.161  0.5505 -0.3384 -0.8258
  368MPD2    C3 5559   0.180   3.438  13.167 -0.2309  0.1211 -0.3144
  368MPD2    C4 5560   0.182   3.360  13.280 -0.0519  0.4388  0.2773
  368MPD2    C5 5561   0.087   3.372  13.371 -0.5335 -0.0196  0.1845
  368MPD2     H 5562   0.089   3.619  13.086 -0.6249  0.8091  0.3127
  368MPD2    H1 5563   0.258   3.284  13.290 -2.0062 -1.8885 -2.6712
  368MPD2    H2 5564   4.651   3.463  13.448 -2.1710 -1.4239 -1.4572
  368MPD2    H3 5565   0.095   3.300  13.452  0.6083 -3.1024 -2.7136
  368MPD2     N 5566   0.276   3.419  13.062 -0.1134 -0.0455 -0.5736
  368MPD2    H5 5567   0.338   3.339  13.070  0.5953  0.2965 -2.6903
  368MPD2    N1 5568   4.610   3.633  13.247 -0.0288  1.0207  0.4907
  368MPD2    H7 5569   4.549   3.646  13.327  0.2985  2.7391  0.4592
  369TMC3    C1 5570   4.502   3.827  13.165  0.5632  0.8577 -0.2885
  369TMC3    C2 5571   4.503   3.935  13.084  0.0183  0.4357 -1.0083
  369TMC3    C3 5572   4.394   4.018  13.092  0.1885  0.3250  0.0518
  369TMC3    C4 5573   4.395   3.798  13.240 -0.1082  0.3828  0.0114
  369TMC3    C5 5574   4.285   3.885  13.241 -0.1345  0.3802 -0.0910
  369TMC3    C6 5575   4.279   3.995  13.162  0.2861 -0.6798 -0.5364
  369TMC3     C 5576   4.601   3.723  13.140 -0.3295 -0.5524 -0.0154
  369TMC3     O 5577   4.634   3.711  13.021  0.4686 -0.3593  0.3462
  369TMC3     H 5578   4.578   3.939  13.006  0.5989 -0.1682 -0.4942
  369TMC3    H1 5579   4.376   3.700  13.284 -0.4370  1.7850  2.9629
  369TMC3    H2 5580   4.197   4.065  13.174  1.5227  0.4025  1.5669
  369TMC3    C7 5581   4.153   3.840  13.275 -0.1325 -0.6339  0.1745
  369TMC3    C8 5582   4.405   4.137  13.018 -0.7730 -0.2605  0.4155
  369TMC3    O1 5583   4.158   3.771  13.374 -0.1060 -0.0474 -0.4459
  369TMC3    O2 5584   4.305   4.173  12.966 -0.3202  0.7983 -0.4496
  370TMC3    C1 5585   4.679   3.981  16.181  0.2176  0.1852 -0.6637
  370TMC3    C2 5586   4.566   3.954  16.244  0.0497  0.3093 -0.6881
  370TMC3    C3 5587   4.499   3.837  16.212  0.4099 -0.2034  0.2213
  370TMC3    C4 5588   0.010   3.900  16.092 -0.1532 -0.1857  0.1068
  370TMC3    C5 5589   4.687   3.779  16.075  0.0429  0.7273  0.8369
  370TMC3    C6 5590   4.563   3.746  16.129 -0.5999  0.3791 -0.2768
  370TMC3     C 5591   0.018   4.098  16.228  0.6699  0.3053  0.1876
  370TMC3     O 5592   4.722   4.135  16.342  0.0046  0.0119 -0.0551
  370TMC3     H 5593   4.531   4.022  16.320  0.7686 -0.8423  0.6769
  370TMC3    H1 5594   0.104   3.923  16.042 -1.1914  0.0239 -1.7253
  370TMC3    H2 5595   4.516   3.654  16.098 -1.0242  0.3932  0.3182
  370TMC3    C7 5596   4.730   3.711  15.952 -0.1327  0.0898  0.1762
  370TMC3    C8 5597   4.418   3.777  16.318 -0.2174  0.2031  0.0244
  370TMC3    O1 5598   0.025   3.791  15.860  0.5097  0.0015  0.1915
  370TMC3    O2 5599   4.413   3.655  16.335  0.1238  0.4882 -0.3411
  371TMC3    C1 5600   1.249   2.410  15.262  0.3726 -0.0647 -0.2814
  371TMC3    C2 5601   1.199   2.366  15.381 -0.2798  0.2478 -0.6531
  371TMC3    C3 5602   1.156   2.467  15.469  0.5651  0.3041 -0.7116
  371TMC3    C4 5603   1.270   2.539  15.238  0.4102  0.6264 -0.9897
  371TMC3    C5 5604   1.236   2.627  15.333  0.3787  0.0609 -0.3232
  371TMC3    C6 5605   1.180   2.599  15.450 -1.0609  0.3840 -0.3409
  371TMC3     C 5606   1.326   2.319  15.183  0.2135 -0.0834  0.7186
  371TMC3     O 5607   1.408   2.384  15.116  0.1582 -0.1179 -0.0058
  371TMC3     H 5608   1.193   2.262  15.413  0.0201 -0.0896 -1.7209
  371TMC3    H1 5609   1.308   2.575  15.143 -0.7412  0.2756 -1.5862
  371TMC3    H2 5610   1.150   2.675  15.521 -2.4839 -1.3467  0.9093
  371TMC3    C7 5611   1.299   2.755  15.322 -0.2265 -0.7923  0.1193
  371TMC3    C8 5612   1.085   2.420  15.587 -0.1683  0.1622 -0.1491
  371TMC3    O1 5613   1.264   2.813  15.218 -0.1653 -0.9003 -0.3574
  371TMC3    O2 5614   1.068   2.300  15.602  0.3934  0.4050 -0.0978
  372MPD2     C 5615   0.035   3.837  13.554 -0.0507 -0.2682 -0.5059
  372MPD2    C1 5616   0.124   3.731  13.550  0.6447 -0.1800  0.4633
  372MPD2    C2 5617   0.107   3.630  13.644  0.0362 -0.0453  0.2463
  372MPD2    C3 5618   0.012   3.635  13.745 -0.6987 -0.1560 -0.0309
  372MPD2    C4 5619   4.654   3.737  13.743  0.2672  0.0249 -0.0298
  372MPD2    C5 5620   4.667   3.831  13.646  0.7960  0.0533 -0.4521
  372MPD2     H 5621   0.164   3.538  13.650 -1.0050 -0.8168 -1.6813
  372MPD2    H1 5622   4.570   3.759  13.808  0.4170  2.4177 -0.6548
  372MPD2    H2 5623   0.036   3.909  13.473 -0.9163 -0.2530 -0.4997
  372MPD2    H3 5624   4.594   3.912  13.642 -0.1334 -0.7978 -0.8318
  372MPD2     N 5625   0.018   3.542  13.848 -0.5117 -0.4996 -0.0818
  372MPD2    H5 5626   0.084   3.466  13.836 -0.6124 -0.4304 -1.0231
  372MPD2    N1 5627   0.223   3.718  13.455  0.4042  1.3782 -0.0445
  372MPD2    H7 5628   0.288   3.641  13.470  0.8344  1.7807  0.1581
  373TMC3    C1 5629   4.680   3.423  14.038  0.1430  0.4458 -0.2646
  373TMC3    C2 5630   4.676   3.416  14.176 -0.4636  1.1702 -0.1845
  373TMC3    C3 5631   4.681   3.294  14.239 -0.2177  0.3520 -0.1049
  373TMC3    C4 5632   4.673   3.309  13.958 -0.7170  1.0867  0.7416
  373TMC3    C5 5633   4.693   3.189  14.028 -0.1191  0.2245  0.1449
  373TMC3    C6 5634   4.684   3.180  14.165  0.1284  0.1263  0.2781
  373TMC3     C 5635   4.679   3.547  13.967 -0.3516 -0.6174 -0.1237
  373TMC3     O 5636   4.617   3.636  14.021 -0.4417  0.2690 -0.3414
  373TMC3     H 5637   4.673   3.508  14.233 -0.4622  0.2814  1.2482
  373TMC3    H1 5638   4.652   3.310  13.851 -1.8002  2.8755  0.9675
  373TMC3    H2 5639   4.703   3.082  14.206 -0.0533  0.7940  1.9405
  373TMC3    C7 5640   0.018   3.080  13.947 -0.4068  0.4121  0.3193
  373TMC3    C8 5641   0.009   3.296  14.373  0.6706 -0.0873  0.8727
  373TMC3    O1 5642   0.081   3.111  13.846  0.2646 -0.5868 -0.3846
  373TMC3    O2 5643   4.727   3.399  14.440 -0.1970 -0.2833 -0.1900
  374TMC3    C1 5644   0.366   3.842  10.199  0.2465 -0.4136 -0.6597
  374TMC3    C2 5645   0.462   3.948  10.198 -0.0240  0.4697  0.6284
  374TMC3    C3 5646   0.500   3.991  10.073 -0.4107 -0.5332  0.2719
  374TMC3    C4 5647   0.296   3.801  10.091 -0.7199  0.2407 -0.1333
  374TMC3    C5 5648   0.333   3.859   9.974 -0.1368  0.2695  0.4299
  374TMC3    C6 5649   0.439   3.947   9.958  0.8589 -0.5560  0.0050
  374TMC3     C 5650   0.325   3.791  10.332 -0.4642 -0.3284 -0.0735
  374TMC3     O 5651   0.382   3.823  10.434 -0.3469  0.2861 -0.4664
  374TMC3     H 5652   0.499   3.975  10.296  1.4048 -0.1015  0.2492
  374TMC3    H1 5653   0.206   3.742  10.106  1.0193 -2.9153 -1.9532
  374TMC3    H2 5654   0.465   3.992   9.863  0.3309 -1.4482 -0.5602
  374TMC3    C7 5655   0.269   3.819   9.850 -0.5536 -0.2669  1.0922
  374TMC3    C8 5656   0.591   4.100  10.061  0.4575 -0.5344 -0.0368
  374TMC3    O1 5657   0.296   3.892   9.753  0.2221 -0.5585  0.0763
  374TMC3    O2 5658   0.572   4.165   9.961  0.0737 -0.3241 -0.8671
  375MPD2     C 5659   1.369   0.226  17.320  0.0550 -0.4921 -0.3201
  375MPD2    C1 5660   1.254   0.239  17.239 -0.0506  0.4628 -0.5380
  375MPD2    C2 5661   1.264   0.209  17.106 -0.0204 -0.0553 -0.9007
  375MPD2    C3 5662   1.390   0.170  17.048  0.4822  0.0499  0.3702
  375MPD2    C4 5663   1.500   0.159  17.130  0.2332  0.5231  0.5807
  375MPD2    C5 5664   1.490   0.178  17.265 -0.1659  0.3851  0.0232
  375MPD2     H 5665   1.172   0.207  17.048 -0.5234  1.1693 -0.1435
  375MPD2    H1 5666   1.595   0.143  17.080 -0.3989 -1.8470  0.1079
  375MPD2    H2 5667   1.364   0.234  17.428  0.9612  1.3568 -0.4265
  375MPD2    H3 5668   1.577   0.181  17.331  0.2908 -0.8523 -0.5415
  375MPD2     N 5669   1.397   0.121  16.919 -0.3531 -0.3826 -0.1728
  375MPD2    H5 5670   1.482   0.076  16.886 -0.9851  0.8010 -3.3709
  375MPD2    N1 5671   1.121   0.262  17.283 -0.4757 -0.4059 -0.5773
  375MPD2    H7 5672   1.053   0.267  17.208 -1.6533 -1.3700  0.4137
  376TMC3    C1 5673   1.314   0.023  16.729 -0.0948  0.9163  0.0070
  376TMC3    C2 5674   1.399   4.650  16.748  0.0638 -0.1197 -0.1486
  376TMC3    C3 5675   1.397   4.551  16.658 -0.2563  0.1576 -0.2417
  376TMC3    C4 5676   1.221   0.009  16.620  0.1354 -0.5823 -0.9616
  376TMC3    C5 5677   1.223   4.641  16.537 -0.1192 -0.2881  0.5593
  376TMC3    C6 5678   1.312   4.547  16.547 -0.2641 -0.6441 -0.1132
  376TMC3     C 5679   1.294   0.116  16.832  0.3651 -0.2810  0.5071
  376TMC3     O 5680   1.183   0.169  16.841 -0.1179  0.0502 -0.2774
  376TMC3     H 5681   1.477   4.639  16.822 -1.1126 -1.9984  0.7886
  376TMC3    H1 5682   1.159   0.097  16.612  3.0946  1.7876  2.2048
  376TMC3    H2 5683   1.322   4.472  16.469 -3.0119 -0.6563 -0.4508
  376TMC3    C7 5684   1.175   4.684  16.410 -0.5367  0.0776  0.0884
  376TMC3    C8 5685   1.510   4.453  16.658  0.0448 -0.2919 -0.1253
  376TMC3    O1 5686   1.133   0.060  16.395  0.0640 -0.1611  0.2652
  376TMC3    O2 5687   1.552   4.416  16.767  0.1838  0.1762  0.1377
  377MPD2     C 5688   3.253   4.199  12.803 -0.2365  0.7441 -0.5367
  377MPD2    C1 5689   3.334   4.088  12.800 -0.3600 -0.5827  0.0978
  377MPD2    C2 5690   3.309   3.993  12.908  0.1769  0.2279  0.0919
  377MPD2    C3 5691   3.220   4.013  13.018 -0.3039  0.0530  0.3014
  377MPD2    C4 5692   3.149   4.135  13.014 -0.4331  0.3505  0.2799
  377MPD2    C5 5693   3.175   4.223  12.912 -0.1830 -0.5070 -0.2799
  377MPD2     H 5694   3.363   3.899  12.905  0.0500  0.1093  1.3966
  377MPD2    H1 5695   3.083   4.160  13.096 -0.5289  2.8958 -0.5694
  377MPD2    H2 5696   3.256   4.260  12.714  0.4092 -1.8425 -2.2552
  377MPD2    H3 5697   3.115   4.313  12.904  0.9877  0.2358 -0.7418
  377MPD2     N 5698   3.186   3.919  13.119 -0.2152  0.1784  0.3317
  377MPD2    H5 5699   3.109   3.940  13.182  0.4633 -2.5469  2.0821
  377MPD2    N1 5700   3.440   4.084  12.702  0.1174 -0.1452  0.4964
  377MPD2    H7 5701   3.455   4.159  12.634 -1.9362 -0.1231  0.0782
  378TMC3    C1 5702   3.717   4.081  12.391  0.3111  0.3693 -0.0389
  378TMC3    C2 5703   3.620   4.077  12.484 -0.2154 -0.9059 -1.1311
  378TMC3    C3 5704   3.652   4.026  12.611 -0.0479  0.0418  0.4044
  378TMC3    C4 5705   3.846   4.053  12.423 -0.2061 -0.4248  0.4443
  378TMC3    C5 5706   3.876   4.012  12.554 -0.5450 -0.3332  0.4398
  378TMC3    C6 5707   3.781   3.993  12.648  0.3852  0.7365  0.1793
  378TMC3     C 5708   3.659   4.043  12.263  0.1535 -0.2252  0.2707
  378TMC3     O 5709   3.560   3.975  12.269 -0.1613 -0.5502 -0.1121
  378TMC3     H 5710   3.516   4.081  12.454  0.1532  1.0611 -2.1551
  378TMC3    H1 5711   3.913   4.060  12.338  1.3122 -0.4623  1.6271
  378TMC3    H2 5712   3.809   3.959  12.747  1.8323  0.2730 -0.3804
  378TMC3    C7 5713   4.010   3.999  12.610  0.2598 -0.4138 -1.0128
  378TMC3    C8 5714   3.551   4.004  12.713 -0.4840  0.2569 -0.5381
  378TMC3    O1 5715   4.021   4.000  12.730 -0.1584  0.1914 -0.3540
  378TMC3    O2 5716   3.572   3.917  12.795  0.6674 -0.2151 -0.2012
  379MPD2     C 5717   4.353   2.120  16.320  0.1957  1.0118  0.2079
  379MPD2    C1 5718   4.429   2.021  16.259  0.2166 -0.1124  0.0873
  379MPD2    C2 5719   4.535   1.964  16.325 -0.2667  0.0514 -0.0419
  379MPD2    C3 5720   4.555   1.984  16.461  0.2590 -0.5437 -0.9929
  379MPD2    C4 5721   4.470   2.076  16.526  0.6231 -0.6710 -0.3197
  379MPD2    C5 5722   4.375   2.147  16.451 -0.1055 -0.3322  0.2423
  379MPD2     H 5723   4.610   1.905  16.275  0.5004  0.4484  0.6435
  379MPD2    H1 5724   4.477   2.103  16.630  1.2976  1.0662 -0.8179
  379MPD2    H2 5725   4.278   2.174  16.264 -2.2656  0.4777  2.9363
  379MPD2    H3 5726   4.314   2.223  16.498  0.2978  0.6860 -0.8888
  379MPD2     N 5727   4.669   1.937  16.538 -0.2091  0.0815 -0.4487
  379MPD2    H5 5728   4.667   1.949  16.639 -2.0350  0.3966 -0.5187
  379MPD2    N1 5729   4.404   1.993  16.120 -0.2660  0.0037 -0.4379
  379MPD2    H7 5730   4.341   2.054  16.069  0.8891  2.5305  1.1889
  380TMC3    C1 5731   4.387   1.864  15.922  0.1081  0.1740  0.1751
  380TMC3    C2 5732   4.415   1.739  15.867 -0.5803 -0.1106  0.2627
  380TMC3    C3 5733   4.388   1.735  15.736  1.2159  0.5905 -0.2295
  380TMC3    C4 5734   4.313   1.968  15.866  0.2997  0.1237 -0.8403
  380TMC3    C5 5735   4.267   1.936  15.744 -0.5194  0.6158  0.2331
  380TMC3    C6 5736   4.297   1.817  15.677  0.2938  0.8326  0.0499
  380TMC3     C 5737   4.440   1.879  16.058 -0.0205  0.0064 -0.1827
  380TMC3     O 5738   4.507   1.790  16.102  0.2131 -0.2330 -0.0244
  380TMC3     H 5739   4.474   1.669  15.925 -0.8875  1.6916  2.7573
  380TMC3    H1 5740   4.308   2.068  15.909  2.3050  0.9182 -2.4209
  380TMC3    H2 5741   4.288   1.812  15.569  1.2994  1.9287 -0.0877
  380TMC3    C7 5742   4.207   2.041  15.668 -0.2835  0.1911  0.8046
  380TMC3    C8 5743   4.512   1.752  15.662 -0.5322  0.4719  0.4703
  380TMC3    O1 5744   4.234   2.156  15.703  0.1734  0.0280  0.2912
  380TMC3    O2 5745   4.503   1.837  15.572 -0.5608 -0.3010  0.3719
  381TMC3    C1 5746   4.517   3.061  16.262  0.1268 -0.5936 -0.4613
  381TMC3    C2 5747   4.590   3.175  16.246 -0.1880  0.0443  0.4287
  381TMC3    C3 5748   4.557   3.287  16.318  0.6564 -0.0422 -0.4831
  381TMC3    C4 5749   4.405   3.067  16.342  0.4114  0.1852 -0.3705
  381TMC3    C5 5750   4.376   3.189  16.408  0.7516  0.4987  0.5414
  381TMC3    C6 5751   4.451   3.298  16.405 -0.1226 -0.2995  0.2458
  381TMC3     C 5752   4.557   2.941  16.187 -0.1672 -0.7038  0.6095
  381TMC3     O 5753   4.640   2.956  16.098  0.1640  0.0253 -0.5133
  381TMC3     H 5754   4.675   3.179  16.179 -0.7027 -1.2547 -0.3129
  381TMC3    H1 5755   4.346   2.977  16.353  0.9804 -0.0862  0.5417
  381TMC3    H2 5756   4.432   3.390  16.458  0.6170  0.3503 -0.6069
  381TMC3    C7 5757   4.339   3.165  16.544  0.0693 -0.5306 -0.1659
  381TMC3    C8 5758   4.655   3.392  16.298  0.7329  0.2203  0.4810
  381TMC3    O1 5759   4.393   3.061  16.586  0.5548  0.6898 -0.4685
  381TMC3    O2 5760   4.720   3.398  16.194 -0.0485  0.0063 -0.4004
  382MPD2     C 5761   3.894   1.294  16.968 -0.2381  0.5861 -0.0197
  382MPD2    C1 5762   3.870   1.263  17.101  0.5248 -0.0542 -0.2586
  382MPD2    C2 5763   3.870   1.130  17.143  0.0519  0.2866 -0.0915
  382MPD2    C3 5764   3.893   1.028  17.055 -0.1822  0.8914  0.1951
  382MPD2    C4 5765   3.910   1.051  16.920  0.1140 -0.5638  0.2120
  382MPD2    C5 5766   3.922   1.183  16.885 -0.4518 -0.2738 -0.5904
  382MPD2     H 5767   3.827   1.096  17.236  0.0166  0.2287 -0.1289
  382MPD2    H1 5768   3.924   0.971  16.847  1.5229  2.2081 -2.5476
  382MPD2    H2 5769   3.903   1.394  16.928 -0.4513  1.1713  1.3639
  382MPD2    H3 5770   3.939   1.195  16.778  0.0271 -2.8562 -0.8122
  382MPD2     N 5771   3.887   0.890  17.101 -0.0735 -1.1854 -0.7214
  382MPD2    H5 5772   3.852   0.828  17.029 -3.3021 -0.5191  0.2722
  382MPD2    N1 5773   3.848   1.366  17.194  0.7911 -0.1938  0.3195
  382MPD2    H7 5774   3.839   1.457  17.151 -2.5195 -1.7295 -2.2998
  383TMC3    C1 5775   3.903   0.706  17.264  0.5162 -0.4187 -0.1716
  383TMC3    C2 5776   3.828   0.633  17.170 -0.3278 -0.3952 -0.4910
  383TMC3    C3 5777   3.810   0.496  17.201  0.4667  0.1166 -0.3835
  383TMC3    C4 5778   3.960   0.649  17.376 -0.1351 -0.3401 -0.2171
  383TMC3    C5 5779   3.936   0.516  17.401 -0.0827  0.1305  0.1493
  383TMC3    C6 5780   3.867   0.439  17.314  0.4369 -0.1365 -0.7688
  383TMC3     C 5781   3.912   0.848  17.234  0.2653 -0.4578  0.4567
  383TMC3     O 5782   3.965   0.912  17.324 -0.2501 -0.2747  0.4532
  383TMC3     H 5783   3.775   0.685  17.092 -0.4934  2.0448  1.2667
  383TMC3    H1 5784   4.021   0.713  17.439 -1.3306  1.2023 -0.6226
  383TMC3    H2 5785   3.838   0.338  17.341 -1.6380  0.9430  1.0629
  383TMC3    C7 5786   4.025   0.449  17.495  0.4052 -0.0995 -0.0765
  383TMC3    C8 5787   3.713   0.429  17.119 -0.0939  0.4921 -0.0382
  383TMC3    O1 5788   4.071   0.338  17.475  0.3993  0.6432  0.0479
  383TMC3    O2 5789   3.672   0.490  17.018 -0.3802 -0.0238  0.3774
  384MPD2     C 5790   0.335   2.065  11.854  0.0516  0.6321 -0.5566
  384MPD2    C1 5791   0.260   1.970  11.916  0.3132  0.2009 -0.0297
  384MPD2    C2 5792   0.306   1.841  11.916  0.0897 -0.5826  0.2355
  384MPD2    C3 5793   0.436   1.814  11.874 -0.1898 -0.9493 -0.3843
  384MPD2    C4 5794   0.507   1.912  11.811  0.0248  0.5204  0.5918
  384MPD2    C5 5795   0.452   2.031  11.792 -0.7081  0.0963 -0.3431
  384MPD2     H 5796   0.252   1.757  11.958 -1.0608 -0.5451 -1.1474
  384MPD2    H1 5797   0.605   1.905  11.765 -0.1022 -2.3890  0.7472
  384MPD2    H2 5798   0.292   2.160  11.825  1.6571  1.4214 -0.3920
  384MPD2    H3 5799   0.498   2.100  11.722 -0.5938 -0.0522 -0.4137
  384MPD2     N 5800   0.499   1.685  11.879 -0.2376  0.2514  0.1402
  384MPD2    H5 5801   0.596   1.684  11.850  0.0340  0.2824  1.0390
  384MPD2    N1 5802   0.142   2.011  11.983 -0.5043 -0.0372 -0.2186
  384MPD2    H7 5803   0.115   2.106  11.958  0.6973  0.9837  2.2781
  385TMC3    C1 5804   0.557   1.475  11.944  0.2129 -0.1544 -0.0091
  385TMC3    C2 5805   0.535   1.338  11.934 -0.6411  0.1363 -0.3225
  385TMC3    C3 5806   0.627   1.260  12.000 -0.5028 -0.3237 -0.3305
  385TMC3    C4 5807   0.663   1.523  12.018  0.1849 -0.8758 -0.1551
  385TMC3    C5 5808   0.741   1.444  12.087  0.2302 -0.0494  0.3634
  385TMC3    C6 5809   0.723   1.306  12.079 -0.2251 -0.4200  0.5241
  385TMC3     C 5810   0.447   1.568  11.923 -0.1761  0.1571 -0.1761
  385TMC3     O 5811   0.330   1.531  11.940 -0.1207 -0.1582  0.0016
  385TMC3     H 5812   0.447   1.296  11.887  0.6607 -2.2077 -0.6666
  385TMC3    H1 5813   0.684   1.629  12.013  0.3848 -0.9097 -0.0165
  385TMC3    H2 5814   0.796   1.235  12.117 -0.3322  0.5470  2.5340
  385TMC3    C7 5815   0.759   1.502  12.220  0.4665  0.1361 -0.0877
  385TMC3    C8 5816   0.592   1.113  12.002 -0.3129 -0.3546  0.5595
  385TMC3    O1 5817   0.764   1.622  12.227  0.1071 -0.4789 -0.1810
  385TMC3    O2 5818   0.635   1.049  12.095  0.2353  0.4564  0.2790
  386TMC3    C1 5819   0.600   4.155  11.683  0.4104 -0.0962  0.4395
  386TMC3    C2 5820   0.602   4.231  11.566  0.2075  0.1178  0.0253
  386TMC3    C3 5821   0.497   4.321  11.552  0.0143  0.4442 -0.6927
  386TMC3    C4 5822   0.503   4.169  11.778 -0.0798 -0.9857 -0.4705
  386TMC3    C5 5823   0.414   4.276  11.766  0.7176 -0.3157 -0.7903
  386TMC3    C6 5824   0.410   4.347  11.652  0.2724  0.1889 -0.1798
  386TMC3     C 5825   0.708   4.062  11.713  0.0037  0.1730 -0.3423
  386TMC3     O 5826   0.821   4.098  11.668  0.3217 -0.0809  0.1490
  386TMC3     H 5827   0.668   4.196  11.487 -1.2541 -0.5540 -0.8878
  386TMC3    H1 5828   0.507   4.114  11.872  0.0947  1.9332  1.2133
  386TMC3    H2 5829   0.346   4.433  11.641 -0.6345 -0.6443 -1.3946
  386TMC3    C7 5830   0.285   4.258  11.827 -0.0483  0.5788 -0.5755
  386TMC3    C8 5831   0.413   4.292  11.430  0.0278 -1.1646 -0.3368
  386TMC3    O1 5832   0.291   4.222  11.944 -0.7360  0.3610 -0.5959
  386TMC3    O2 5833   0.295   4.279  11.455 -0.2839 -0.4702  0.0206
  387MPD2     C 5834   3.090   4.436   9.501 -0.7201  0.6333  0.1288
  387MPD2    C1 5835   3.083   4.426   9.637  0.2126 -0.8239 -0.7001
  387MPD2    C2 5836   3.078   4.298   9.697  0.4303  0.3008  0.0945
  387MPD2    C3 5837   3.075   4.187   9.619 -0.2511 -0.8579 -0.1082
  387MPD2    C4 5838   3.083   4.200   9.479  0.0882 -0.4223  0.0263
  387MPD2    C5 5839   3.092   4.326   9.421 -0.6688  0.2363 -0.7786
  387MPD2     H 5840   3.090   4.285   9.804 -2.3108  1.2428  0.5145
  387MPD2    H1 5841   3.085   4.119   9.407 -0.9726 -0.3543 -0.0756
  387MPD2    H2 5842   3.096   4.534   9.455 -1.3120  0.5644 -0.0890
  387MPD2    H3 5843   3.107   4.347   9.316 -1.2199 -0.4368 -0.9934
  387MPD2     N 5844   3.080   4.067   9.690 -0.2949  0.4583  0.0550
  387MPD2    H5 5845   3.078   4.073   9.791 -0.3704  0.5736  0.0469
  387MPD2    N1 5846   3.087   4.529   9.732  0.2821 -0.1490  0.0139
  387MPD2    H7 5847   3.072   4.518   9.831 -3.1393 -1.0561 -0.5907
  388TMC3    C1 5848   3.169   4.728   9.814 -0.3313 -0.0663 -0.6024
  388TMC3    C2 5849   3.126   0.118   9.846 -0.8799  0.4101  0.1578
  388TMC3    C3 5850   3.119   0.144   9.980  1.0094  0.4346 -0.1874
  388TMC3    C4 5851   3.227   4.651   9.911 -0.5891  0.4594  0.6297
  388TMC3    C5 5852   3.225   4.684  10.040 -0.3547  0.2879 -0.0791
  388TMC3    C6 5853   3.177   0.067  10.077  0.7221 -0.2382 -0.1443
  388TMC3     C 5854   3.115   4.661   9.697 -0.6937 -0.0361  0.4629
  388TMC3     O 5855   3.099   4.725   9.594 -0.5882 -0.1081  0.6019
  388TMC3     H 5856   3.080   0.180   9.769 -1.4449 -0.7395 -0.4350
  388TMC3    H1 5857   3.274   4.555   9.890 -0.4882  0.4054  1.1035
  388TMC3    H2 5858   3.175   0.108  10.177 -1.8000  0.4331 -0.4665
  388TMC3    C7 5859   3.267   4.591  10.145 -0.0442  0.3283 -0.1786
  388TMC3    C8 5860   3.080   0.279  10.006  0.1216  0.2132 -0.6349
  388TMC3    O1 5861   3.352   4.626  10.226 -0.4216 -0.7396  0.1075
  388TMC3    O2 5862   3.095   0.364   9.920 -0.0685 -0.5072 -0.0600
  389MPD2     C 5863   1.615   2.651  11.261  0.6627 -0.4160 -0.9229
  389MPD2    C1 5864   1.660   2.532  11.214 -0.2682  0.0880 -0.2076
  389MPD2    C2 5865   1.687   2.431  11.304  0.4111 -0.0476 -0.2050
  389MPD2    C3 5866   1.677   2.450  11.441 -1.0381  0.7489 -0.0155
  389MPD2    C4 5867   1.635   2.570  11.487  0.3467  0.6963  0.4278
  389MPD2    C5 5868   1.600   2.667  11.394  0.4708  0.7223  0.4188
  389MPD2     H 5869   1.736   2.341  11.269  0.1892  0.4025 -1.6842
  389MPD2    H1 5870   1.633   2.586  11.594  2.9436  0.1380  0.5708
  389MPD2    H2 5871   1.591   2.733  11.195 -0.8712 -2.0923 -2.4418
  389MPD2    H3 5872   1.570   2.766  11.427 -0.7432 -0.5669  3.1252
  389MPD2     N 5873   1.708   2.354  11.539 -0.1655 -0.2074 -0.1517
  389MPD2    H5 5874   1.681   2.376  11.635 -0.1152 -0.4493 -0.0831
  389MPD2    N1 5875   1.657   2.522  11.074 -0.7836  0.3426  0.0254
  389MPD2    H7 5876   1.627   2.601  11.018  1.8592  0.7498 -0.7749
  390TMC3    C1 5877   1.815   2.164  11.630 -0.6070  0.2215 -0.8027
  390TMC3    C2 5878   1.773   2.034  11.615  0.4539 -0.3084  0.3018
  390TMC3    C3 5879   1.769   1.956  11.723 -0.5124  0.1361 -0.7653
  390TMC3    C4 5880   1.834   2.222  11.747  0.6418  0.0928 -0.0501
  390TMC3    C5 5881   1.815   2.146  11.860  1.2721  0.6015 -0.5286
  390TMC3    C6 5882   1.794   2.014  11.850 -0.4841  0.6453 -0.0046
  390TMC3     C 5883   1.782   2.238  11.513 -0.4846  0.5242  0.1033
  390TMC3     O 5884   1.811   2.181  11.410 -0.0721  0.1662 -0.0723
  390TMC3     H 5885   1.739   1.990  11.522 -0.1054  1.5352 -0.3616
  390TMC3    H1 5886   1.881   2.320  11.750  1.3527 -0.2290 -0.7271
  390TMC3    H2 5887   1.800   1.959  11.943  1.0092  0.5944 -0.1409
  390TMC3    C7 5888   1.817   2.215  11.994  0.4462  0.1754  0.2350
  390TMC3    C8 5889   1.727   1.823  11.707  0.6529  0.2607  0.2725
  390TMC3    O1 5890   1.899   2.307  12.014  0.0318 -0.0757  0.2445
  390TMC3    O2 5891   1.741   1.775  11.596  0.1622 -0.9192  0.6025
  391MPD2     C 5892   1.567   3.822  11.269  0.5460  0.3695 -0.4912
  391MPD2    C1 5893   1.662   3.845  11.184 -0.0708 -0.3983 -0.4552
  391MPD2    C2 5894   1.631   3.874  11.052  0.1555  0.5401 -0.8497
  391MPD2    C3 5895   1.497   3.910  11.017  0.1063 -0.6312 -0.9397
  391MPD2    C4 5896   1.402   3.883  11.109 -0.5210 -0.1493  0.0518
  391MPD2    C5 5897   1.436   3.827  11.226  0.4405 -0.1389 -0.0188
  391MPD2     H 5898   1.703   3.891  10.972 -0.6403  4.2459 -0.7807
  391MPD2    H1 5899   1.296   3.901  11.094  0.0125  2.4714 -0.5652
  391MPD2    H2 5900   1.581   3.789  11.371  1.5844  0.8804 -0.4701
  391MPD2    H3 5901   1.350   3.807  11.288 -0.0158  0.2836 -0.5202
  391MPD2     N 5902   1.475   3.975  10.892  0.1160  0.6204  0.4356
  391MPD2    H5 5903   1.548   3.973  10.822  0.7710 -0.8144  1.1467
  391MPD2    N1 5904   1.796   3.830  11.236 -0.2782 -0.1891 -0.4936
  391MPD2    H7 5905   1.817   3.793  11.328  3.7692  1.7778 -0.5907
  392TMC3    C1 5906   1.365   4.111  10.728  0.7271 -0.0686 -0.2375
  392TMC3    C2 5907   1.247   4.126  10.667 -0.0327 -0.1440  0.7511
  392TMC3    C3 5908   1.243   4.178  10.538 -0.7766  0.8723  0.4616
  392TMC3    C4 5909   1.483   4.126  10.657  0.8425  0.4620  0.5548
  392TMC3    C5 5910   1.470   4.172  10.529  0.2795 -0.0879 -0.1140
  392TMC3    C6 5911   1.354   4.210  10.472  0.8267  0.4758  0.4685
  392TMC3     C 5912   1.363   4.047  10.863  0.2497 -0.0405  0.0816
  392TMC3     O 5913   1.258   4.056  10.924  0.2327  0.2597 -0.3426
  392TMC3     H 5914   1.153   4.105  10.716 -0.5576  0.8137  0.1430
  392TMC3    H1 5915   1.579   4.118  10.705  1.2297  1.2880 -0.0872
  392TMC3    H2 5916   1.357   4.220  10.364  3.2618  0.2934  0.5132
  392TMC3    C7 5917   1.597   4.212  10.475  0.0136 -0.3257  0.3110
  392TMC3    C8 5918   1.115   4.178  10.472 -0.1046  1.3476 -0.0954
  392TMC3    O1 5919   1.697   4.184  10.537  0.4325  0.0491  0.1884
  392TMC3    O2 5920   1.033   4.099  10.508  0.0192  0.0563  0.3032
  393TMC3    C1 5921   0.116   1.676  11.250 -0.7748  0.0704 -0.1740
  393TMC3    C2 5922   0.003   1.614  11.296  0.5369 -0.2166  0.2711
  393TMC3    C3 5923   0.014   1.478  11.332 -0.3939 -0.3320  0.4886
  393TMC3    C4 5924   0.234   1.623  11.259 -0.1562  0.2912  0.7643
  393TMC3    C5 5925   0.245   1.494  11.309 -0.6239  0.7667  0.5087
  393TMC3    C6 5926   0.133   1.407  11.324 -0.0400  0.0637 -0.6941
  393TMC3     C 5927   0.104   1.810  11.192 -0.1262 -0.3416  0.4640
  393TMC3     O 5928   0.017   1.886  11.235 -0.0375 -0.1883 -0.1315
  393TMC3     H 5929   4.649   1.676  11.287  0.3992 -0.4579 -0.0086
  393TMC3    H1 5930   0.327   1.675  11.238  0.2446 -0.4450  0.7169
  393TMC3    H2 5931   0.136   1.301  11.345  1.7559  0.0435 -1.0478
  393TMC3    C7 5932   0.370   1.435  11.295 -0.1737  0.2178  0.1487
  393TMC3    C8 5933   4.626   1.399  11.348  0.2683  0.6430 -0.1173
  393TMC3    O1 5934   0.366   1.325  11.247  0.0209 -0.4519  0.3884
  393TMC3    O2 5935   4.633   1.278  11.335  0.5422  0.0608  0.0986
  394TMC3    C1 5936   1.679   2.449  10.854  0.5334 -0.6494  0.2610
  394TMC3    C2 5937   1.605   2.364  10.778 -0.5980  0.2529  0.4209
  394TMC3    C3 5938   1.601   2.397  10.647 -0.0777  0.0010 -0.3356
  394TMC3    C4 5939   1.742   2.554  10.807 -0.0738  0.3498  0.2725
  394TMC3    C5 5940   1.742   2.576  10.671 -0.9008  0.2615  0.5377
  394TMC3    C6 5941   1.672   2.498  10.586 -0.3589 -0.2311  0.1681
  394TMC3     C 5942   1.683   2.413  10.997  0.4902 -0.2219 -0.0180
  394TMC3     O 5943   1.668   2.296  11.035  0.4082  0.0678 -0.0769
  394TMC3     H 5944   1.552   2.293  10.840 -0.0737 -2.4155 -2.2248
  394TMC3    H1 5945   1.790   2.620  10.878 -0.5215  2.1845 -1.1144
  394TMC3    H2 5946   1.649   2.509  10.481 -0.1848 -2.7671 -0.1503
  394TMC3    C7 5947   1.831   2.677  10.610  0.3639  0.0138  0.8034
  394TMC3    C8 5948   1.529   2.297  10.567  0.3634  0.2291 -0.6914
  394TMC3    O1 5949   1.812   2.716  10.495  0.1776  0.6783 -0.7849
  394TMC3    O2 5950   1.437   2.236  10.620  0.0114  0.5164 -0.7637
  395TMC3    C1 5951   2.206   4.059  14.741 -0.5048  0.2538 -0.1259
  395TMC3    C2 5952   2.171   3.991  14.630  0.2753  0.1009  0.2565
  395TMC3    C3 5953   2.221   4.032  14.510 -0.6827 -0.2551 -0.3015
  395TMC3    C4 5954   2.281   4.173  14.735  0.4303 -0.1943  0.4682
  395TMC3    C5 5955   2.350   4.197  14.618 -0.0322 -0.1569  0.2907
  395TMC3    C6 5956   2.309   4.137  14.500 -0.4462  0.4686 -0.4381
  395TMC3     C 5957   2.109   4.063  14.839 -0.4169 -0.4026  0.5134
  395TMC3     O 5958   2.070   4.176  14.870 -0.8030  0.3152 -0.0036
  395TMC3     H 5959   2.080   3.933  14.632 -0.4850  1.2848 -0.0185
  395TMC3    H1 5960   2.295   4.229  14.826  0.6781  0.0904  0.2570
  395TMC3    H2 5961   2.351   4.172  14.406 -0.3001  0.9236 -0.2012
  395TMC3    C7 5962   2.391   4.338  14.616 -0.0985 -0.2496  0.0719
  395TMC3    C8 5963   2.199   3.951  14.396  0.3790 -0.9020 -0.0464
  395TMC3    O1 5964   2.311   4.414  14.677 -0.2253  0.0777  0.4050
  395TMC3    O2 5965   2.280   3.966  14.304 -0.5634 -0.3786  0.2998
  396MPD2     C 5966   1.892   0.336  16.802  0.1782  0.0361 -0.2313
  396MPD2    C1 5967   2.012   0.375  16.742 -0.0230  0.2858  0.8266
  396MPD2    C2 5968   2.008   0.486  16.654  0.3862 -0.1407 -0.0063
  396MPD2    C3 5969   1.888   0.542  16.618 -0.5636  0.4884  0.2296
  396MPD2    C4 5970   1.772   0.494  16.673  0.0115 -0.4525 -0.2699
  396MPD2    C5 5971   1.778   0.396  16.770  0.1492  0.0788  0.6900
  396MPD2     H 5972   2.091   0.539  16.609 -0.9946 -0.3909 -2.8223
  396MPD2    H1 5973   1.675   0.538  16.655 -0.2862 -0.9926 -0.0077
  396MPD2    H2 5974   1.883   0.246  16.860 -0.0509 -1.0409 -1.9353
  396MPD2    H3 5975   1.686   0.359  16.814 -0.0465 -0.2253  0.0246
  396MPD2     N 5976   1.880   0.654  16.530  0.3958  0.3943  0.3413
  396MPD2    H5 5977   1.967   0.693  16.496 -0.1347  0.5682 -0.8173
  396MPD2    N1 5978   2.140   0.314  16.772 -0.2249 -0.1682  0.0173
  396MPD2    H7 5979   2.219   0.357  16.724  1.0949  1.1068  3.3501
  397TMC3    C1 5980   2.298   0.159  16.857  0.4309  0.0187  0.5812
  397TMC3    C2 5981   2.332   0.160  16.728 -0.4684  0.2277  0.2775
  397TMC3    C3 5982   2.317   0.048  16.652 -0.3067 -0.0527  0.4897
  397TMC3    C4 5983   2.286   0.036  16.922  0.1492  0.4509  0.1446
  397TMC3    C5 5984   2.301   4.659  16.849 -0.1624 -0.5220 -0.8588
  397TMC3    C6 5985   2.312   4.662  16.710  0.4549 -0.5815  0.1671
  397TMC3     C 5986   2.167   0.222  16.874 -0.2028  0.3301  0.1229
  397TMC3     O 5987   2.084   0.162  16.939 -0.0006  0.3156  0.1008
  397TMC3     H 5988   2.346   0.254  16.675 -0.6411 -0.5661 -1.1610
  397TMC3    H1 5989   2.271   0.040  17.029  0.3867 -2.4911  0.2873
  397TMC3    H2 5990   2.296   4.573  16.650 -0.7173 -0.2002 -0.0893
  397TMC3    C7 5991   2.284   4.528  16.911 -0.0611  0.2362 -0.0292
  397TMC3    C8 5992   2.237   0.074  16.537  0.5916  0.0239  0.0553
  397TMC3    O1 5993   2.323   4.425  16.859  0.2001  0.3458  0.1896
  397TMC3    O2 5994   2.257   0.177  16.479  0.1832  0.0205  0.5939
  398MPD2     C 5995   4.695   2.444   0.214 -1.0183 -0.6314  1.1051
  398MPD2    C1 5996   0.083   2.398   0.252  1.1589 -0.6280  0.1995
  398MPD2    C2 5997   0.182   2.494   0.263 -0.3287 -0.2039  0.5197
  398MPD2    C3 5998   0.169   2.630   0.238 -0.1012 -0.1223 -0.3137
  398MPD2    C4 5999   0.040   2.672   0.198 -0.2505  0.7474  0.2770
  398MPD2    C5 6000   4.679   2.581   0.200 -0.7840  0.2906  0.4526
  398MPD2     H 6001   0.283   2.465   0.288 -0.8252 -1.9813  0.4366
  398MPD2    H1 6002   0.015   2.777   0.195 -0.5475  0.5899 -2.3565
  398MPD2    H2 6003   4.613   2.382   0.179 -0.0834 -0.5195 -1.2598
  398MPD2    H3 6004   4.582   2.611   0.161  0.0288 -0.2712 -1.9635
  398MPD2     N 6005   0.280   2.717   0.258 -0.1583  0.5046  0.1545
  398MPD2    H5 6006   0.357   2.669   0.302  2.5823  0.3974 -4.8143
  398MPD2    N1 6007   0.123   2.260   0.248 -0.6469 -0.4836 -0.4577
  398MPD2    H7 6008   0.217   2.234   0.274 -0.6108  0.5978  0.5445
  399TMC3    C1 6009   0.115   2.032   0.199  0.5566  0.2674  0.2431
  399TMC3    C2 6010   0.246   2.034   0.183  0.3464  0.3276 -0.8717
  399TMC3    C3 6011   0.312   1.913   0.198  0.4747 -0.4025 -0.0187
  399TMC3    C4 6012   0.039   1.916   0.207  0.5520  0.2782 -0.1897
  399TMC3    C5 6013   0.109   1.796   0.215  0.4276  0.0683  0.2085
  399TMC3    C6 6014   0.245   1.793   0.221  0.2856 -0.3029 -0.2686
  399TMC3     C 6015   0.042   2.155   0.211 -0.4113  0.0145 -0.2031
  399TMC3     O 6016   4.658   2.163   0.184  0.3195 -0.1025  0.3479
  399TMC3     H 6017   0.304   2.118   0.147 -0.3808  1.0278 -0.4152
  399TMC3    H1 6018   4.666   1.918   0.202  0.5304  2.2638  1.0429
  399TMC3    H2 6019   0.293   1.702   0.256  0.7582 -0.2938 -0.8861
  399TMC3    C7 6020   0.021   1.676   0.234  0.0782 -0.1392  0.0825
  399TMC3    C8 6021   0.468   1.901   0.170  0.4266  0.4967  0.1419
  399TMC3    O1 6022   4.636   1.689   0.246 -0.1548 -0.3862  0.1534
  399TMC3    O2 6023   0.514   1.788   0.170 -0.2934 -0.0072 -0.2568
  400TMC3    C1 6024   3.672   0.066  16.646 -0.7577 -0.3845 -0.5501
  400TMC3    C2 6025   3.592   4.694  16.637  0.0379 -0.1426  0.3912
  400TMC3    C3 6026   3.474   4.692  16.568 -0.5009  0.6091  1.2145
  400TMC3    C4 6027   3.630   0.181  16.582  0.1595  0.1387 -0.2899
  400TMC3    C5 6028   3.519   0.180  16.503 -0.2419 -0.3067  0.3886
  400TMC3    C6 6029   3.433   0.071  16.493 -0.4234  0.8977  0.1806
  400TMC3     C 6030   3.784   0.071  16.736 -0.5758  0.1011 -0.1356
  400TMC3     O 6031   3.838   4.701  16.760  0.5161 -0.0199 -0.1930
  400TMC3     H 6032   3.628   4.609  16.693 -0.2574 -0.3450  0.2730
  400TMC3    H1 6033   3.696   0.267  16.581  2.6041 -1.7327 -0.7334
  400TMC3    H2 6034   3.343   0.070  16.432 -0.0219  2.4609 -0.4572
  400TMC3    C7 6035   3.490   0.283  16.407  0.3424 -0.2305 -0.0057
  400TMC3    C8 6036   3.391   4.567  16.593  0.7391 -0.3729 -0.3158
  400TMC3    O1 6037   3.427   0.235  16.312 -0.1680  0.7902  0.1410
  400TMC3    O2 6038   3.441   4.480  16.667 -0.1306  0.1832  1.0437
  401MPD2     C 6039   1.648   4.143   0.204  0.5253  0.4277  0.0684
  401MPD2    C1 6040   1.780   4.112   0.182 -0.0612  0.6807  0.1823
  401MPD2    C2 6041   1.808   4.007   0.097  0.3154 -0.2047  0.2579
  401MPD2    C3 6042   1.705   3.936   0.038  0.0296 -0.0249  0.3415
  401MPD2    C4 6043   1.581   3.988   0.047  0.7673 -0.1157  0.2569
  401MPD2    C5 6044   1.543   4.084   0.136  0.3672  0.5288  0.4098
  401MPD2     H 6045   1.902   3.953   0.091  0.9320  0.5506  3.1949
  401MPD2    H1 6046   1.499   3.940  17.733 -0.3497  1.4405  0.5784
  401MPD2    H2 6047   1.610   4.220   0.269  3.2251  1.1905  0.7294
  401MPD2    H3 6048   1.443   4.124   0.125  0.0993 -0.1394  0.4134
  401MPD2     N 6049   1.739   3.825  17.698  0.0971 -0.1512  0.4037
  401MPD2    H5 6050   1.838   3.808  17.684  0.4164  0.6295  1.7987
  401MPD2    N1 6051   1.877   4.179   0.258  0.5423  0.2186  0.2420
  401MPD2    H7 6052   1.974   4.164   0.230  0.9160  2.0468  0.5672
  402TMC3    C1 6053   1.714   3.597  17.628 -0.2320 -1.0623  0.0795
  402TMC3    C2 6054   1.644   3.488  17.670 -0.0773 -0.0476 -0.5414
  402TMC3    C3 6055   1.712   3.371  17.704 -0.2320  0.3618  0.0549
  402TMC3    C4 6056   1.849   3.601  17.628  0.0537 -0.3132  0.9465
  402TMC3    C5 6057   1.912   3.482  17.658  0.0441 -0.3199  0.1349
  402TMC3    C6 6058   1.845   3.367  17.706 -0.1619  0.4785 -0.3618
  402TMC3     C 6059   1.654   3.726  17.660 -0.8360 -0.1576 -0.5648
  402TMC3     O 6060   1.533   3.719  17.690  0.6545  0.0156 -0.2729
  402TMC3     H 6061   1.538   3.487  17.687  0.2605  0.1319  1.4983
  402TMC3    H1 6062   1.910   3.684  17.595  1.2119 -1.7434 -0.4684
  402TMC3    H2 6063   1.888   3.274   0.001 -1.7036  0.4233  1.4259
  402TMC3    C7 6064   2.048   3.472  17.608 -0.1998  0.0272  0.2012
  402TMC3    C8 6065   1.647   3.261   0.043 -0.7071  0.5442 -0.3410
  402TMC3    O1 6066   2.100   3.577  17.577  0.2172 -0.2325  0.0693
  402TMC3    O2 6067   1.715   3.201   0.123 -0.3516 -1.1091 -0.7164
  403MPD2     C 6068   4.088   1.943  13.419  0.0899  0.0905 -0.5718
  403MPD2    C1 6069   4.189   1.857  13.440  0.5421  0.3501  0.1169
  403MPD2    C2 6070   4.304   1.894  13.508  0.3965  0.6665 -0.6604
  403MPD2    C3 6071   4.300   2.000  13.591 -0.2358  0.7542 -0.5025
  403MPD2    C4 6072   4.191   2.092  13.579  0.2697  0.2007 -0.4655
  403MPD2    C5 6073   4.089   2.065  13.494 -0.1437 -0.0726 -0.4323
  403MPD2     H 6074   4.394   1.833  13.502  0.2688  0.4936 -0.8171
  403MPD2    H1 6075   4.197   2.183  13.637 -0.1299 -1.1815  1.7171
  403MPD2    H2 6076   3.995   1.917  13.371  0.1094  0.5509 -0.8591
  403MPD2    H3 6077   4.004   2.131  13.496 -0.1722 -0.2254  2.5110
  403MPD2     N 6078   4.410   2.016  13.682 -0.0299  0.0873  0.0560
  403MPD2    H5 6079   4.488   1.954  13.665 -0.0350  0.2506 -0.5784
  403MPD2    N1 6080   4.189   1.743  13.361  0.0771  0.7497 -0.1285
  403MPD2    H7 6081   4.131   1.727  13.279  0.8816 -2.3872 -0.0961
  404TMC3    C1 6082   4.244   1.516  13.317  0.0113  0.5282 -0.2295
  404TMC3    C2 6083   4.276   1.397  13.385  0.3863 -0.2091 -0.5597
  404TMC3    C3 6084   4.315   1.288  13.316 -0.4031 -0.0166 -0.8009
  404TMC3    C4 6085   4.256   1.526  13.182  0.4212  0.5206  0.9971
  404TMC3    C5 6086   4.310   1.414  13.117  0.3086 -0.1362  0.0875
  404TMC3    C6 6087   4.330   1.295  13.179 -0.0625 -0.5771  0.6168
  404TMC3     C 6088   4.246   1.628  13.408  0.6473 -0.5431  0.3339
  404TMC3     O 6089   4.290   1.610  13.521  0.7066 -0.1210 -0.2769
  404TMC3     H 6090   4.265   1.397  13.492  1.3473 -0.5375 -0.4601
  404TMC3    H1 6091   4.213   1.610  13.129 -0.0952 -0.5453 -0.2711
  404TMC3    H2 6092   4.357   1.207  13.122  1.2260  0.1353  0.1464
  404TMC3    C7 6093   4.362   1.441  12.983 -1.2192  0.0898 -0.6230
  404TMC3    C8 6094   4.384   1.186  13.387 -0.1428 -0.6470  0.7686
  404TMC3    O1 6095   4.379   1.563  12.957  0.2386 -0.1475  0.0240
  404TMC3    O2 6096   4.478   1.133  13.331  0.4105  0.1083 -0.5531
  405MPD2     C 6097   0.466   2.908  15.571 -0.2926 -0.9816  0.5264
  405MPD2    C1 6098   0.489   2.817  15.464  0.0561 -0.0029 -0.1719
  405MPD2    C2 6099   0.441   2.840  15.334  0.2285  0.5489  0.4785
  405MPD2    C3 6100   0.359   2.941  15.310  0.0604 -0.2085 -0.1131
  405MPD2    C4 6101   0.321   3.018  15.416 -0.0756  0.4239 -0.2110
  405MPD2    C5 6102   0.383   3.014  15.539  0.1956  0.8968  0.0038
  405MPD2     H 6103   0.468   2.773  15.253  0.8639 -1.6386  2.4715
  405MPD2    H1 6104   0.250   3.097  15.394  0.5730  0.8675 -0.7597
  405MPD2    H2 6105   0.508   2.905  15.671 -0.2508 -0.7470  0.5153
  405MPD2    H3 6106   0.340   3.081  15.612  0.1434  0.9321 -0.0591
  405MPD2     N 6107   0.291   2.947  15.182 -0.7262  0.0051  0.1200
  405MPD2    H5 6108   0.314   2.878  15.112  2.0605 -0.4611  1.4997
  405MPD2    N1 6109   0.572   2.699  15.480  0.1868 -0.4777  0.2048
  405MPD2    H7 6110   0.588   2.643  15.397 -1.5468 -2.7349  1.3869
  406TMC3    C1 6111   0.026   3.010  14.823 -0.4095  0.0091 -0.0018
  406TMC3    C2 6112   0.017   2.873  14.797 -0.1263 -0.2337 -0.2324
  406TMC3    C3 6113   0.079   2.791  14.889 -0.8480  0.2544 -0.5874
  406TMC3    C4 6114   0.094   3.058  14.931  0.0251  0.7498  0.2193
  406TMC3    C5 6115   0.139   2.975  15.024  0.6294  0.4181  0.3439
  406TMC3    C6 6116   0.133   2.838  15.009 -0.7090 -0.1561 -0.7817
  406TMC3     C 6117   4.661   3.098  14.761 -0.2131 -0.7170 -0.1411
  406TMC3     O 6118   4.627   3.193  14.830  0.0869 -0.4894  0.0642
  406TMC3     H 6119   4.690   2.828  14.720  0.3297 -0.8666 -0.2281
  406TMC3    H1 6120   0.111   3.165  14.938  0.2418  0.7437 -0.1793
  406TMC3    H2 6121   0.148   2.771  15.092 -2.7834 -0.1683 -0.4184
  406TMC3    C7 6122   0.183   3.025  15.152  0.6465 -0.7376  0.3749
  406TMC3    C8 6123   0.109   2.649  14.857 -0.1184  0.0308 -0.4027
  406TMC3    O1 6124   0.125   3.114  15.208  0.5077  0.1381 -0.1303
  406TMC3    O2 6125   0.061   2.587  14.762  0.7635  0.0107 -0.1361
  407MPD2     C 6126   2.578   4.027   9.294  0.0520 -0.1654  0.8035
  407MPD2    C1 6127   2.675   3.992   9.380 -0.1780 -0.5714 -0.0372
  407MPD2    C2 6128   2.663   4.030   9.514 -0.2453  0.2751 -0.1466
  407MPD2    C3 6129   2.550   4.097   9.557 -0.3491 -0.7332  0.5895
  407MPD2    C4 6130   2.448   4.138   9.466 -0.3536 -0.2456  0.3083
  407MPD2    C5 6131   2.470   4.105   9.334 -0.2489 -0.1464  0.2105
  407MPD2     H 6132   2.729   3.995   9.592 -0.9491 -2.5442 -0.8371
  407MPD2    H1 6133   2.366   4.197   9.505  1.6005  1.7132  1.4850
  407MPD2    H2 6134   2.583   4.013   9.187  2.2916  1.0511  0.7603
  407MPD2    H3 6135   2.410   4.151   9.256  0.2042  1.8962  1.0630
  407MPD2     N 6136   2.527   4.139   9.689  0.2018 -1.0342  0.2760
  407MPD2    H5 6137   2.432   4.161   9.716  0.5431 -0.3594  0.9439
  407MPD2    N1 6138   2.786   3.919   9.341 -0.2818  0.2677 -0.3676
  407MPD2    H7 6139   2.857   3.917   9.412 -0.1004 -2.8621 -0.6577
  408TMC3    C1 6140   2.940   3.797   9.226 -0.2736  0.3877  0.5865
  408TMC3    C2 6141   2.938   3.664   9.257 -0.2609 -1.4070 -0.5086
  408TMC3    C3 6142   3.060   3.611   9.294  0.4742 -0.0051  0.3709
  408TMC3    C4 6143   3.050   3.879   9.211  0.1782  0.4153 -0.0245
  408TMC3    C5 6144   3.166   3.823   9.243  0.4118  0.2912  0.1608
  408TMC3    C6 6145   3.171   3.694   9.288 -0.3415  0.3803  0.1090
  408TMC3     C 6146   2.811   3.850   9.231  0.1150 -0.0800  0.3162
  408TMC3     O 6147   2.731   3.819   9.143  0.5261 -0.5897  0.3759
  408TMC3     H 6148   2.847   3.615   9.289 -0.2004 -1.1151  0.1133
  408TMC3    H1 6149   3.037   3.985   9.195  0.0049  0.6211  1.4720
  408TMC3    H2 6150   3.271   3.656   9.308  0.7505  2.9519 -0.3761
  408TMC3    C7 6151   3.272   3.904   9.304 -0.0909  0.2200  0.2600
  408TMC3    C8 6152   3.049   3.528   9.424 -0.6753 -0.0932 -0.2881
  408TMC3    O1 6153   3.320   3.865   9.409  0.1151  0.2539  0.0688
  408TMC3    O2 6154   2.965   3.439   9.428 -0.5274  0.0047  0.9822
  409MPD2     C 6155   2.618   4.646  16.324 -0.7590 -0.2190 -0.0045
  409MPD2    C1 6156   2.717   4.630  16.429  0.1326  0.0508  0.1028
  409MPD2    C2 6157   2.824   4.713  16.425  0.5685 -1.2096  0.1327
  409MPD2    C3 6158   2.852   0.074  16.329  0.1516  0.4681 -0.1434
  409MPD2    C4 6159   2.759   0.089  16.228 -0.5272  0.5254  0.3670
  409MPD2    C5 6160   2.649   0.007  16.225  1.3509 -0.4037 -0.3894
  409MPD2     H 6161   2.890   4.709  16.511  0.0240 -0.3207  0.5944
  409MPD2    H1 6162   2.775   0.159  16.147  1.1862 -0.8896 -0.5236
  409MPD2    H2 6163   2.529   4.584  16.331 -0.4891 -0.5380  0.6458
  409MPD2    H3 6164   2.576   0.021  16.146 -0.0756 -0.3067  0.9574
  409MPD2     N 6165   2.957   0.173  16.337  0.2728 -0.0334  0.4966
  409MPD2    H5 6166   2.942   0.257  16.282  1.4022  0.9380  1.6827
  409MPD2    N1 6167   2.704   4.537  16.535  0.2902  0.0775 -0.1127
  409MPD2    H7 6168   2.783   4.523  16.597 -0.1380 -0.1945  0.3779
  410TMC3    C1 6169   3.132   0.269  16.469  0.1791 -0.5935 -1.1747
  410TMC3    C2 6170   3.178   0.256  16.596 -0.1465 -0.5226  0.1966
  410TMC3    C3 6171   3.217   0.371  16.666  0.0188 -0.0883  0.7350
  410TMC3    C4 6172   3.103   0.393  16.415 -0.1705  0.1795  0.1232
  410TMC3    C5 6173   3.131   0.501  16.493 -0.1031  1.0568  0.4882
  410TMC3    C6 6174   3.206   0.497  16.609  0.0434 -0.3281 -0.0226
  410TMC3     C 6175   3.069   0.151  16.413 -0.2708  0.7970  0.2190
  410TMC3     O 6176   3.113   0.044  16.444 -0.0856 -0.1980  0.1461
  410TMC3     H 6177   3.183   0.155  16.633  2.1063 -0.2530  0.6830
  410TMC3    H1 6178   3.037   0.398  16.329  3.1689 -0.8712 -2.5393
  410TMC3    H2 6179   3.254   0.583  16.656 -0.4585 -1.2651  2.1971
  410TMC3    C7 6180   3.094   0.627  16.438 -0.2901 -0.7505  0.6564
  410TMC3    C8 6181   3.330   0.351  16.758 -0.3718 -0.5067 -0.0912
  410TMC3    O1 6182   3.068   0.721  16.513  0.0364  0.0400 -0.1369
  410TMC3    O2 6183   3.410   0.443  16.769 -0.2163  0.2758 -0.2816
  411MPD2     C 6184   2.579   0.748  14.590 -0.0606 -0.1852 -0.1556
  411MPD2    C1 6185   2.458   0.717  14.637  0.5909 -0.2392  0.1192
  411MPD2    C2 6186   2.403   0.595  14.611  0.3735 -0.1757 -0.1478
  411MPD2    C3 6187   2.469   0.500  14.541 -0.9757 -0.0938 -0.3417
  411MPD2    C4 6188   2.597   0.526  14.491  0.1886  0.2392  0.1546
  411MPD2    C5 6189   2.647   0.653  14.513 -0.3545 -0.3548 -0.3124
  411MPD2     H 6190   2.302   0.585  14.648  0.1605  0.2571 -0.6161
  411MPD2    H1 6191   2.664   0.450  14.453 -1.9056 -0.8567 -1.3498
  411MPD2    H2 6192   2.625   0.844  14.611 -1.1536  0.7872 -2.1626
  411MPD2    H3 6193   2.737   0.686  14.462  0.4348  0.7092  1.7699
  411MPD2     N 6194   2.419   0.370  14.516  0.1987  0.0316  0.3348
  411MPD2    H5 6195   2.473   0.317  14.449  1.0407  0.0182  1.0303
  411MPD2    N1 6196   2.379   0.815  14.700 -0.0926  0.0061 -0.3921
  411MPD2    H7 6197   2.283   0.784  14.713 -0.8061  2.4431  0.3231
  412TMC3    C1 6198   2.273   0.177  14.521 -0.2405 -0.0236 -0.4195
  412TMC3    C2 6199   2.146   0.132  14.552  0.0208  0.3939 -0.4843
  412TMC3    C3 6200   2.100   0.022  14.477 -0.3859 -0.2109 -0.2882
  412TMC3    C4 6201   2.358   0.119  14.426 -0.5160  0.1973  0.4730
  412TMC3    C5 6202   2.317   0.012  14.360  0.3071 -0.1838  0.4974
  412TMC3    C6 6203   2.186   4.702  14.382 -0.1443 -0.4571 -0.1116
  412TMC3     C 6204   2.307   0.311  14.571  0.5730 -0.4045  0.2207
  412TMC3     O 6205   2.237   0.367  14.651  0.0639 -0.3586 -0.3905
  412TMC3     H 6206   2.101   0.186  14.634 -0.2984  0.0313 -0.4192
  412TMC3    H1 6207   2.448   0.165  14.387 -0.0883 -0.5510  0.5798
  412TMC3    H2 6208   2.146   4.618  14.326 -1.8896  0.5204 -0.3366
  412TMC3    C7 6209   2.346   0.024  14.223 -1.1411  0.2066 -0.8230
  412TMC3    C8 6210   1.982   0.060  14.407  0.6008 -0.2007  0.5205
  412TMC3    O1 6211   2.464   0.037  14.189  0.5318  0.3642 -0.1949
  412TMC3    O2 6212   1.986   0.056  14.287 -0.4006 -0.1859  0.0750
  413MPD2     C 6213   4.015   3.578  15.815  0.9369  0.6355 -0.5463
  413MPD2    C1 6214   4.014   3.537  15.682 -0.1066  0.0734  0.1494
  413MPD2    C2 6215   4.134   3.538  15.608 -0.9692 -0.3867 -0.5963
  413MPD2    C3 6216   4.251   3.561  15.680 -0.0544  0.0840  0.0118
  413MPD2    C4 6217   4.246   3.611  15.810  0.3447  0.5592  0.7352
  413MPD2    C5 6218   4.130   3.613  15.879 -0.9317  0.5785  0.0937
  413MPD2     H 6219   4.136   3.500  15.507  0.1098  1.7978 -1.3954
  413MPD2    H1 6220   4.332   3.655  15.859  2.5811 -0.8872 -1.9195
  413MPD2    H2 6221   3.925   3.587  15.875  1.1994  0.0500 -0.0662
  413MPD2    H3 6222   4.123   3.650  15.980 -0.1557  0.0590  0.3412
  413MPD2     N 6223   4.380   3.558  15.619  0.5348  0.3040 -0.4682
  413MPD2    H5 6224   4.383   3.516  15.527 -1.3356  0.9208 -0.8105
  413MPD2    N1 6225   3.888   3.509  15.628  0.6800 -0.7307 -0.3652
  413MPD2    H7 6226   3.812   3.519  15.695  0.8726  0.6350 -0.3507
  414TMC3    C1 6227   4.596   3.483  15.612 -0.6579 -0.0832 -0.7415
  414TMC3    C2 6228   4.651   3.361  15.661  0.3538  0.1775 -0.5405
  414TMC3    C3 6229   4.734   3.296  15.582  1.1740 -0.0095  0.1798
  414TMC3    C4 6230   4.624   3.523  15.480 -0.5891 -0.3836 -0.1625
  414TMC3    C5 6231   4.703   3.436  15.403  0.0935  0.3464 -0.4301
  414TMC3    C6 6232   0.012   3.315  15.450  0.2616 -0.1364  0.3520
  414TMC3     C 6233   4.495   3.546  15.692 -0.2733  0.7845  0.0680
  414TMC3     O 6234   4.523   3.533  15.812 -0.2682  0.7265  0.1541
  414TMC3     H 6235   4.639   3.332  15.765 -0.7441 -0.8769 -0.9526
  414TMC3    H1 6236   4.578   3.612  15.438 -0.7246 -0.4301 -0.1145
  414TMC3    H2 6237   0.072   3.244  15.393  1.6128  0.9033  0.4653
  414TMC3    C7 6238   0.054   3.496  15.300 -0.2838 -0.6884 -0.8875
  414TMC3    C8 6239   0.018   3.154  15.619 -0.0540 -0.0531 -0.5934
  414TMC3    O1 6240   0.023   3.596  15.236 -0.3001 -0.3627  0.1569
  414TMC3    O2 6241   0.012   3.078  15.523 -0.4097 -0.0684 -0.0752
  415TMC3    C1 6242   0.245   1.228  10.881  0.4218 -0.1125 -0.0142
  415TMC3    C2 6243   0.300   1.341  10.936  0.3602  0.1813  0.1349
  415TMC3    C3 6244   0.332   1.443  10.851 -0.4767 -0.7440 -0.4243
  415TMC3    C4 6245   0.207   1.227  10.748  0.3592 -0.4781 -0.2118
  415TMC3    C5 6246   0.234   1.336  10.667 -0.5744 -0.4424 -0.9266
  415TMC3    C6 6247   0.303   1.442  10.713 -0.9488 -0.4147 -0.4494
  415TMC3     C 6248   0.218   1.100  10.952  0.0999  0.0323  0.0843
  415TMC3     O 6249   0.167   1.009  10.891  0.3783 -0.0938 -0.1173
  415TMC3     H 6250   0.319   1.352  11.042 -0.7847 -1.5934  0.5169
  415TMC3    H1 6251   0.172   1.135  10.703 -1.3445 -0.9951  2.1649
  415TMC3    H2 6252   0.312   1.526  10.646 -2.7150 -0.9347 -1.3157
  415TMC3    C7 6253   0.176   1.346  10.534 -0.4537  0.1891 -0.4563
  415TMC3    C8 6254   0.402   1.559  10.905  0.3360  0.2161 -0.2622
  415TMC3    O1 6255   0.204   1.448  10.476  0.0071  0.1935 -0.0549
  415TMC3    O2 6256   0.350   1.609  11.007  0.1989 -0.2247 -0.0092
  416MPD2     C 6257   1.888   0.048  11.521 -0.5886 -0.3011  0.4775
  416MPD2    C1 6258   1.806   0.109  11.430  0.6654  0.5544  0.7147
  416MPD2    C2 6259   1.817   0.060  11.300  0.3143 -0.1129  0.2529
  416MPD2    C3 6260   1.898   4.681  11.276 -0.6959 -0.0095  0.1538
  416MPD2    C4 6261   1.968   4.619  11.377 -0.6362  0.1239 -1.1838
  416MPD2    C5 6262   1.979   4.680  11.499  0.4883  0.2362 -0.1398
  416MPD2     H 6263   1.750   0.107  11.229 -0.8108 -1.3156  0.5293
  416MPD2    H1 6264   2.032   4.533  11.361  1.2922  1.1578  0.9033
  416MPD2    H2 6265   1.886   0.083  11.624  1.0717  1.0116  0.0642
  416MPD2    H3 6266   2.028   4.627  11.579 -0.8204 -0.8032 -0.0438
  416MPD2     N 6267   1.894   4.596  11.161  0.0901  0.0977  0.4604
  416MPD2    H5 6268   1.939   4.506  11.175 -0.1288 -0.2061 -0.8344
  416MPD2    N1 6269   1.714   0.205  11.480 -0.0619 -0.6640  0.3088
  416MPD2    H7 6270   1.732   0.247  11.571 -1.7409 -1.9917  1.2432
  417TMC3    C1 6271   1.520   0.328  11.490  0.1223 -0.8895  0.2873
  417TMC3    C2 6272   1.533   0.346  11.621  0.6127 -0.1437  0.0738
  417TMC3    C3 6273   1.440   0.432  11.680 -0.6621 -0.1545  0.2772
  417TMC3    C4 6274   1.412   0.379  11.423  0.3797  0.1444 -0.2205
  417TMC3    C5 6275   1.328   0.468  11.481  0.1044  0.9510 -0.0263
  417TMC3    C6 6276   1.340   0.502  11.614  0.3168  0.3882 -0.2813
  417TMC3     C 6277   1.600   0.237  11.417  0.3418 -0.5255  0.0717
  417TMC3     O 6278   1.548   0.184  11.326 -0.0271  0.1860  0.3956
  417TMC3     H 6279   1.608   0.301  11.685  0.1398 -0.3289  0.4887
  417TMC3    H1 6280   1.411   0.366  11.316 -0.8519  0.0407 -0.1968
  417TMC3    H2 6281   1.270   0.566  11.667 -0.8791  0.0240 -1.4114
  417TMC3    C7 6282   1.247   0.543  11.386 -0.1783  0.4767 -0.0241
  417TMC3    C8 6283   1.426   0.423  11.825  0.6544  0.1422 -0.2253
  417TMC3    O1 6284   1.217   0.656  11.411  0.4568 -0.4095  0.5149
  417TMC3    O2 6285   1.364   0.512  11.881  0.2228  0.1686 -0.3927
  418TMC3    C1 6286   0.596   2.798  17.732  0.5161  0.2410 -0.3617
  418TMC3    C2 6287   0.481   2.871   0.038 -0.0671  0.5540  0.6320
  418TMC3    C3 6288   0.444   2.858   0.170 -1.0603  0.8511 -0.1264
  418TMC3    C4 6289   0.671   2.724   0.079 -0.0355 -0.6181  1.2129
  418TMC3    C5 6290   0.638   2.718   0.211  0.2833  0.0441  0.6723
  418TMC3    C6 6291   0.522   2.776   0.257 -0.0163  0.9137 -0.2480
  418TMC3     C 6292   0.649   2.814  17.601 -0.0513  0.8706 -0.5459
  418TMC3     O 6293   0.613   2.911  17.540 -0.3572  0.5131  0.0857
  418TMC3     H 6294   0.436   2.944  17.710  1.1538  0.6921 -0.0460
  418TMC3    H1 6295   0.774   2.705   0.051 -0.9585 -2.9087 -0.5729
  418TMC3    H2 6296   0.504   2.795   0.363 -0.1411  0.0190 -0.1097
  418TMC3    C7 6297   0.684   2.592   0.272 -0.0056  0.1124 -0.2723
  418TMC3    C8 6298   0.305   2.841   0.190 -0.2215  0.2201 -1.0251
  418TMC3    O1 6299   0.718   2.502   0.195 -0.4035 -0.1700  0.3737
  418TMC3    O2 6300   0.236   2.897   0.104 -0.1633 -0.0775  0.4627
  419MPD2     C 6301   3.593   0.106  12.359 -0.2026 -0.3099 -0.2848
  419MPD2    C1 6302   3.485   0.188  12.359 -0.0988  0.2320 -0.1822
  419MPD2    C2 6303   3.448   0.247  12.480  0.8630 -0.4306  0.1203
  419MPD2    C3 6304   3.521   0.233  12.592  0.6341  0.8850  0.0983
  419MPD2    C4 6305   3.639   0.155  12.582  0.3304  0.0588  0.4091
  419MPD2    C5 6306   3.672   0.094  12.467 -0.1168 -0.5624  0.3001
  419MPD2     H 6307   3.363   0.312  12.489  1.4553  0.7410 -3.0233
  419MPD2    H1 6308   3.708   0.141  12.665  4.1555  0.0384 -2.7893
  419MPD2    H2 6309   3.629   0.045  12.276 -0.6573 -0.4712 -0.3641
  419MPD2    H3 6310   3.764   0.040  12.446  0.3434  0.6477 -0.8405
  419MPD2     N 6311   3.480   0.292  12.716  0.6270  0.3721  0.1290
  419MPD2    H5 6312   3.400   0.354  12.719  1.9841  2.1245 -0.1033
  419MPD2    N1 6313   3.409   0.228  12.247  0.5201 -0.4672 -0.3046
  419MPD2    H7 6314   3.334   0.296  12.258  0.8430 -0.0318 -0.7771
  420TMC3    C1 6315   3.475   0.335  12.950  0.6669 -0.1375  0.3437
  420TMC3    C2 6316   3.358   0.415  12.930 -0.1313  0.0771 -1.1468
  420TMC3    C3 6317   3.307   0.475  13.046  0.6466  0.5312  0.5634
  420TMC3    C4 6318   3.531   0.313  13.073  0.1021  0.4341 -0.3402
  420TMC3    C5 6319   3.474   0.375  13.180 -0.1490  0.4780 -0.0322
  420TMC3    C6 6320   3.365   0.455  13.173 -0.4112 -0.2423 -0.3141
  420TMC3     C 6321   3.552   0.287  12.834 -0.2853 -0.1878 -0.2446
  420TMC3     O 6322   3.660   0.241  12.862 -0.2592 -0.1609  0.1868
  420TMC3     H 6323   3.318   0.443  12.833 -1.1959 -1.1081 -1.0449
  420TMC3    H1 6324   3.606   0.235  13.078 -0.8006 -0.4289 -0.3609
  420TMC3    H2 6325   3.337   0.507  13.264  0.6078 -0.4875  0.1331
  420TMC3    C7 6326   3.537   0.354  13.307  0.1425 -0.4020 -0.2604
  420TMC3    C8 6327   3.173   0.536  13.027 -0.0612 -0.3096  0.1929
  420TMC3    O1 6328   3.462   0.347  13.403 -0.3300 -0.6100 -0.2191
  420TMC3    O2 6329   3.153   0.588  12.917  0.6697 -0.2760  0.0970
  421TMC3    C1 6330   4.545   2.088  13.866 -0.0291  0.1791  0.6227
  421TMC3    C2 6331   4.573   2.181  13.953 -0.1047 -0.0110 -0.0698
  421TMC3    C3 6332   4.691   2.172  14.024 -0.6962 -0.3667  0.4257
  421TMC3    C4 6333   4.619   1.976  13.857 -0.0491  0.5581 -0.4200
  421TMC3    C5 6334   0.006   1.970  13.924 -0.2674 -0.3700  0.2385
  421TMC3    C6 6335   0.044   2.071  14.004  0.6309 -0.2356 -0.8229
  421TMC3     C 6336   4.421   2.106  13.789  0.5459  0.1527 -0.1488
  421TMC3     O 6337   4.342   2.193  13.822 -0.1240 -0.2923 -0.2083
  421TMC3     H 6338   4.513   2.271  13.958  1.0053  0.7525 -0.2320
  421TMC3    H1 6339   4.563   1.897  13.808  0.6338 -0.4434  0.4095
  421TMC3    H2 6340   0.133   2.062  14.065  2.0804  0.7829 -2.8052
  421TMC3    C7 6341   0.100   1.857  13.898 -0.2893 -0.1223  0.1251
  421TMC3    C8 6342   0.000   2.275  14.115  0.4053  0.0066  0.6493
  421TMC3    O1 6343   0.206   1.857  13.965  0.0215 -0.3496  0.1902
  421TMC3    O2 6344   0.119   2.276  14.148 -0.1299  0.3012 -0.1892
  422TMC3    C1 6345   2.548   3.047  12.526 -0.1157  0.2214  1.0570
  422TMC3    C2 6346   2.540   3.141  12.625 -0.1478  0.2294 -0.5301
  422TMC3    C3 6347   2.430   3.164  12.691 -0.2414 -0.2855  0.1933
  422TMC3    C4 6348   2.432   2.979  12.496  0.1095 -0.1415  0.4158
  422TMC3    C5 6349   2.317   3.007  12.562 -0.0823 -0.7339  0.2975
  422TMC3    C6 6350   2.313   3.098  12.667  0.1841 -0.9979  0.4361
  422TMC3     C 6351   2.633   3.087  12.413 -0.1617  0.4664  0.2795
  422TMC3     O 6352   2.680   3.200  12.425  0.3935 -0.2430 -0.2695
  422TMC3     H 6353   2.629   3.200  12.642  0.8988 -2.2294  2.6386
  422TMC3    H1 6354   2.440   2.893  12.431  0.7688 -0.0235  0.3405
  422TMC3    H2 6355   2.228   3.102  12.733 -0.9626  2.4001 -1.2886
  422TMC3    C7 6356   2.193   2.981  12.483  0.0505  0.0659  0.7572
  422TMC3    C8 6357   2.409   3.306  12.704 -0.6800 -0.5030  0.7149
  422TMC3    O1 6358   2.201   2.977  12.360 -0.4537 -0.5125  0.5111
  422TMC3    O2 6359   2.516   3.370  12.707 -0.3463 -0.0283 -0.0535
  423MPD2     C 6360   3.627   4.137   0.168  0.4781 -0.0697 -0.0522
  423MPD2    C1 6361   3.720   4.063   0.239 -0.1357 -0.2511 -0.4010
  423MPD2    C2 6362   3.785   3.961   0.168  0.4832 -0.2322 -0.1978
  423MPD2    C3 6363   3.760   3.944   0.032 -0.2596 -0.4946  0.3078
  423MPD2    C4 6364   3.671   4.027  17.700  0.1475  0.6981  0.0789
  423MPD2    C5 6365   3.608   4.122   0.033  0.2457  0.0695 -0.7226
  423MPD2     H 6366   3.853   3.900   0.227 -0.6403 -0.4609  0.8670
  423MPD2    H1 6367   3.652   4.028  17.593  0.3164 -0.9962  0.0364
  423MPD2    H2 6368   3.576   4.222   0.211  1.7576  0.5718  0.1964
  423MPD2    H3 6369   3.541   4.183  17.712 -1.0803 -1.4264 -0.7638
  423MPD2     N 6370   3.827   3.840  17.697 -0.4292 -0.0610 -0.6052
  423MPD2    H5 6371   3.810   3.833  17.597  1.3512 -2.1894 -0.7656
  423MPD2    N1 6372   3.740   4.084   0.379 -0.2878 -0.5227 -0.1072
  423MPD2    H7 6373   3.823   4.044   0.421  0.2194 -0.2296 -0.8477
  424TMC3    C1 6374   3.722   4.159   0.598  0.3231 -0.5697 -0.4075
  424TMC3    C2 6375   3.849   4.115   0.621 -0.8524  0.1968  0.3760
  424TMC3    C3 6376   3.881   4.089   0.752  0.7625  0.5100 -0.3417
  424TMC3    C4 6377   3.631   4.186   0.695 -0.1734  0.0929  0.0083
  424TMC3    C5 6378   3.668   4.153   0.821 -0.2074  0.3964 -0.8218
  424TMC3    C6 6379   3.788   4.100   0.856 -0.1118 -0.5930  0.0561
  424TMC3     C 6380   3.669   4.171   0.465  0.0622 -0.3795  0.1079
  424TMC3     O 6381   3.563   4.231   0.454  0.2691 -0.5371  0.0025
  424TMC3     H 6382   3.920   4.090   0.542 -2.2172 -2.6168  0.0716
  424TMC3    H1 6383   3.534   4.232   0.679 -1.9964 -2.8141  2.7472
  424TMC3    H2 6384   3.810   4.090   0.961 -0.3727 -2.5821 -0.0792
  424TMC3    C7 6385   3.567   4.122   0.927  0.3716 -0.2684 -0.4627
  424TMC3    C8 6386   4.003   4.009   0.763 -0.3611 -0.8910 -0.5626
  424TMC3    O1 6387   3.595   4.035   1.006 -0.4147  0.0078 -0.1074
  424TMC3    O2 6388   4.018   3.940   0.859  0.1669 -0.3146 -0.3909
  425MPD2     C 6389   3.393   3.321  17.498 -0.1661 -0.1032 -0.3521
  425MPD2    C1 6390   3.362   3.233  17.395  0.3899  0.1757  0.6214
  425MPD2    C2 6391   3.288   3.275  17.288  0.2351 -0.0894  0.1777
  425MPD2    C3 6392   3.221   3.391  17.280 -0.3567  0.0034  0.2008
  425MPD2    C4 6393   3.237   3.475  17.384  0.6022  0.0865 -0.7608
  425MPD2    C5 6394   3.325   3.445  17.489 -0.4182  0.2074  0.3305
  425MPD2     H 6395   3.265   3.209  17.205 -1.5046  0.0570  0.5585
  425MPD2    H1 6396   3.199   3.576  17.381  0.4168  0.0465  0.1748
  425MPD2    H2 6397   3.463   3.304  17.579  0.0055 -1.1576 -0.7242
  425MPD2    H3 6398   3.336   3.518  17.568 -1.8879  1.7583 -0.8969
  425MPD2     N 6399   3.137   3.416  17.175 -0.1361  0.7092  0.2321
  425MPD2    H5 6400   3.131   3.341  17.107 -0.9765  0.6145  0.4206
  425MPD2    N1 6401   3.423   3.106  17.402 -0.5513  0.2987  0.2394
  425MPD2    H7 6402   3.459   3.080  17.493  1.6388  0.0446 -0.7042
  426TMC3    C1 6403   3.469   2.878  17.337  0.3691  0.0210  0.2385
  426TMC3    C2 6404   3.510   2.814  17.226  0.0633  0.1099 -0.2187
  426TMC3    C3 6405   3.464   2.686  17.212  0.7137 -0.0453 -0.1191
  426TMC3    C4 6406   3.392   2.819  17.429  0.1310  0.2958  0.4314
  426TMC3    C5 6407   3.345   2.689  17.414 -0.2566 -0.0879  0.4225
  426TMC3    C6 6408   3.392   2.616  17.306  0.4612 -0.0546  0.0088
  426TMC3     C 6409   3.428   3.016  17.302  0.1214 -0.1631  0.1992
  426TMC3     O 6410   3.395   3.020  17.187 -0.3407  0.1724 -0.2832
  426TMC3     H 6411   3.560   2.868  17.146 -2.2197  1.2392 -0.9026
  426TMC3    H1 6412   3.367   2.888  17.509  1.2528  0.7725  0.3644
  426TMC3    H2 6413   3.354   2.518  17.282 -1.4242  0.0491  2.5548
  426TMC3    C7 6414   3.248   2.618  17.498  0.1225 -0.0914 -0.9999
  426TMC3    C8 6415   3.420   2.659  17.080 -0.2975 -0.5292 -0.0735
  426TMC3    O1 6416   3.248   2.498  17.489 -0.3239  0.1860  0.0775
  426TMC3    O2 6417   3.404   2.540  17.051 -0.1581 -0.2223  0.4675
  427MPD2     C 6418   1.677   0.804  14.574 -0.6440  0.4098 -0.4227
  427MPD2    C1 6419   1.618   0.723  14.670  0.5921 -0.7351 -0.4186
  427MPD2    C2 6420   1.497   0.751  14.723  0.1139  0.6331 -0.3032
  427MPD2    C3 6421   1.417   0.848  14.658 -0.7273 -0.2664  0.0087
  427MPD2    C4 6422   1.472   0.915  14.548  0.2597  0.5547 -0.1002
  427MPD2    C5 6423   1.597   0.891  14.508 -0.8932 -0.1057  0.4482
  427MPD2     H 6424   1.461   0.688  14.803  0.6472 -0.4172 -0.8898
  427MPD2    H1 6425   1.407   0.970  14.480 -1.3640  1.2298  2.0059
  427MPD2    H2 6426   1.769   0.778  14.524 -1.6244  0.4428 -2.2585
  427MPD2    H3 6427   1.632   0.954  14.427 -0.6668 -2.0910 -0.9919
  427MPD2     N 6428   1.294   0.892  14.713  0.2904  0.1585  0.2259
  427MPD2    H5 6429   1.239   0.960  14.661  1.0915  0.4123 -0.2942
  427MPD2    N1 6430   1.676   0.605  14.708 -0.8734 -0.1937  0.4546
  427MPD2    H7 6431   1.624   0.562  14.784 -2.3206  0.5905 -0.1005
  428TMC3    C1 6432   1.844   0.449  14.746 -0.0315  0.0438  0.0024
  428TMC3    C2 6433   1.751   0.354  14.776 -0.4497 -0.0963  0.5927
  428TMC3    C3 6434   1.789   0.243  14.849  0.6353  0.0982  0.3719
  428TMC3    C4 6435   1.969   0.447  14.798 -0.0224 -0.8653 -0.0386
  428TMC3    C5 6436   2.007   0.329  14.858  0.0066  0.0123  0.2023
  428TMC3    C6 6437   1.914   0.228  14.885  0.1326  0.1019 -0.1527
  428TMC3     C 6438   1.804   0.563  14.672  0.0089 -0.3371 -1.0417
  428TMC3     O 6439   1.889   0.604  14.593 -0.1048 -0.8677  0.1138
  428TMC3     H 6440   1.648   0.366  14.744  0.1762  1.8129 -0.6970
  428TMC3    H1 6441   2.036   0.522  14.757 -1.3067 -1.1795 -2.7424
  428TMC3    H2 6442   1.941   0.132  14.928  4.0018  0.7322 -1.1490
  428TMC3    C7 6443   2.108   0.330  14.964  0.2106 -0.5452 -0.7061
  428TMC3    C8 6444   1.697   0.159  14.919  0.2751  0.4126 -0.6040
  428TMC3    O1 6445   2.150   0.223  15.006 -0.1822 -0.6626 -0.1759
  428TMC3    O2 6446   1.734   0.049  14.960  0.1552 -0.1094  0.1465
  429MPD2     C 6447   3.560   0.698  17.437 -0.2495 -0.3232  0.0394
  429MPD2    C1 6448   3.510   0.634  17.326 -0.2385 -0.4422 -0.1948
  429MPD2    C2 6449   3.493   0.710  17.214 -0.5929  0.2931 -0.0372
  429MPD2    C3 6450   3.521   0.841  17.208 -0.3436  0.8833  0.0938
  429MPD2    C4 6451   3.573   0.909  17.320  0.1995  0.2163  0.4418
  429MPD2    C5 6452   3.598   0.834  17.434  0.0445  0.5550  0.6960
  429MPD2     H 6453   3.465   0.663  17.121  0.4177 -0.0183 -0.1802
  429MPD2    H1 6454   3.620   1.006  17.310 -0.2061  0.2433 -1.1896
  429MPD2    H2 6455   3.587   0.651  17.531  1.7037  2.0314  0.6552
  429MPD2    H3 6456   3.639   0.884  17.521 -2.5967  4.6707 -0.4097
  429MPD2     N 6457   3.501   0.902  17.084  0.7490  0.1506  0.1159
  429MPD2    H5 6458   3.490   0.837  17.008  1.5797 -1.0385  1.0143
  429MPD2    N1 6459   3.452   0.502  17.327  0.0974 -0.7299 -0.6099
  429MPD2    H7 6460   3.384   0.479  17.255  0.8672 -1.5599 -1.0708
  430TMC3    C1 6461   3.520   1.073  16.902 -0.3721 -0.1993 -0.3706
  430TMC3    C2 6462   3.443   1.184  16.858 -0.3454  0.4732 -0.0839
  430TMC3    C3 6463   3.436   1.212  16.722 -0.2301  0.2074 -1.0339
  430TMC3    C4 6464   3.573   0.985  16.817  0.8555 -0.0494  0.2260
  430TMC3    C5 6465   3.563   1.014  16.682  0.2515 -0.0431  0.2876
  430TMC3    C6 6466   3.494   1.119  16.634  0.1450  0.3723  0.9515
  430TMC3     C 6467   3.531   1.034  17.050 -0.4800 -0.4514 -0.0650
  430TMC3     O 6468   3.510   1.123  17.129  0.4991  0.2420  0.2597
  430TMC3     H 6469   3.396   1.240  16.939  1.3392  1.6100  0.1139
  430TMC3    H1 6470   3.602   0.884  16.844  1.3344  0.2123  0.6748
  430TMC3    H2 6471   3.495   1.140  16.528 -0.0143 -0.7365  0.7349
  430TMC3    C7 6472   3.596   0.900  16.595  0.0315 -0.2881  0.3538
  430TMC3    C8 6473   3.304   1.256  16.679 -1.0904 -0.1860 -0.2776
  430TMC3    O1 6474   3.655   0.814  16.653 -0.4290 -0.2831 -0.1344
  430TMC3    O2 6475   3.267   1.216  16.568  0.2516  0.3966  0.3328
  431MPD2     C 6476   3.702   0.980  12.235  0.3787 -0.3087 -1.1282
  431MPD2    C1 6477   3.777   0.883  12.165  0.8852  0.1645  0.4906
  431MPD2    C2 6478   3.711   0.776  12.112 -0.1536  0.3486  0.0110
  431MPD2    C3 6479   3.578   0.762  12.119 -0.1083  0.0478  0.1237
  431MPD2    C4 6480   3.506   0.851  12.195 -0.0838 -0.0738 -0.2571
  431MPD2    C5 6481   3.569   0.952  12.257  0.5288 -0.1527 -0.0311
  431MPD2     H 6482   3.768   0.699  12.062 -0.5504  0.1436 -0.1314
  431MPD2    H1 6483   3.398   0.845  12.204  0.2064 -1.4350  2.3042
  431MPD2    H2 6484   3.742   1.069  12.281 -0.4115 -0.3592 -0.3481
  431MPD2    H3 6485   3.502   1.018  12.311  0.0469 -2.2991  1.9506
  431MPD2     N 6486   3.505   0.654  12.065  0.1306  0.6744  0.2735
  431MPD2    H5 6487   3.404   0.654  12.074  0.1675 -0.8748  0.7432
  431MPD2    N1 6488   3.916   0.874  12.165 -0.4981  0.0739 -0.8804
  431MPD2    H7 6489   3.954   0.787  12.131  1.6655  0.7804 -0.2763
  432TMC3    C1 6490   3.451   0.471  11.929 -0.5450 -0.0285 -0.0716
  432TMC3    C2 6491   3.473   0.412  11.807 -0.7697  0.3984  0.2565
  432TMC3    C3 6492   3.454   0.285  11.788  0.2490 -0.3884 -0.3035
  432TMC3    C4 6493   3.409   0.393  12.032 -0.0468  0.4617 -0.3191
  432TMC3    C5 6494   3.386   0.256  12.009 -0.1213  0.5397 -0.2339
  432TMC3    C6 6495   3.405   0.205  11.887 -0.2027  0.4981 -0.2119
  432TMC3     C 6496   3.550   0.566  11.965 -0.2942  0.3881 -0.7586
  432TMC3     O 6497   3.663   0.549  11.921 -0.5697 -0.0574  0.1029
  432TMC3     H 6498   3.500   0.471  11.721  0.6495  1.1820  1.2336
  432TMC3    H1 6499   3.420   0.429  12.134  0.2796  3.1879 -1.3122
  432TMC3    H2 6500   3.405   0.098  11.872 -2.0118  0.6368 -1.2138
  432TMC3    C7 6501   3.425   0.175  12.119  0.6136  0.3817 -0.8122
  432TMC3    C8 6502   3.555   0.216  11.705 -0.6823 -0.6681  1.2223
  432TMC3    O1 6503   3.477   0.067  12.089 -0.3770 -0.7108  0.1265
  432TMC3    O2 6504   3.538   0.099  11.674  0.5424 -0.2222 -0.4938
  433MPD2     C 6505   2.456   4.437  10.623  0.6809  0.4970 -0.2606
  433MPD2    C1 6506   2.414   4.331  10.701  0.2590 -0.4577  0.1044
  433MPD2    C2 6507   2.441   4.339  10.835 -0.2041 -0.1588 -0.0572
  433MPD2    C3 6508   2.515   4.444  10.885 -0.0172 -0.3857  0.1812
  433MPD2    C4 6509   2.555   4.551  10.804  0.5575 -0.5521 -0.1202
  433MPD2    C5 6510   2.516   4.551  10.675  0.1583 -0.5273  0.2088
  433MPD2     H 6511   2.407   4.253  10.891 -0.4044 -1.5803 -2.3406
  433MPD2    H1 6512   2.624   4.626  10.840  1.4759 -2.0079  1.1870
  433MPD2    H2 6513   2.455   4.434  10.514 -0.4180  0.3676 -0.2497
  433MPD2    H3 6514   2.562   4.623  10.607  1.1723 -1.9174 -0.5813
  433MPD2     N 6515   2.557   4.428  11.020 -0.3287  0.5901 -0.3852
  433MPD2    H5 6516   2.549   4.335  11.060  0.1733  1.1304  0.9778
  433MPD2    N1 6517   2.371   4.206  10.653 -0.1286  0.4402  0.2043
  433MPD2    H7 6518   2.345   4.134  10.720 -0.7644 -0.8491 -1.4181
  434TMC3    C1 6519   2.324   4.027  10.512 -0.2214  0.9104 -0.3536
  434TMC3    C2 6520   2.369   3.937  10.605  0.8114  0.6829  0.2266
  434TMC3    C3 6521   2.395   3.810  10.572 -0.5332  0.0296 -0.2804
  434TMC3    C4 6522   2.315   3.984  10.384 -0.2161  0.6987  0.3989
  434TMC3    C5 6523   2.329   3.849  10.353 -0.8674  0.1083  0.6921
  434TMC3    C6 6524   2.357   3.760  10.450  0.5872  0.0259 -0.1129
  434TMC3     C 6525   2.368   4.166  10.519  0.4132 -0.5217 -0.2427
  434TMC3     O 6526   2.396   4.225  10.415 -0.2587  0.3385 -0.6521
  434TMC3     H 6527   2.413   3.960  10.702  1.5244  1.4639 -0.2772
  434TMC3    H1 6528   2.296   4.053  10.302  1.3706  0.2351 -0.3463
  434TMC3    H2 6529   2.373   3.660  10.410 -1.5928 -1.7666  3.5530
  434TMC3    C7 6530   2.279   3.805  10.226  0.7964  0.0463  0.4099
  434TMC3    C8 6531   2.429   3.714  10.671 -1.0481 -0.2959  0.8629
  434TMC3    O1 6532   2.278   3.888  10.135  0.2210  0.2736 -0.1399
  434TMC3    O2 6533   2.432   3.751  10.787 -0.3019 -0.3681  0.3699
  435MPD2     C 6534   0.196   3.777  15.416 -0.2159  0.2660  0.2269
  435MPD2    C1 6535   0.158   3.820  15.540 -0.1287  0.6569  0.1661
  435MPD2    C2 6536   0.239   3.824  15.646 -0.0531 -1.1366 -0.0078
  435MPD2    C3 6537   0.374   3.791  15.639 -0.3973  0.0914 -0.2114
  435MPD2    C4 6538   0.416   3.750  15.513  0.6378 -0.4740 -0.4004
  435MPD2    C5 6539   0.330   3.739  15.409 -0.5557  0.8421 -0.1294
  435MPD2     H 6540   0.206   3.860  15.743 -0.6393 -2.1152  0.1511
  435MPD2    H1 6541   0.521   3.751  15.485  0.8516  0.3997  0.4295
  435MPD2    H2 6542   0.133   3.765  15.329  1.4413  0.6915 -1.0397
  435MPD2    H3 6543   0.348   3.731  15.302  1.3671  0.1176  0.2449
  435MPD2     N 6544   0.451   3.795  15.753 -0.4030 -0.2927 -0.1191
  435MPD2    H5 6545   0.405   3.825  15.838  0.1713  0.8744 -0.2120
  435MPD2    N1 6546   0.019   3.853  15.567  0.1994  0.2430  0.4512
  435MPD2    H7 6547   4.728   3.882  15.661  2.6447  1.3900  0.7699
  436TMC3    C1 6548   4.428   3.992  15.735 -0.3126 -0.0746 -0.3644
  436TMC3    C2 6549   4.540   3.958  15.669 -0.5612 -0.2380 -0.3539
  436TMC3    C3 6550   4.531   3.906  15.541  0.2099 -0.1279  0.2387
  436TMC3    C4 6551   4.303   3.997  15.671 -0.1969 -0.4856 -0.7955
  436TMC3    C5 6552   4.303   3.954  15.539 -0.0760 -0.0761 -0.6950
  436TMC3    C6 6553   4.413   3.906  15.468  0.3067  0.5778  0.3090
  436TMC3     C 6554   4.446   4.076  15.850 -0.0421  0.8093 -0.3149
  436TMC3     O 6555   4.559   4.125  15.856  0.2607  0.1434 -0.7367
  436TMC3     H 6556   4.628   3.963  15.732 -1.5145  0.5447  0.9344
  436TMC3    H1 6557   4.228   4.067  15.706 -0.5050 -1.4145  0.4035
  436TMC3    H2 6558   4.420   3.883  15.362  0.7150 -1.4092  0.7637
  436TMC3    C7 6559   4.178   3.926  15.479 -0.2707  0.1870  0.5446
  436TMC3    C8 6560   4.655   3.872  15.473 -0.5456  0.0184  0.7240
  436TMC3    O1 6561   4.177   3.900  15.361  0.9067  0.2269 -0.1663
  436TMC3    O2 6562   4.654   3.839  15.354 -0.0346  0.4058 -0.1370
  437TMC3    C1 6563   2.998   1.082  12.897  0.0983 -0.5256  0.5691
  437TMC3    C2 6564   2.874   1.140  12.918 -0.2489  0.3402  0.6110
  437TMC3    C3 6565   2.826   1.213  12.820  0.3882 -0.4286  0.0337
  437TMC3    C4 6566   3.068   1.090  12.779 -0.4916  0.1746  0.0648
  437TMC3    C5 6567   3.006   1.164  12.677  0.6093  0.0115  0.2099
  437TMC3    C6 6568   2.892   1.233  12.700  0.3337  0.0495 -0.1287
  437TMC3     C 6569   3.063   1.022  13.006 -0.3744 -0.3226  0.1353
  437TMC3     O 6570   3.010   1.050  13.114  0.4294  0.3657  0.4793
  437TMC3     H 6571   2.813   1.122  13.006 -2.5117  1.5342 -0.6819
  437TMC3    H1 6572   3.148   1.019  12.763 -0.5459  0.3095 -0.7890
  437TMC3    H2 6573   2.851   1.300  12.626  0.6460  0.8560  0.4212
  437TMC3    C7 6574   3.077   1.197  12.551  0.1057 -0.2761  0.8976
  437TMC3    C8 6575   2.712   1.285  12.855  0.2516 -0.5527 -0.6246
  437TMC3    O1 6576   3.016   1.233  12.455 -0.9057 -0.7208 -0.3206
  437TMC3    O2 6577   2.634   1.219  12.923  0.6728 -0.3620 -1.1152
  438MPD2     C 6578   0.923   2.260  16.870  0.0947  0.7016  0.2316
  438MPD2    C1 6579   0.948   2.119  16.880 -0.0538  0.2242 -0.3274
  438MPD2    C2 6580   0.898   2.051  16.991  1.2412  1.0631  0.0825
  438MPD2    C3 6581   0.819   2.114  17.085 -0.2311  0.0039  0.6541
  438MPD2    C4 6582   0.803   2.251  17.069 -1.4254  0.4364  0.1992
  438MPD2    C5 6583   0.858   2.327  16.971 -0.2815  0.3728  0.2756
  438MPD2     H 6584   0.917   1.944  16.999 -2.3837  0.4843  1.0386
  438MPD2    H1 6585   0.737   2.303  17.136 -2.8376 -2.2171  0.8929
  438MPD2    H2 6586   0.949   2.314  16.780 -0.7034 -0.7058 -0.8475
  438MPD2    H3 6587   0.826   2.429  16.956 -0.7977 -0.0059 -1.2428
  438MPD2     N 6588   0.775   2.055  17.204  0.0376 -0.2605 -0.7791
  438MPD2    H5 6589   0.714   2.110  17.263  0.7362  0.5524 -0.8072
  438MPD2    N1 6590   1.023   2.040  16.784  0.6732 -0.3948  0.2715
  438MPD2    H7 6591   1.045   1.943  16.800  0.8041 -0.5376 -0.7616
  439TMC3    C1 6592   1.144   1.990  16.586 -0.1016  1.0772 -0.5597
  439TMC3    C2 6593   1.153   2.006  16.453  0.2907 -0.0122 -0.0017
  439TMC3    C3 6594   1.262   1.961  16.383 -0.0662  0.3661 -0.0064
  439TMC3    C4 6595   1.226   1.904  16.655 -0.1455  0.5197 -0.4878
  439TMC3    C5 6596   1.313   1.837  16.572  0.2493 -0.3368  0.0493
  439TMC3    C6 6597   1.347   1.874  16.449 -0.3237 -1.3500 -0.5121
  439TMC3     C 6598   1.077   2.090  16.668 -0.7642  0.3731  0.1284
  439TMC3     O 6599   1.068   2.202  16.617  0.2524  0.4276  0.8416
  439TMC3     H 6600   1.081   2.069  16.402 -1.3781 -1.1175  0.9924
  439TMC3    H1 6601   1.215   1.878  16.760 -1.7591  0.5552 -0.6475
  439TMC3    H2 6602   1.427   1.820  16.400 -0.6449 -0.8934 -1.5276
  439TMC3    C7 6603   1.415   1.763  16.631 -0.1796 -0.2379 -0.0062
  439TMC3    C8 6604   1.262   1.944  16.235  0.0128 -0.3884 -0.1250
  439TMC3    O1 6605   1.528   1.789  16.592 -0.0874  0.7103 -0.2361
  439TMC3    O2 6606   1.365   1.896  16.190 -0.4700  0.0717 -0.2102
  440MPD2     C 6607   4.449   2.663  14.972 -0.5646  0.1754  0.1360
  440MPD2    C1 6608   4.506   2.745  15.068 -0.1282 -0.4010  1.0523
  440MPD2    C2 6609   4.603   2.694  15.149  0.4203 -0.2764  0.2090
  440MPD2    C3 6610   4.636   2.561  15.142  0.2550  0.1725 -0.2923
  440MPD2    C4 6611   4.576   2.477  15.057 -0.2770 -0.0195 -0.0803
  440MPD2    C5 6612   4.479   2.525  14.975  0.0932  0.2631 -0.2539
  440MPD2     H 6613   4.642   2.763  15.222  0.8184  0.0630 -0.3216
  440MPD2    H1 6614   4.596   2.371  15.044  0.2014  0.0495  0.0987
  440MPD2    H2 6615   4.353   2.691  14.930 -0.1602  2.4551  0.7430
  440MPD2    H3 6616   4.443   2.450  14.905 -0.2445 -0.0858  0.2923
  440MPD2     N 6617   4.724   2.499  15.227 -0.5403  0.0910  0.2843
  440MPD2    H5 6618   0.008   2.401  15.210  0.6003  0.1861  0.9819
  440MPD2    N1 6619   4.459   2.877  15.082  0.2879 -0.6027  0.3480
  440MPD2    H7 6620   4.488   2.932  15.163  0.7165 -1.3886  0.7270
  441TMC3    C1 6621   0.153   2.478  15.399 -0.8136  0.6799  0.3855
  441TMC3    C2 6622   0.244   2.536  15.476  0.3872 -0.0630 -0.1357
  441TMC3    C3 6623   0.280   2.477  15.593  0.0097 -0.4690 -0.1806
  441TMC3    C4 6624   0.105   2.352  15.422  0.1094 -0.1410 -0.4056
  441TMC3    C5 6625   0.154   2.284  15.529  0.0715  0.4919  0.1665
  441TMC3    C6 6626   0.246   2.346  15.616  0.6172  0.0928 -0.3141
  441TMC3     C 6627   0.064   2.563  15.319  0.4196 -0.3486  0.5738
  441TMC3     O 6628   0.068   2.683  15.347  0.9476 -0.1291 -0.1838
  441TMC3     H 6629   0.280   2.634  15.446 -1.1084  0.9270  1.3300
  441TMC3    H1 6630   0.034   2.300  15.359 -0.5631  0.0006  0.2353
  441TMC3    H2 6631   0.263   2.296  15.710 -2.8058  0.3938  0.4851
  441TMC3    C7 6632   0.118   2.143  15.556 -0.7232 -0.5396 -0.3367
  441TMC3    C8 6633   0.267   2.547  15.713 -0.6739 -0.5792 -0.4141
  441TMC3    O1 6634   0.031   2.104  15.483  0.2758 -0.2694  0.1292
  441TMC3    O2 6635   0.315   2.498  15.813  0.1007  0.3570  0.0693
  442MPD2     C 6636   2.942   3.016  16.310  0.0422  0.3576 -0.2842
  442MPD2    C1 6637   2.883   2.931  16.405 -0.4859  0.8129 -0.0258
  442MPD2    C2 6638   2.873   2.802  16.375 -0.3839  0.0844  0.3435
  442MPD2    C3 6639   2.907   2.750  16.259 -0.3499 -0.1506 -0.0938
  442MPD2    C4 6640   2.951   2.835  16.163  0.1568  0.7189 -0.8887
  442MPD2    C5 6641   2.967   2.963  16.187 -0.2531 -0.4034  0.7960
  442MPD2     H 6642   2.838   2.740  16.456 -4.6617 -0.5417 -1.9488
  442MPD2    H1 6643   2.957   2.804  16.060 -2.7711 -0.6297 -0.6404
  442MPD2    H2 6644   2.954   3.122  16.327  1.1078 -0.0603  1.6666
  442MPD2    H3 6645   3.008   3.027  16.110 -2.5749  0.8706  0.6209
  442MPD2     N 6646   2.889   2.612  16.226 -0.9268  0.2567 -0.3773
  442MPD2    H5 6647   2.912   2.585  16.131 -2.0964 -1.2005 -0.2458
  442MPD2    N1 6648   2.840   2.977  16.528 -0.4880 -0.5367  0.3631
  442MPD2    H7 6649   2.793   2.918  16.596  2.6589 -1.6830  1.5365
  443TMC3    C1 6650   2.803   3.136  16.698  0.0100 -0.6725 -0.7300
  443TMC3    C2 6651   2.740   3.257  16.663 -0.1428 -0.1408  0.0378
  443TMC3    C3 6652   2.607   3.262  16.642  0.6218 -0.5850  0.6223
  443TMC3    C4 6653   2.731   3.032  16.745 -0.3876 -0.1829  0.5024
  443TMC3    C5 6654   2.595   3.039  16.727  0.5134  0.0684  1.3555
  443TMC3    C6 6655   2.536   3.147  16.677 -0.6166 -0.0148  0.7366
  443TMC3     C 6656   2.893   3.094  16.588 -0.1065  1.1508  0.2906
  443TMC3     O 6657   2.979   3.179  16.560  0.3155 -0.1592 -0.3319
  443TMC3     H 6658   2.808   3.335  16.631  0.7577 -0.9809 -0.1095
  443TMC3    H1 6659   2.780   2.941  16.779  1.0812  0.0742 -0.9586
  443TMC3    H2 6660   2.430   3.147  16.655 -0.5771  1.6468  0.5974
  443TMC3    C7 6661   2.519   2.937  16.797 -0.0486 -0.8356 -0.3203
  443TMC3    C8 6662   2.602   3.305  16.504 -0.0185 -0.3617  0.2869
  443TMC3    O1 6663   2.562   2.825  16.820 -0.4737  0.4717  0.3628
  443TMC3    O2 6664   2.639   3.420  16.474  0.1226  0.4279  0.2151
  444MPD2     C 6665   3.096   2.328  16.738 -0.0717 -0.0101  0.5856
  444MPD2    C1 6666   2.969   2.269  16.694 -0.6981  0.5318 -0.5653
  444MPD2    C2 6667   2.968   2.152  16.631 -0.0302 -0.4328  0.0516
  444MPD2    C3 6668   3.078   2.074  16.619  0.0353  0.0695  0.5696
  444MPD2    C4 6669   3.199   2.119  16.663  0.4793 -1.0603 -1.1297
  444MPD2    C5 6670   3.203   2.245  16.723 -0.4562 -0.3466  0.0208
  444MPD2     H 6671   2.871   2.116  16.597 -0.1543 -0.3687  0.3436
  444MPD2    H1 6672   3.296   2.077  16.640  1.0163  0.9214 -2.4766
  444MPD2    H2 6673   3.108   2.423  16.789 -1.2253  0.9079 -0.8417
  444MPD2    H3 6674   3.295   2.288  16.760  0.1115  0.1255 -1.9416
  444MPD2     N 6675   3.072   1.942  16.553 -0.9401  0.3983  0.4076
  444MPD2    H5 6676   2.981   1.903  16.533 -1.3246  1.4200  0.1451
  444MPD2    N1 6677   2.841   2.321  16.737 -1.1939 -0.0209  0.3598
  444MPD2    H7 6678   2.761   2.261  16.717  1.2655 -3.7513  1.5850
  445TMC3    C1 6679   3.146   1.729  16.471  0.1773 -0.0354  0.1199
  445TMC3    C2 6680   3.050   1.719  16.375 -0.5252 -0.1036 -0.0194
  445TMC3    C3 6681   3.050   1.600  16.306 -1.0316 -0.3434 -0.1361
  445TMC3    C4 6682   3.237   1.633  16.492 -0.2655  0.4323 -0.0550
  445TMC3    C5 6683   3.241   1.520  16.409 -0.7050 -0.0348 -0.6329
  445TMC3    C6 6684   3.143   1.500  16.326  0.1939 -0.2797  0.3436
  445TMC3     C 6685   3.179   1.861  16.523  0.3669 -0.2180  0.1914
  445TMC3     O 6686   3.297   1.884  16.540 -0.3190 -0.1541  0.0737
  445TMC3     H 6687   2.990   1.806  16.350 -1.2950 -0.9125 -0.9910
  445TMC3    H1 6688   3.323   1.660  16.552  0.2634 -0.6230 -0.3270
  445TMC3    H2 6689   3.146   1.413  16.260  2.2795 -1.3570  1.8847
  445TMC3    C7 6690   3.368   1.453  16.382 -0.7770 -0.3600  0.6747
  445TMC3    C8 6691   2.943   1.582  16.212 -0.4594 -0.4895  0.5911
  445TMC3    O1 6692   3.363   1.369  16.293 -0.5113  0.2020 -0.1653
  445TMC3    O2 6693   2.856   1.665  16.212  0.5643 -0.4480  0.0686
  446MPD2     C 6694   2.134   3.536  11.224  0.6194 -0.8596 -0.3560
  446MPD2    C1 6695   2.134   3.577  11.093  0.0061  0.7357  0.9706
  446MPD2    C2 6696   2.240   3.652  11.051  0.1771  0.1021  0.6207
  446MPD2    C3 6697   2.340   3.692  11.136 -0.2811  0.1838 -0.4096
  446MPD2    C4 6698   2.345   3.640  11.263 -0.5406 -0.5764  0.3595
  446MPD2    C5 6699   2.239   3.563  11.308 -0.1157 -0.1960 -0.1889
  446MPD2     H 6700   2.240   3.677  10.945  0.3221  1.2377  0.8856
  446MPD2    H1 6701   2.428   3.664  11.328 -0.2731 -0.2444 -0.0991
  446MPD2    H2 6702   2.053   3.478  11.265 -2.1732  1.7657 -2.2289
  446MPD2    H3 6703   2.226   3.531  11.411  0.1828 -0.1189 -0.1283
  446MPD2     N 6704   2.451   3.754  11.074  0.1944  0.4670  0.2483
  446MPD2    H5 6705   2.440   3.779  10.976  3.7802  0.1547 -0.2559
  446MPD2    N1 6706   2.034   3.543  10.999 -0.7627  0.0877  0.1180
  446MPD2    H7 6707   2.048   3.550  10.899  1.4758  0.8846  0.4844
  447TMC3    C1 6708   2.665   3.847  11.063  0.4824  0.2897 -0.2191
  447TMC3    C2 6709   2.631   3.950  10.981  0.1623  0.2290 -0.6990
  447TMC3    C3 6710   2.723   4.048  10.950 -0.7191  0.0724 -0.3275
  447TMC3    C4 6711   2.793   3.846  11.122 -0.2346 -0.0003 -0.4591
  447TMC3    C5 6712   2.876   3.957  11.096  0.5719  0.0882  0.7100
  447TMC3    C6 6713   2.847   4.057  11.003  0.5297 -0.2041 -0.4101
  447TMC3     C 6714   2.571   3.761  11.133 -0.3990 -0.6714  0.0828
  447TMC3     O 6715   2.620   3.702  11.233 -0.4941 -1.0053  0.2861
  447TMC3     H 6716   2.533   3.960  10.936 -0.1844 -0.3525 -0.0798
  447TMC3    H1 6717   2.832   3.751  11.158 -0.3234 -0.6757 -2.1406
  447TMC3    H2 6718   2.912   4.143  10.995  0.6970 -0.0900  1.9896
  447TMC3    C7 6719   2.996   3.954  11.176  0.5584  0.7704  0.0289
  447TMC3    C8 6720   2.708   4.106  10.812  0.1495  0.1042  0.4505
  447TMC3    O1 6721   3.100   3.990  11.123  0.6374 -0.3714  0.0533
  447TMC3    O2 6722   2.609   4.074  10.749  0.6463  0.2074  0.2614
  448TMC3    C1 6723   1.093   4.030  16.728  0.2780  0.0999 -0.4074
  448TMC3    C2 6724   1.030   3.930  16.655 -0.8464 -0.2307  0.0440
  448TMC3    C3 6725   1.034   3.801  16.706  0.1497  0.3163  0.6166
  448TMC3    C4 6726   1.152   4.003  16.851  0.0150  0.0619 -0.2600
  448TMC3    C5 6727   1.147   3.875  16.897  0.7675 -0.5757 -0.3591
  448TMC3    C6 6728   1.081   3.772  16.830  0.5603  0.1565  0.3210
  448TMC3     C 6729   1.053   4.163  16.702 -0.4407  0.1235 -0.4064
  448TMC3     O 6730   0.961   4.180  16.623 -0.2296  0.5946  0.1940
  448TMC3     H 6731   0.975   3.946  16.563 -0.1386 -2.7440 -0.8166
  448TMC3    H1 6732   1.188   4.070  16.928 -0.1599 -2.5781  2.1213
  448TMC3    H2 6733   1.048   3.683  16.883  2.6912  1.2833  3.6121
  448TMC3    C7 6734   1.212   3.847  17.020 -0.1631 -0.1629 -0.3220
  448TMC3    C8 6735   0.942   3.700  16.637  0.0426  0.0839 -0.0895
  448TMC3    O1 6736   1.224   3.938  17.099 -0.4280 -0.0783  0.5627
  448TMC3    O2 6737   0.848   3.745  16.572 -0.1573 -0.0475  0.0680
  449MPD2     C 6738   1.745   1.468  13.884  0.4652 -0.4760  0.1750
  449MPD2    C1 6739   1.789   1.587  13.833 -0.1371 -0.5852 -0.0769
  449MPD2    C2 6740   1.741   1.627  13.713  0.2950  0.0217 -0.1013
  449MPD2    C3 6741   1.663   1.551  13.634 -0.3364 -0.3601 -0.1191
  449MPD2    C4 6742   1.632   1.424  13.677  0.0399 -0.5556 -0.5588
  449MPD2    C5 6743   1.671   1.386  13.804 -0.0649  0.7681 -0.0037
  449MPD2     H 6744   1.773   1.723  13.675 -0.3331  0.6464  0.9608
  449MPD2    H1 6745   1.579   1.348  13.620 -1.9108  0.2751  0.1600
  449MPD2    H2 6746   1.777   1.425  13.978  0.3781  0.2518  0.5392
  449MPD2    H3 6747   1.632   1.295  13.848  0.7733 -0.4766 -1.8171
  449MPD2     N 6748   1.623   1.610  13.515  0.3256  0.1699 -0.3365
  449MPD2    H5 6749   1.654   1.707  13.509 -0.3408  0.3204 -1.2745
  449MPD2    N1 6750   1.872   1.671  13.912 -0.2328  0.4217  0.0556
  449MPD2    H7 6751   1.900   1.762  13.876  0.7599 -0.7544 -2.1340
  450TMC3    C1 6752   2.049   1.725  14.050 -0.2667  0.5352 -0.4443
  450TMC3    C2 6753   2.163   1.651  14.039  0.2787 -0.0882  0.1057
  450TMC3    C3 6754   2.253   1.692  13.944 -0.4683 -0.8339  0.4361
  450TMC3    C4 6755   2.029   1.841  13.978 -0.0089  0.9975 -0.0606
  450TMC3    C5 6756   2.128   1.884  13.891  0.5339  0.0136  0.1952
  450TMC3    C6 6757   2.238   1.805  13.872 -0.4361 -0.4506 -0.3232
  450TMC3     C 6758   1.930   1.635  14.030 -0.8423 -0.7133  0.5596
  450TMC3     O 6759   1.923   1.537  14.106  0.2548  0.2734 -0.0689
  450TMC3     H 6760   2.172   1.559  14.096  0.6434  0.6294  1.2086
  450TMC3    H1 6761   1.933   1.887  13.997 -1.1739 -1.0740 -0.8934
  450TMC3    H2 6762   2.299   1.833  13.787 -0.7355  0.7006 -0.1463
  450TMC3    C7 6763   2.067   1.923  13.764  0.5293 -0.1200 -0.6927
  450TMC3    C8 6764   2.374   1.614  13.930 -0.0974  0.1765  0.1988
  450TMC3    O1 6765   1.944   1.912  13.767 -0.2096  0.5804 -0.0845
  450TMC3    O2 6766   2.414   1.566  14.036 -0.2866 -0.5145 -0.1673
  451MPD2     C 6767   3.440   0.145   1.268 -0.7141  0.0240 -0.5742
  451MPD2    C1 6768   3.481   0.248   1.188  0.7898 -0.5019  1.1289
  451MPD2    C2 6769   3.608   0.247   1.144 -0.2790  0.0864  0.6349
  451MPD2    C3 6770   3.695   0.149   1.180  0.0974  0.3184 -0.9816
  451MPD2    C4 6771   3.653   0.042   1.259  0.0911 -0.6312 -0.5465
  451MPD2    C5 6772   3.520   0.038   1.294  0.4331 -0.1480  0.0814
  451MPD2     H 6773   3.645   0.333   1.089  0.3692 -0.2066  0.6088
  451MPD2    H1 6774   3.713   4.688   1.276  2.3987  1.4886  2.3161
  451MPD2    H2 6775   3.340   0.135   1.308 -1.1372  2.9306 -0.9563
  451MPD2    H3 6776   3.492   4.685   1.351 -1.8535  2.7277  3.3304
  451MPD2     N 6777   3.833   0.163   1.145 -0.2137  0.3359  0.0735
  451MPD2    H5 6778   3.907   0.096   1.163 -1.0203 -0.1015  1.7392
  451MPD2    N1 6779   3.384   0.339   1.148  0.4338 -0.1124  0.3472
  451MPD2    H7 6780   3.291   0.321   1.184 -1.3958  1.7565 -3.5342
  452TMC3    C1 6781   4.030   0.230   1.043 -1.0212  0.3503  0.0243
  452TMC3    C2 6782   4.032   0.132   0.947  0.3836 -0.7511  0.0738
  452TMC3    C3 6783   4.129   0.143   0.850  0.7388  0.0968 -0.0402
  452TMC3    C4 6784   4.121   0.328   1.052 -0.2268  0.6483  0.0061
  452TMC3    C5 6785   4.232   0.329   0.970 -0.2319  0.5566 -0.2663
  452TMC3    C6 6786   4.222   0.244   0.863 -0.3739 -0.1495 -0.3718
  452TMC3     C 6787   3.894   0.266   1.086 -0.8837 -0.3096 -0.5107
  452TMC3     O 6788   3.852   0.377   1.050  0.1109  0.0545  0.5436
  452TMC3     H 6789   3.953   0.058   0.935 -0.5171  0.0875  0.8209
  452TMC3    H1 6790   4.104   0.411   1.120  0.3622 -0.8017  1.9233
  452TMC3    H2 6791   4.271   0.276   0.771  1.1118 -1.4388 -0.0189
  452TMC3    C7 6792   4.313   0.450   0.957 -0.0576 -0.0150 -0.8467
  452TMC3    C8 6793   4.061   0.143   0.723 -0.1984 -0.6237  0.1003
  452TMC3    O1 6794   4.263   0.555   0.997  0.1699 -0.0534  0.2243
  452TMC3    O2 6795   4.085   0.241   0.654 -0.3252  0.5546 -0.0255
  453TMC3    C1 6796   4.343   2.209  12.205  0.2772  0.4343 -0.7207
  453TMC3    C2 6797   4.300   2.074  12.209 -0.1856  0.2119 -0.0980
  453TMC3    C3 6798   4.167   2.058  12.179 -0.0975  0.4853 -0.5886
  453TMC3    C4 6799   4.261   2.314  12.180 -0.0597 -0.0533  0.0451
  453TMC3    C5 6800   4.131   2.294  12.151 -0.1771 -0.0315  0.3717
  453TMC3    C6 6801   4.082   2.164  12.148 -0.5017 -0.7655  1.3773
  453TMC3     C 6802   4.480   2.236  12.249  0.4462  0.5974 -0.3345
  453TMC3     O 6803   4.545   2.333  12.213  0.4321 -0.0358 -0.0435
  453TMC3     H 6804   4.362   1.988  12.233  1.3290  0.4022 -3.3264
  453TMC3    H1 6805   4.295   2.415  12.199 -0.2016 -0.1166  0.6265
  453TMC3    H2 6806   3.981   2.144  12.114  0.6866  1.2283 -3.3304
  453TMC3    C7 6807   4.057   2.404  12.095 -0.6912  0.3748  0.8761
  453TMC3    C8 6808   4.125   1.939  12.108 -0.3106  0.1019 -0.2804
  453TMC3    O1 6809   4.120   2.474  12.020  0.4840 -0.0690 -0.4887
  453TMC3    O2 6810   4.008   1.912  12.094 -0.2652 -0.7351  0.0257
  454MPD2     C 6811   3.718   1.920  16.126  0.7026  0.0872 -0.2922
  454MPD2    C1 6812   3.632   1.974  16.034 -0.4879  0.1996 -0.1590
  454MPD2    C2 6813   3.595   2.104  16.048 -0.2052 -0.0265 -0.0561
  454MPD2    C3 6814   3.639   2.172  16.158 -0.2198 -0.3611 -0.3122
  454MPD2    C4 6815   3.719   2.115  16.258 -0.1856  0.0285  0.1496
  454MPD2    C5 6816   3.766   1.990  16.237 -0.1551  0.1859  0.2577
  454MPD2     H 6817   3.533   2.148  15.971  2.1418  1.7584 -0.9249
  454MPD2    H1 6818   3.747   2.162  16.351  0.2722  0.0395  0.0076
  454MPD2    H2 6819   3.765   1.823  16.114  0.0772 -0.1892 -0.5198
  454MPD2    H3 6820   3.830   1.952  16.315 -0.0204  0.1631  0.1363
  454MPD2     N 6821   3.597   2.300  16.188 -0.0146 -0.4205  0.7253
  454MPD2    H5 6822   3.602   2.330  16.285 -1.1017 -0.4085  0.7728
  454MPD2    N1 6823   3.593   1.910  15.919 -0.1476 -0.1543 -0.0078
  454MPD2    H7 6824   3.538   1.960  15.850 -0.9386 -0.7955  0.1547
  455TMC3    C1 6825   3.417   2.453  16.195  0.5435 -0.2745  0.7647
  455TMC3    C2 6826   3.448   2.468  16.330  0.0403  1.2605  0.6757
  455TMC3    C3 6827   3.345   2.450  16.414  1.0669  0.5395  0.1169
  455TMC3    C4 6828   3.289   2.431  16.154  0.3724 -0.3363  0.6143
  455TMC3    C5 6829   3.192   2.385  16.241  0.7953  0.2405  0.0698
  455TMC3    C6 6830   3.226   2.402  16.372  0.6893 -0.5164  0.4648
  455TMC3     C 6831   3.512   2.378  16.111  1.1607 -0.3918 -0.2572
  455TMC3     O 6832   3.486   2.360  15.992 -0.3838  0.2574  0.2767
  455TMC3     H 6833   3.542   2.512  16.360  0.8289  0.5977 -0.8107
  455TMC3    H1 6834   3.256   2.416  16.052  2.4765 -0.7063 -0.0127
  455TMC3    H2 6835   3.159   2.385  16.455 -1.0961  1.0371 -0.6729
  455TMC3    C7 6836   3.164   2.242  16.214 -0.1524 -0.5163 -0.5175
  455TMC3    C8 6837   3.361   2.502  16.546 -0.2701  0.3335 -0.3346
  455TMC3    O1 6838   3.074   2.222  16.137  0.2711  0.4181  0.4767
  455TMC3    O2 6839   3.466   2.495  16.613 -0.3334 -0.3271 -0.2068
  456MPD2     C 6840   1.324   2.341  16.072 -0.7469 -1.3172  0.1806
  456MPD2    C1 6841   1.401   2.315  16.183 -0.2268  0.3401  0.0956
  456MPD2    C2 6842   1.391   2.399  16.289 -0.6511 -0.2875  0.4382
  456MPD2    C3 6843   1.305   2.505  16.294  0.3024  0.0830  0.8660
  456MPD2    C4 6844   1.226   2.529  16.181  0.6529  0.2128 -0.1566
  456MPD2    C5 6845   1.239   2.446  16.072  0.7487 -0.0271 -0.1490
  456MPD2     H 6846   1.454   2.382  16.375 -2.4622 -0.3277  1.7402
  456MPD2    H1 6847   1.149   2.605  16.178 -1.0933 -1.4993  1.0413
  456MPD2    H2 6848   1.326   2.280  15.982 -0.4854  0.2371 -0.8708
  456MPD2    H3 6849   1.175   2.460  15.986  1.2491 -0.0195 -0.5187
  456MPD2     N 6850   1.298   2.589  16.405  0.2846 -0.2876  0.0744
  456MPD2    H5 6851   1.361   2.566  16.482 -1.6701 -2.1951  1.1238
  456MPD2    N1 6852   1.482   2.205  16.175 -0.4532  0.0608 -0.0839
  456MPD2    H7 6853   1.490   2.159  16.085  0.3473 -0.0277  0.0277
  457TMC3    C1 6854   1.261   2.766  16.546 -0.5671  0.2118 -0.1998
  457TMC3    C2 6855   1.170   2.862  16.582 -0.1666  0.0744  0.3334
  457TMC3    C3 6856   1.206   2.953  16.679  0.2457 -0.8040 -0.7324
  457TMC3    C4 6857   1.390   2.771  16.579 -0.4864  0.8029 -0.1595
  457TMC3    C5 6858   1.426   2.872  16.662 -0.2637  0.0340  0.3191
  457TMC3    C6 6859   1.338   2.965  16.714  0.0030 -0.2821 -0.2632
  457TMC3     C 6860   1.224   2.700  16.424 -0.0738  0.6902  0.2481
  457TMC3     O 6861   1.124   2.740  16.366  0.2866  0.7325 -0.1856
  457TMC3     H 6862   1.069   2.856  16.543 -0.1496 -0.5509  0.3871
  457TMC3    H1 6863   1.465   2.698  16.549 -2.3345 -0.0123 -2.7298
  457TMC3    H2 6864   1.358   3.025  16.802 -0.4528  0.4838 -0.6738
  457TMC3    C7 6865   1.550   2.839  16.739 -0.5090 -0.8568 -1.2307
  457TMC3    C8 6866   1.128   3.071  16.704 -0.4191 -0.4033 -0.5655
  457TMC3    O1 6867   1.577   2.720  16.748 -0.2691 -0.3173 -0.2893
  457TMC3    O2 6868   1.184   3.157  16.771  0.7327  0.2292  0.2073
  458MPD2     C 6869   3.529   1.276  12.336  0.2246  0.3593  0.1411
  458MPD2    C1 6870   3.553   1.217  12.459 -0.3813  0.0667 -0.7288
  458MPD2    C2 6871   3.439   1.182  12.533  0.2637 -0.2872  0.3824
  458MPD2    C3 6872   3.314   1.188  12.477  0.4234 -0.2141  0.1481
  458MPD2    C4 6873   3.297   1.234  12.356  0.5608 -0.2439  0.2463
  458MPD2    C5 6874   3.404   1.275  12.286  0.2401  0.7284  0.0550
  458MPD2     H 6875   3.451   1.134  12.630 -0.9975  2.5341  1.9214
  458MPD2    H1 6876   3.199   1.228  12.311  0.3262  1.6313  0.4852
  458MPD2    H2 6877   3.608   1.314  12.272  0.4951 -1.9117 -0.8729
  458MPD2    H3 6878   3.385   1.310  12.185 -1.6643  1.8967  0.8116
  458MPD2     N 6879   3.209   1.153  12.561  0.6201 -0.4156 -0.6752
  458MPD2    H5 6880   3.238   1.117  12.651  0.5604  1.2009  0.0016
  458MPD2    N1 6881   3.683   1.222  12.507 -0.2907  0.5607 -0.2798
  458MPD2    H7 6882   3.746   1.276  12.448  0.8203 -0.4917 -0.0576
  459TMC3    C1 6883   3.875   1.177  12.641 -0.0876  0.2572 -0.2428
  459TMC3    C2 6884   3.954   1.239  12.546  0.2241 -0.1905  0.8345
  459TMC3    C3 6885   4.078   1.283  12.589  0.0249  0.5777  0.5016
  459TMC3    C4 6886   3.916   1.169  12.776 -0.3447  0.3236 -0.0412
  459TMC3    C5 6887   4.027   1.229  12.811  0.0739 -0.1382 -0.0280
  459TMC3    C6 6888   4.106   1.284  12.722 -0.1446  0.1574 -0.3240
  459TMC3     C 6889   3.729   1.165  12.624 -0.3801  0.0493  0.4778
  459TMC3     O 6890   3.665   1.107  12.711  0.1746  0.3188  0.1609
  459TMC3     H 6891   3.916   1.251  12.445  0.5433 -0.5065  0.6788
  459TMC3    H1 6892   3.848   1.128  12.850  2.3461  1.5395  3.1087
  459TMC3    H2 6893   4.199   1.328  12.757  1.4596 -0.1975 -4.1396
  459TMC3    C7 6894   4.078   1.194  12.946 -0.2760 -0.1959 -0.0082
  459TMC3    C8 6895   4.164   1.364  12.508  0.1439  0.4074  0.1631
  459TMC3    O1 6896   4.191   1.163  12.960 -0.1168 -0.3570 -0.1175
  459TMC3    O2 6897   4.218   1.461  12.561  0.0705  0.6818 -0.2155
  460MPD2     C 6898   2.878   4.401  10.666 -0.2051 -0.3502  0.7030
  460MPD2    C1 6899   2.794   4.295  10.671  0.0227  0.9692  0.5188
  460MPD2    C2 6900   2.718   4.260  10.559 -0.3520  0.0656 -0.0481
  460MPD2    C3 6901   2.728   4.337  10.440 -0.6101 -0.1426  0.3881
  460MPD2    C4 6902   2.802   4.453  10.446  1.0611 -0.0671 -0.1226
  460MPD2    C5 6903   2.868   4.489  10.558  0.2741 -0.0599 -0.0786
  460MPD2     H 6904   2.652   4.174  10.551 -1.8835  1.3749 -1.2561
  460MPD2    H1 6905   2.815   4.516  10.359 -2.7899  0.7701 -0.0929
  460MPD2    H2 6906   2.937   4.436  10.750  0.1692 -1.2300  0.8062
  460MPD2    H3 6907   2.929   4.579  10.551 -0.5945  0.5878  0.6890
  460MPD2     N 6908   2.643   4.318  10.327  0.4443  0.3733  0.1111
  460MPD2    H5 6909   2.571   4.246  10.326  3.5906 -2.7287 -1.2844
  460MPD2    N1 6910   2.787   4.208  10.787 -0.2792 -0.0124  0.1268
  460MPD2    H7 6911   2.847   4.242  10.862 -1.4074  0.0781  0.9878
  461TMC3    C1 6912   2.586   4.315  10.103  0.3755  0.4467 -0.2097
  461TMC3    C2 6913   2.636   4.250  10.004 -0.2830 -0.7103 -0.5951
  461TMC3    C3 6914   2.559   4.172   9.919 -0.7079 -0.4854  0.0530
  461TMC3    C4 6915   2.455   4.308  10.133  0.0347 -0.1728  0.5471
  461TMC3    C5 6916   2.379   4.223  10.056 -0.0443  0.0758 -0.2173
  461TMC3    C6 6917   2.426   4.155   9.951  0.2929 -0.0440  0.3655
  461TMC3     C 6918   2.676   4.361  10.203 -0.5800  0.0608  0.2446
  461TMC3     O 6919   2.783   4.415  10.174  0.1662  0.1860 -0.5369
  461TMC3     H 6920   2.742   4.260   9.981 -0.4864 -1.7615 -1.9853
  461TMC3    H1 6921   2.413   4.376  10.206  0.3540  0.4792  0.1225
  461TMC3    H2 6922   2.359   4.093   9.894  1.0158  0.7782 -1.3605
  461TMC3    C7 6923   2.241   4.252  10.048  0.6649  0.6817  0.5369
  461TMC3    C8 6924   2.619   4.151   9.786  0.3060  0.0022 -0.1074
  461TMC3    O1 6925   2.211   4.363  10.079  0.0621  0.0416  0.9883
  461TMC3    O2 6926   2.742   4.170   9.781  0.2816  0.0608 -0.0254
  462TMC3    C1 6927   3.350   0.729  17.717  0.9132  0.1766 -0.5610
  462TMC3    C2 6928   3.472   0.684   0.027  0.5107  0.6204  0.1103
  462TMC3    C3 6929   3.498   0.550   0.034 -0.0765  0.9768 -0.2269
  462TMC3    C4 6930   3.256   0.638  17.670 -0.1897  0.0116 -0.5091
  462TMC3    C5 6931   3.286   0.500  17.674 -0.5562  0.3827 -0.6190
  462TMC3    C6 6932   3.411   0.454  17.715  0.9372  0.5335  0.8296
  462TMC3     C 6933   3.325   0.869  17.711 -0.6052  0.4299  0.4678
  462TMC3     O 6934   3.410   0.938   0.024 -0.1693  0.1867 -0.5615
  462TMC3     H 6935   3.539   0.758   0.069  0.8589  1.0115 -1.1369
  462TMC3    H1 6936   3.160   0.665  17.627  1.0237  0.5943 -2.8611
  462TMC3    H2 6937   3.419   0.355   0.020  0.2199 -0.2900 -0.9027
  462TMC3    C7 6938   3.196   0.400  17.624  0.1445 -0.5506  0.0560
  462TMC3    C8 6939   3.624   0.500   0.092 -0.7263  0.0207  0.2569
  462TMC3    O1 6940   3.223   0.280  17.640 -0.2684  0.2354 -0.7334
  462TMC3    O2 6941   3.675   0.564   0.181  0.6820 -0.3036  0.0098
  463MPD2     C 6942   2.622   4.191   1.802 -0.7255 -0.5599  0.1715
  463MPD2    C1 6943   2.637   4.236   1.671 -0.0297 -0.3648 -0.1625
  463MPD2    C2 6944   2.766   4.234   1.613 -0.6034 -0.1096  0.1701
  463MPD2    C3 6945   2.872   4.217   1.696  0.4127  0.0604 -0.6958
  463MPD2    C4 6946   2.856   4.172   1.822  0.3380  0.2141 -0.0796
  463MPD2    C5 6947   2.731   4.161   1.880 -0.2587  0.5772 -0.2910
  463MPD2     H 6948   2.779   4.276   1.514  0.4977  1.2420  0.8920
  463MPD2    H1 6949   2.943   4.163   1.886  2.2550 -2.4230 -3.0683
  463MPD2    H2 6950   2.521   4.195   1.842 -0.8222 -0.1464 -0.1200
  463MPD2    H3 6951   2.721   4.137   1.986 -0.5948  0.8094 -0.2704
  463MPD2     N 6952   3.002   4.254   1.656  0.4022  0.6208 -0.4933
  463MPD2    H5 6953   3.082   4.252   1.719  0.9897  0.7098 -1.2262
  463MPD2    N1 6954   2.529   4.279   1.594 -0.2481 -0.3782 -0.5738
  463MPD2    H7 6955   2.563   4.313   1.505 -0.7632  0.8137 -0.3164
  464TMC3    C1 6956   2.307   4.306   1.517  0.4349 -0.0351  0.3372
  464TMC3    C2 6957   2.356   4.326   1.392 -0.2422  0.3384  0.5170
  464TMC3    C3 6958   2.272   4.325   1.282 -0.2361 -0.1912 -0.5644
  464TMC3    C4 6959   2.176   4.284   1.542  0.5494  0.4286  0.1306
  464TMC3    C5 6960   2.095   4.275   1.427  0.5843  0.1908 -0.3855
  464TMC3    C6 6961   2.142   4.287   1.298  0.0356  0.4133 -0.0180
  464TMC3     C 6962   2.399   4.289   1.627  0.1978 -0.1243  0.2309
  464TMC3     O 6963   2.344   4.274   1.735  0.3888 -0.5083 -0.2672
  464TMC3     H 6964   2.455   4.364   1.370 -0.9578 -0.2524 -3.8370
  464TMC3    H1 6965   2.137   4.258   1.640 -0.8611  1.2469 -0.2024
  464TMC3    H2 6966   2.073   4.273   1.216  0.7093  2.2334 -0.9012
  464TMC3    C7 6967   1.984   4.186   1.442 -0.2763  0.5419  0.2352
  464TMC3    C8 6968   2.321   4.345   1.143  0.2553 -0.2231  0.5782
  464TMC3    O1 6969   1.882   4.233   1.488 -0.1621  0.0073 -0.1675
  464TMC3    O2 6970   2.440   4.313   1.131 -0.0845  0.8150  0.5962
  465MPD2     C 6971   0.677   1.909  16.800 -0.0316 -0.2960 -0.0668
  465MPD2    C1 6972   0.545   1.917  16.851  0.2332  0.2696 -0.0463
  465MPD2    C2 6973   0.448   1.997  16.794  0.3927 -0.0582 -0.1170
  465MPD2    C3 6974   0.482   2.081  16.689 -0.3166 -0.4823  0.1318
  465MPD2    C4 6975   0.607   2.068  16.629 -0.7437 -0.4353  0.4139
  465MPD2    C5 6976   0.700   1.984  16.683 -0.7488  0.7967  0.4468
  465MPD2     H 6977   0.350   2.014  16.836  0.0239 -0.3611 -0.8641
  465MPD2    H1 6978   0.639   2.126  16.544 -0.8597 -0.7144  0.1809
  465MPD2    H2 6979   0.752   1.853  16.856 -0.6555 -0.3857  0.6755
  465MPD2    H3 6980   0.801   1.987  16.643 -0.1021 -1.5839  1.8426
  465MPD2     N 6981   0.390   2.178  16.655 -0.0903  0.1997 -0.0447
  465MPD2    H5 6982   0.309   2.175  16.717  0.9946  0.2856  1.3613
  465MPD2    N1 6983   0.508   1.847  16.971  0.3971 -0.1049 -0.3880
  465MPD2    H7 6984   0.418   1.868  17.011  1.0474  1.2512  0.3812
  466TMC3    C1 6985   0.054   2.367  16.544 -0.4434  0.4094 -0.7882
  466TMC3    C2 6986   0.062   2.490  16.485  0.3228  0.1187 -0.3747
  466TMC3    C3 6987   0.187   2.526  16.439 -0.2048 -0.1810 -0.6542
  466TMC3    C4 6988   0.164   2.295  16.575 -0.2202  0.3148 -0.0751
  466TMC3    C5 6989   0.288   2.339  16.528  0.8268  0.5711 -0.1737
  466TMC3    C6 6990   0.298   2.451  16.457 -0.1825 -0.0106  0.4478
  466TMC3     C 6991   4.673   2.355  16.627  1.0982 -0.4001  0.2826
  466TMC3     O 6992   4.686   2.273  16.720 -0.0658 -0.4731 -0.0635
  466TMC3     H 6993   4.711   2.553  16.465  1.3037  1.7560  0.5557
  466TMC3    H1 6994   0.146   2.202  16.627 -1.7249 -0.0232 -1.1953
  466TMC3    H2 6995   0.396   2.484  16.425 -0.7706  0.4522 -0.9005
  466TMC3    C7 6996   0.410   2.270  16.555 -0.9207  0.5260 -0.5092
  466TMC3    C8 6997   0.207   2.665  16.394  0.1672  0.1786  0.4195
  466TMC3    O1 6998   0.516   2.315  16.513  0.3178 -0.3307  0.6081
  466TMC3    O2 6999   0.293   2.702  16.316 -0.6293  0.5679  0.0245
  467TMC3    C1 7000   1.184   0.568  13.827 -0.2711 -0.0821  0.0629
  467TMC3    C2 7001   1.094   0.606  13.734  0.3256  0.4816  0.2162
  467TMC3    C3 7002   0.981   0.679  13.772  0.2577 -0.7448 -0.0149
  467TMC3    C4 7003   1.162   0.596  13.961  0.3691  0.8045 -0.5497
  467TMC3    C5 7004   1.051   0.659  13.997  0.6175 -0.8435 -0.5443
  467TMC3    C6 7005   0.953   0.696  13.905  0.4436  0.1103 -0.1284
  467TMC3     C 7006   1.324   0.598  13.794  0.2297 -0.0273 -0.4562
  467TMC3     O 7007   1.389   0.651  13.882  0.7660  0.5128  0.0993
  467TMC3     H 7008   1.115   0.608  13.627  0.0043 -2.3832  0.1164
  467TMC3    H1 7009   1.238   0.569  14.033 -0.9771 -1.3828  0.0391
  467TMC3    H2 7010   0.878   0.770  13.932 -1.8550 -1.6366 -1.6953
  467TMC3    C7 7011   1.018   0.657  14.139  0.4589 -0.1099 -0.1139
  467TMC3    C8 7012   0.927   0.770  13.671 -0.7873  0.6070  0.0761
  467TMC3    O1 7013   1.088   0.592  14.211 -0.1656 -0.1242  0.7335
  467TMC3    O2 7014   1.019   0.829  13.615  0.1750 -0.1664 -0.5512
  468MPD2     C 7015   4.216   3.856  10.820 -0.5195  0.4564  0.8070
  468MPD2    C1 7016   4.344   3.869  10.869  0.4368 -0.0069 -0.6063
  468MPD2    C2 7017   4.414   3.757  10.893  0.2501  0.0844 -0.5543
  468MPD2    C3 7018   4.361   3.632  10.872 -0.1914 -0.3965  0.1648
  468MPD2    C4 7019   4.235   3.618  10.820 -0.4479  0.0456 -0.3298
  468MPD2    C5 7020   4.162   3.731  10.798  0.1235  1.0536  0.0924
  468MPD2     H 7021   4.518   3.770  10.920  0.3328 -2.6128  0.4316
  468MPD2    H1 7022   4.199   3.520  10.792  1.3926 -0.4020 -1.1137
  468MPD2    H2 7023   4.149   3.937  10.793 -1.5176 -0.6400 -0.0065
  468MPD2    H3 7024   4.058   3.736  10.768  0.4027 -0.2850 -1.0716
  468MPD2     N 7025   4.427   3.517  10.907  0.2098  0.0185 -0.0595
  468MPD2    H5 7026   4.380   3.429  10.888 -0.0356 -0.6769  3.7102
  468MPD2    N1 7027   4.395   3.993  10.906  0.1024  0.4367  0.1930
  468MPD2    H7 7028   4.494   3.994  10.931  0.6399  0.9175 -1.8801
  469TMC3    C1 7029   4.416   4.227  10.928 -0.1600  1.2091  0.6413
  469TMC3    C2 7030   4.539   4.223  10.868  0.3235 -0.1293 -0.3090
  469TMC3    C3 7031   4.629   4.317  10.916  0.0354 -0.4603 -0.5107
  469TMC3    C4 7032   4.385   4.309  11.030 -0.0711  0.0484  0.0355
  469TMC3    C5 7033   4.473   4.405  11.069 -1.2918 -0.4129 -0.6955
  469TMC3    C6 7034   4.597   4.402  11.020 -0.1093  0.3976 -0.3452
  469TMC3     C 7035   4.330   4.115  10.902  0.0733  0.0139 -0.2260
  469TMC3     O 7036   4.214   4.125  10.943  0.1768  0.4621  0.0840
  469TMC3     H 7037   4.566   4.145  10.797 -1.2793 -0.2964 -0.7359
  469TMC3    H1 7038   4.290   4.295  11.080  1.1047  1.8856  2.7845
  469TMC3    H2 7039   4.663   4.487  11.034 -0.6262  0.6205  0.7193
  469TMC3    C7 7040   4.457   4.463  11.201  0.2128  0.3294  0.7839
  469TMC3    C8 7041   0.033   4.295  10.892 -0.7060  0.3354  0.0125
  469TMC3    O1 7042   4.560   4.491  11.260 -0.0543 -0.1849 -0.3511
  469TMC3    O2 7043   0.063   4.281  10.771 -0.0931  0.8071  0.0120
  470TMC3    C1 7044   2.344   4.646   0.199  0.9321 -0.2164 -0.5948
  470TMC3    C2 7045   2.403   0.022   0.251 -0.3207 -0.1120  0.0508
  470TMC3    C3 7046   2.328   0.097   0.337 -0.7861 -0.7901  0.2585
  470TMC3    C4 7047   2.216   4.608   0.231 -0.8312 -0.0705  1.3943
  470TMC3    C5 7048   2.152   4.682   0.325  1.1474 -0.1435  0.3490
  470TMC3    C6 7049   2.204   0.058   0.374  0.4841  0.1525 -0.3840
  470TMC3     C 7050   2.383   4.613   0.063 -0.6372  0.1169  0.2931
  470TMC3     O 7051   2.435   4.698  17.731 -0.0838 -0.1392 -0.0883
  470TMC3     H 7052   2.493   0.067   0.210 -0.9047  0.6549 -0.3772
  470TMC3    H1 7053   2.167   4.526   0.180 -0.6253 -0.3012  1.5692
  470TMC3    H2 7054   2.143   0.138   0.414  0.3906  0.3430 -0.9052
  470TMC3    C7 7055   2.023   4.638   0.365 -0.7722  0.4183 -0.0419
  470TMC3    C8 7056   2.372   0.232   0.377 -0.2261  0.2510  0.7991
  470TMC3    O1 7057   1.979   4.551   0.295  0.2386 -0.3318  0.5615
  470TMC3    O2 7058   2.345   0.260   0.492  0.1616  0.1984  0.4104
  471MPD2     C 7059   2.910   1.574  16.673 -0.2063 -0.5606 -0.3993
  471MPD2    C1 7060   2.930   1.455  16.602  0.1605 -0.1781  0.6605
  471MPD2    C2 7061   3.041   1.378  16.636  0.1700 -0.5474  0.6537
  471MPD2    C3 7062   3.130   1.417  16.730 -0.1390  0.2184 -0.2310
  471MPD2    C4 7063   3.109   1.537  16.793 -0.9228  0.3541  0.3885
  471MPD2    C5 7064   3.001   1.619  16.770 -0.1140 -0.1805 -0.2904
  471MPD2     H 7065   3.053   1.287  16.577 -1.0370 -0.9046  0.9756
  471MPD2    H1 7066   3.182   1.571  16.865 -0.9459  0.4945  0.3459
  471MPD2    H2 7067   2.818   1.629  16.658  1.2746  1.8599 -0.4860
  471MPD2    H3 7068   2.980   1.708  16.828 -0.0381  0.5281 -1.3406
  471MPD2     N 7069   3.252   1.350  16.760  0.5714 -0.4435  0.1411
  471MPD2    H5 7070   3.311   1.383  16.836  1.4126 -2.1113  0.2267
  471MPD2    N1 7071   2.830   1.401  16.515  0.0175  0.1147  0.3542
  471MPD2    H7 7072   2.853   1.310  16.476 -0.8086  0.6325 -1.3364
  472TMC3    C1 7073   2.634   1.345  16.400  0.3662 -0.1905 -0.0762
  472TMC3    C2 7074   2.550   1.384  16.306 -0.5801  0.6207  0.5863
  472TMC3    C3 7075   2.516   1.287  16.213 -0.3094  0.0225 -0.0598
  472TMC3    C4 7076   2.674   1.216  16.418  0.0501 -0.3109  0.0839
  472TMC3    C5 7077   2.649   1.129  16.314 -0.5117  0.3640 -0.9367
  472TMC3    C6 7078   2.562   1.156  16.210  0.8970  0.3242 -0.0786
  472TMC3     C 7079   2.710   1.449  16.467 -0.1822 -0.2098 -0.4910
  472TMC3     O 7080   2.659   1.554  16.496  0.4626 -0.1310  0.0688
  472TMC3     H 7081   2.532   1.490  16.290 -1.8772  0.4029  0.6673
  472TMC3    H1 7082   2.711   1.179  16.513 -2.1801 -1.4647  0.4957
  472TMC3    H2 7083   2.552   1.086  16.127 -1.9974 -1.1087  1.4802
  472TMC3    C7 7084   2.733   1.009  16.310 -0.1085 -0.4812 -0.1226
  472TMC3    C8 7085   2.404   1.307  16.134 -0.3220 -0.0174 -0.1934
  472TMC3    O1 7086   2.804   1.003  16.413  0.2481 -0.8015  0.6202
  472TMC3    O2 7087   2.385   1.417  16.086 -0.4973  0.2930  0.2525
  473MPD2     C 7088   2.303   3.296  13.860  0.7123 -0.0113  0.8718
  473MPD2    C1 7089   2.380   3.399  13.812  0.4160 -0.8103 -0.7369
  473MPD2    C2 7090   2.421   3.489  13.909  0.2517  0.3883 -0.2872
  473MPD2    C3 7091   2.384   3.475  14.038 -0.4988 -1.4795 -0.0142
  473MPD2    C4 7092   2.309   3.375  14.084 -0.4250 -0.7097 -0.4450
  473MPD2    C5 7093   2.264   3.284  13.993 -0.3430 -0.2320  0.0231
  473MPD2     H 7094   2.490   3.568  13.880  0.2454  0.8797  1.0510
  473MPD2    H1 7095   2.286   3.364  14.190 -1.4869 -0.2320 -0.6271
  473MPD2    H2 7096   2.258   3.223  13.794  0.2219 -2.2395  3.6724
  473MPD2    H3 7097   2.196   3.204  14.018 -0.7640 -0.0048 -0.3959
  473MPD2     N 7098   2.447   3.554  14.142  0.2506 -0.7220  0.3362
  473MPD2    H5 7099   2.467   3.512  14.233  1.1886 -1.1252 -0.0537
  473MPD2    N1 7100   2.424   3.417  13.679  0.4258  0.4206 -0.2822
  473MPD2    H7 7101   2.463   3.506  13.650  2.1455  0.1228  1.1584
  474TMC3    C1 7102   2.579   3.717  14.247  0.2460  0.8228 -0.2492
  474TMC3    C2 7103   2.641   3.834  14.232 -0.1888 -0.4708 -0.6838
  474TMC3    C3 7104   2.634   3.925  14.337  0.1532 -0.0007  0.6544
  474TMC3    C4 7105   2.505   3.678  14.363  0.2357 -0.2793 -0.5668
  474TMC3    C5 7106   2.510   3.778  14.465 -0.1808 -0.7846  0.5291
  474TMC3    C6 7107   2.580   3.893  14.459  0.0614  0.0378  0.1114
  474TMC3     C 7108   2.531   3.659  14.122  0.1158  0.2641 -0.3021
  474TMC3     O 7109   2.544   3.734  14.025 -0.1498 -0.1933 -0.0232
  474TMC3     H 7110   2.687   3.863  14.138 -1.8540  0.9556 -1.0612
  474TMC3    H1 7111   2.437   3.594  14.372 -0.5079  0.4578  0.8055
  474TMC3    H2 7112   2.582   3.970  14.536 -0.6764 -0.0465  0.2098
  474TMC3    C7 7113   2.469   3.728  14.601  0.7275 -0.2696  0.0643
  474TMC3    C8 7114   2.604   4.058  14.291 -0.6882 -0.2373 -0.0748
  474TMC3    O1 7115   2.394   3.635  14.596 -0.1166  0.3635  0.0259
  474TMC3    O2 7116   2.617   4.152  14.370 -0.3825 -0.2212  1.0564
  475MPD2     C 7117   0.857   1.515  11.133  0.2955 -0.0724  0.4130
  475MPD2    C1 7118   0.823   1.607  11.228 -0.3245 -0.1429 -0.4232
  475MPD2    C2 7119   0.703   1.593  11.292  0.0737 -0.3353  0.2623
  475MPD2    C3 7120   0.608   1.501  11.254  0.0860 -0.2556  0.2016
  475MPD2    C4 7121   0.640   1.399  11.164  0.4465 -0.1419  0.1154
  475MPD2    C5 7122   0.764   1.407  11.110 -0.8070 -0.0308 -0.7641
  475MPD2     H 7123   0.676   1.661  11.372 -0.6097  0.7617 -0.8995
  475MPD2    H1 7124   0.572   1.320  11.136 -2.3037  0.8435  3.9383
  475MPD2    H2 7125   0.952   1.518  11.082 -0.2838  0.4618 -0.6417
  475MPD2    H3 7126   0.790   1.320  11.050 -0.6520 -0.9894  0.6934
  475MPD2     N 7127   0.477   1.515  11.315 -0.2696 -0.2328  0.1418
  475MPD2    H5 7128   0.451   1.600  11.365 -1.6082 -0.2333 -0.5634
  475MPD2    N1 7129   0.915   1.706  11.260  0.3770  0.5305  0.8481
  475MPD2    H7 7130   1.000   1.707  11.205  0.3491 -1.5255  0.7908
  476TMC3    C1 7131   0.998   1.899  11.374 -0.6074  0.0537 -0.0707
  476TMC3    C2 7132   1.047   1.934  11.252  0.8955  0.6176 -0.3205
  476TMC3    C3 7133   1.058   2.068  11.222 -0.2682 -0.4284 -0.7290
  476TMC3    C4 7134   0.960   2.002  11.460  0.3061  0.1279  0.1517
  476TMC3    C5 7135   0.976   2.139  11.429  0.5100 -0.2719 -0.1248
  476TMC3    C6 7136   1.024   2.172  11.305  0.4212  0.1934  0.4466
  476TMC3     C 7137   0.913   1.785  11.376  0.5343 -0.2078 -0.4879
  476TMC3     O 7138   0.849   1.769  11.480  0.0827 -0.2753 -0.2062
  476TMC3     H 7139   1.110   1.862  11.201  0.6601  0.5311 -0.4899
  476TMC3    H1 7140   0.898   1.977  11.546 -0.2351  0.0430 -0.2628
  476TMC3    H2 7141   1.035   2.276  11.278  1.9338 -0.1562 -0.2705
  476TMC3    C7 7142   0.879   2.233  11.490  0.0985 -0.4470  0.1176
  476TMC3    C8 7143   1.078   2.111  11.087 -0.0918 -0.1012 -0.2731
  476TMC3    O1 7144   0.803   2.184  11.573 -0.3142 -0.0483  0.8221
  476TMC3    O2 7145   1.081   2.233  11.073  0.1611 -0.1074  0.3148
  477MPD2     C 7146   3.322   3.084  11.519 -0.2917  0.7488  0.1164
  477MPD2    C1 7147   3.206   3.104  11.590 -0.4475  0.3811  1.1082
  477MPD2    C2 7148   3.195   3.049  11.715 -0.6448 -1.0047 -1.0694
  477MPD2    C3 7149   3.291   2.969  11.768 -0.4428 -0.4706  0.5538
  477MPD2    C4 7150   3.396   2.937  11.687  0.7865 -0.7657 -0.4378
  477MPD2    C5 7151   3.416   3.001  11.572 -0.1648 -0.6947  0.0605
  477MPD2     H 7152   3.104   3.070  11.770 -1.1629 -2.2327 -1.4400
  477MPD2    H1 7153   3.474   2.866  11.714  1.3531 -0.4662 -1.2724
  477MPD2    H2 7154   3.336   3.118  11.417 -1.7349  1.6065  0.1979
  477MPD2    H3 7155   3.517   2.984  11.536 -0.3110  0.5404 -0.9238
  477MPD2     N 7156   3.278   2.889  11.887  0.0053 -0.4956 -0.1664
  477MPD2    H5 7157   3.354   2.827  11.913 -1.4839 -2.2061  0.1512
  477MPD2    N1 7158   3.097   3.176  11.542  0.0557 -0.1246 -0.6689
  477MPD2    H7 7159   3.018   3.183  11.606 -0.5057 -1.8103 -1.1712
  478TMC3    C1 7160   2.946   3.279  11.382  1.3034 -0.1029  0.3150
  478TMC3    C2 7161   2.873   3.340  11.471 -0.2357  0.1841  0.2998
  478TMC3    C3 7162   2.762   3.407  11.443  0.0541  0.0349  0.4271
  478TMC3    C4 7163   2.899   3.288  11.252  0.1042  0.3037  0.4080
  478TMC3    C5 7164   2.776   3.339  11.223 -1.3836  0.0307  1.2250
  478TMC3    C6 7165   2.707   3.406  11.320 -0.1688  0.1057 -0.0336
  478TMC3     C 7166   3.078   3.218  11.414 -0.2768 -0.0755 -0.6697
  478TMC3     O 7167   3.145   3.187  11.316  0.1678 -0.3236 -0.6327
  478TMC3     H 7168   2.913   3.338  11.572 -0.2337 -0.4147  0.2888
  478TMC3    H1 7169   2.937   3.210  11.186  1.2118  2.7814 -1.8574
  478TMC3    H2 7170   2.611   3.455  11.311 -0.5070 -0.5229  0.1277
  478TMC3    C7 7171   2.711   3.289  11.100 -0.2682  0.0447 -0.2820
  478TMC3    C8 7172   2.716   3.496  11.543 -0.6173  0.0281  0.2772
  478TMC3    O1 7173   2.756   3.178  11.068  0.1927 -0.3768 -0.2884
  478TMC3    O2 7174   2.725   3.453  11.659 -0.4449 -0.0074 -0.4098
  479MPD2     C 7175   2.256   0.625  15.118  0.0470  0.4297 -0.1402
  479MPD2    C1 7176   2.206   0.500  15.109 -0.4760 -0.0618  0.5566
  479MPD2    C2 7177   2.214   0.422  15.223  0.7216  0.2570 -0.1334
  479MPD2    C3 7178   2.259   0.467  15.341 -0.4447  0.2643  0.2907
  479MPD2    C4 7179   2.314   0.584  15.347 -0.1919 -0.0250 -0.2131
  479MPD2    C5 7180   2.318   0.664  15.234  0.0368  0.6979  0.3785
  479MPD2     H 7181   2.190   0.317  15.225  2.2335 -0.0847 -0.1583
  479MPD2    H1 7182   2.368   0.615  15.436 -0.1330  0.8177 -0.5428
  479MPD2    H2 7183   2.252   0.699  15.039 -1.9018  1.7691  1.2357
  479MPD2    H3 7184   2.367   0.761  15.238 -1.9384  1.8567 -4.3618
  479MPD2     N 7185   2.247   0.397  15.468  0.2363 -0.1577  0.9974
  479MPD2    H5 7186   2.300   0.438  15.544 -3.1080  1.1349  2.6281
  479MPD2    N1 7187   2.147   0.457  14.992  0.0220 -0.0143  0.8165
  479MPD2    H7 7188   2.142   0.521  14.914  1.8498  1.1897  1.6801
  480TMC3    C1 7189   1.884   0.094  15.415 -0.0690  0.0656  0.9122
  480TMC3    C2 7190   1.808   0.184  15.345  0.1155  0.1935 -0.2940
  480TMC3    C3 7191   1.844   0.312  15.344 -0.0027 -0.4062 -0.4578
  480TMC3    C4 7192   2.005   0.139  15.469  0.4335 -0.2459 -0.2911
  480TMC3    C5 7193   2.054   0.259  15.436 -0.8638  0.2729 -0.1929
  480TMC3    C6 7194   1.967   0.355  15.386  0.6449  0.3019 -0.3469
  480TMC3     C 7195   1.830   4.697  15.462 -0.1769 -0.8042 -0.4015
  480TMC3     O 7196   1.906   4.604  15.481  0.4663 -0.2586  0.3639
  480TMC3     H 7197   1.720   0.150  15.292 -0.4816 -1.0857  1.5148
  480TMC3    H1 7198   2.070   0.069  15.521  1.6052  0.7535 -0.4204
  480TMC3    H2 7199   1.990   0.460  15.395 -2.5294  0.7626  2.4295
  480TMC3    C7 7200   2.178   0.283  15.502 -0.1553  0.7218 -0.4823
  480TMC3    C8 7201   1.750   0.406  15.295 -0.0319  0.4536  0.4507
  480TMC3    O1 7202   2.202   0.215  15.602 -0.5666  0.2544  0.5597
  480TMC3    O2 7203   1.631   0.378  15.294  0.7937  0.4912  0.2377
  481MPD2     C 7204   4.275   4.651  14.384 -0.6979  0.2109 -0.5620
  481MPD2    C1 7205   4.141   4.677  14.401 -0.6309 -0.2446  0.7188
  481MPD2    C2 7206   4.076   4.666  14.529  0.0792  0.4365 -0.4263
  481MPD2    C3 7207   4.156   4.654  14.638 -0.1422  0.8418  0.5647
  481MPD2    C4 7208   4.295   4.641  14.622  0.3140 -0.3128  0.5834
  481MPD2    C5 7209   4.350   4.634  14.496 -0.9125 -0.4319  0.6725
  481MPD2     H 7210   3.971   4.693  14.527  0.7071  2.8213 -1.6020
  481MPD2    H1 7211   4.359   4.638  14.709 -0.3778 -2.3620  1.0288
  481MPD2    H2 7212   4.325   4.649  14.288 -0.5546 -0.3709 -0.4701
  481MPD2    H3 7213   4.458   4.619  14.488 -0.6503  3.1393 -2.5678
  481MPD2     N 7214   4.099   4.661  14.772 -1.5188 -0.0724 -0.7146
  481MPD2    H5 7215   4.173   4.669  14.841 -0.4041 -1.8688 -1.6976
  481MPD2    N1 7216   4.061   4.690  14.279  0.8165  0.2267  0.8138
  481MPD2    H7 7217   4.104   4.665  14.190 -1.2944 -3.2785  0.7905
  482TMC3    C1 7218   3.888   4.683  14.129  0.3995  0.3199 -0.2955
  482TMC3    C2 7219   3.764   4.624  14.117 -0.2818 -0.2881  0.9881
  482TMC3    C3 7220   3.703   4.631  13.996  0.4512  0.3637  0.1983
  482TMC3    C4 7221   3.942   0.027  14.027 -0.7360 -0.6971 -0.1032
  482TMC3    C5 7222   3.866   0.047  13.912 -0.4500 -0.0143  0.2722
  482TMC3    C6 7223   3.746   4.709  13.898  0.0631 -0.3233 -0.1833
  482TMC3     C 7224   3.924   4.699  14.268 -0.0717  0.2907  0.4198
  482TMC3     O 7225   3.834   4.692  14.349 -0.0890  0.7386 -0.2233
  482TMC3     H 7226   3.723   4.558  14.194 -0.1683 -0.4267  0.9297
  482TMC3    H1 7227   4.038   0.076  14.033 -0.1337 -1.9119  0.1491
  482TMC3    H2 7228   3.701   4.715  13.799 -0.3049 -1.2296 -0.0639
  482TMC3    C7 7229   3.930   0.118  13.805 -0.3107 -0.8973  0.1705
  482TMC3    C8 7230   3.592   4.542  13.981  0.5556  0.5938 -0.2994
  482TMC3    O1 7231   4.052   0.138  13.805  0.5475  0.6109  0.2307
  482TMC3    O2 7232   3.607   4.442  14.049  0.1611  0.0083 -0.0402
  483TMC3    C1 7233   1.978   4.275   0.449  0.0540 -0.2789  0.3471
  483TMC3    C2 7234   2.099   4.267   0.381  0.0078 -0.1468 -0.6909
  483TMC3    C3 7235   2.208   4.227   0.451 -0.1332 -0.5017  0.1018
  483TMC3    C4 7236   1.964   4.250   0.582  0.2481  0.5512  0.2053
  483TMC3    C5 7237   2.081   4.216   0.647  0.0042  0.3441  0.5527
  483TMC3    C6 7238   2.201   4.206   0.584 -0.5716  0.4216  0.2372
  483TMC3     C 7239   1.854   4.251   0.373 -1.0588 -0.5205 -0.2277
  483TMC3     O 7240   1.748   4.251   0.433  0.2323 -0.3269  0.0351
  483TMC3     H 7241   2.107   4.285   0.274  0.0714 -0.9771 -0.8259
  483TMC3    H1 7242   1.867   4.238   0.629 -1.2328  3.4708 -2.1337
  483TMC3    H2 7243   2.291   4.186   0.641 -0.9304  0.0082  0.6629
  483TMC3    C7 7244   2.072   4.165   0.778 -0.3681  0.6260 -0.1249
  483TMC3    C8 7245   2.340   4.252   0.388 -0.3096  0.0022  0.6933
  483TMC3    O1 7246   2.164   4.093   0.811 -0.2745  0.5953  0.1477
  483TMC3    O2 7247   2.342   4.326   0.289  0.2460  0.6010 -0.6914
  484MPD2     C 7248   4.229   1.302  12.155  0.2959 -0.1330 -0.6713
  484MPD2    C1 7249   4.248   1.368  12.276  0.5588 -0.1052  0.5670
  484MPD2    C2 7250   4.357   1.448  12.299 -0.0627 -0.3643  0.1655
  484MPD2    C3 7251   4.444   1.467  12.200 -0.0336 -0.4120 -0.1616
  484MPD2    C4 7252   4.435   1.401  12.077 -0.5330  0.0236 -0.0175
  484MPD2    C5 7253   4.325   1.320  12.057 -0.1627 -0.0699  0.5709
  484MPD2     H 7254   4.371   1.493  12.397  2.8916  1.4087 -1.0599
  484MPD2    H1 7255   4.496   1.413  11.988  0.3827  0.8849  0.7280
  484MPD2    H2 7256   4.145   1.238  12.132 -2.2875  2.9112  0.3582
  484MPD2    H3 7257   4.322   1.268  11.962 -1.1788  2.1472 -0.6248
  484MPD2     N 7258   4.558   1.550  12.211  0.7288 -0.4722  0.4110
  484MPD2    H5 7259   4.612   1.556  12.125 -0.0657  1.2927  0.0404
  484MPD2    N1 7260   4.161   1.321  12.376  0.0201 -0.2010  0.4656
  484MPD2    H7 7261   4.097   1.245  12.356 -2.1891  1.2760  1.9908
  485TMC3    C1 7262   4.714   1.689  12.293  0.3308 -0.7147  0.5793
  485TMC3    C2 7263   0.092   1.693  12.365 -0.5384 -0.1937 -0.1879
  485TMC3    C3 7264   0.197   1.767  12.328 -0.2674 -0.2870 -0.7297
  485TMC3    C4 7265   4.700   1.767  12.183 -0.6926 -0.6328  0.0813
  485TMC3    C5 7266   0.071   1.842  12.143 -0.1100  0.1493 -0.6081
  485TMC3    C6 7267   0.186   1.846  12.218 -0.3357  0.1641  0.4393
  485TMC3     C 7268   4.603   1.603  12.326 -0.2344  0.4014 -0.1747
  485TMC3     O 7269   4.561   1.624  12.440 -0.2476 -0.0602 -0.2431
  485TMC3     H 7270   0.100   1.604  12.426 -1.6601  0.2567  0.6264
  485TMC3    H1 7271   4.610   1.773  12.122 -0.9749  0.1514  0.5703
  485TMC3    H2 7272   0.275   1.897  12.182  1.2154 -1.6734  1.6607
  485TMC3    C7 7273   0.036   1.940  12.038 -0.8117 -0.1292  0.6833
  485TMC3    C8 7274   0.331   1.732  12.365  0.5098 -0.6601  0.8657
  485TMC3    O1 7275   4.661   1.988  12.049  0.0275  0.0226  0.5468
  485TMC3    O2 7276   0.421   1.775  12.290 -0.1147  0.2488 -0.1703
  486MPD2     C 7277   2.133   0.649  12.943  0.3192 -0.2981 -0.0655
  486MPD2    C1 7278   2.032   0.575  12.889 -0.2418 -0.3419 -0.5222
  486MPD2    C2 7279   1.908   0.639  12.859  0.3616 -0.0909 -0.2335
  486MPD2    C3 7280   1.896   0.782  12.872  0.2424 -0.5236  0.5559
  486MPD2    C4 7281   2.006   0.851  12.919 -0.1054  0.3933  0.4648
  486MPD2    C5 7282   2.118   0.783  12.956  1.0438  0.0341 -0.2944
  486MPD2     H 7283   1.834   0.573  12.815 -1.0429  0.6824  1.0004
  486MPD2    H1 7284   2.014   0.958  12.931 -1.7063  0.6578 -0.8170
  486MPD2    H2 7285   2.231   0.611  12.969  1.3111  2.3318  0.0092
  486MPD2    H3 7286   2.197   0.839  13.005  0.8557 -0.3613  0.4630
  486MPD2     N 7287   1.780   0.854  12.835 -0.2586  0.4262  0.3634
  486MPD2    H5 7288   1.762   0.945  12.875  1.9073  0.5979  0.9614
  486MPD2    N1 7289   2.049   0.442  12.879 -0.1318 -0.1222  0.6764
  486MPD2    H7 7290   2.127   0.404  12.932 -0.2453 -1.0459  0.1800
  487TMC3    C1 7291   1.974   0.223  12.866  0.4703  1.0744 -0.2435
  487TMC3    C2 7292   1.892   0.123  12.811  0.6089  1.1642  0.0939
  487TMC3    C3 7293   1.895   4.730  12.861 -0.2537 -0.4056 -0.3317
  487TMC3    C4 7294   2.028   0.198  12.989 -0.0142 -0.5274  0.0727
  487TMC3    C5 7295   2.025   0.069  13.039 -0.2174 -0.6317  0.5350
  487TMC3    C6 7296   1.981   4.698  12.961 -0.2507  0.3650 -0.0514
  487TMC3     C 7297   1.971   0.362  12.805 -0.9426 -0.4092 -0.1222
  487TMC3     O 7298   1.905   0.377  12.702  0.1754 -0.2256  0.2549
  487TMC3     H 7299   1.833   0.137  12.722 -0.5751 -1.2630  0.4799
  487TMC3    H1 7300   2.068   0.278  13.049 -1.4971  0.8694 -0.8045
  487TMC3    H2 7301   1.983   4.593  12.988 -1.8438  0.8156  1.8742
  487TMC3    C7 7302   2.001   0.064  13.183 -0.3343  0.2300  0.0453
  487TMC3    C8 7303   1.761   4.679  12.885  0.9422 -0.0742  0.3314
  487TMC3    O1 7304   2.002   0.167  13.246 -0.2717  0.4654  0.1442
  487TMC3    O2 7305   1.671   0.026  12.874  0.0279  0.4074 -0.0331
  488MPD2     C 7306   2.075   2.281  16.157  0.2822  0.5965  0.1783
  488MPD2    C1 7307   2.191   2.324  16.217 -0.1036  0.4130 -0.2984
  488MPD2    C2 7308   2.205   2.314  16.354 -0.9857  0.4099 -0.0960
  488MPD2    C3 7309   2.104   2.251  16.432  0.0102  0.8446 -0.5878
  488MPD2    C4 7310   1.985   2.224  16.373  0.4740  0.0433 -0.0208
  488MPD2    C5 7311   1.973   2.232  16.237 -0.0160 -0.1078  0.5614
  488MPD2     H 7312   2.301   2.336  16.399 -1.6811 -3.0392  3.0797
  488MPD2    H1 7313   1.898   2.178  16.418  0.8125 -1.0109 -0.4401
  488MPD2    H2 7314   2.048   2.277  16.052  0.0370  0.7471  0.2375
  488MPD2    H3 7315   1.883   2.206  16.184 -0.8281 -0.9560  2.3895
  488MPD2     N 7316   2.130   2.243  16.569 -0.2790  0.2832 -0.0143
  488MPD2    H5 7317   2.214   2.289  16.602 -0.9547  2.3261 -1.1593
  488MPD2    N1 7318   2.299   2.383  16.151 -0.4731  0.2482  0.1998
  488MPD2    H7 7319   2.379   2.419  16.203 -0.4709  1.1232 -0.4104
  489TMC3    C1 7320   2.115   2.177  16.795 -0.0903 -0.0619  0.3755
  489TMC3    C2 7321   2.130   2.304  16.834 -0.0591 -0.3618 -0.0049
  489TMC3    C3 7322   2.093   2.340  16.966  0.5775 -0.3424  0.5960
  489TMC3    C4 7323   2.068   2.086  16.877 -0.0768 -0.0080 -0.0002
  489TMC3    C5 7324   2.039   2.118  17.008  0.1616 -0.4629 -0.5236
  489TMC3    C6 7325   2.055   2.242  17.053  0.3886  0.1946 -0.8364
  489TMC3     C 7326   2.063   2.162  16.663 -0.1656  0.6736 -0.2729
  489TMC3     O 7327   1.970   2.089  16.633  0.0951  0.3389  0.1203
  489TMC3     H 7328   2.134   2.383  16.760  1.4461 -1.5285 -1.1731
  489TMC3    H1 7329   2.066   1.982  16.846  3.1489 -0.2550  0.5693
  489TMC3    H2 7330   2.045   2.271  17.157  1.0354 -0.7156 -0.5205
  489TMC3    C7 7331   2.000   2.011  17.107 -0.2370 -0.7390 -0.2742
  489TMC3    C8 7332   2.096   2.475  17.022  0.3578  0.6379 -0.5274
  489TMC3    O1 7333   1.988   2.046  17.223  0.2213 -0.6671  1.0056
  489TMC3    O2 7334   2.027   2.500  17.117 -0.2060 -0.1090 -0.5187
  490MPD2     C 7335   2.874   1.987  16.930  1.0925  0.7819 -0.1901
  490MPD2    C1 7336   2.783   1.946  17.026  0.2423 -0.1384 -1.1682
  490MPD2    C2 7337   2.789   2.000  17.151 -0.3163 -0.5699 -0.7784
  490MPD2    C3 7338   2.884   2.086  17.188 -0.9020  1.2389 -0.2240
  490MPD2    C4 7339   2.978   2.130  17.095 -1.1790  0.2596  0.3473
  490MPD2    C5 7340   2.962   2.081  16.972  0.8171 -0.6844 -0.3732
  490MPD2     H 7341   2.714   1.960  17.219 -1.3750  1.5723 -0.6985
  490MPD2    H1 7342   3.055   2.200  17.125 -1.7317  0.0210  2.3183
  490MPD2    H2 7343   2.882   1.955  16.826  2.4619  1.2977 -0.2524
  490MPD2    H3 7344   3.028   2.120  16.896  1.4630  1.1810  1.1579
  490MPD2     N 7345   2.894   2.127  17.330 -0.4457 -0.3746 -0.2700
  490MPD2    H5 7346   2.981   2.174  17.351  0.3615 -2.8089  1.8246
  490MPD2    N1 7347   2.690   1.845  16.999 -0.8552  0.6661  0.0061
  490MPD2    H7 7348   2.630   1.819  17.077 -0.8174 -0.2007 -0.2490
  491TMC3    C1 7349   2.589   1.655  16.892 -0.4132 -0.2624  0.1430
  491TMC3    C2 7350   2.582   1.600  17.018  0.6078 -0.8063 -0.0092
  491TMC3    C3 7351   2.516   1.482  17.028  0.3671 -0.3725  0.2420
  491TMC3    C4 7352   2.537   1.603  16.778  0.3875  0.0185  0.1137
  491TMC3    C5 7353   2.478   1.479  16.798 -0.1367 -0.6202  0.0860
  491TMC3    C6 7354   2.464   1.416  16.922  0.4997 -0.1707  0.3282
  491TMC3     C 7355   2.668   1.780  16.876 -0.2603  0.5839  0.1990
  491TMC3     O 7356   2.712   1.802  16.762 -0.0640  0.0404 -0.3695
  491TMC3     H 7357   2.611   1.645  17.112  0.2785  0.5038 -0.5284
  491TMC3    H1 7358   2.555   1.646  16.680  0.5303  0.5366  0.3683
  491TMC3    H2 7359   2.403   1.327  16.932 -0.3671  0.4303  0.3910
  491TMC3    C7 7360   2.405   1.417  16.687 -0.8933 -0.1221 -0.1233
  491TMC3    C8 7361   2.470   1.454  17.162  0.6125 -0.0719 -0.3282
  491TMC3    O1 7362   2.371   1.301  16.716 -0.1455  0.5254 -0.1443
  491TMC3    O2 7363   2.484   1.543  17.244 -0.0682 -0.6696 -0.2319
  492MPD2     C 7364   2.714   2.160  11.564 -0.0001 -0.4366  0.2522
  492MPD2    C1 7365   2.672   2.061  11.473 -0.2665  0.0356 -0.4254
  492MPD2    C2 7366   2.613   1.947  11.530  0.0557 -0.0526 -0.1015
  492MPD2    C3 7367   2.592   1.939  11.663  0.1224  0.7851  0.0238
  492MPD2    C4 7368   2.629   2.036  11.749 -0.3981  0.7723  0.3872
  492MPD2    C5 7369   2.701   2.145  11.706 -0.2847  0.5198 -0.5861
  492MPD2     H 7370   2.582   1.865  11.466 -2.5530 -0.6881  1.9828
  492MPD2    H1 7371   2.609   2.027  11.855 -0.1952 -0.3217  0.3364
  492MPD2    H2 7372   2.764   2.247  11.523  1.6682 -1.2985  0.4580
  492MPD2    H3 7373   2.740   2.223  11.771  0.7430 -0.0376 -0.5307
  492MPD2     N 7374   2.526   1.827  11.726 -0.5051 -0.4876 -0.7731
  492MPD2    H5 7375   2.529   1.830  11.827  0.4812  1.8995 -0.8761
  492MPD2    N1 7376   2.709   2.073  11.332  0.4013 -0.8587  0.2799
  492MPD2    H7 7377   2.763   2.156  11.309  1.5919 -1.2775  1.5524
  493TMC3    C1 7378   2.735   2.014  11.100  0.3373 -0.4117 -0.5492
  493TMC3    C2 7379   2.835   2.115  11.095  0.0100 -0.2458 -0.9838
  493TMC3    C3 7380   2.867   2.160  10.975  0.9300  0.4607  0.1511
  493TMC3    C4 7381   2.666   1.988  10.990  0.1086  0.3455 -0.6913
  493TMC3    C5 7382   2.698   2.046  10.874 -0.0185  0.0546 -0.4211
  493TMC3    C6 7383   2.803   2.128  10.855 -0.4161  0.7144  0.5740
  493TMC3     C 7384   2.664   1.993  11.225  0.0403  0.0017  0.5499
  493TMC3     O 7385   2.578   1.903  11.232 -0.5449  0.1919  0.1111
  493TMC3     H 7386   2.895   2.140  11.182 -0.0118 -0.9648 -0.7594
  493TMC3    H1 7387   2.585   1.916  10.996 -0.9809  1.6431  0.0024
  493TMC3    H2 7388   2.839   2.167  10.761 -0.7747 -1.2514 -0.3701
  493TMC3    C7 7389   2.597   2.033  10.767  0.2540  0.6892 -0.4459
  493TMC3    C8 7390   2.988   2.241  10.967 -0.0788  0.7683  0.4389
  493TMC3    O1 7391   2.503   1.950  10.785 -0.4038  0.0278 -0.6922
  493TMC3    O2 7392   3.073   2.222  11.056 -0.0140  0.2500 -0.6771
  494TMC3    C1 7393   3.280   3.710   0.393  0.0179  0.0848 -0.3859
  494TMC3    C2 7394   3.309   3.585   0.440  0.1910  0.3418 -0.0121
  494TMC3    C3 7395   3.410   3.513   0.380  0.2286  0.2032  0.1415
  494TMC3    C4 7396   3.342   3.762   0.279 -0.6066  0.2437 -0.2612
  494TMC3    C5 7397   3.447   3.689   0.225 -0.0406  0.0369  0.9987
  494TMC3    C6 7398   3.472   3.561   0.276 -0.8547  0.1043 -0.5688
  494TMC3     C 7399   3.180   3.800   0.457  1.1824  0.8020  0.0960
  494TMC3     O 7400   3.152   3.897   0.387 -0.2911 -0.3850  0.3224
  494TMC3     H 7401   3.245   3.537   0.513 -0.6880 -0.9154 -1.5831
  494TMC3    H1 7402   3.341   3.867   0.253  0.8460  0.8418  2.0951
  494TMC3    H2 7403   3.551   3.503   0.228 -0.6407  0.8894 -1.1654
  494TMC3    C7 7404   3.479   3.705   0.090 -1.1657  1.0102  0.4724
  494TMC3    C8 7405   3.454   3.381   0.417  0.1976 -0.3404 -0.4210
  494TMC3    O1 7406   3.572   3.640   0.041  0.0028  0.6119  0.2433
  494TMC3    O2 7407   3.504   3.308   0.337  0.0137 -0.2418  0.1493
  495TMC3    C1 7408   2.277   1.018  14.738  0.1065 -0.9155 -0.1719
  495TMC3    C2 7409   2.223   1.087  14.631  0.5947  0.8002  0.1907
  495TMC3    C3 7410   2.087   1.094  14.626 -0.5160 -0.3800  0.6523
  495TMC3    C4 7411   2.203   0.960  14.834  0.1292  0.3465 -0.6229
  495TMC3    C5 7412   2.067   0.976  14.826  0.0764  0.3972  0.5450
  495TMC3    C6 7413   2.008   1.028  14.716  0.3140  0.2059  0.5215
  495TMC3     C 7414   2.402   0.951  14.707  0.5810  0.0330  0.1988
  495TMC3     O 7415   2.495   1.012  14.664 -0.2043  0.2726  0.5171
  495TMC3     H 7416   2.279   1.142  14.556  1.1599 -0.2294 -0.1419
  495TMC3    H1 7417   2.249   0.907  14.916 -2.3357 -0.2451  0.3737
  495TMC3    H2 7418   1.900   1.038  14.718  0.1986 -1.3549  2.3012
  495TMC3    C7 7419   1.997   0.866  14.895  0.2271 -0.5532  0.2736
  495TMC3    C8 7420   2.025   1.136  14.501  0.4561  0.2044  0.3761
  495TMC3    O1 7421   2.063   0.763  14.908  0.3691  0.1648  0.8934
  495TMC3    O2 7422   1.910   1.176  14.501  0.0105  0.5678 -0.4589
  496MPD2     C 7423   4.018   0.796  15.416 -0.6768 -0.3926  0.7456
  496MPD2    C1 7424   4.066   0.668  15.409 -0.3852  0.4374  1.3156
  496MPD2    C2 7425   3.962   0.570  15.390  0.3896  0.5236  0.2535
  496MPD2    C3 7426   3.829   0.602  15.379 -0.0480 -0.7157 -0.2162
  496MPD2    C4 7427   3.792   0.730  15.387  0.4764  0.1357 -0.3055
  496MPD2    C5 7428   3.884   0.826  15.415  0.8821  0.0264  0.2595
  496MPD2     H 7429   3.988   0.465  15.380 -0.1066  0.3282  1.0234
  496MPD2    H1 7430   3.692   0.767  15.368  0.1635  0.1436  1.4103
  496MPD2    H2 7431   4.081   0.882  15.437 -2.2022  0.9455 -0.0832
  496MPD2    H3 7432   3.854   0.929  15.425 -0.7020 -0.2221 -2.0026
  496MPD2     N 7433   3.715   0.517  15.351 -0.0972 -0.0934 -0.0698
  496MPD2    H5 7434   3.630   0.569  15.364  1.2016  1.7165  1.1763
  496MPD2    N1 7435   4.208   0.637  15.414 -0.2546  0.0816  0.1664
  496MPD2    H7 7436   4.273   0.711  15.441  0.3918 -0.2219 -0.5550
  497TMC3    C1 7437   3.820   0.329  15.258 -0.8074 -0.1898 -0.6071
  497TMC3    C2 7438   3.875   0.399  15.146 -0.3348 -0.1161 -0.1157
  497TMC3    C3 7439   3.980   0.344  15.080  0.4746  0.5301  0.5563
  497TMC3    C4 7440   3.861   0.201  15.284 -0.2226  0.5040 -0.3303
  497TMC3    C5 7441   3.970   0.150  15.209  0.4362  0.7540 -0.6180
  497TMC3    C6 7442   4.025   0.221  15.106 -0.7065 -0.3619 -0.4108
  497TMC3     C 7443   3.705   0.386  15.319 -0.6905  0.3190 -0.8011
  497TMC3     O 7444   3.605   0.318  15.323 -0.2406 -0.4208 -0.1897
  497TMC3     H 7445   3.832   0.495  15.118  1.8190  0.9089  0.0374
  497TMC3    H1 7446   3.810   0.139  15.357 -0.7572 -0.0566 -1.1732
  497TMC3    H2 7447   4.111   0.181  15.053 -1.4933 -1.1071 -1.1256
  497TMC3    C7 7448   4.068   0.066  15.273 -0.7198  0.7425  0.1668
  497TMC3    C8 7449   4.070   0.416  14.994 -0.2249  0.5640 -0.7344
  497TMC3    O1 7450   4.141   4.733  15.200 -1.3528 -0.5135 -0.0295
  497TMC3    O2 7451   4.186   0.385  14.992 -0.7528  1.0061  0.5030
  498MPD2     C 7452   0.689   1.959  10.902  0.6008  1.0476  0.4906
  498MPD2    C1 7453   0.666   1.932  10.769  0.5479  0.5194 -0.4457
  498MPD2    C2 7454   0.602   1.815  10.737  0.7597  0.1286 -0.4682
  498MPD2    C3 7455   0.561   1.730  10.835  0.3185 -0.1395 -0.5563
  498MPD2    C4 7456   0.594   1.753  10.966 -0.6751 -0.2813 -0.3405
  498MPD2    C5 7457   0.665   1.868  10.998  0.0672  0.2442  0.4202
  498MPD2     H 7458   0.580   1.778  10.638 -1.5205 -0.1625  0.1588
  498MPD2    H1 7459   0.577   1.681  11.046  3.4353 -0.1773  0.6013
  498MPD2    H2 7460   0.742   2.048  10.936 -0.4725  0.4227  3.8139
  498MPD2    H3 7461   0.701   1.871  11.100  0.3325  2.0815  0.2617
  498MPD2     N 7462   0.490   1.614  10.809  0.8120  0.2083 -0.0877
  498MPD2    H5 7463   0.497   1.578  10.714  0.8760 -0.3375  0.1230
  498MPD2    N1 7464   0.710   2.019  10.663 -0.7831  0.3210  0.1726
  498MPD2    H7 7465   0.690   1.991  10.568 -0.1320  1.4942 -0.3134
  499TMC3    C1 7466   0.788   2.219  10.556  0.0983  0.6294  0.3845
  499TMC3    C2 7467   0.877   2.317  10.580 -0.5273 -0.0738  0.5530
  499TMC3    C3 7468   0.938   2.364  10.472  0.9094  0.1550 -0.7765
  499TMC3    C4 7469   0.745   2.171  10.437  0.0938 -0.0909  0.1201
  499TMC3    C5 7470   0.804   2.238  10.328  0.5868 -0.1165  1.2657
  499TMC3    C6 7471   0.893   2.338  10.344  0.0090  0.0496 -0.7995
  499TMC3     C 7472   0.753   2.148  10.682 -0.2539  0.0102 -0.2838
  499TMC3     O 7473   0.767   2.214  10.786  0.0998 -0.4714 -0.1245
  499TMC3     H 7474   0.919   2.335  10.678 -0.2276 -3.3956  1.0354
  499TMC3    H1 7475   0.675   2.089  10.427 -0.6677  0.6462 -0.5616
  499TMC3    H2 7476   0.942   2.378  10.256 -0.5342  0.3143 -0.9837
  499TMC3    C7 7477   0.766   2.204  10.193 -0.4831  0.8431  0.2421
  499TMC3    C8 7478   1.062   2.438  10.502  0.7007  0.4693 -0.1589
  499TMC3    O1 7479   0.812   2.271  10.105 -0.3435  0.1544  0.9869
  499TMC3    O2 7480   1.079   2.492  10.613  0.2237  0.2353  0.2264
  500MPD2     C 7481   1.220   3.485  10.379 -0.4912 -0.0533  0.4195
  500MPD2    C1 7482   1.264   3.416  10.270  0.8710  0.1821  0.6618
  500MPD2    C2 7483   1.202   3.433  10.147 -0.2757  0.3173 -0.0733
  500MPD2    C3 7484   1.076   3.487  10.149  0.3977 -0.8978  0.4188
  500MPD2    C4 7485   1.027   3.549  10.261  0.3448 -0.6505  0.1167
  500MPD2    C5 7486   1.103   3.557  10.371  0.0245 -0.7804 -0.3553
  500MPD2     H 7487   1.248   3.391  10.059  0.8158 -0.5562  0.9292
  500MPD2    H1 7488   0.933   3.601  10.275  0.0323 -1.3233  0.4956
  500MPD2    H2 7489   1.273   3.504  10.471 -0.0496  2.8813 -0.4429
  500MPD2    H3 7490   1.070   3.611  10.459 -2.6433 -2.2494 -0.4332
  500MPD2     N 7491   0.982   3.454  10.051 -0.4933  0.1029 -0.1732
  500MPD2    H5 7492   0.885   3.459  10.081 -0.7979  0.0260 -1.1442
  500MPD2    N1 7493   1.381   3.332  10.268 -0.0817  0.1546  0.2566
  500MPD2    H7 7494   1.416   3.291  10.181  3.0774  0.5320  1.3557
  501TMC3    C1 7495   1.559   3.214  10.368 -0.6747 -0.6321 -0.4535
  501TMC3    C2 7496   1.646   3.251  10.270  0.0989  0.3704 -0.1501
  501TMC3    C3 7497   1.778   3.205  10.276  0.0361  0.0163  0.3139
  501TMC3    C4 7498   1.602   3.122  10.464 -0.7583 -0.1089  0.0159
  501TMC3    C5 7499   1.728   3.066  10.461 -1.1480 -0.6633  0.2628
  501TMC3    C6 7500   1.818   3.114  10.374  0.1956  0.1998  0.3712
  501TMC3     C 7501   1.437   3.294  10.384 -0.4058 -0.4982 -0.3039
  501TMC3     O 7502   1.385   3.297  10.496 -0.2604 -0.0835  0.1366
  501TMC3     H 7503   1.634   3.340  10.208  0.5585  0.2737 -0.3819
  501TMC3    H1 7504   1.540   3.102  10.551  0.3576 -1.2367  0.5497
  501TMC3    H2 7505   1.918   3.073  10.382 -0.6753 -1.7090  1.5234
  501TMC3    C7 7506   1.784   3.058  10.594 -0.1094  0.1973  0.7786
  501TMC3    C8 7507   1.888   3.296  10.254 -0.0563  0.0246  0.4406
  501TMC3    O1 7508   1.712   3.004  10.675 -0.0631  0.3460 -0.2499
  501TMC3    O2 7509   1.973   3.290  10.340  0.0992  0.0011  0.5447
  502TMC3    C1 7510   2.041   1.687  14.875 -0.0951 -0.2599 -0.2165
  502TMC3    C2 7511   2.082   1.813  14.840  0.3542  0.8476  0.7127
  502TMC3    C3 7512   1.995   1.889  14.766  0.4543  0.1436  0.2580
  502TMC3    C4 7513   1.924   1.628  14.832  0.2558  0.1137  0.7292
  502TMC3    C5 7514   1.844   1.707  14.751  0.3501  0.0727  0.8109
  502TMC3    C6 7515   1.877   1.835  14.715  0.3485 -0.0399  0.0089
  502TMC3     C 7516   2.079   1.649  15.006 -0.2692 -0.1475 -0.0778
  502TMC3     O 7517   2.186   1.683  15.053 -0.0335  0.2264  0.0693
  502TMC3     H 7518   2.168   1.861  14.884 -0.4599  2.8483  0.1479
  502TMC3    H1 7519   1.908   1.524  14.859  0.5033 -0.6076 -1.9729
  502TMC3    H2 7520   1.820   1.892  14.643  0.1118  0.3856  0.5398
  502TMC3    C7 7521   1.720   1.648  14.710  0.0332 -0.5925  0.2914
  502TMC3    C8 7522   1.962   2.015  14.831 -0.1796 -0.4279  0.5038
  502TMC3    O1 7523   1.710   1.522  14.722  0.0772  0.4501 -0.0910
  502TMC3    O2 7524   1.883   2.083  14.773  0.2344  0.3262  0.3262
  503MPD2     C 7525   3.854   2.160  16.783  0.7080  0.1574  0.0044
  503MPD2    C1 7526   3.857   2.242  16.890 -0.5857  0.9549 -1.0515
  503MPD2    C2 7527   3.875   2.181  17.013 -0.2299 -0.1218 -0.3704
  503MPD2    C3 7528   3.905   2.046  17.032 -0.3998  0.5016  0.1181
  503MPD2    C4 7529   3.906   1.967  16.922  0.2922 -0.3933 -0.7688
  503MPD2    C5 7530   3.884   2.024  16.796 -0.1452 -0.6018  0.0144
  503MPD2     H 7531   3.873   2.242  17.103  1.3023  0.4486 -0.7062
  503MPD2    H1 7532   3.933   1.862  16.921  3.1103  0.3265  0.8594
  503MPD2    H2 7533   3.835   2.197  16.683  1.2001  1.1031  0.2635
  503MPD2    H3 7534   3.882   1.963  16.706 -0.9455 -3.4221  1.9679
  503MPD2     N 7535   3.962   1.980  17.144 -1.0007 -0.6232  0.0885
  503MPD2    H5 7536   4.002   1.887  17.145  0.3364 -0.0436  1.3080
  503MPD2    N1 7537   3.859   2.388  16.885  0.3088 -0.3629 -0.1069
  503MPD2    H7 7538   3.877   2.438  16.972  2.2201 -0.0148 -0.7112
  504TMC3    C1 7539   4.065   1.979  17.352 -0.3496  0.2397  0.5999
  504TMC3    C2 7540   4.030   1.937  17.473  0.0847 -1.5179  0.1778
  504TMC3    C3 7541   4.121   1.861  17.538  0.2762  0.0132 -0.1020
  504TMC3    C4 7542   4.189   1.958  17.294 -0.2411  0.1459  0.0904
  504TMC3    C5 7543   4.268   1.871  17.360  0.4610 -0.1072  0.1607
  504TMC3    C6 7544   4.240   1.822  17.484 -0.1775  0.2162 -0.4031
  504TMC3     C 7545   3.969   2.041  17.267 -0.2698  0.8797 -1.2100
  504TMC3     O 7546   3.910   2.140  17.313  0.0912 -0.0543  0.1630
  504TMC3     H 7547   3.935   1.974  17.509 -0.0518  0.3752 -2.1895
  504TMC3    H1 7548   4.201   2.007  17.198 -2.6248 -1.6487 -1.1170
  504TMC3    H2 7549   4.313   1.764  17.539 -0.2758  0.1263 -0.3678
  504TMC3    C7 7550   4.385   1.843  17.276  0.0654 -0.3878  0.2010
  504TMC3    C8 7551   4.083   1.815  17.673  0.0274  1.2230  0.5125
  504TMC3    O1 7552   4.381   1.894  17.165  0.1815 -0.3367 -0.5493
  504TMC3    O2 7553   3.964   1.846  17.708 -0.2435 -0.3671  0.0880
  505MPD2     C 7554   4.163   0.721  10.664 -0.0877  0.7709 -0.5317
  505MPD2    C1 7555   4.267   0.640  10.636 -0.0008  0.3447 -0.3299
  505MPD2    C2 7556   4.322   0.548  10.725 -0.0814  0.2733 -0.2970
  505MPD2    C3 7557   4.280   0.561  10.857  0.6125  0.2748 -0.5797
  505MPD2    C4 7558   4.181   0.658  10.892 -1.0498 -0.2306  0.3034
  505MPD2    C5 7559   4.118   0.732  10.795  0.1542 -0.3731  0.1227
  505MPD2     H 7560   4.404   0.480  10.705  0.3780  0.2059  1.7586
  505MPD2    H1 7561   4.137   0.671  10.990 -0.1985 -0.2574  0.6848
  505MPD2    H2 7562   4.107   0.783  10.595 -2.0420 -1.6102 -1.1054
  505MPD2    H3 7563   4.044   0.810  10.811  0.0028  0.2100 -3.3224
  505MPD2     N 7564   4.355   0.493  10.961  0.0937 -0.2027 -0.0445
  505MPD2    H5 7565   4.343   0.526  11.057 -1.1782  1.7303 -0.8654
  505MPD2    N1 7566   4.290   0.626  10.493 -0.2310 -0.6083 -0.0272
  505MPD2    H7 7567   4.249   0.692  10.428  0.6715 -0.3936 -0.3789
  506TMC3    C1 7568   4.420   0.550  10.311  0.5242  0.1242 -0.1728
  506TMC3    C2 7569   4.470   0.678  10.290 -0.1147  0.0097 -0.3682
  506TMC3    C3 7570   4.578   0.681  10.205 -0.2893  0.6686  0.1605
  506TMC3    C4 7571   4.481   0.435  10.266  0.7018 -1.0113  0.2880
  506TMC3    C5 7572   4.598   0.451  10.200  0.3813  0.1866  0.1096
  506TMC3    C6 7573   4.642   0.572  10.152 -0.1621  0.1774 -0.4711
  506TMC3     C 7574   4.376   0.530  10.446  0.1803  0.0077 -0.8475
  506TMC3     O 7575   4.424   0.430  10.497  0.1909  0.5029 -0.1844
  506TMC3     H 7576   4.426   0.764  10.339  0.9036  0.2294  0.1625
  506TMC3    H1 7577   4.441   0.337  10.287  0.0579 -0.5023  1.4250
  506TMC3    H2 7578   4.727   0.570  10.086 -0.0235  0.6719 -0.3105
  506TMC3    C7 7579   4.710   0.378  10.244  0.6920  0.0628 -0.4447
  506TMC3    C8 7580   4.622   0.810  10.162 -0.8481 -0.2522  0.1141
  506TMC3    O1 7581   0.079   0.375  10.181  0.4057 -0.0902  0.0665
  506TMC3    O2 7582   4.671   0.818  10.051 -0.3185 -0.1288 -0.0456
  507TMC3    C1 7583   0.625   2.324  15.621  0.5509  0.0019  0.6615
  507TMC3    C2 7584   0.590   2.290  15.494 -0.3698 -0.3868  0.1457
  507TMC3    C3 7585   0.635   2.379  15.402  0.2655  0.3525  0.1347
  507TMC3    C4 7586   0.675   2.442  15.658  0.5748 -0.7634 -0.1504
  507TMC3    C5 7587   0.702   2.536  15.563  0.3130 -0.2887  0.2183
  507TMC3    C6 7588   0.699   2.494  15.432  0.0522  0.5301  0.4529
  507TMC3     C 7589   0.603   2.223  15.725  0.2657 -0.3505 -0.2396
  507TMC3     O 7590   0.609   2.256  15.847 -0.2161  0.1176  0.5061
  507TMC3     H 7591   0.544   2.198  15.462 -0.3859 -1.2678  2.6954
  507TMC3    H1 7592   0.669   2.468  15.763 -0.2564 -0.1680 -0.3447
  507TMC3    H2 7593   0.739   2.559  15.355  0.5612  0.6484  0.8130
  507TMC3    C7 7594   0.632   2.659  15.599  0.1880 -0.8411  0.3378
  507TMC3    C8 7595   0.539   2.411  15.297 -0.1842 -0.7594 -0.0033
  507TMC3    O1 7596   0.621   2.692  15.717  0.4290 -0.1930  0.2337
  507TMC3    O2 7597   0.529   2.530  15.271  0.5560 -0.0081  0.1681
  508MPD2     C 7598   1.017   4.478  16.148  0.2106  0.0303  0.2541
  508MPD2    C1 7599   1.094   4.583  16.198  0.1869 -0.4581 -0.0459
  508MPD2    C2 7600   1.120   4.689  16.119  0.1141 -0.5511  0.1229
  508MPD2    C3 7601   1.091   4.691  15.986 -0.2214 -0.7944  0.3629
  508MPD2    C4 7602   1.019   4.588  15.934 -0.4413 -0.4082  0.3893
  508MPD2    C5 7603   0.984   4.483  16.015  0.0480  0.0907  0.0337
  508MPD2     H 7604   1.184   0.033  16.157  0.1792 -1.0452  1.0476
  508MPD2    H1 7605   0.991   4.592  15.830 -0.2431  0.6006  0.3754
  508MPD2    H2 7606   0.982   4.390  16.201  0.9880 -0.2419  0.3204
  508MPD2    H3 7607   0.914   4.409  15.978  0.6637  0.4316 -1.8183
  508MPD2     N 7608   1.111   0.068  15.898 -0.0772  0.1115 -0.3021
  508MPD2    H5 7609   1.090   0.057  15.799  0.2841 -0.4803 -0.3127
  508MPD2    N1 7610   1.141   4.576  16.331  0.1824  0.0620 -0.0315
  508MPD2    H7 7611   1.135   4.486  16.377  2.1190  1.4047  2.8495
  509TMC3    C1 7612   1.092   0.398  15.661 -0.3279 -0.2062  0.3181
  509TMC3    C2 7613   1.206   0.465  15.635  0.0885  0.1938  0.0042
  509TMC3    C3 7614   1.321   0.423  15.696  0.1256  0.5307  0.5648
  509TMC3    C4 7615   1.092   0.285  15.735 -0.7952  0.5839  0.3412
  509TMC3    C5 7616   1.207   0.251  15.807 -0.2400 -0.4230 -0.5637
  509TMC3    C6 7617   1.317   0.326  15.789 -0.9817 -0.5119 -0.0622
  509TMC3     C 7618   0.962   0.449  15.622  0.5162  0.2381  0.0848
  509TMC3     O 7619   0.866   0.397  15.668  1.1222 -0.6144  0.2008
  509TMC3     H 7620   1.219   0.532  15.550 -0.5661  0.7436  0.3384
  509TMC3    H1 7621   0.999   0.230  15.742 -0.4222 -0.0639  0.1253
  509TMC3    H2 7622   1.404   0.290  15.843 -0.9871 -0.3091  0.0815
  509TMC3    C7 7623   1.188   0.178  15.926 -0.3844  0.3319  0.0195
  509TMC3    C8 7624   1.449   0.478  15.647 -0.3958 -0.2573  0.2064
  509TMC3    O1 7625   1.253   0.212  16.024 -0.0836 -0.3157 -0.1995
  509TMC3    O2 7626   1.453   0.590  15.593  0.1365 -0.2640  0.4430
  510MPD2     C 7627   3.573   1.197  14.559 -0.3654 -1.2081 -0.1153
  510MPD2    C1 7628   3.628   1.078  14.605 -0.0644 -0.6122  0.0367
  510MPD2    C2 7629   3.746   1.026  14.551  0.0070  0.4003  0.1142
  510MPD2    C3 7630   3.824   1.094  14.464  0.0838  0.1043 -0.0411
  510MPD2    C4 7631   3.776   1.215  14.424  0.4616 -0.6018  0.3562
  510MPD2    C5 7632   3.650   1.256  14.459  0.2045 -0.2956 -0.4276
  510MPD2     H 7633   3.769   0.926  14.586  1.1754  0.8377  0.5933
  510MPD2    H1 7634   3.819   1.272  14.343 -0.8128  0.9724  0.7992
  510MPD2    H2 7635   3.470   1.229  14.570 -0.2151 -0.2650 -1.5563
  510MPD2    H3 7636   3.618   1.351  14.418 -0.6464 -0.5532 -0.3646
  510MPD2     N 7637   3.948   1.044  14.433 -0.6101  0.0747 -0.5266
  510MPD2    H5 7638   3.974   0.951  14.465  2.9610  0.9310 -0.9408
  510MPD2    N1 7639   3.556   1.001  14.702  0.5772 -0.6592 -0.3608
  510MPD2    H7 7640   3.577   0.903  14.716  2.5491 -0.1560  0.0826
  511TMC3    C1 7641   3.377   0.965  14.861  0.7518  0.3014 -0.1926
  511TMC3    C2 7642   3.305   1.016  14.962  0.2181 -0.3080  0.0077
  511TMC3    C3 7643   3.226   0.924  15.031  0.0653  0.1662 -0.0667
  511TMC3    C4 7644   3.375   0.835  14.830  0.1972  0.0376 -0.3990
  511TMC3    C5 7645   3.293   0.747  14.897  0.4322  0.3124 -0.0870
  511TMC3    C6 7646   3.227   0.791  15.006  0.3905  0.9640  0.2687
  511TMC3     C 7647   3.458   1.056  14.782  0.4283 -0.6174  0.5791
  511TMC3     O 7648   3.422   1.172  14.795  0.5073  0.2079 -0.2856
  511TMC3     H 7649   3.312   1.120  14.992 -1.3827 -0.4580  0.9035
  511TMC3    H1 7650   3.417   0.814  14.732  1.4517  1.0428 -0.0766
  511TMC3    H2 7651   3.141   0.736  15.042  0.6666 -0.4907 -1.2853
  511TMC3    C7 7652   3.246   0.624  14.833  0.3712  0.2640  0.4308
  511TMC3    C8 7653   3.176   0.969  15.156  0.2165 -0.1778 -0.1823
  511TMC3    O1 7654   3.291   0.599  14.722  0.6224 -0.0820  0.5159
  511TMC3    O2 7655   3.134   1.083  15.155  0.2693 -0.5020 -0.5213
  512TMC3    C1 7656   2.344   0.487  13.323 -0.3821  0.3672  0.5180
  512TMC3    C2 7657   2.437   0.438  13.405 -0.8016 -0.8215  0.5930
  512TMC3    C3 7658   2.497   0.321  13.373  0.0567 -0.6332  0.8153
  512TMC3    C4 7659   2.312   0.425  13.204 -0.1087  0.4245 -0.4550
  512TMC3    C5 7660   2.376   0.309  13.177  0.3329  0.0129 -0.3185
  512TMC3    C6 7661   2.478   0.260  13.255 -0.7093 -0.0106  0.7414
  512TMC3     C 7662   2.311   0.623  13.345  1.0910 -0.1877 -0.4468
  512TMC3     O 7663   2.399   0.695  13.393  0.0920  0.1364 -0.1629
  512TMC3     H 7664   2.449   0.488  13.501  0.0785  1.9958 -0.9811
  512TMC3    H1 7665   2.242   0.474  13.138 -0.0489 -1.7441 -2.1148
  512TMC3    H2 7666   2.532   0.169  13.228  4.2515  2.3833  2.4410
  512TMC3    C7 7667   2.349   0.248  13.052 -0.7070  0.4871  0.0431
  512TMC3    C8 7668   2.609   0.268  13.452 -0.2701  0.2540 -1.3022
  512TMC3    O1 7669   2.319   0.325  12.962  0.3697  0.0385 -0.4656
  512TMC3    O2 7670   2.656   0.160  13.416  0.5095 -0.2699  0.4648
  513MPD2     C 7671   4.381   0.387  13.544 -0.1127 -0.4203 -0.9561
  513MPD2    C1 7672   4.455   0.375  13.428  0.6033  0.0525 -1.2481
  513MPD2    C2 7673   4.586   0.343  13.431 -0.4394 -0.5616 -0.4054
  513MPD2    C3 7674   4.662   0.345  13.554 -0.0577  0.0114 -0.4066
  513MPD2    C4 7675   4.592   0.359  13.673  0.5905 -0.1728 -0.8588
  513MPD2    C5 7676   4.450   0.381  13.667  0.2703  0.0093 -1.1314
  513MPD2     H 7677   4.631   0.317  13.336 -0.1194  2.9841 -1.2213
  513MPD2    H1 7678   4.627   0.327  13.770 -2.5986 -0.1980  0.2942
  513MPD2    H2 7679   4.274   0.406  13.543 -0.2569 -1.1628  0.8562
  513MPD2    H3 7680   4.393   0.371  13.758  0.6775 -0.7964 -0.9589
  513MPD2     N 7681   0.061   0.302  13.546  0.4338  0.1462  0.5423
  513MPD2    H5 7682   0.105   0.284  13.456  0.3621  3.3266 -0.1471
  513MPD2    N1 7683   4.396   0.364  13.302  0.4126 -0.3623  0.0727
  513MPD2    H7 7684   4.452   0.326  13.226  1.2588 -0.2413  0.6344
  514TMC3    C1 7685   4.260   0.386  13.127 -0.7108  0.0621  1.1124
  514TMC3    C2 7686   4.276   0.490  13.033 -0.0657 -0.0754 -0.3807
  514TMC3    C3 7687   4.344   0.463  12.917  0.3147  0.0016 -0.1288
  514TMC3    C4 7688   4.319   0.266  13.091 -0.4565 -0.5403 -0.3896
  514TMC3    C5 7689   4.390   0.241  12.975  0.8352  0.1565 -0.2503
  514TMC3    C6 7690   4.401   0.337  12.880 -0.1992  0.6409  0.3702
  514TMC3     C 7691   4.284   0.424  13.258  0.4172  0.0614 -0.1401
  514TMC3     O 7692   4.242   0.528  13.297  0.0178 -0.3366  0.3550
  514TMC3     H 7693   4.226   0.583  13.056 -0.4008 -0.1815 -0.6869
  514TMC3    H1 7694   4.299   0.179  13.153  0.5327 -0.9561 -0.6640
  514TMC3    H2 7695   4.462   0.323  12.791 -1.4566 -0.8836 -0.2505
  514TMC3    C7 7696   4.526   0.191  13.011  0.0497 -0.4698 -0.2104
  514TMC3    C8 7697   4.357   0.574  12.823  0.1576 -0.8780  0.2407
  514TMC3    O1 7698   4.546   0.198  13.132 -0.6338 -0.0007 -0.1086
  514TMC3    O2 7699   4.351   0.684  12.876 -0.3697  0.2987  0.0336
  515MPD2     C 7700   2.529   2.376  14.144  0.2006  0.1992  0.1839
  515MPD2    C1 7701   2.496   2.395  14.277  0.0312 -1.0835  0.2093
  515MPD2    C2 7702   2.589   2.426  14.376  0.1291 -0.3026 -0.0016
  515MPD2    C3 7703   2.722   2.425  14.350 -0.6077 -0.1221 -0.4849
  515MPD2    C4 7704   2.752   2.387  14.222 -0.1266  0.2096 -0.2441
  515MPD2    C5 7705   2.662   2.370  14.121  0.1202 -0.3050  0.0108
  515MPD2     H 7706   2.550   2.453  14.474  0.2677  0.2420 -0.0997
  515MPD2    H1 7707   2.856   2.382  14.192  0.0236  0.8991  0.1567
  515MPD2    H2 7708   2.465   2.369  14.057 -0.3861 -0.3074  0.6576
  515MPD2    H3 7709   2.698   2.349  14.021 -0.2603 -0.0976 -0.1664
  515MPD2     N 7710   2.828   2.454  14.438 -0.0784  0.1515 -0.0813
  515MPD2    H5 7711   2.919   2.441  14.395  0.8885  1.8815  1.4335
  515MPD2    N1 7712   2.360   2.389  14.321 -0.0588 -0.5590 -0.3990
  515MPD2    H7 7713   2.344   2.386  14.421 -1.2877  0.4896 -0.5518
  516TMC3    C1 7714   2.138   2.305  14.278  0.0366 -0.5198 -0.0044
  516TMC3    C2 7715   2.031   2.304  14.194  0.5387 -0.2253 -0.1764
  516TMC3    C3 7716   1.957   2.187  14.188  0.9502  0.1771 -0.0239
  516TMC3    C4 7717   2.171   2.190  14.347 -0.2068  0.1985  0.4097
  516TMC3    C5 7718   2.094   2.080  14.345 -0.4186  0.1515  0.3209
  516TMC3    C6 7719   1.983   2.079  14.264  0.7593 -0.8511 -0.1456
  516TMC3     C 7720   2.254   2.381  14.230  0.4692  0.7029 -0.5598
  516TMC3     O 7721   2.238   2.428  14.118 -0.1087 -0.1537 -0.4093
  516TMC3     H 7722   2.021   2.393  14.133  0.2697  1.2574  2.0405
  516TMC3    H1 7723   2.262   2.188  14.405 -0.8568 -0.4848  1.4152
  516TMC3    H2 7724   1.944   1.980  14.246 -0.6842 -0.2512 -0.2781
  516TMC3    C7 7725   2.150   1.953  14.401 -0.0451  0.2073  0.1614
  516TMC3    C8 7726   1.862   2.179  14.081 -0.7021 -0.2187  0.4224
  516TMC3    O1 7727   2.269   1.955  14.432  0.2172  0.1726 -0.1941
  516TMC3    O2 7728   1.767   2.107  14.105 -0.0424  0.0838 -0.2410
  517MPD2     C 7729   2.528   3.957  16.948  0.9086  0.1236 -0.2474
  517MPD2    C1 7730   2.616   3.919  17.043  0.3209  0.8723 -0.5676
  517MPD2    C2 7731   2.652   4.005  17.146 -0.2263 -0.7285  0.9710
  517MPD2    C3 7732   2.597   4.133  17.150 -0.0129  0.0190  0.8005
  517MPD2    C4 7733   2.504   4.170  17.057  0.0654  0.6671  0.2994
  517MPD2    C5 7734   2.471   4.080  16.956 -0.1596  0.4514  0.5173
  517MPD2     H 7735   2.716   3.966  17.224 -0.2248  0.7102  1.6954
  517MPD2    H1 7736   2.458   4.268  17.051  0.7807  0.9509 -0.4799
  517MPD2    H2 7737   2.511   3.897  16.859 -2.0314 -1.0935  1.1565
  517MPD2    H3 7738   2.395   4.112  16.886 -0.8364 -2.2850  0.0015
  517MPD2     N 7739   2.630   4.230  17.251 -0.2560 -0.6396  0.6500
  517MPD2    H5 7740   2.572   4.313  17.264  0.2142 -0.3908  1.1471
  517MPD2    N1 7741   2.681   3.800  17.045  0.0032  0.4044  0.1838
  517MPD2    H7 7742   2.760   3.791  17.108 -0.0756 -0.7187  0.1283
  518TMC3    C1 7743   2.744   3.579  17.011  0.8971 -0.0778 -0.8598
  518TMC3    C2 7744   2.695   3.455  17.002 -0.2764 -0.2933 -0.3588
  518TMC3    C3 7745   2.785   3.355  17.004 -0.4950 -0.4126 -0.2307
  518TMC3    C4 7746   2.876   3.605  17.042 -0.2360 -0.2606  0.1092
  518TMC3    C5 7747   2.965   3.502  17.055  0.2937  0.3930  0.2562
  518TMC3    C6 7748   2.923   3.374  17.029  0.4013 -0.0131 -0.2634
  518TMC3     C 7749   2.647   3.686  16.976 -0.3149  0.1730 -0.7309
  518TMC3     O 7750   2.539   3.662  16.930  0.3987 -0.3911 -0.4886
  518TMC3     H 7751   2.593   3.437  16.971 -1.2077  2.3932  1.1700
  518TMC3    H1 7752   2.910   3.708  17.055  1.5414 -0.6436 -1.4266
  518TMC3    H2 7753   2.987   3.287  17.028 -2.8397 -2.3964  0.4254
  518TMC3    C7 7754   3.067   3.526  17.155 -0.0751  0.0201  0.4555
  518TMC3    C8 7755   2.751   3.217  17.035  0.1208  0.3952  0.6794
  518TMC3    O1 7756   3.021   3.604  17.235  0.0531  0.5677  0.5130
  518TMC3    O2 7757   2.825   3.124  17.015 -0.4039 -0.7782 -0.3597
  519MPD2     C 7758   3.865   2.427  14.215 -0.2697  0.0931  0.6593
  519MPD2    C1 7759   3.807   2.400  14.092  0.4256 -0.0891  0.4018
  519MPD2    C2 7760   3.851   2.289  14.017 -0.6263 -0.1328 -0.3298
  519MPD2    C3 7761   3.953   2.206  14.068  0.1051  0.5420 -0.0060
  519MPD2    C4 7762   4.005   2.236  14.192  0.7711 -0.6206 -0.1745
  519MPD2    C5 7763   3.971   2.350  14.258 -0.4777  0.2982  0.0241
  519MPD2     H 7764   3.807   2.269  13.920 -0.8642  0.2590 -0.3035
  519MPD2    H1 7765   4.089   2.181  14.233  2.6366  0.9464 -1.8282
  519MPD2    H2 7766   3.836   2.514  14.273  0.1108  1.7109 -1.5700
  519MPD2    H3 7767   4.008   2.371  14.357  1.1554  1.3483 -0.8143
  519MPD2     N 7768   3.991   2.082  14.007 -0.8291 -0.2361  0.0868
  519MPD2    H5 7769   4.069   2.031  14.046  0.1289  0.0876 -1.3996
  519MPD2    N1 7770   3.713   2.486  14.040 -1.4366 -0.2284  0.1582
  519MPD2    H7 7771   3.667   2.551  14.103 -1.3095 -1.0281  1.0807
  520TMC3    C1 7772   4.001   1.914  13.833  0.0894 -0.1832  0.9058
  520TMC3    C2 7773   3.931   1.839  13.741  0.6699  0.1644 -0.2561
  520TMC3    C3 7774   3.973   1.716  13.713  0.1830 -0.1230 -0.1113
  520TMC3    C4 7775   4.120   1.874  13.886 -0.1633  0.0454  0.7998
  520TMC3    C5 7776   4.177   1.760  13.830  0.2187  0.0990 -0.8198
  520TMC3    C6 7777   4.099   1.676  13.751  0.1958 -0.0152  0.1382
  520TMC3     C 7778   3.935   2.034  13.886  0.4534  0.1337  0.5125
  520TMC3     O 7779   3.832   2.073  13.831 -0.5171 -0.1652  0.5221
  520TMC3     H 7780   3.850   1.886  13.688 -1.1474 -0.0116  2.3343
  520TMC3    H1 7781   4.173   1.936  13.957 -1.3975 -0.4636  2.1681
  520TMC3    H2 7782   4.138   1.581  13.716  0.6720 -0.1241  0.9738
  520TMC3    C7 7783   4.312   1.728  13.873  0.0707  0.3093  0.4004
  520TMC3    C8 7784   3.896   1.632  13.623 -0.0293  0.3097  0.1250
  520TMC3    O1 7785   4.355   1.777  13.977 -0.2117 -0.3608 -0.3568
  520TMC3    O2 7786   3.966   1.543  13.570  0.5012  0.5168 -0.3569
  521MPD2     C 7787   0.606   4.157  17.381  0.0760  0.5130  0.2505
  521MPD2    C1 7788   0.502   4.250  17.348 -0.4002  0.8746 -0.2351
  521MPD2    C2 7789   0.539   4.385  17.351 -0.0600  0.1905  0.8625
  521MPD2    C3 7790   0.662   4.427  17.390  0.1046 -0.2247 -0.0037
  521MPD2    C4 7791   0.761   4.336  17.421 -0.2130 -0.1704 -0.2389
  521MPD2    C5 7792   0.727   4.204  17.416  0.3929  0.1978 -0.0619
  521MPD2     H 7793   0.471   4.465  17.325 -0.7361  0.0675  2.2553
  521MPD2    H1 7794   0.863   4.365  17.444 -0.7292  1.7592 -0.3933
  521MPD2    H2 7795   0.589   4.051  17.369  1.0829  0.2020  1.5792
  521MPD2    H3 7796   0.796   4.122  17.431  1.5005  0.6988 -2.2967
  521MPD2     N 7797   0.696   4.562  17.388  0.2538  0.2263 -0.3880
  521MPD2    H5 7798   0.623   4.617  17.343 -2.0998 -3.0921 -0.5440
  521MPD2    N1 7799   0.378   4.202  17.306  0.5620 -0.1534 -0.0692
  521MPD2    H7 7800   0.363   4.102  17.311  1.1659 -0.1791  1.2914
  522TMC3    C1 7801   0.803   0.034  17.423  0.6481  0.0401 -0.1943
  522TMC3    C2 7802   0.887   0.118  17.485  0.0856  0.0629 -1.0921
  522TMC3    C3 7803   0.929   0.234  17.426  0.4274 -0.0448 -0.1467
  522TMC3    C4 7804   0.758   0.069  17.300  0.2356  0.4968 -0.2786
  522TMC3    C5 7805   0.789   0.185  17.243 -0.1943 -0.2958  0.1679
  522TMC3    C6 7806   0.870   0.271  17.311  0.5923 -0.3321 -0.5978
  522TMC3     C 7807   0.805   4.621  17.449 -0.3379 -0.2854  0.2808
  522TMC3     O 7808   0.884   4.571  17.531  0.2688 -0.1184 -0.3142
  522TMC3     H 7809   0.940   0.078  17.570 -0.2522 -2.0590 -1.8827
  522TMC3    H1 7810   0.730   4.727  17.230 -1.9801 -0.9488  2.2001
  522TMC3    H2 7811   0.905   0.352  17.249 -0.1960  0.3923 -0.1061
  522TMC3    C7 7812   0.803   0.182  17.097  0.2806  0.1691 -0.4429
  522TMC3    C8 7813   1.077   0.247  17.416  0.5188 -0.1861  0.1205
  522TMC3    O1 7814   0.901   0.241  17.051  0.0915  0.6285  0.2594
  522TMC3    O2 7815   1.137   0.213  17.516  0.4028  0.4102 -0.1495
  523MPD2     C 7816   1.959   4.012  10.023 -0.2658  0.1884  0.2906
  523MPD2    C1 7817   2.032   4.126  10.014  0.2291 -1.0215  0.2031
  523MPD2    C2 7818   1.974   4.234   9.947 -0.2085  0.1361 -0.1305
  523MPD2    C3 7819   1.838   4.227   9.905  0.3651  0.4859 -0.9022
  523MPD2    C4 7820   1.759   4.118   9.940  0.0213 -0.1608 -0.0897
  523MPD2    C5 7821   1.823   4.008  10.005  0.5194  0.5910  0.7114
  523MPD2     H 7822   2.035   4.320   9.923  0.9714 -0.3192  1.2867
  523MPD2    H1 7823   1.653   4.121   9.917  0.0869 -1.4378 -0.5789
  523MPD2    H2 7824   1.992   3.921  10.072  0.8970  0.8265  0.6769
  523MPD2    H3 7825   1.770   3.919  10.034 -0.2675  1.3374  1.5658
  523MPD2     N 7826   1.780   4.332   9.826  0.0347  0.8160  0.5245
  523MPD2    H5 7827   1.682   4.319   9.802 -0.0179  1.9730  0.1106
  523MPD2    N1 7828   2.167   4.133  10.053 -0.4537 -0.1206  0.3284
  523MPD2    H7 7829   2.216   4.048  10.076 -0.8007 -0.2027  0.7611
  524TMC3    C1 7830   1.754   4.523   9.684 -0.5258 -0.6949  0.4055
  524TMC3    C2 7831   1.800   4.581   9.570 -0.2185 -0.1478  0.0049
  524TMC3    C3 7832   1.761   4.707   9.538 -0.3104 -0.0986  0.0978
  524TMC3    C4 7833   1.671   4.594   9.767 -0.0368  0.7449  0.2535
  524TMC3    C5 7834   1.621   4.712   9.725 -0.5293 -0.2302 -0.9990
  524TMC3    C6 7835   1.663   0.038   9.609  0.5244  0.3819 -0.6344
  524TMC3     C 7836   1.844   4.437   9.763  0.2196 -0.1556 -0.5531
  524TMC3     O 7837   1.957   4.473   9.747  0.1628  0.7504 -0.3556
  524TMC3     H 7838   1.881   4.535   9.516  0.8338  1.7990 -0.0386
  524TMC3    H1 7839   1.614   4.534   9.837  0.1361 -0.5868 -0.7515
  524TMC3    H2 7840   1.629   0.136   9.578 -0.8242  0.4084  0.9546
  524TMC3    C7 7841   1.520   0.043   9.804  0.2136  0.2737 -0.7687
  524TMC3    C8 7842   1.819   0.042   9.421 -0.0433  0.1668 -0.1959
  524TMC3    O1 7843   1.517   0.018   9.924 -0.0773 -0.1491 -0.1618
  524TMC3    O2 7844   1.865   4.715   9.324 -0.3064  0.8670  0.0977
  525MPD2     C 7845   0.302   1.962  14.416  0.1326 -0.4114 -0.1482
  525MPD2    C1 7846   0.444   1.964  14.426 -0.0884 -0.1330 -0.1219
  525MPD2    C2 7847   0.508   2.091  14.426  0.2030  0.0176  0.2890
  525MPD2    C3 7848   0.430   2.204  14.411 -0.6120 -0.0736 -0.3598
  525MPD2    C4 7849   0.296   2.193  14.408  0.2077 -1.1756 -0.7004
  525MPD2    C5 7850   0.233   2.073  14.416  0.0715 -0.3106 -0.0614
  525MPD2     H 7851   0.613   2.108  14.444 -0.1313  1.2323  1.1077
  525MPD2    H1 7852   0.233   2.281  14.399 -0.9110 -1.7487  1.5727
  525MPD2    H2 7853   0.256   1.866  14.393  0.3958 -0.4959 -0.3335
  525MPD2    H3 7854   0.126   2.078  14.396  0.1401  0.4076 -0.2384
  525MPD2     N 7855   0.485   2.331  14.410  0.5301 -1.2066 -0.8364
  525MPD2    H5 7856   0.418   2.407  14.400 -0.9299 -2.3670  0.0737
  525MPD2    N1 7857   0.540   1.859  14.447  0.0429  1.1529 -0.5116
  525MPD2    H7 7858   0.632   1.893  14.471  0.3251  1.1013 -1.5054
  526TMC3    C1 7859   0.622   1.643  14.501  0.1711  0.2407  0.5535
  526TMC3    C2 7860   0.618   1.541  14.593 -0.3085  0.6256  0.8059
  526TMC3    C3 7861   0.740   1.475  14.618  0.2881 -0.1377 -0.2150
  526TMC3    C4 7862   0.732   1.666  14.425 -0.0023  0.0907 -0.1125
  526TMC3    C5 7863   0.848   1.589  14.445 -0.5599 -0.4845  0.6671
  526TMC3    C6 7864   0.846   1.485  14.531 -0.5448 -0.6360  0.4868
  526TMC3     C 7865   0.504   1.731  14.484  0.3121  0.1851  0.6355
  526TMC3     O 7866   0.391   1.677  14.499  0.7680  0.1958  0.4241
  526TMC3     H 7867   0.526   1.508  14.640 -1.1102 -0.8248 -1.7925
  526TMC3    H1 7868   0.730   1.738  14.344 -0.3446  1.7570  1.3482
  526TMC3    H2 7869   0.928   1.418  14.555  0.0849  0.5015  1.5122
  526TMC3    C7 7870   0.947   1.603  14.344  0.1403 -0.9261  0.2815
  526TMC3    C8 7871   0.762   1.423  14.750 -0.0892  0.1453  0.1371
  526TMC3    O1 7872   0.937   1.703  14.279  0.4623  0.0513  0.2677
  526TMC3    O2 7873   0.868   1.375  14.779 -0.3876  0.1193  0.3767
  527MPD2     C 7874   3.091   4.158   1.108  0.2530  0.4599 -0.3205
  527MPD2    C1 7875   3.110   4.254   1.013 -0.3023 -0.1505  0.3395
  527MPD2    C2 7876   3.231   4.263   0.953  0.2183 -0.2906 -0.0302
  527MPD2    C3 7877   3.334   4.177   0.977  0.0320  0.4416 -0.3300
  527MPD2    C4 7878   3.316   4.081   1.071  0.3463  0.6392  0.1235
  527MPD2    C5 7879   3.197   4.075   1.146  0.5352 -0.1601 -0.0581
  527MPD2     H 7880   3.249   4.334   0.874  0.1633  1.1576  1.2613
  527MPD2    H1 7881   3.401   4.028   1.114  0.2773 -0.4533 -1.0760
  527MPD2    H2 7882   3.004   4.158   1.171  0.8079 -1.2863  0.4378
  527MPD2    H3 7883   3.185   4.012   1.233  1.9198 -0.8497 -0.3752
  527MPD2     N 7884   3.450   4.184   0.900 -0.4721  0.5280  0.2577
  527MPD2    H5 7885   3.450   4.249   0.822 -2.9435 -0.1864 -0.3041
  527MPD2    N1 7886   3.020   4.360   0.994 -1.2523 -0.3675 -0.5163
  527MPD2    H7 7887   3.043   4.436   0.931 -1.8338 -1.2858 -1.8245
  528TMC3    C1 7888   2.813   4.472   0.980  0.3087 -0.7781 -0.5356
  528TMC3    C2 7889   2.860   4.559   0.885  1.1070 -0.6084  0.2013
  528TMC3    C3 7890   2.783   4.669   0.843  0.0031 -0.2372 -0.1608
  528TMC3    C4 7891   2.686   4.500   1.031 -0.2985  0.0688  1.0296
  528TMC3    C5 7892   2.615   4.613   0.994  1.2288 -0.3004  0.0066
  528TMC3    C6 7893   2.661   4.700   0.898 -0.4238  0.1818 -0.1854
  528TMC3     C 7894   2.888   4.358   1.037  0.4575  0.4280 -0.2536
  528TMC3     O 7895   2.820   4.271   1.098  0.3112 -0.0091 -0.6332
  528TMC3     H 7896   2.956   4.536   0.839 -0.5417 -0.4062 -3.3581
  528TMC3    H1 7897   2.657   4.440   1.116 -0.5614  1.4145  1.8875
  528TMC3    H2 7898   2.607   0.058   0.883  2.4311  1.5796 -1.7908
  528TMC3    C7 7899   2.543   4.678   1.102  0.0669  0.0283  0.2582
  528TMC3    C8 7900   2.853   0.021   0.745  0.4126  0.0527  0.2463
  528TMC3    O1 7901   2.589   4.644   1.212 -0.4385 -0.5144 -0.1182
  528TMC3    O2 7902   2.966   4.719   0.713  0.0987 -0.0373 -0.1496
  529MPD2     C 7903   0.930   2.887   0.166 -0.0042  0.2364  0.0429
  529MPD2    C1 7904   1.040   2.807   0.165  0.7218  0.0525 -0.5463
  529MPD2    C2 7905   1.118   2.798   0.051 -0.2341  0.0222  0.4387
  529MPD2    C3 7906   1.095   2.889  17.690 -0.1746 -0.5401  0.1056
  529MPD2    C4 7907   1.001   2.979  17.699  0.4692  0.1209 -0.2585
  529MPD2    C5 7908   0.911   2.977   0.065  0.3718  0.3811  0.4695
  529MPD2     H 7909   1.206   2.736   0.053  0.8276  1.5182 -0.0842
  529MPD2    H1 7910   0.993   3.055  17.623 -2.8512 -0.0033 -0.0237
  529MPD2    H2 7911   0.871   2.897   0.257  0.4402  0.5933  0.2848
  529MPD2    H3 7912   0.833   3.050   0.080 -2.0201 -2.2279  0.6438
  529MPD2     N 7913   1.185   2.911  17.587 -0.3264  0.7264 -0.1205
  529MPD2    H5 7914   1.175   2.998  17.535 -0.2854  1.0528  0.4098
  529MPD2    N1 7915   1.072   2.720   0.274  0.1524 -0.3137 -0.7132
  529MPD2    H7 7916   1.141   2.648   0.259  2.7690  1.8997  0.5344
  530TMC3    C1 7917   1.040   2.599   0.468  0.4303 -0.9356  0.3476
  530TMC3    C2 7918   1.059   2.622   0.600 -0.8545 -0.8341 -0.0564
  530TMC3    C3 7919   1.144   2.541   0.672 -0.1589 -0.6758  0.2447
  530TMC3    C4 7920   1.100   2.488   0.413  0.5762  0.4385 -0.0693
  530TMC3    C5 7921   1.174   2.404   0.493 -0.1536 -0.2272 -0.1073
  530TMC3    C6 7922   1.202   2.430   0.626 -0.5969  0.0705 -0.2011
  530TMC3     C 7923   1.016   2.727   0.397 -0.2532  0.0633  0.9373
  530TMC3     O 7924   0.941   2.808   0.453  0.4700 -0.5521  0.3106
  530TMC3     H 7925   1.026   2.710   0.654 -1.3886 -0.5965 -0.7800
  530TMC3    H1 7926   1.074   2.447   0.316  0.9921  1.9596 -0.8355
  530TMC3    H2 7927   1.268   2.367   0.684 -2.4255 -1.2057  0.5270
  530TMC3    C7 7928   1.176   2.264   0.455  0.2352 -0.3888  0.4791
  530TMC3    C8 7929   1.190   2.588   0.803 -0.3348 -0.6529 -0.7314
  530TMC3    O1 7930   1.173   2.236   0.339 -0.5452  0.6991  0.7655
  530TMC3    O2 7931   1.118   2.671   0.853 -0.1502  0.1515 -0.2832
  531MPD2     C 7932   0.264   0.004  12.945  1.2683 -0.0047 -0.2305
  531MPD2    C1 7933   0.210   0.086  13.041  0.1792 -0.0205 -0.3582
  531MPD2    C2 7934   0.076   0.120  13.033  0.6305 -0.4092  0.1279
  531MPD2    C3 7935   4.728   0.081  12.927 -0.3806 -0.2950  0.1187
  531MPD2    C4 7936   0.049   0.015  12.822 -0.2628  0.0211 -0.0386
  531MPD2    C5 7937   0.187   4.712  12.835  0.3675 -0.2298  0.2205
  531MPD2     H 7938   0.035   0.181  13.113 -0.1322 -0.4092 -0.2570
  531MPD2    H1 7939   4.732   4.718  12.733  0.3080  0.3460 -0.4922
  531MPD2    H2 7940   0.366   4.702  12.942  0.8236 -1.1698 -0.5886
  531MPD2    H3 7941   0.230   4.658  12.751  1.3381 -0.2023  0.6939
  531MPD2     N 7942   4.598   0.132  12.916 -0.3693 -0.2975 -0.5836
  531MPD2    H5 7943   4.554   0.122  12.825  1.1127 -3.6872 -0.9260
  531MPD2    N1 7944   0.293   0.115  13.151  0.0867  0.5832 -0.0410
  531MPD2    H7 7945   0.376   0.059  13.166  0.4070  1.1188  0.2012
  532TMC3    C1 7946   0.327   0.189  13.379 -0.0920  0.0886  0.4307
  532TMC3    C2 7947   0.280   0.282  13.464 -0.0797 -0.2973 -0.1277
  532TMC3    C3 7948   0.276   0.244  13.598 -0.1518 -0.1493 -0.1590
  532TMC3    C4 7949   0.365   0.059  13.411 -0.7234  0.2491 -0.3555
  532TMC3    C5 7950   0.377   0.040  13.544 -0.4221  0.5809  0.0504
  532TMC3    C6 7951   0.331   0.125  13.640 -0.2280 -0.0122  0.4773
  532TMC3     C 7952   0.259   0.203  13.253  1.1688  0.5449  0.0445
  532TMC3     O 7953   0.168   0.282  13.262 -0.1389 -0.5271  0.0864
  532TMC3     H 7954   0.268   0.383  13.428  0.6100  0.7519  2.6161
  532TMC3    H1 7955   0.390   4.726  13.331 -1.1789  1.0801 -1.2113
  532TMC3    H2 7956   0.318   0.079  13.737 -1.9140 -1.4227 -0.3979
  532TMC3    C7 7957   0.474   4.683  13.593 -0.5759  0.0515 -1.0776
  532TMC3    C8 7958   0.147   0.272  13.652  0.0906 -0.1712  0.4874
  532TMC3    O1 7959   0.515   4.683  13.711  0.0958  0.5663 -0.1811
  532TMC3    O2 7960   0.122   0.255  13.773 -0.4922 -1.2115 -0.9300
  533TMC3    C1 7961   0.640   2.496  14.455 -0.0230 -0.1767  0.0002
  533TMC3    C2 7962   0.776   2.519  14.449 -0.2202  0.3572 -0.1501
  533TMC3    C3 7963   0.831   2.596  14.552  0.5644 -0.3423 -0.0861
  533TMC3    C4 7964   0.571   2.532  14.567  0.2645  0.1817  0.5767
  533TMC3    C5 7965   0.627   2.604  14.665  0.7731 -0.6768 -0.6863
  533TMC3    C6 7966   0.754   2.650  14.656  1.1017 -0.2788 -0.2969
  533TMC3     C 7967   0.618   2.360  14.403  0.8128 -0.0596 -0.0429
  533TMC3     O 7968   0.715   2.295  14.370 -0.4537 -0.4493 -0.5881
  533TMC3     H 7969   0.835   2.478  14.367 -0.3925  0.7668 -0.4811
  533TMC3    H1 7970   0.466   2.507  14.564  0.9619 -2.8034  0.8975
  533TMC3    H2 7971   0.815   2.696  14.733  0.9042 -0.6092  0.0502
  533TMC3    C7 7972   0.588   2.557  14.795 -0.4969  0.8926  0.2460
  533TMC3    C8 7973   0.976   2.584  14.581 -0.4177 -0.5527 -0.4240
  533TMC3    O1 7974   0.502   2.463  14.806  0.3031 -0.9039 -0.1976
  533TMC3    O2 7975   0.999   2.569  14.699  0.4120 -0.2453 -0.1372
  534MPD2     C 7976   1.832   3.945   1.522 -0.4533 -0.6238  0.1800
  534MPD2    C1 7977   1.964   3.943   1.473 -0.0556 -0.3124 -0.1033
  534MPD2    C2 7978   2.028   3.819   1.457  0.3697  0.0736 -0.6704
  534MPD2    C3 7979   1.965   3.701   1.493  0.4952 -0.5945  0.2637
  534MPD2    C4 7980   1.838   3.703   1.539 -0.5232  0.3428  0.3531
  534MPD2    C5 7981   1.777   3.822   1.551  0.4864 -0.3941 -0.0561
  534MPD2     H 7982   2.125   3.828   1.411  0.8224  0.4443  0.3486
  534MPD2    H1 7983   1.777   3.616   1.559  0.4363 -0.4261 -0.1119
  534MPD2    H2 7984   1.768   4.031   1.542 -0.5678  0.1924 -3.7284
  534MPD2    H3 7985   1.674   3.827   1.586 -0.0793 -0.1467 -1.7692
  534MPD2     N 7986   2.026   3.575   1.479  0.2023 -0.1827 -0.0341
  534MPD2    H5 7987   1.972   3.495   1.509 -0.2947 -0.1773 -0.9137
  534MPD2    N1 7988   2.035   4.058   1.427 -0.4546 -0.1591  0.0296
  534MPD2    H7 7989   2.127   4.034   1.392 -0.9977 -2.9001  0.4650
  535TMC3    C1 7990   2.178   3.411   1.401 -0.2008 -0.2618  0.0305
  535TMC3    C2 7991   2.071   3.320   1.408 -0.4075 -0.2621  0.5077
  535TMC3    C3 7992   2.085   3.195   1.354 -0.1022 -0.7173 -0.5380
  535TMC3    C4 7993   2.282   3.384   1.310  0.0231  0.5042 -0.6362
  535TMC3    C5 7994   2.290   3.258   1.254 -0.5514 -0.4640  0.0688
  535TMC3    C6 7995   2.196   3.162   1.282  0.7057  0.3503 -0.4550
  535TMC3     C 7996   2.148   3.552   1.414 -0.0869  0.4726 -0.7763
  535TMC3     O 7997   2.228   3.633   1.367  0.2223 -0.4369 -0.6653
  535TMC3     H 7998   1.987   3.329   1.476 -1.5372  1.1193 -1.0928
  535TMC3    H1 7999   2.355   3.461   1.290 -0.7143  1.6255  0.9963
  535TMC3    H2 8000   2.202   3.067   1.230  0.4542  0.0947 -0.0184
  535TMC3    C7 8001   2.396   3.214   1.157 -0.3130  0.0655  0.4135
  535TMC3    C8 8002   1.969   3.114   1.320  0.8054  0.2174 -0.1738
  535TMC3    O1 8003   2.405   3.100   1.109  0.0776  0.5443  0.4121
  535TMC3    O2 8004   1.978   3.061   1.210 -0.2024 -0.2214  0.0342
  536MPD2     C 8005   1.250   0.981  16.164 -0.0578 -0.3212  0.2154
  536MPD2    C1 8006   1.377   1.027  16.120 -0.1367 -0.2585  0.6004
  536MPD2    C2 8007   1.389   1.082  15.993  0.0721  0.2992  0.1716
  536MPD2    C3 8008   1.273   1.113  15.925  0.0747 -0.1171  0.9865
  536MPD2    C4 8009   1.147   1.074  15.970  0.5094  0.2289  0.4952
  536MPD2    C5 8010   1.143   0.997  16.082 -0.3535  0.1970  0.0833
  536MPD2     H 8011   1.478   1.134  15.961  1.2108 -1.5392  0.3592
  536MPD2    H1 8012   1.060   1.091  15.908  0.7070  1.5982  0.5942
  536MPD2    H2 8013   1.241   0.922  16.254 -2.1878 -1.2065 -0.5769
  536MPD2    H3 8014   1.052   0.946  16.115 -0.2933  0.3751  0.5214
  536MPD2     N 8015   1.270   1.188  15.808  0.7445  1.1765 -0.2127
  536MPD2    H5 8016   1.186   1.223  15.763 -0.4259 -1.5277 -0.1432
  536MPD2    N1 8017   1.491   1.012  16.203  0.5879 -0.2757 -0.8034
  536MPD2    H7 8018   1.473   0.966  16.292 -0.3548  2.2565  0.3408
  537TMC3    C1 8019   1.717   1.001  16.255  0.9851 -0.0922 -0.6073
  537TMC3    C2 8020   1.833   1.078  16.268  0.0644  0.1178 -0.0740
  537TMC3    C3 8021   1.929   1.022  16.349 -0.2903  0.5754  0.3286
  537TMC3    C4 8022   1.706   0.877  16.312 -0.1509  0.0051  0.0531
  537TMC3    C5 8023   1.801   0.828  16.386 -0.8357 -0.5533 -0.2045
  537TMC3    C6 8024   1.918   0.895  16.408 -0.0289  0.1491 -0.5204
  537TMC3     C 8025   1.615   1.046  16.167  0.1834  0.3749 -0.2832
  537TMC3     O 8026   1.664   1.107  16.074 -0.7959  0.6278 -0.2629
  537TMC3     H 8027   1.838   1.177  16.224  0.0066 -0.7779 -2.1092
  537TMC3    H1 8028   1.619   0.817  16.288  0.5036 -1.2271  0.7647
  537TMC3    H2 8029   1.993   0.851  16.472  0.6481 -0.4710 -1.7503
  537TMC3    C7 8030   1.774   0.700  16.455  0.0975 -0.2932  0.7705
  537TMC3    C8 8031   2.046   1.097  16.382 -0.1667  0.1061 -0.1914
  537TMC3    O1 8032   1.659   0.655  16.447  0.5402 -0.4966  0.0199
  537TMC3    O2 8033   2.115   1.045  16.473 -0.6747 -0.7677 -0.2284
  538TMC3    C1 8034   3.007   0.009  10.996 -0.0421 -0.4367  0.1642
  538TMC3    C2 8035   3.096   4.646  10.957 -1.1679 -0.6876  1.3160
  538TMC3    C3 8036   3.148   4.656  10.829 -0.0381  0.2119  0.3198
  538TMC3    C4 8037   2.975   0.117  10.920 -0.7905 -0.0764 -0.1082
  538TMC3    C5 8038   3.019   0.115  10.787  1.1153  0.3354 -0.3419
  538TMC3    C6 8039   3.102   0.017  10.742  0.4766 -0.0263  0.1762
  538TMC3     C 8040   2.960   0.012  11.138  0.5296 -0.7425 -0.9528
  538TMC3     O 8041   2.881   0.101  11.168  0.8502 -0.0495  0.0124
  538TMC3     H 8042   3.134   4.564  11.018 -1.5333 -0.3674  1.9726
  538TMC3    H1 8043   2.900   0.188  10.953 -0.8081 -0.4452  0.6606
  538TMC3    H2 8044   3.132   0.032  10.639 -1.9873 -1.7863 -0.8177
  538TMC3    C7 8045   2.932   0.161  10.680 -0.1994  0.2174 -0.4161
  538TMC3    C8 8046   3.238   4.558  10.781  0.5469 -0.5051 -0.3334
  538TMC3    O1 8047   2.912   0.083  10.588 -0.2490  0.4615  0.2469
  538TMC3    O2 8048   3.257   4.460  10.849  0.3795  0.2500  0.0033
  539MPD2     C 8049   2.617   3.722  11.715 -0.7539 -1.4247  0.5597
  539MPD2    C1 8050   2.639   3.733  11.581  0.1441  1.3878  0.3061
  539MPD2    C2 8051   2.619   3.855  11.516 -0.3295  0.7739  0.1739
  539MPD2    C3 8052   2.593   3.972  11.586 -0.0582 -0.2146  0.5158
  539MPD2    C4 8053   2.565   3.967  11.724  0.7179 -0.2652 -0.0800
  539MPD2    C5 8054   2.577   3.842  11.780  0.0516  0.0476 -0.2336
  539MPD2     H 8055   2.642   3.866  11.411  0.6560 -0.2223  0.2792
  539MPD2    H1 8056   2.541   4.054  11.783 -2.0904 -0.8462 -0.3565
  539MPD2    H2 8057   2.625   3.634  11.777  1.3072 -0.8768  1.0607
  539MPD2    H3 8058   2.557   3.841  11.887  4.6503  1.0450  0.6502
  539MPD2     N 8059   2.594   4.104  11.531  0.0485  0.6062 -0.2792
  539MPD2    H5 8060   2.549   4.171  11.593 -1.5018 -1.2900  0.6463
  539MPD2    N1 8061   2.671   3.619  11.501  0.0739  0.7680  0.1632
  539MPD2    H7 8062   2.675   3.636  11.402  0.6385 -0.2413  0.0115
  540TMC3    C1 8063   2.644   4.289  11.377  0.0142  0.2905 -0.0180
  540TMC3    C2 8064   2.648   4.335  11.248 -0.4292  0.3225  0.4641
  540TMC3    C3 8065   2.633   4.471  11.235 -0.4450  0.5108  0.7907
  540TMC3    C4 8066   2.626   4.371  11.486  0.1896 -0.1465  0.8780
  540TMC3    C5 8067   2.616   4.507  11.464  0.2994 -0.1674  0.3715
  540TMC3    C6 8068   2.615   4.562  11.334 -0.0392 -0.7610  0.6534
  540TMC3     C 8069   2.628   4.145  11.397  0.8769 -0.4810 -0.2349
  540TMC3     O 8070   2.674   4.067  11.308 -0.0501 -1.1085 -0.2348
  540TMC3     H 8071   2.661   4.264  11.167  1.6226  1.9555 -0.6355
  540TMC3    H1 8072   2.618   4.329  11.586 -0.4642 -0.5492  0.6573
  540TMC3    H2 8073   2.606   4.666  11.307 -0.5403 -1.1845 -0.8298
  540TMC3    C7 8074   2.567   4.585  11.577  0.1275  0.3264 -0.6356
  540TMC3    C8 8075   2.614   4.525  11.095  0.4474 -0.0832  0.0696
  540TMC3    O1 8076   2.554   4.521  11.684  0.2096  0.5811  0.2345
  540TMC3    O2 8077   2.622   4.643  11.068  0.6249 -0.4503  0.1167
  541MPD2     C 8078   1.164   0.458  13.356  0.7914  0.1751 -0.4574
  541MPD2    C1 8079   1.211   0.363  13.269 -0.1547  0.1454 -0.5758
  541MPD2    C2 8080   1.228   0.400  13.139 -0.4083  0.3915 -0.0082
  541MPD2    C3 8081   1.192   0.527  13.090 -0.1117 -0.3375 -0.0782
  541MPD2    C4 8082   1.145   0.625  13.179  0.3215 -0.1069  0.0258
  541MPD2    C5 8083   1.132   0.587  13.311 -0.0299 -0.6787 -0.0397
  541MPD2     H 8084   1.258   0.322  13.070  0.7752 -1.2050  2.3301
  541MPD2    H1 8085   1.128   0.729  13.154  2.5091  0.8770  2.7041
  541MPD2    H2 8086   1.157   0.441  13.463  0.6774  1.1804 -0.3028
  541MPD2    H3 8087   1.096   0.655  13.388 -0.1317 -1.3767  0.5321
  541MPD2     N 8088   1.200   0.566  12.951 -0.3207  0.1737 -0.0619
  541MPD2    H5 8089   1.139   0.644  12.928 -0.8019  0.3299  1.7793
  541MPD2    N1 8090   1.253   0.234  13.312  0.0862 -0.3456  0.0189
  541MPD2    H7 8091   1.294   0.171  13.245  1.7316  1.8973 -1.1044
  542TMC3    C1 8092   1.211   0.539  12.718 -0.7951 -0.7617 -0.1898
  542TMC3    C2 8093   1.287   0.520  12.605 -0.4442 -0.0893 -0.7121
  542TMC3    C3 8094   1.228   0.522  12.486 -0.1021  1.0299 -0.4737
  542TMC3    C4 8095   1.078   0.576  12.711  0.3843 -0.2714  0.0955
  542TMC3    C5 8096   1.024   0.593  12.588  0.3782 -0.0198  0.4203
  542TMC3    C6 8097   1.090   0.553  12.473  0.2460  0.0251 -0.3617
  542TMC3     C 8098   1.266   0.505  12.846 -0.3288  0.5364  0.2044
  542TMC3     O 8099   1.362   0.427  12.854 -0.1218 -0.7467  0.2426
  542TMC3     H 8100   1.390   0.490  12.621 -0.6987 -0.7468 -0.2851
  542TMC3    H1 8101   1.013   0.568  12.797  0.6761  0.3508  0.3772
  542TMC3    H2 8102   1.055   0.590  12.377  0.4286 -0.0331 -0.4498
  542TMC3    C7 8103   0.877   0.612  12.588 -0.1886 -0.0196  0.1921
  542TMC3    C8 8104   1.290   0.491  12.358 -0.4982 -0.3274  0.6643
  542TMC3    O1 8105   0.831   0.673  12.681 -0.0777 -0.0882 -0.1408
  542TMC3    O2 8106   1.220   0.511  12.258 -0.0836 -0.0174 -0.3714
  543TMC3    C1 8107   0.685   1.887  17.346  0.0256 -0.2578  0.1007
  543TMC3    C2 8108   0.704   1.762  17.391  0.3523 -0.5030  0.6559
  543TMC3    C3 8109   0.632   1.718  17.503 -0.2828  0.4810  0.0058
  543TMC3    C4 8110   0.599   1.974  17.408  0.3681  1.1206  0.5427
  543TMC3    C5 8111   0.530   1.928  17.515 -0.2772  0.6603  0.4238
  543TMC3    C6 8112   0.542   1.799  17.562 -0.1923  0.1171 -0.4077
  543TMC3     C 8113   0.771   1.919  17.231  0.3449 -0.0273 -0.2201
  543TMC3     O 8114   0.833   1.830  17.174 -0.6152 -0.5707 -0.2321
  543TMC3     H 8115   0.755   1.686  17.334  1.6372 -0.4394  1.7229
  543TMC3    H1 8116   0.576   2.073  17.371 -2.1497  0.4087  0.2274
  543TMC3    H2 8117   0.480   1.766  17.644  0.2248 -2.7322 -1.2537
  543TMC3    C7 8118   0.414   1.997  17.563  0.3825 -0.4615  0.0894
  543TMC3    C8 8119   0.627   1.576  17.523 -0.4257 -0.1328  0.4398
  543TMC3    O1 8120   0.341   1.928  17.631 -0.3822  0.7217  0.2701
  543TMC3    O2 8121   0.674   1.511  17.433  0.2250 -0.3191 -0.7062
  544MPD2     C 8122   0.590   1.165   0.082  0.0398 -0.1311 -0.0704
  544MPD2    C1 8123   0.669   1.181  17.707 -0.2955 -0.0897 -0.3145
  544MPD2    C2 8124   0.664   1.306  17.650  0.2107  0.6489 -0.2891
  544MPD2    C3 8125   0.579   1.412  17.697 -0.1534  0.1111 -0.0806
  544MPD2    C4 8126   0.503   1.383   0.071  0.2348  0.4424 -1.1630
  544MPD2    C5 8127   0.500   1.258   0.121  0.1076 -0.1702  0.1287
  544MPD2     H 8128   0.730   1.315  17.565 -0.4588 -2.9513 -1.1770
  544MPD2    H1 8129   0.436   1.454   0.117 -1.3604 -1.7531 -0.1505
  544MPD2    H2 8130   0.590   1.068   0.130  1.4612 -0.4559 -0.7398
  544MPD2    H3 8131   0.434   1.243   0.206 -0.2570 -1.6060 -0.3983
  544MPD2     N 8132   0.579   1.543  17.648 -0.9219 -0.0411  0.6483
  544MPD2    H5 8133   0.513   1.609  17.686  0.0170  1.2055  0.1200
  544MPD2    N1 8134   0.758   1.075  17.665 -0.4212  0.0233  0.2308
  544MPD2    H7 8135   0.774   0.994  17.724  3.4782  2.0294  1.9543
  545TMC3    C1 8136   0.929   0.982  17.542 -0.2481  0.1721  0.2903
  545TMC3    C2 8137   1.016   1.008  17.639  0.7338  0.0889 -0.3894
  545TMC3    C3 8138   1.145   1.002  17.610  0.2241  0.0774  0.2805
  545TMC3    C4 8139   0.969   0.941  17.418  0.3020 -1.0210 -0.0529
  545TMC3    C5 8140   1.099   0.905  17.397 -0.2589 -0.0307 -0.1195
  545TMC3    C6 8141   1.192   0.953  17.484 -0.6378 -0.4716 -0.4906
  545TMC3     C 8142   0.815   1.066  17.546 -0.5698 -0.3906 -0.1505
  545TMC3     O 8143   0.769   1.108  17.438  0.2157 -0.2278 -0.3744
  545TMC3     H 8144   0.984   1.040  17.738 -0.5713  4.2517 -2.1724
  545TMC3    H1 8145   0.899   0.914  17.340 -1.4291  1.4945  0.6254
  545TMC3    H2 8146   1.294   0.969  17.451 -0.2635 -0.7963  0.5061
  545TMC3    C7 8147   1.152   0.844  17.277 -0.4777 -0.0400 -0.0648
  545TMC3    C8 8148   1.237   1.068  17.703  0.3541 -0.4979  0.3253
  545TMC3    O1 8149   1.085   0.842  17.179  0.0545 -0.5670  0.5999
  545TMC3    O2 8150   1.195   1.126   0.066 -0.0484  0.2436 -0.0736
  546MPD2     C 8151   2.282   1.764  17.284  0.2381  0.7605 -0.0538
  546MPD2    C1 8152   2.291   1.775  17.144  0.0185  0.6680  0.9768
  546MPD2    C2 8153   2.348   1.892  17.092 -0.1787  0.8097 -0.2925
  546MPD2    C3 8154   2.396   1.991  17.171  0.3052 -1.1622 -0.5988
  546MPD2    C4 8155   2.381   1.974  17.307  0.6397  0.3251  0.6069
  546MPD2    C5 8156   2.329   1.862  17.364 -0.0509  1.0178 -0.3093
  546MPD2     H 8157   2.351   1.912  16.985 -4.3195 -0.7423 -0.7068
  546MPD2    H1 8158   2.416   2.048  17.378  2.0294  0.4238 -0.1741
  546MPD2    H2 8159   2.229   1.680  17.327 -0.8211  1.1128 -0.6539
  546MPD2    H3 8160   2.331   1.849  17.472  1.0271  1.3765 -0.2884
  546MPD2     N 8161   2.454   2.110  17.120 -0.3455  0.3995  0.0584
  546MPD2    H5 8162   2.496   2.175  17.186  0.3366 -0.0059  0.0205
  546MPD2    N1 8163   2.237   1.668  17.073 -0.0399  0.0578 -0.1177
  546MPD2    H7 8164   2.206   1.597  17.139  1.0097 -1.3342 -1.1271
  547TMC3    C1 8165   2.136   1.539  16.906  0.3586 -0.4726 -0.1435
  547TMC3    C2 8166   2.066   1.539  16.788 -0.8431  0.2358 -0.6311
  547TMC3    C3 8167   2.002   1.431  16.745 -0.4101 -0.7562  0.7241
  547TMC3    C4 8168   2.147   1.420  16.972  0.0155  0.3992 -0.3807
  547TMC3    C5 8169   2.087   1.305  16.921 -0.1173  0.3321 -0.9383
  547TMC3    C6 8170   2.013   1.310  16.804 -0.1774  0.0754  0.0105
  547TMC3     C 8171   2.204   1.672  16.941 -0.4406 -0.2997 -0.0202
  547TMC3     O 8172   2.199   1.773  16.872  0.0985 -0.2478 -0.6602
  547TMC3     H 8173   2.059   1.634  16.737  1.1415  1.5333  1.5006
  547TMC3    H1 8174   2.205   1.417  17.063  0.9889 -1.7608 -1.0801
  547TMC3    H2 8175   1.982   1.215  16.762  0.4191 -0.6690  1.2224
  547TMC3    C7 8176   2.018   1.224  17.021  0.0831 -0.6254 -0.5626
  547TMC3    C8 8177   1.866   1.469  16.724 -0.0494  0.9129  0.1411
  547TMC3    O1 8178   2.006   1.280  17.130  1.1319 -0.0104  0.0267
  547TMC3    O2 8179   1.843   1.558  16.643 -0.4903  0.1882 -0.4825
  548MPD2     C 8180   1.717   2.154  13.044  0.0768  0.7554 -0.5702
  548MPD2    C1 8181   1.648   2.057  12.972  0.0836 -0.2313 -0.7436
  548MPD2    C2 8182   1.720   1.986  12.878  0.0168  0.1932 -0.0054
  548MPD2    C3 8183   1.854   2.008  12.854  0.2254  0.1725  0.6977
  548MPD2    C4 8184   1.918   2.112  12.922 -0.7368  0.0521 -0.8806
  548MPD2    C5 8185   1.851   2.188  13.012  0.3546 -0.0102  0.6378
  548MPD2     H 8186   1.669   1.911  12.819 -1.9838  3.7902 -2.8271
  548MPD2    H1 8187   2.021   2.138  12.900 -1.3450  2.1192 -1.3282
  548MPD2    H2 8188   1.674   2.218  13.120 -0.3240 -0.0553 -0.1080
  548MPD2    H3 8189   1.895   2.269  13.068  0.0682  1.2777 -1.0200
  548MPD2     N 8190   1.920   1.927  12.749 -0.3658  0.6291 -0.5537
  548MPD2    H5 8191   1.862   1.867  12.692  0.8348  0.5689 -1.7020
  548MPD2    N1 8192   1.512   2.024  12.996  0.6632 -0.6904  0.0342
  548MPD2    H7 8193   1.468   2.091  13.058  1.7467 -0.5377  0.6317
  549TMC3    C1 8194   1.308   1.912  12.996  0.1886  0.7299  0.0681
  549TMC3    C2 8195   1.241   2.027  12.970 -0.0043 -0.3924 -1.2560
  549TMC3    C3 8196   1.104   2.027  12.954 -0.3242 -0.8071 -0.5367
  549TMC3    C4 8197   1.248   1.793  13.002  0.0077 -0.1670 -0.0983
  549TMC3    C5 8198   1.107   1.787  12.986  0.0032 -0.1855 -0.0303
  549TMC3    C6 8199   1.032   1.906  12.964  0.2329 -0.0458  0.4968
  549TMC3     C 8200   1.445   1.905  12.963 -0.1294  0.2964  0.0384
  549TMC3     O 8201   1.494   1.801  12.927  0.3111  0.3004 -0.1664
  549TMC3     H 8202   1.297   2.119  12.968 -0.1203 -0.2819  1.1603
  549TMC3    H1 8203   1.307   1.706  13.028 -1.5777 -0.8055  1.3499
  549TMC3    H2 8204   0.925   1.908  12.950  0.1549 -2.7688  0.8381
  549TMC3    C7 8205   1.028   1.662  12.993  0.3491  0.7305 -0.2777
  549TMC3    C8 8206   1.043   2.118  12.855 -0.1520 -0.7464  0.0859
  549TMC3    O1 8207   0.908   1.684  13.006  0.6906  0.1364 -0.2756
  549TMC3    O2 8208   0.919   2.115  12.855  0.1512  0.3319 -0.0107
  550TMC3    C1 8209   0.608   0.301  12.752  0.2136  0.1385 -0.3495
  550TMC3    C2 8210   0.539   0.346  12.860 -0.1634 -0.3043  0.0282
  550TMC3    C3 8211   0.409   0.315  12.867  0.4662  0.1913 -0.0772
  550TMC3    C4 8212   0.549   0.231  12.646 -0.2814 -0.4378 -0.5259
  550TMC3    C5 8213   0.412   0.222  12.642 -0.5060  0.0975  0.1777
  550TMC3    C6 8214   0.345   0.257  12.753  0.2552 -0.1313 -0.3307
  550TMC3     C 8215   0.760   0.290  12.769  0.3657  0.2720  0.6185
  550TMC3     O 8216   0.811   0.309  12.879 -0.3521  0.5243  0.2443
  550TMC3     H 8217   0.593   0.378  12.949 -1.3888  1.4821  0.1285
  550TMC3    H1 8218   0.604   0.189  12.563 -0.5680 -4.5694  1.3739
  550TMC3    H2 8219   0.237   0.262  12.738  0.2229 -2.4289 -0.8695
  550TMC3    C7 8220   0.331   0.172  12.524  0.5652 -0.4815  0.2480
  550TMC3    C8 8221   0.337   0.429  12.929  0.9019 -0.1037 -0.1197
  550TMC3    O1 8222   0.210   0.170  12.534 -0.0955  0.2629  0.0787
  550TMC3    O2 8223   0.387   0.541  12.911  0.7115 -0.1592 -0.4093
  551TMC3    C1 8224   2.614   2.686  13.452  0.2534  0.4225  0.1856
  551TMC3    C2 8225   2.711   2.667  13.357  0.9175 -0.1614  0.8530
  551TMC3    C3 8226   2.832   2.713  13.379 -0.1364  0.9683  0.5318
  551TMC3    C4 8227   2.635   2.754  13.571 -0.3507 -0.4942 -0.5745
  551TMC3    C5 8228   2.765   2.789  13.595 -0.2979  0.1549  0.2242
  551TMC3    C6 8229   2.864   2.770  13.500 -0.2416  1.0119 -0.1810
  551TMC3     C 8230   2.491   2.638  13.408 -0.4912  0.3822 -0.1425
  551TMC3     O 8231   2.487   2.546  13.332 -0.2618 -0.5434  0.0729
  551TMC3     H 8232   2.688   2.643  13.254  1.8923  0.4842  0.4888
  551TMC3    H1 8233   2.561   2.765  13.650  0.4323 -0.5007  0.1542
  551TMC3    H2 8234   2.967   2.794  13.523  0.0106  1.1447 -1.4630
  551TMC3    C7 8235   2.804   2.858  13.712 -0.1825  0.0301 -0.6680
  551TMC3    C8 8236   2.900   2.768  13.263 -0.2048  0.3539  0.8066
  551TMC3    O1 8237   2.915   2.836  13.758 -0.8225  1.3292 -0.3843
  551TMC3    O2 8238   2.869   2.727  13.153  0.4555  0.1760  0.1078
  552MPD2     C 8239   0.060   0.380  14.307  0.6797  0.4049  0.1318
  552MPD2    C1 8240   0.103   0.239  14.303  0.6525  0.2048  0.5678
  552MPD2    C2 8241   0.224   0.197  14.351 -0.0254 -0.4039  0.5793
  552MPD2    C3 8242   0.312   0.292  14.392 -0.2764  0.3176  0.4041
  552MPD2    C4 8243   0.279   0.424  14.382 -0.3124  0.4803  0.4623
  552MPD2    C5 8244   0.156   0.471  14.335 -0.7507 -0.2143  0.9893
  552MPD2     H 8245   0.243   0.091  14.344  1.3527 -0.3276  3.0660
  552MPD2    H1 8246   0.351   0.502  14.401 -0.9686  1.0722  0.4964
  552MPD2    H2 8247   4.695   0.413  14.280  0.8357 -0.7682 -1.8881
  552MPD2    H3 8248   0.135   0.577  14.330  0.2247 -0.0585  0.0501
  552MPD2     N 8249   0.431   0.253  14.463 -0.6991 -0.0901 -0.1641
  552MPD2    H5 8250   0.494   0.324  14.499 -0.9015  0.7687 -1.5010
  552MPD2    N1 8251   0.014   0.142  14.245  0.4357  0.0959 -0.0078
  552MPD2    H7 8252   0.042   0.046  14.259 -1.7645 -0.2455  2.0878
  553TMC3    C1 8253   4.603   0.032  14.104 -0.4647 -0.0726  0.7298
  553TMC3    C2 8254   4.605   0.018  13.969  0.6769  0.3312  0.3924
  553TMC3    C3 8255   4.586   4.631  13.929  0.3749 -0.2321 -0.3464
  553TMC3    C4 8256   4.566   4.672  14.191  0.2157  0.3299 -0.0853
  553TMC3    C5 8257   4.544   4.547  14.139 -0.7233 -0.3108 -0.1818
  553TMC3    C6 8258   4.555   4.525  14.008  0.4668  0.4821  0.0355
  553TMC3     C 8259   4.656   0.160  14.149  0.4009  0.1110 -0.1138
  553TMC3     O 8260   4.643   0.262  14.077 -0.2808 -0.4056 -0.0940
  553TMC3     H 8261   4.644   0.097  13.905  1.2309 -0.4274 -0.2062
  553TMC3    H1 8262   4.559   4.696  14.296  0.3952  0.3854 -0.0863
  553TMC3    H2 8263   4.536   4.426  13.968  0.2702 -0.0633  1.4789
  553TMC3    C7 8264   4.581   4.439  14.235  0.0805 -0.7925 -0.2671
  553TMC3    C8 8265   4.667   4.588  13.816 -0.5460  0.4118 -0.7980
  553TMC3    O1 8266   4.530   4.434  14.345 -0.1665 -0.3954  0.1233
  553TMC3    O2 8267   4.706   4.477  13.810  0.3774  0.0845  0.2674
  554TMC3    C1 8268   2.131   3.924  11.460 -0.5450 -0.4352 -0.0231
  554TMC3    C2 8269   2.032   3.864  11.381  0.0521 -0.1829 -0.6096
  554TMC3    C3 8270   2.025   3.897  11.252 -0.3250  0.0662  0.4751
  554TMC3    C4 8271   2.205   4.027  11.423  0.2518  0.1734 -0.3517
  554TMC3    C5 8272   2.205   4.048  11.288  0.4161 -0.5472  0.5928
  554TMC3    C6 8273   2.126   3.976  11.203 -0.4884  0.8211  0.1536
  554TMC3     C 8274   2.165   3.865  11.591 -0.4015  0.1896 -0.1630
  554TMC3     O 8275   2.226   3.935  11.676 -0.6554 -0.1625  0.5948
  554TMC3     H 8276   1.958   3.798  11.424 -0.4607  0.2116 -0.8776
  554TMC3    H1 8277   2.271   4.085  11.486  1.8108 -0.9291 -0.9817
  554TMC3    H2 8278   2.126   4.004  11.099 -0.1103  0.0433 -0.0619
  554TMC3    C7 8279   2.278   4.159  11.230  0.0187  0.0555  0.4477
  554TMC3    C8 8280   1.902   3.891  11.176 -0.1310 -0.3092 -0.2587
  554TMC3    O1 8281   2.326   4.159  11.117  0.2576  0.0034  0.2700
  554TMC3    O2 8282   1.909   3.933  11.065 -0.5139 -0.1844 -0.3309
  555TMC3    C1 8283   1.212   3.606  15.113  0.1051 -0.6672 -0.1653
  555TMC3    C2 8284   1.267   3.688  15.205  0.0438 -0.5928 -0.1768
  555TMC3    C3 8285   1.315   3.640  15.322 -0.5024 -0.5619 -0.0094
  555TMC3    C4 8286   1.198   3.477  15.149 -0.0552  0.7107 -0.2001
  555TMC3    C5 8287   1.231   3.436  15.274 -0.1846  0.2841 -0.6340
  555TMC3    C6 8288   1.294   3.513  15.364  0.4939 -0.0510 -0.2980
  555TMC3     C 8289   1.221   3.650  14.974 -0.1505 -0.1014 -0.0436
  555TMC3     O 8290   1.291   3.751  14.959  0.7048  0.6507  0.1555
  555TMC3     H 8291   1.280   3.794  15.187  0.2853 -0.9356 -1.9874
  555TMC3    H1 8292   1.168   3.407  15.072  2.0311 -0.8119  0.3750
  555TMC3    H2 8293   1.301   3.494  15.470  1.8638 -0.7814 -0.5211
  555TMC3    C7 8294   1.277   3.299  15.277  0.0776 -0.2142 -0.7340
  555TMC3    C8 8295   1.327   3.746  15.428  0.3436  1.1096 -0.1572
  555TMC3    O1 8296   1.209   3.217  15.212 -0.0437 -0.1816 -0.0361
  555TMC3    O2 8297   1.257   3.848  15.419 -0.1817 -0.7565  0.2108
  556MPD2     C 8298   3.161   0.408  10.611 -0.3035  0.2792  0.0706
  556MPD2    C1 8299   3.277   0.342  10.647  0.5372  0.2825 -0.0615
  556MPD2    C2 8300   3.362   0.297  10.552  0.4416 -0.1975 -0.1302
  556MPD2    C3 8301   3.331   0.318  10.416 -0.2279 -0.2442 -0.7359
  556MPD2    C4 8302   3.212   0.372  10.376  0.2150 -0.4200 -0.3549
  556MPD2    C5 8303   3.125   0.420  10.477 -0.9129  0.2813 -0.5296
  556MPD2     H 8304   3.458   0.268  10.593  0.0979 -0.0314  0.8040
  556MPD2    H1 8305   3.188   0.396  10.273 -0.1623 -1.0081 -0.4084
  556MPD2    H2 8306   3.091   0.458  10.678  0.0913  0.4562  0.3492
  556MPD2    H3 8307   3.038   0.477  10.448 -0.0761  2.0135  0.3592
  556MPD2     N 8308   3.429   0.275  10.325 -0.3270  0.2571  0.3721
  556MPD2    H5 8309   3.504   0.220  10.364  2.1351  2.4921 -1.1931
  556MPD2    N1 8310   3.302   0.315  10.783 -0.1722 -0.7069 -0.2830
  556MPD2    H7 8311   3.391   0.270  10.801 -1.6074 -3.9191 -1.2980
  557TMC3    C1 8312   3.554   0.237  10.130 -0.6035  0.0259 -0.3923
  557TMC3    C2 8313   3.526   0.152  10.019  0.7054  0.0685  0.0746
  557TMC3    C3 8314   3.607   0.037  10.016 -0.0290 -0.6801 -0.6328
  557TMC3    C4 8315   3.647   0.202  10.227 -0.1476  0.6119 -0.2849
  557TMC3    C5 8316   3.705   0.084  10.225  0.0714  0.5057  0.0496
  557TMC3    C6 8317   3.689   4.734  10.117 -0.8832  1.0493 -0.4137
  557TMC3     C 8318   3.435   0.301  10.189  0.3631  0.5818  0.3659
  557TMC3     O 8319   3.351   0.353  10.115  0.2051 -0.1800 -0.0473
  557TMC3     H 8320   3.473   0.190   9.933  2.9845 -1.5873 -2.0567
  557TMC3    H1 8321   3.678   0.270  10.306 -2.3181 -0.2306  1.2766
  557TMC3    H2 8322   3.736   4.636  10.119  1.0529  1.9973  0.3374
  557TMC3    C7 8323   3.659   0.023  10.346  0.0579  0.0580 -0.2629
  557TMC3    C8 8324   3.557   4.666   9.924  0.6370 -0.1769 -0.1225
  557TMC3    O1 8325   3.630   0.101  10.437  0.2765  0.4127 -0.4466
  557TMC3    O2 8326   3.500   4.712   9.832 -0.1398  1.0037  0.0756
  558TMC3    C1 8327   0.895   3.313   9.891  0.5275 -0.5351 -0.0844
  558TMC3    C2 8328   0.831   3.239   9.988 -0.2461 -0.6081  0.1707
  558TMC3    C3 8329   0.761   3.131   9.941  0.9424 -0.1175 -0.2724
  558TMC3    C4 8330   0.917   3.268   9.766  0.0401 -0.0717  0.6978
  558TMC3    C5 8331   0.836   3.167   9.719 -0.2648 -0.3728 -0.1785
  558TMC3    C6 8332   0.764   3.098   9.807  0.2136 -0.0496  0.4126
  558TMC3     C 8333   1.009   3.380   9.937  0.1185  0.0755 -0.1953
  558TMC3     O 8334   1.114   3.376   9.874  0.1282 -0.3817 -0.0567
  558TMC3     H 8335   0.829   3.263  10.094  1.5077  1.0871 -0.1824
  558TMC3    H1 8336   0.977   3.321   9.693 -0.0272 -1.5613 -0.4343
  558TMC3    H2 8337   0.701   3.016   9.774 -0.6078 -0.0522  1.9886
  558TMC3    C7 8338   0.881   3.109   9.587  0.0707 -0.3219 -0.8423
  558TMC3    C8 8339   0.663   3.069  10.019  0.0142  0.4294 -0.1877
  558TMC3    O1 8340   0.961   3.181   9.523 -0.0567 -0.0681  0.3033
  558TMC3    O2 8341   0.559   3.036   9.958 -0.0362  0.4929  0.2484
  559MPD2     C 8342   1.222   3.836  10.523 -0.9193 -0.6151  0.1181
  559MPD2    C1 8343   1.220   3.804  10.656  0.6339 -0.6771  0.0506
  559MPD2    C2 8344   1.326   3.742  10.716 -0.7693  0.2989 -0.0704
  559MPD2    C3 8345   1.433   3.702  10.635 -0.9095  0.0956  0.5191
  559MPD2    C4 8346   1.437   3.735  10.500 -0.1826  0.0273  0.4288
  559MPD2    C5 8347   1.330   3.802  10.444  0.2168  0.2352 -0.0556
  559MPD2     H 8348   1.330   3.718  10.822  0.3516 -0.0804 -0.2028
  559MPD2    H1 8349   1.518   3.711  10.431  0.3035 -2.1544  1.7470
  559MPD2    H2 8350   1.139   3.894  10.485 -1.8701 -0.2485  2.7925
  559MPD2    H3 8351   1.327   3.822  10.337  1.1883  1.6290  0.1792
  559MPD2     N 8352   1.535   3.623  10.700 -0.2563  0.0009 -0.4570
  559MPD2    H5 8353   1.514   3.588  10.793  2.2724  1.3113  0.5814
  559MPD2    N1 8354   1.098   3.832  10.722  0.1772 -0.6800 -0.2644
  559MPD2    H7 8355   1.032   3.878  10.660  1.5313  0.3544 -0.9114
  560TMC3    C1 8356   1.720   3.488  10.715  0.0449  0.5828 -0.1338
  560TMC3    C2 8357   1.626   3.382  10.744 -0.1797  0.7224 -0.1905
  560TMC3    C3 8358   1.638   3.315  10.863 -1.1948 -0.1381 -0.4980
  560TMC3    C4 8359   1.801   3.533  10.813 -0.2811 -0.2817  0.2529
  560TMC3    C5 8360   1.818   3.458  10.928 -0.8169  0.0597  0.1542
  560TMC3    C6 8361   1.747   3.337  10.944  0.5246  0.8073  0.4294
  560TMC3     C 8362   1.651   3.588  10.639  0.0253 -0.0857  0.3827
  560TMC3     O 8363   1.710   3.641  10.543  0.9156 -0.7968  0.1799
  560TMC3     H 8364   1.541   3.368  10.678 -0.4283 -0.1838  0.3157
  560TMC3    H1 8365   1.838   3.635  10.806 -0.5314 -0.3098 -1.4516
  560TMC3    H2 8366   1.757   3.284  11.038 -0.0460  1.5463  0.9061
  560TMC3    C7 8367   1.911   3.486  11.033 -0.1935 -0.0636  0.0876
  560TMC3    C8 8368   1.520   3.238  10.904 -0.2317 -0.2622  0.2697
  560TMC3    O1 8369   1.873   3.470  11.149 -0.2943  0.1315 -0.3270
  560TMC3    O2 8370   1.433   3.224  10.815 -0.2926  0.4052 -0.1994
  561TMC3    C1 8371   4.155   2.362  11.474  0.0357  0.5994  0.2408
  561TMC3    C2 8372   4.085   2.305  11.577 -0.4372 -0.5890  0.1445
  561TMC3    C3 8373   4.007   2.382  11.657 -0.2533  0.0094  0.7530
  561TMC3    C4 8374   4.141   2.498  11.456  0.0605  0.4978 -0.5432
  561TMC3    C5 8375   4.060   2.570  11.533 -0.6737  0.9528  0.2700
  561TMC3    C6 8376   4.004   2.520  11.649  0.5992 -0.3051 -0.0747
  561TMC3     C 8377   4.237   2.280  11.383  0.0918  1.0145 -0.6101
  561TMC3     O 8378   4.269   2.164  11.414 -0.5045  0.4612 -0.4698
  561TMC3     H 8379   4.082   2.197  11.589 -0.6328 -0.3821  2.0516
  561TMC3    H1 8380   4.186   2.544  11.369 -0.0699  0.4858 -0.6167
  561TMC3    H2 8381   3.940   2.580  11.712  1.4065  3.0407 -2.4476
  561TMC3    C7 8382   4.033   2.716  11.514  0.4908  0.0434 -0.2398
  561TMC3    C8 8383   3.921   2.317  11.755  0.7919 -0.0474 -0.3596
  561TMC3    O1 8384   3.919   2.754  11.550 -0.3879  0.3773  0.2678
  561TMC3    O2 8385   3.962   2.212  11.792  0.6906 -0.6306  0.3037
  562TMC3    C1 8386   1.181   3.730  16.252 -1.1354 -0.0185  1.0889
  562TMC3    C2 8387   1.069   3.804  16.244  0.5486 -0.6004  0.1538
  562TMC3    C3 8388   1.004   3.813  16.124  0.3677  0.4316  0.1897
  562TMC3    C4 8389   1.221   3.651  16.148 -0.1042  0.1601  0.0966
  562TMC3    C5 8390   1.141   3.644  16.036  1.0669 -0.5434 -0.2156
  562TMC3    C6 8391   1.037   3.728  16.020 -0.1697 -0.4355  0.2499
  562TMC3     C 8392   1.244   3.712  16.376 -0.5855 -0.0353 -0.3463
  562TMC3     O 8393   1.274   3.593  16.405 -0.1446 -0.3896  0.0871
  562TMC3     H 8394   1.049   3.878  16.322  0.0712 -0.9413  0.3554
  562TMC3    H1 8395   1.317   3.600  16.151  0.4722  1.2976  0.9285
  562TMC3    H2 8396   0.973   3.703  15.936  0.5673  1.0738 -0.7424
  562TMC3    C7 8397   1.169   3.548  15.931  0.0813  0.2596 -0.4272
  562TMC3    C8 8398   0.892   3.897  16.108  0.2771 -0.3105  0.0556
  562TMC3    O1 8399   1.113   3.565  15.824  0.2837 -0.3444 -0.6608
  562TMC3    O2 8400   0.859   3.947  16.214  0.1344  0.1075  0.0890
  563MPD2     C 8401   3.453   0.070  15.517 -0.1085 -0.1858  0.0971
  563MPD2    C1 8402   3.496   0.154  15.620 -0.3914 -0.7945  0.0777
  563MPD2    C2 8403   3.629   0.141  15.657 -0.7967  0.9563 -0.1610
  563MPD2    C3 8404   3.716   0.050  15.596  0.1948 -0.1120  0.0451
  563MPD2    C4 8405   3.680   4.715  15.481  0.1242 -0.1477 -0.2157
  563MPD2    C5 8406   3.546   4.727  15.444 -0.7064 -0.2192 -0.2559
  563MPD2     H 8407   3.664   0.204  15.738 -0.4889  0.2737  0.2311
  563MPD2    H1 8408   3.737   4.636  15.432 -0.3725 -0.0048 -1.0225
  563MPD2    H2 8409   3.346   0.068  15.500  0.4331  1.6298 -3.6096
  563MPD2    H3 8410   3.512   4.657  15.368 -0.5722  0.4982 -0.9744
  563MPD2     N 8411   3.838   0.026  15.664  0.4204 -0.3851 -0.4958
  563MPD2    H5 8412   3.847   0.073  15.754  1.3031 -0.7770 -0.3728
  563MPD2    N1 8413   3.406   0.239  15.681  0.0963 -0.0065 -0.3848
  563MPD2    H7 8414   3.312   0.247  15.645 -0.3680 -4.0909 -0.1392
  564TMC3    C1 8415   3.312   0.356  15.856 -0.1193 -0.3316  1.0344
  564TMC3    C2 8416   3.201   0.389  15.792 -0.3716 -1.1829  0.5533
  564TMC3    C3 8417   3.083   0.365  15.853  0.6551 -0.2175 -0.2846
  564TMC3    C4 8418   3.316   0.305  15.981 -0.6133  0.0091  0.2639
  564TMC3    C5 8419   3.197   0.273  16.042  0.1822  0.6982 -0.4443
  564TMC3    C6 8420   3.079   0.304  15.979 -0.1798  0.3329  0.4979
  564TMC3     C 8421   3.433   0.310  15.795  0.2257  0.5536 -0.4976
  564TMC3     O 8422   3.539   0.335  15.853  0.4106 -0.4146 -0.4996
  564TMC3     H 8423   3.214   0.425  15.691  2.5098 -1.4526  0.8333
  564TMC3    H1 8424   3.403   0.249  16.014 -1.1578 -0.7669  0.3724
  564TMC3    H2 8425   2.988   0.294  16.037 -0.1848 -0.0320  0.4276
  564TMC3    C7 8426   3.186   0.130  16.068  0.1518 -0.8070  0.0002
  564TMC3    C8 8427   2.968   0.335  15.775  0.4566 -0.5575  0.8233
  564TMC3    O1 8428   3.091   0.084  16.014 -0.0584  0.8050 -0.5838
  564TMC3    O2 8429   2.927   0.412  15.687 -0.2801 -0.1423  0.1422
  565TMC3    C1 8430   3.230   1.785  10.413  0.1109  0.0165  0.5642
  565TMC3    C2 8431   3.289   1.788  10.536  0.1551 -0.2628  0.6292
  565TMC3    C3 8432   3.254   1.695  10.628  0.0777 -0.2089  0.5861
  565TMC3    C4 8433   3.142   1.685  10.380 -0.9400 -0.7708  0.5633
  565TMC3    C5 8434   3.104   1.594  10.478  0.2353 -0.6805  0.1095
  565TMC3    C6 8435   3.160   1.602  10.606 -0.7920  0.5688  0.2437
  565TMC3     C 8436   3.261   1.898  10.327 -0.2658  0.3532 -0.2518
  565TMC3     O 8437   3.340   1.981  10.368  0.0590  0.1097 -0.3615
  565TMC3     H 8438   3.376   1.849  10.555  1.4588 -2.0191  0.2673
  565TMC3    H1 8439   3.085   1.680  10.288  2.1065  1.5456 -1.4215
  565TMC3    H2 8440   3.165   1.518  10.674  1.0195  0.9303  0.5584
  565TMC3    C7 8441   3.004   1.489  10.454 -0.1670 -0.2300  0.1875
  565TMC3    C8 8442   3.350   1.659  10.732 -0.0016 -0.0658  0.0362
  565TMC3    O1 8443   2.976   1.472  10.337  0.2761 -0.2089 -0.1828
  565TMC3    O2 8444   3.391   1.543  10.727 -0.8400 -0.5619 -0.0226
  566MPD2     C 8445   0.459   3.273  14.613  0.5847 -0.0152 -0.1696
  566MPD2    C1 8446   0.471   3.229  14.482 -0.4778 -0.2684  0.4952
  566MPD2    C2 8447   0.356   3.195  14.406 -1.2457  0.2222  0.7056
  566MPD2    C3 8448   0.228   3.221  14.455 -0.1894  0.1502 -0.0218
  566MPD2    C4 8449   0.215   3.248  14.592  0.0005  0.0171 -0.0696
  566MPD2    C5 8450   0.328   3.279  14.665  0.1046  0.0750  0.5708
  566MPD2     H 8451   0.364   3.157  14.305  1.9706  2.5436  0.0866
  566MPD2    H1 8452   0.117   3.251  14.640  0.2316  1.2699  0.3222
  566MPD2    H2 8453   0.534   3.309  14.682  0.9419 -0.4965 -0.2996
  566MPD2    H3 8454   0.305   3.318  14.763 -2.6389 -3.0480  1.1777
  566MPD2     N 8455   0.120   3.224  14.359  0.4687 -0.2649  0.4299
  566MPD2    H5 8456   0.131   3.190  14.264  0.1135  1.1583 -0.1159
  566MPD2    N1 8457   0.601   3.220  14.424  0.4596  0.3724  0.2517
  566MPD2    H7 8458   0.684   3.228  14.482 -0.5100  0.9842  1.5524
  567TMC3    C1 8459   0.767   3.226  14.253  0.2128 -0.4123 -0.3770
  567TMC3    C2 8460   0.787   3.262  14.125  0.1911  0.2184  0.1524
  567TMC3    C3 8461   0.894   3.344  14.087 -0.5895  0.2054  0.1549
  567TMC3    C4 8462   0.869   3.254  14.348 -0.2182  0.5613 -0.7598
  567TMC3    C5 8463   0.975   3.331  14.306  0.0769  0.3118 -0.2000
  567TMC3    C6 8464   0.992   3.383  14.175 -0.1867  0.5590 -0.7601
  567TMC3     C 8465   0.627   3.203  14.290  0.2764 -0.0909 -0.0348
  567TMC3     O 8466   0.555   3.187  14.191 -0.3151  0.0817  0.2004
  567TMC3     H 8467   0.710   3.247  14.050 -0.5790  2.6072  0.4695
  567TMC3    H1 8468   0.862   3.220  14.451  0.0904 -1.1605 -1.3127
  567TMC3    H2 8469   1.068   3.455  14.145 -0.0203  1.9575  2.9508
  567TMC3    C7 8470   1.086   3.340  14.393  0.5347 -0.4853  0.5425
  567TMC3    C8 8471   0.863   3.427  13.973 -0.7004 -0.5006  0.5571
  567TMC3    O1 8472   1.159   3.439  14.385 -0.5541 -0.2082  0.0537
  567TMC3    O2 8473   0.747   3.426  13.928 -0.4477  0.0375  0.0083
  568MPD2     C 8474   2.747   3.539  15.920  0.3417  0.7017 -0.2705
  568MPD2    C1 8475   2.765   3.583  16.044 -0.6602 -1.0582  0.3112
  568MPD2    C2 8476   2.711   3.707  16.081  1.0636  0.3904 -0.4534
  568MPD2    C3 8477   2.635   3.781  15.993  0.3715 -0.0497  0.0651
  568MPD2    C4 8478   2.611   3.730  15.873  0.2426  0.0869 -0.9086
  568MPD2    C5 8479   2.662   3.611  15.837  0.0760 -0.1803  0.6353
  568MPD2     H 8480   2.723   3.756  16.177  0.9741  0.2909 -0.3915
  568MPD2    H1 8481   2.546   3.779  15.802 -0.6778 -0.9891 -0.8160
  568MPD2    H2 8482   2.795   3.448  15.886  0.9218  0.6557  0.6705
  568MPD2    H3 8483   2.639   3.567  15.741 -0.6512 -0.0885  0.7657
  568MPD2     N 8484   2.595   3.907  16.037 -0.2878  0.0716 -0.4771
  568MPD2    H5 8485   2.591   3.918  16.138  0.3849  3.2629 -0.7947
  568MPD2    N1 8486   2.847   3.510  16.130  0.5193  0.6661  0.3239
  568MPD2    H7 8487   2.873   3.419  16.094 -2.4295  0.2177 -0.6092
  569TMC3    C1 8488   2.569   4.141  16.037 -0.3884 -0.8410 -0.5070
  569TMC3    C2 8489   2.663   4.150  16.132  0.3301 -0.4343 -0.3276
  569TMC3    C3 8490   2.709   4.266  16.181  0.0075 -0.1768  0.3471
  569TMC3    C4 8491   2.519   4.254  15.981 -0.3263  0.2033 -0.6404
  569TMC3    C5 8492   2.584   4.375  16.015 -0.5469 -0.0020 -0.4077
  569TMC3    C6 8493   2.684   4.385  16.112 -0.5280 -0.3362  0.5405
  569TMC3     C 8494   2.545   4.019  15.971 -0.5205 -0.4987  0.2464
  569TMC3     O 8495   2.496   4.023  15.858 -0.4350  0.0721 -0.0624
  569TMC3     H 8496   2.693   4.060  16.185 -0.1432  0.2860  1.1599
  569TMC3    H1 8497   2.451   4.247  15.896  1.3656  0.2023 -1.9833
  569TMC3    H2 8498   2.734   4.478  16.134  1.5000 -1.6316  1.4946
  569TMC3    C7 8499   2.557   4.488  15.926 -0.0066 -0.1714 -0.3056
  569TMC3    C8 8500   2.785   4.253  16.304  0.2948 -0.3779 -0.3430
  569TMC3    O1 8501   2.459   4.482  15.853 -0.2449  0.3938 -0.0848
  569TMC3    O2 8502   2.761   4.150  16.366  0.2754 -0.9014  0.0150
  570TMC3    C1 8503   2.406   2.496  15.975 -0.2723  0.2751 -0.2857
  570TMC3    C2 8504   2.471   2.492  15.854  0.2929  0.2247  0.3369
  570TMC3    C3 8505   2.580   2.575  15.836  0.0383 -0.9590 -0.1219
  570TMC3    C4 8506   2.444   2.588  16.069  0.0219  0.1097  0.4432
  570TMC3    C5 8507   2.551   2.667  16.047 -0.5256 -0.0175 -0.5419
  570TMC3    C6 8508   2.621   2.668  15.930  0.0733  0.2339  0.5198
  570TMC3     C 8509   2.312   2.395  16.012  0.0306 -0.6047  0.0926
  570TMC3     O 8510   2.257   2.337  15.925  0.4310  0.5402 -0.2010
  570TMC3     H 8511   2.440   2.413  15.786  2.3784 -0.7351  0.5034
  570TMC3    H1 8512   2.371   2.615  16.144  0.0182 -1.5283  1.0322
  570TMC3    H2 8513   2.703   2.736  15.911 -0.7084  1.5216  1.7687
  570TMC3    C7 8514   2.555   2.783  16.131  0.2965  0.6798 -0.7367
  570TMC3    C8 8515   2.663   2.569  15.718  0.1022  0.5175 -0.3605
  570TMC3    O1 8516   2.519   2.771  16.246  0.5899  0.1929  0.0620
  570TMC3    O2 8517   2.777   2.608  15.732  0.1743 -0.1369  0.3678
  571MPD2     C 8518   4.357   4.248   0.108  0.8119  0.1899  0.2319
  571MPD2    C1 8519   4.449   4.164   0.169  0.1872  0.5822 -0.3842
  571MPD2    C2 8520   4.580   4.215   0.174 -0.1439 -0.1211  0.7415
  571MPD2    C3 8521   4.613   4.342   0.128  0.0700 -0.4565 -0.2495
  571MPD2    C4 8522   4.514   4.418   0.071 -0.3779  0.3675  0.3183
  571MPD2    C5 8523   4.388   4.370   0.059 -0.4892 -0.3105 -0.9315
  571MPD2     H 8524   4.657   4.147   0.207  0.7561  1.0974  1.1333
  571MPD2    H1 8525   4.537   4.517   0.032  2.6610  0.0515  1.3162
  571MPD2    H2 8526   4.258   4.207   0.096  1.5134 -0.7752 -2.4429
  571MPD2    H3 8527   4.313   4.435   0.014 -0.9523 -0.2856 -0.1233
  571MPD2     N 8528   0.006   4.395   0.143 -0.2462 -0.3348 -0.5537
  571MPD2    H5 8529   0.023   4.491   0.115  2.4065 -0.8544 -0.6972
  571MPD2    N1 8530   4.401   4.040   0.219 -0.2529  0.2814 -0.4137
  571MPD2    H7 8531   4.302   4.026   0.199 -0.2416  0.1210 -0.3592
  572TMC3    C1 8532   0.224   4.419   0.216  0.4412 -0.0258  0.2599
  572TMC3    C2 8533   0.315   4.391   0.317  0.3437  0.0069  0.1714
  572TMC3    C3 8534   0.382   4.503   0.374 -0.3351 -0.4302  0.1170
  572TMC3    C4 8535   0.232   4.542   0.152  0.0239 -0.4096  0.3443
  572TMC3    C5 8536   0.308   4.645   0.211 -0.0840  0.0383 -0.2920
  572TMC3    C6 8537   0.377   4.624   0.322  0.2456  0.3966 -0.3676
  572TMC3     C 8538   0.113   4.328   0.193 -0.4695  0.2213  0.3856
  572TMC3     O 8539   0.131   4.212   0.240 -0.0931 -0.1353 -0.0285
  572TMC3     H 8540   0.313   4.302   0.378 -2.5626  1.4290  2.1298
  572TMC3    H1 8541   0.163   4.559   0.070  1.4599  1.9149 -0.3685
  572TMC3    H2 8542   0.407   4.710   0.380  0.3684 -0.0677  0.2564
  572TMC3    C7 8543   0.264   0.047   0.172 -0.7903 -0.5184  0.2154
  572TMC3    C8 8544   0.387   4.511   0.520  0.1616  0.5103 -0.2790
  572TMC3    O1 8545   0.151   0.048   0.118 -0.2769  0.3718  0.6824
  572TMC3    O2 8546   0.471   4.579   0.577 -0.0155  0.4542  0.0502
  573MPD2     C 8547   1.982   0.904   0.327 -0.1310 -0.2160 -0.2933
  573MPD2    C1 8548   1.880   0.812   0.299 -0.2237 -0.2455 -1.2790
  573MPD2    C2 8549   1.901   0.728   0.198  0.5208 -0.0811  0.3455
  573MPD2    C3 8550   2.012   0.739   0.111 -0.4497 -0.1259  0.2427
  573MPD2    C4 8551   2.114   0.824   0.147 -0.6351 -0.2337  0.3823
  573MPD2    C5 8552   2.098   0.903   0.258 -0.5876 -0.1605  0.5622
  573MPD2     H 8553   1.820   0.662   0.169  0.1592  0.7664 -0.5791
  573MPD2    H1 8554   2.208   0.830   0.093 -1.1771 -0.5275 -0.6141
  573MPD2    H2 8555   1.973   0.966   0.415  0.1239 -1.0585  0.3296
  573MPD2    H3 8556   2.174   0.972   0.290  2.2563 -3.5983  1.1643
  573MPD2     N 8557   2.022   0.665  17.724  0.2246 -0.4295  0.2721
  573MPD2    H5 8558   2.106   0.675  17.667  0.5621 -1.2661  0.6101
  573MPD2    N1 8559   1.765   0.823   0.376  0.1951 -0.2818 -0.8365
  573MPD2    H7 8560   1.748   0.909   0.427 -4.6224 -0.5159 -2.0156
  574TMC3    C1 8561   1.946   0.530  17.534  0.5202  0.5582  0.2507
  574TMC3    C2 8562   1.839   0.500  17.451  0.4011  0.4006 -0.1578
  574TMC3    C3 8563   1.860   0.445  17.326 -0.4000 -0.2221  0.2271
  574TMC3    C4 8564   2.070   0.496  17.491  1.1483  0.0069 -0.6330
  574TMC3    C5 8565   2.092   0.444  17.368 -0.4186 -0.2203 -0.3931
  574TMC3    C6 8566   1.986   0.405  17.292 -0.3768  0.1614 -0.0981
  574TMC3     C 8567   1.925   0.581  17.671  0.4760 -0.3382 -0.1079
  574TMC3     O 8568   1.820   0.543  17.721  0.7356 -0.5673  0.0852
  574TMC3     H 8569   1.740   0.525  17.486 -0.3409 -2.8309  0.0735
  574TMC3    H1 8570   2.158   0.518  17.551 -0.0233 -1.3649  1.6074
  574TMC3    H2 8571   2.000   0.363  17.194 -1.8432  0.7369 -0.5618
  574TMC3    C7 8572   2.229   0.419  17.316 -0.6584  0.3256  0.2891
  574TMC3    C8 8573   1.761   0.470  17.218 -0.1824  0.2031 -0.0781
  574TMC3    O1 8574   2.319   0.390  17.393 -0.1408  0.2638  0.3128
  574TMC3    O2 8575   1.796   0.476  17.102  0.0701  0.4515 -0.8616
  575TMC3    C1 8576   4.024   1.296  11.115  0.1623 -0.1539 -0.0709
  575TMC3    C2 8577   4.022   1.159  11.132 -0.6647 -0.8079  0.1986
  575TMC3    C3 8578   3.903   1.100  11.138 -0.2675  0.0478 -0.8721
  575TMC3    C4 8579   3.910   1.371  11.126  0.1628 -0.5819 -0.2095
  575TMC3    C5 8580   3.791   1.310  11.133  0.3527 -0.5127 -0.1952
  575TMC3    C6 8581   3.787   1.172  11.128  0.2806  0.4856  0.0211
  575TMC3     C 8582   4.151   1.357  11.093  0.0612 -0.4706 -0.0132
  575TMC3     O 8583   4.244   1.294  11.045  0.2398  0.6932  0.5686
  575TMC3     H 8584   4.116   1.108  11.120 -0.6287 -0.6228 -0.2860
  575TMC3    H1 8585   3.921   1.476  11.098 -0.3899  0.1135  2.2070
  575TMC3    H2 8586   3.694   1.118  11.137  0.1210  0.2194 -3.2546
  575TMC3    C7 8587   3.691   1.384  11.070  0.1306 -0.9397 -0.0481
  575TMC3    C8 8588   3.899   0.957  11.117 -0.3929 -0.2967  0.0552
  575TMC3    O1 8589   3.621   1.326  10.985  0.5276 -0.4141 -0.2563
  575TMC3    O2 8590   3.986   0.916  11.042  0.0320  0.3706 -0.2126
  576MPD2     C 8591   2.852   2.781  12.619 -0.0030  0.0472 -0.4907
  576MPD2    C1 8592   2.926   2.885  12.572  0.1885 -0.4925  0.2714
  576MPD2    C2 8593   2.920   3.009  12.636  0.1766  0.0428  0.2187
  576MPD2    C3 8594   2.837   3.033  12.743  0.3127 -0.7599  0.6341
  576MPD2    C4 8595   2.749   2.931  12.777  0.8280 -0.3049  0.1488
  576MPD2    C5 8596   2.757   2.816  12.712 -0.7739  0.9211  0.2911
  576MPD2     H 8597   2.980   3.091  12.598  0.7330 -1.3393 -1.8730
  576MPD2    H1 8598   2.683   2.939  12.863 -2.1156  0.0365 -2.1353
  576MPD2    H2 8599   2.859   2.679  12.584  1.4583  0.4560 -1.3949
  576MPD2    H3 8600   2.693   2.734  12.742  2.8115 -3.0460 -2.7617
  576MPD2     N 8601   2.840   3.164  12.803  0.6005  0.0038 -0.3595
  576MPD2    H5 8602   2.915   3.225  12.771  0.3430 -0.2466 -1.4546
  576MPD2    N1 8603   3.011   2.868  12.459  0.3197  0.1951  0.2658
  576MPD2    H7 8604   3.033   2.950  12.404 -1.1312  0.4953  0.1398
  577TMC3    C1 8605   3.140   2.738  12.309  0.4761 -0.2874 -0.3703
  577TMC3    C2 8606   3.208   2.625  12.292  0.4649 -0.5426 -0.2044
  577TMC3    C3 8607   3.274   2.602  12.170  0.0578 -0.1256  0.0950
  577TMC3    C4 8608   3.124   2.832  12.210  0.1579 -0.2343 -0.0949
  577TMC3    C5 8609   3.177   2.804  12.086  0.5821  0.0180 -0.1439
  577TMC3    C6 8610   3.247   2.688  12.069  0.4453 -0.4005  0.4429
  577TMC3     C 8611   3.072   2.748  12.433 -0.3212  0.6295  0.7625
  577TMC3     O 8612   3.081   2.653  12.507  0.5080 -0.6908  0.0850
  577TMC3     H 8613   3.206   2.544  12.365  1.0526 -2.2460 -2.0636
  577TMC3    H1 8614   3.071   2.925  12.224  0.2713 -0.0193 -1.0826
  577TMC3    H2 8615   3.264   2.647  11.970 -1.4945  1.2463 -0.5747
  577TMC3    C7 8616   3.173   2.907  11.981 -0.6057 -0.0622 -0.5466
  577TMC3    C8 8617   3.354   2.483  12.167 -0.4444  0.2314 -0.1383
  577TMC3    O1 8618   3.090   2.994  11.989 -0.0189 -0.8079  0.0897
  577TMC3    O2 8619   3.343   2.398  12.260  0.6505  0.5658  0.2341
  578MPD2     C 8620   1.290   3.216   0.060  0.5131 -0.2485 -0.4139
  578MPD2    C1 8621   1.417   3.207   0.102 -0.3306 -0.3999 -0.0629
  578MPD2    C2 8622   1.445   3.142   0.225 -0.5350  0.5726  0.5983
  578MPD2    C3 8623   1.342   3.093   0.304  0.7137  0.0187 -0.0565
  578MPD2    C4 8624   1.214   3.114   0.262 -0.3327 -0.6079  0.5188
  578MPD2    C5 8625   1.189   3.175   0.141  0.7322 -0.0927 -0.0297
  578MPD2     H 8626   1.545   3.128   0.265  0.4415 -0.7401 -2.3634
  578MPD2    H1 8627   1.129   3.077   0.320 -1.4614  1.3398  0.1036
  578MPD2    H2 8628   1.261   3.278  17.715  1.6089  1.0719  0.1852
  578MPD2    H3 8629   1.088   3.200   0.109  0.4128  1.4291  2.1688
  578MPD2     N 8630   1.371   3.023   0.419 -0.1878 -0.5333 -0.1555
  578MPD2    H5 8631   1.468   3.003   0.440 -0.4230  0.4508  1.8523
  578MPD2    N1 8632   1.513   3.256   0.015  0.2176  0.1594 -0.1458
  578MPD2    H7 8633   1.497   3.293  17.660  1.6279 -1.6388 -1.1008
  579TMC3    C1 8634   1.348   2.950   0.634 -0.1529 -0.1689 -0.3953
  579TMC3    C2 8635   1.327   3.006   0.755 -0.4434 -0.0249  0.9569
  579TMC3    C3 8636   1.420   2.968   0.848  0.9537 -0.5579  0.2888
  579TMC3    C4 8637   1.442   2.849   0.607  0.0132 -0.6107  0.1352
  579TMC3    C5 8638   1.527   2.810   0.708 -0.0603 -0.1329  0.3025
  579TMC3    C6 8639   1.515   2.867   0.833  0.0469  0.3167 -0.0164
  579TMC3     C 8640   1.283   3.016   0.522 -0.5750 -0.2268  0.1498
  579TMC3     O 8641   1.174   3.065   0.541 -0.4156 -0.1993  0.4526
  579TMC3     H 8642   1.252   3.082   0.771 -0.0767  0.3595  0.8423
  579TMC3    H1 8643   1.447   2.812   0.505  0.0957  0.3642 -0.2219
  579TMC3    H2 8644   1.567   2.828   0.920  1.3337 -0.2607 -1.0520
  579TMC3    C7 8645   1.609   2.686   0.704  0.5460  0.4275  0.2192
  579TMC3    C8 8646   1.413   3.024   0.977  0.7874 -0.5641 -0.7424
  579TMC3    O1 8647   1.698   2.671   0.784 -0.0865  0.2245  0.3984
  579TMC3    O2 8648   1.310   3.080   1.009  0.5165 -0.0044  0.3667
  580TMC3    C1 8649   1.104   1.945  12.433 -0.1360 -0.7628  0.2717
  580TMC3    C2 8650   1.200   2.023  12.493  0.0999 -0.1700 -0.1804
  580TMC3    C3 8651   1.288   1.956  12.573  0.7390 -0.1748  0.1053
  580TMC3    C4 8652   1.090   1.815  12.455  0.3552  0.4435  0.2388
  580TMC3    C5 8653   1.181   1.754  12.531 -0.1729  0.5273 -0.1938
  580TMC3    C6 8654   1.279   1.818  12.593 -1.0868 -0.2001 -0.7932
  580TMC3     C 8655   1.028   2.020  12.340 -0.5778  0.5970 -0.3152
  580TMC3     O 8656   1.085   2.116  12.287 -0.5395  0.0978  0.1045
  580TMC3     H 8657   1.210   2.128  12.469  0.3384 -0.4191 -1.1705
  580TMC3    H1 8658   1.019   1.760  12.395  1.8769 -0.3509 -0.8377
  580TMC3    H2 8659   1.352   1.770  12.657 -1.9353  2.0875  1.9100
  580TMC3    C7 8660   1.202   1.607  12.523  0.5270  0.5840 -0.6458
  580TMC3    C8 8661   1.415   2.026  12.581  0.1345 -1.1135  0.0437
  580TMC3    O1 8662   1.266   1.550  12.613  0.3814 -0.0818  0.0016
  580TMC3    O2 8663   1.445   2.082  12.685 -0.0446  0.0583 -0.1080
  581MPD2     C 8664   4.296   1.386  14.696 -0.4418 -0.3070 -0.7625
  581MPD2    C1 8665   4.170   1.346  14.744 -0.4293  0.0371 -0.0105
  581MPD2    C2 8666   4.064   1.434  14.756 -0.8279 -0.3509 -0.1634
  581MPD2    C3 8667   4.083   1.566  14.731 -0.9348 -0.5321 -0.8088
  581MPD2    C4 8668   4.210   1.610  14.698 -0.3306 -0.2176 -1.2204
  581MPD2    C5 8669   4.312   1.521  14.675  0.2659  0.0755 -0.6193
  581MPD2     H 8670   3.967   1.392  14.782 -0.3331 -0.9412  0.7382
  581MPD2    H1 8671   4.238   1.714  14.686  1.6211 -0.7380 -1.2797
  581MPD2    H2 8672   4.373   1.310  14.684  0.3133  0.6046 -1.5926
  581MPD2    H3 8673   4.407   1.557  14.635  0.0114  0.7436 -0.6246
  581MPD2     N 8674   3.978   1.651  14.756  0.1135  0.1718 -0.1195
  581MPD2    H5 8675   3.893   1.609  14.792  1.4780 -3.1497 -0.7510
  581MPD2    N1 8676   4.160   1.204  14.775  1.0137 -0.6994  0.5658
  581MPD2    H7 8677   4.240   1.144  14.759  0.6075 -0.5011 -2.2739
  582TMC3    C1 8678   4.071   0.994  14.840 -0.2756  0.6600 -0.2148
  582TMC3    C2 8679   4.175   0.963  14.927 -0.3061  0.0312 -0.4153
  582TMC3    C3 8680   4.159   0.889  15.040  0.4103 -0.3600 -0.1992
  582TMC3    C4 8681   3.946   0.942  14.863 -0.5042 -0.5501  0.4948
  582TMC3    C5 8682   3.928   0.861  14.969 -0.2804  0.2897  0.0974
  582TMC3    C6 8683   4.032   0.832  15.053  0.2023 -0.5828 -0.3444
  582TMC3     C 8684   4.048   1.138  14.821 -0.0282  0.4936 -0.3974
  582TMC3     O 8685   3.935   1.179  14.859 -0.1650  0.2583 -0.3362
  582TMC3     H 8686   4.259   1.031  14.925 -0.8487  0.6309 -2.4233
  582TMC3    H1 8687   3.863   0.970  14.799  1.4116 -0.7928 -2.1185
  582TMC3    H2 8688   4.001   0.787  15.147 -0.0775  1.3164  0.4777
  582TMC3    C7 8689   3.813   0.877  15.047 -0.5477 -0.7712  0.0861
  582TMC3    C8 8690   4.181   0.973  15.160  0.1571  0.2226  0.2730
  582TMC3    O1 8691   3.749   0.777  15.066 -0.4185  0.2731 -0.4374
  582TMC3    O2 8692   4.082   1.030  15.198 -0.1338 -0.4029  0.3286
  583MPD2     C 8693   4.243   3.161  16.829  0.3560 -0.3328  0.8776
  583MPD2    C1 8694   4.209   3.260  16.740 -0.1186  0.0034 -0.2321
  583MPD2    C2 8695   4.147   3.369  16.781  0.5200  0.3052  0.3940
  583MPD2    C3 8696   4.106   3.381  16.911 -0.0379 -0.2897 -0.0926
  583MPD2    C4 8697   4.148   3.291  17.010  0.2754  0.1792 -0.2434
  583MPD2    C5 8698   4.205   3.175  16.963  1.3792 -0.1492  0.1483
  583MPD2     H 8699   4.126   3.451  16.712  1.2020  0.6806  0.6267
  583MPD2    H1 8700   4.121   3.286  17.115  0.6801 -1.3769 -0.2074
  583MPD2    H2 8701   4.289   3.068  16.797  0.4099  0.5003 -1.4278
  583MPD2    H3 8702   4.230   3.094  17.031  0.0607 -0.8627 -0.2093
  583MPD2     N 8703   4.032   3.496  16.937 -0.0084 -0.4756  0.4383
  583MPD2    H5 8704   4.007   3.551  16.856 -1.6561 -0.1715  1.1522
  583MPD2    N1 8705   4.261   3.260  16.605  0.3853 -0.4952 -0.9117
  583MPD2    H7 8706   4.225   3.337  16.549  0.9408 -1.0476 -2.0336
  584TMC3    C1 8707   3.887   3.637  17.067  0.6996 -0.1899 -0.2198
  584TMC3    C2 8708   3.910   3.745  16.979  0.3485 -0.7145 -0.1339
  584TMC3    C3 8709   3.846   3.865  17.006 -0.3872  0.3327  1.0539
  584TMC3    C4 8710   3.813   3.647  17.183  0.7332  0.3538 -0.9759
  584TMC3    C5 8711   3.749   3.765  17.203  0.5430 -0.3583 -0.1986
  584TMC3    C6 8712   3.764   3.871  17.116 -0.2006  0.8990  0.2045
  584TMC3     C 8713   3.967   3.515  17.056 -0.5426 -1.1881 -0.0413
  584TMC3     O 8714   3.970   3.448  17.154 -0.1426  0.4827  0.0357
  584TMC3     H 8715   3.963   3.735  16.885 -2.1845 -1.1544 -1.5001
  584TMC3    H1 8716   3.796   3.562  17.248 -2.6745  2.2488  0.5965
  584TMC3    H2 8717   3.707   3.959  17.144  0.9108  1.5563  0.4215
  584TMC3    C7 8718   3.666   3.769  17.325  0.6880 -0.7105 -0.4254
  584TMC3    C8 8719   3.910   3.982  16.970  0.4059  0.0398  0.8755
  584TMC3    O1 8720   3.724   3.741  17.427 -0.8674  0.1450  0.5824
  584TMC3    O2 8721   3.900   4.026  16.855  0.3120 -0.7549  0.1408
  585MPD2     C 8722   2.646   2.457   0.546 -0.7897  0.2045  0.4069
  585MPD2    C1 8723   2.772   2.475   0.494  0.4373 -0.0618  0.5108
  585MPD2    C2 8724   2.831   2.385   0.413  0.0783 -0.2569 -0.0452
  585MPD2    C3 8725   2.754   2.288   0.356 -0.7347  0.4202  0.3120
  585MPD2    C4 8726   2.624   2.281   0.389  0.1439  0.7500 -0.6841
  585MPD2    C5 8727   2.569   2.356   0.489  0.7633 -0.0651  0.5328
  585MPD2     H 8728   2.926   2.409   0.366  0.2385 -1.8674 -0.5544
  585MPD2    H1 8729   2.565   2.208   0.335 -1.5681  1.3434  0.4064
  585MPD2    H2 8730   2.602   2.524   0.621 -1.9917  0.1527 -0.2473
  585MPD2    H3 8731   2.465   2.339   0.513  0.5139 -0.2603 -0.6691
  585MPD2     N 8732   2.811   2.216   0.257  0.4263 -0.3207 -0.1915
  585MPD2    H5 8733   2.912   2.218   0.252  0.2410  0.7876 -3.7098
  585MPD2    N1 8734   2.850   2.584   0.539  0.1646 -0.1377 -0.1200
  585MPD2    H7 8735   2.942   2.595   0.498  1.4538  0.3136  2.8415
  586TMC3    C1 8736   2.828   2.103   0.052 -0.4995  0.5774  0.3910
  586TMC3    C2 8737   2.963   2.090   0.081 -0.1950 -0.3182  0.9566
  586TMC3    C3 8738   3.041   2.108  17.706  0.3224 -0.1172  0.1334
  586TMC3    C4 8739   2.778   2.132  17.670  0.1797 -0.3660 -0.0439
  586TMC3    C5 8740   2.858   2.133  17.563 -0.2290 -0.0107 -0.0497
  586TMC3    C6 8741   2.989   2.122  17.579  0.1508 -0.9223 -0.9779
  586TMC3     C 8742   2.741   2.140   0.161 -0.4368 -0.4869 -0.6467
  586TMC3     O 8743   2.619   2.141   0.141 -0.1474 -0.1593 -0.0662
  586TMC3     H 8744   3.006   2.037   0.165 -0.0837 -0.4935  0.7893
  586TMC3    H1 8745   2.670   2.144  17.662  0.3674  0.4401 -1.3427
  586TMC3    H2 8746   3.058   2.098  17.499 -0.4668 -1.6184 -1.3003
  586TMC3    C7 8747   2.802   2.108  17.430 -0.1403 -0.2843 -0.2393
  586TMC3    C8 8748   3.181   2.094  17.715  0.3255 -0.1249 -0.2225
  586TMC3    O1 8749   2.686   2.068  17.415  0.1957 -0.5062 -0.2424
  586TMC3    O2 8750   3.221   2.020   0.068 -0.0229 -0.0738  0.3675
  587TMC3    C1 8751   0.717   1.149  16.004 -0.1892  0.0842  0.3044
  587TMC3    C2 8752   0.799   1.250  15.993 -0.2469  0.0560  0.3402
  587TMC3    C3 8753   0.858   1.285  16.110 -0.2499 -0.4058  0.6251
  587TMC3    C4 8754   0.695   1.070  16.117 -0.2664  0.0765  0.2498
  587TMC3    C5 8755   0.769   1.108  16.231 -0.1726 -0.1866 -0.5022
  587TMC3    C6 8756   0.846   1.224  16.227 -0.6341  0.5177 -0.4667
  587TMC3     C 8757   0.649   1.109  15.882  0.0907 -0.5998 -0.3826
  587TMC3     O 8758   0.690   1.151  15.771 -0.4150 -0.0451  0.0683
  587TMC3     H 8759   0.822   1.306  15.903 -3.0464  1.0886  0.2644
  587TMC3    H1 8760   0.662   0.967  16.116  2.7110 -0.8992  2.1264
  587TMC3    H2 8761   0.891   1.254  16.320 -0.6493  1.4052 -0.7479
  587TMC3    C7 8762   0.804   1.007  16.329 -0.7103  0.0161 -0.1133
  587TMC3    C8 8763   0.902   1.420  16.131 -0.0984 -0.0386  0.4435
  587TMC3    O1 8764   0.921   1.016  16.368  0.0904 -0.2239 -0.0269
  587TMC3    O2 8765   0.964   1.481  16.043 -0.5090 -0.1571 -0.1073
  588TMC3    C1 8766   3.054   3.856   9.754  0.5094  0.0159 -0.0781
  588TMC3    C2 8767   2.969   3.752   9.758  0.3280 -0.0363  0.6139
  588TMC3    C3 8768   2.970   3.693   9.875 -0.0669 -0.2693  0.3580
  588TMC3    C4 8769   3.153   3.880   9.843 -0.0765  0.4177 -0.3857
  588TMC3    C5 8770   3.156   3.806   9.956 -0.1599 -0.3553  0.6568
  588TMC3    C6 8771   3.063   3.715   9.980 -0.0127  0.9193 -0.6369
  588TMC3     C 8772   3.047   3.945   9.643  0.2656 -0.3162  0.5217
  588TMC3     O 8773   3.007   3.907   9.533  0.4091 -0.7574 -0.5198
  588TMC3     H 8774   2.888   3.742   9.687  0.5837  1.8627  0.0478
  588TMC3    H1 8775   3.230   3.954   9.826  1.9303 -1.0538  2.2439
  588TMC3    H2 8776   3.047   3.674  10.079  2.4521 -0.2856 -0.7545
  588TMC3    C7 8777   3.211   3.867  10.075 -0.1961  0.3192  0.7847
  588TMC3    C8 8778   2.898   3.566   9.877  0.5802 -0.0839 -0.2294
  588TMC3    O1 8779   3.302   3.802  10.128 -0.1932 -0.4537  0.1078
  588TMC3    O2 8780   2.865   3.531   9.768 -0.4026  0.1437  0.1408
  589TMC3    C1 8781   2.000   0.884   0.774 -0.4398  0.6859  0.5996
  589TMC3    C2 8782   2.078   0.894   0.881  0.1016 -0.5195 -0.1524
  589TMC3    C3 8783   2.197   0.827   0.879  0.1672  0.2088 -0.6888
  589TMC3    C4 8784   2.038   0.809   0.666 -0.2775 -0.8133  0.6952
  589TMC3    C5 8785   2.163   0.755   0.663  0.0292  0.1895  0.5686
  589TMC3    C6 8786   2.242   0.752   0.771 -0.6779 -0.3086  0.2982
  589TMC3     C 8787   1.914   0.998   0.745  0.6801  0.1329 -0.4951
  589TMC3     O 8788   1.846   0.992   0.644  0.2752  0.3446 -0.4618
  589TMC3     H 8789   2.055   0.950   0.971 -2.4151 -4.2595  1.5433
  589TMC3    H1 8790   1.984   0.799   0.573  0.4808  0.0490  0.1570
  589TMC3    H2 8791   2.340   0.706   0.760 -1.0553 -0.7665 -1.0172
  589TMC3    C7 8792   2.209   0.674   0.551  0.3379  0.1844 -0.4455
  589TMC3    C8 8793   2.271   0.814   1.008  0.2425  0.3009 -0.2365
  589TMC3    O1 8794   2.157   0.567   0.534  0.1629  0.1958  0.2514
  589TMC3    O2 8795   2.197   0.805   1.103 -0.5602 -0.3959  0.2083
  590MPD2     C 8796   1.713   4.223  16.605  0.5432  0.1172 -0.2623
  590MPD2    C1 8797   1.646   4.299  16.508  0.3764 -0.0159 -0.4228
  590MPD2    C2 8798   1.673   4.267  16.377  0.6073 -0.0784  0.3836
  590MPD2    C3 8799   1.737   4.152  16.343 -0.0261 -0.5037  0.1303
  590MPD2    C4 8800   1.803   4.080  16.440  0.2355  0.3997 -0.9987
  590MPD2    C5 8801   1.782   4.114  16.572  0.1927  0.1162  0.4842
  590MPD2     H 8802   1.611   4.320  16.306 -0.7220 -1.5189  0.4649
  590MPD2    H1 8803   1.879   4.005  16.423 -0.3203 -0.4270  0.1463
  590MPD2    H2 8804   1.695   4.236  16.711 -2.0996  0.0046 -0.6921
  590MPD2    H3 8805   1.827   4.048  16.645  0.7447 -0.7153 -0.6014
  590MPD2     N 8806   1.751   4.119  16.207  0.3504 -0.4311 -0.3235
  590MPD2    H5 8807   1.704   4.182  16.142 -0.7005 -0.2588  0.5910
  590MPD2    N1 8808   1.554   4.406  16.533 -0.3021 -0.5287 -0.1197
  590MPD2    H7 8809   1.511   4.437  16.446  2.3333  0.3749 -1.1292
  591TMC3    C1 8810   1.790   3.985  16.023  0.3930  0.6987 -0.3091
  591TMC3    C2 8811   1.899   3.953  15.950 -0.4653  0.3933 -0.0753
  591TMC3    C3 8812   1.903   3.985  15.816  0.2497  0.7443 -0.4659
  591TMC3    C4 8813   1.684   4.037  15.968 -0.2299  0.6934 -0.2902
  591TMC3    C5 8814   1.691   4.067  15.836 -0.2255  0.4491  0.8735
  591TMC3    C6 8815   1.798   4.046  15.752  0.4778 -0.3504  0.0176
  591TMC3     C 8816   1.818   4.010  16.160 -0.0041 -0.4616 -0.5655
  591TMC3     O 8817   1.907   3.937  16.206 -0.3972 -0.6948  0.3379
  591TMC3     H 8818   1.988   3.913  15.998  0.6781 -0.2050 -2.6892
  591TMC3    H1 8819   1.595   4.052  16.029 -2.0259  3.4706 -3.5997
  591TMC3    H2 8820   1.788   4.049  15.644 -1.1483 -1.3270  0.1504
  591TMC3    C7 8821   1.600   4.169  15.792  0.2329 -0.3021 -0.3433
  591TMC3    C8 8822   2.040   3.982  15.768 -0.2181  0.0728 -0.7558
  591TMC3    O1 8823   1.491   4.172  15.853  0.1655 -0.0186 -0.2971
  591TMC3    O2 8824   2.126   4.038  15.833 -0.0791 -0.1851 -0.3109
  592MPD2     C 8825   2.052   1.496  11.486 -0.2097  0.9097  0.1186
  592MPD2    C1 8826   2.027   1.526  11.619  0.7311 -0.0232 -0.4239
  592MPD2    C2 8827   1.955   1.431  11.681 -0.6745  0.2430  0.2950
  592MPD2    C3 8828   1.909   1.319  11.622 -0.1875 -0.3670 -0.4005
  592MPD2    C4 8829   1.937   1.290  11.485 -0.0620  0.6974  0.6315
  592MPD2    C5 8830   2.002   1.390  11.417 -0.0970  0.0070  0.5346
  592MPD2     H 8831   1.913   1.445  11.780 -2.1062 -3.0768  0.1891
  592MPD2    H1 8832   1.900   1.202  11.434  1.0876  0.1493  0.7342
  592MPD2    H2 8833   2.111   1.569  11.431  1.0466 -1.5748 -1.7910
  592MPD2    H3 8834   2.028   1.383  11.312  0.5493 -0.6989  0.7455
  592MPD2     N 8835   1.826   1.241  11.706 -0.0508  0.5605 -0.1608
  592MPD2    H5 8836   1.823   1.274  11.802 -0.5675  0.8588 -0.2776
  592MPD2    N1 8837   2.061   1.653  11.673  0.1036 -0.5750  0.4159
  592MPD2    H7 8838   2.086   1.725  11.606  1.7437 -0.3241  1.3073
  593TMC3    C1 8839   2.058   1.821  11.847 -0.1863 -0.8842  0.2897
  593TMC3    C2 8840   2.087   1.847  11.977 -0.0283  1.0525 -0.1924
  593TMC3    C3 8841   2.131   1.968  12.016  0.0097  0.7647 -0.1043
  593TMC3    C4 8842   2.091   1.914  11.750  0.2032  0.6860 -0.4838
  593TMC3    C5 8843   2.148   2.031  11.792  0.2773  0.1684 -0.2694
  593TMC3    C6 8844   2.162   2.065  11.927 -0.3086  0.5147  0.2513
  593TMC3     C 8845   2.043   1.680  11.806 -0.5546  0.0081  0.3014
  593TMC3     O 8846   2.038   1.604  11.901  0.1892  0.3405 -0.3679
  593TMC3     H 8847   2.065   1.777  12.057  1.1117  0.7860 -0.1199
  593TMC3    H1 8848   2.061   1.900  11.647 -2.7690 -0.2631  0.5023
  593TMC3    H2 8849   2.194   2.165  11.952  3.6676 -1.0439  1.4148
  593TMC3    C7 8850   2.169   2.140  11.695 -0.4336 -0.4901 -0.1304
  593TMC3    C8 8851   2.113   2.007  12.153  0.1670  0.7976 -0.0900
  593TMC3    O1 8852   2.146   2.253  11.739  0.6260  0.3198  0.3952
  593TMC3    O2 8853   2.027   1.942  12.214 -0.0508 -0.5693 -0.3859
  594MPD2     C 8854   1.255   0.356  14.685 -0.4897  0.3874  0.1599
  594MPD2    C1 8855   1.146   0.388  14.601  0.7243  0.1376 -0.0384
  594MPD2    C2 8856   1.168   0.459  14.485 -0.3963 -0.4416 -0.5723
  594MPD2    C3 8857   1.302   0.510  14.463 -0.0207  0.4629 -0.2203
  594MPD2    C4 8858   1.408   0.468  14.542  0.2906 -0.1130  0.4538
  594MPD2    C5 8859   1.385   0.388  14.650 -0.1029  0.0432 -0.6846
  594MPD2     H 8860   1.085   0.491  14.424 -0.7258  0.7415  0.4929
  594MPD2    H1 8861   1.509   0.504  14.526  0.8196 -0.9015  2.0303
  594MPD2    H2 8862   1.251   0.274  14.755 -1.5802  0.8060  0.5750
  594MPD2    H3 8863   1.465   0.347  14.710  1.1993  5.1539  1.1157
  594MPD2     N 8864   1.328   0.593  14.357  0.3320  0.9940 -0.3477
  594MPD2    H5 8865   1.251   0.627  14.300  1.0502  2.4749 -0.4209
  594MPD2    N1 8866   1.027   0.326  14.640 -0.2068  0.7536 -0.5428
  594MPD2    H7 8867   1.027   0.276  14.728  2.0738  0.9015 -0.4530
  595TMC3    C1 8868   1.559   0.860  14.047  0.2624 -0.2608 -0.6539
  595TMC3    C2 8869   1.550   0.743  14.116 -0.1026 -0.0958  0.6463
  595TMC3    C3 8870   1.445   0.729  14.199  0.5116 -0.5866 -0.7955
  595TMC3    C4 8871   1.466   0.960  14.050 -0.0008 -0.5435  0.3858
  595TMC3    C5 8872   1.360   0.940  14.132  0.1755 -0.1910 -0.1125
  595TMC3    C6 8873   1.351   0.825  14.208 -1.1140  0.1985  0.2837
  595TMC3     C 8874   1.696   0.884  14.011 -0.5349  0.4874  0.2904
  595TMC3     O 8875   1.756   0.802  13.941 -0.2076 -0.0628  0.3880
  595TMC3     H 8876   1.634   0.675  14.126  0.0488 -0.2792 -1.9362
  595TMC3    H1 8877   1.491   1.058  14.012  1.8190 -0.8239  0.8765
  595TMC3    H2 8878   1.276   0.816  14.285  0.7393 -1.0184  1.9508
  595TMC3    C7 8879   1.280   1.054  14.179  0.2617 -0.0422 -0.7214
  595TMC3    C8 8880   1.453   0.626  14.304  0.3415  0.1632 -0.0416
  595TMC3    O1 8881   1.213   1.028  14.280 -0.2533 -0.2908 -0.7792
  595TMC3    O2 8882   1.564   0.576  14.314  0.0720  0.1494  0.2985
  596MPD2     C 8883   0.305   2.936  16.855  0.4353 -0.0233 -0.0803
  596MPD2    C1 8884   0.347   3.057  16.804  0.1672  0.2612  0.2824
  596MPD2    C2 8885   0.412   3.056  16.680 -0.1850  0.3078 -0.2301
  596MPD2    C3 8886   0.429   2.947  16.606 -0.3736 -0.3267  0.0426
  596MPD2    C4 8887   0.385   2.829  16.655 -0.2324  0.0289 -0.3692
  596MPD2    C5 8888   0.319   2.827  16.780 -0.6315  0.0609 -0.2892
  596MPD2     H 8889   0.444   3.152  16.641 -0.7487  1.0133  1.0452
  596MPD2    H1 8890   0.402   2.745  16.590  1.0508  1.0636 -1.3694
  596MPD2    H2 8891   0.263   2.915  16.952  0.3842  1.4498  0.2114
  596MPD2    H3 8892   0.301   2.729  16.823 -1.1052  0.0884 -0.4348
  596MPD2     N 8893   0.466   2.941  16.475  0.2598  0.0959 -0.5216
  596MPD2    H5 8894   0.471   2.856  16.420  0.2841 -1.5463  2.0305
  596MPD2    N1 8895   0.336   3.175  16.878 -0.2743 -0.1479  0.1741
  596MPD2    H7 8896   0.378   3.255  16.832  2.3683 -1.1613  0.8115
  597TMC3    C1 8897   0.279   3.332  17.042 -0.2107 -0.2805 -0.2002
  597TMC3    C2 8898   0.359   3.427  16.975  0.5622 -0.1428  0.5642
  597TMC3    C3 8899   0.343   3.556  17.012 -0.0420 -0.5963 -0.2090
  597TMC3    C4 8900   0.189   3.376  17.141  0.6557 -0.5238 -0.1034
  597TMC3    C5 8901   0.182   3.510  17.166  0.3632 -0.6757 -0.3635
  597TMC3    C6 8902   0.261   3.606  17.109  0.8531  0.6407  0.2562
  597TMC3     C 8903   0.265   3.196  16.993  0.4535  0.4339 -0.4307
  597TMC3     O 8904   0.187   3.124  17.060  0.2642  0.4250 -0.5242
  597TMC3     H 8905   0.431   3.398  16.899 -0.0980  1.1394 -0.5725
  597TMC3    H1 8906   0.105   3.316  17.175  2.3668 -2.3480  0.8730
  597TMC3    H2 8907   0.242   3.711  17.132 -1.7975  0.4347 -1.0443
  597TMC3    C7 8908   0.045   3.554  17.200  0.1540  0.0335  0.1337
  597TMC3    C8 8909   0.442   3.642  16.953  0.0482 -0.2671  0.2975
  597TMC3    O1 8910   4.713   3.483  17.273  0.0579  0.0695 -0.7094
  597TMC3    O2 8911   0.516   3.593  16.870 -0.3377 -0.9035  0.1886
  598TMC3    C1 8912   2.863   4.718  15.441  0.4806  0.2974 -0.2109
  598TMC3    C2 8913   2.766   4.629  15.444  0.1050 -0.0094 -0.1430
  598TMC3    C3 8914   2.672   4.627  15.342  0.1408 -0.2234 -0.0480
  598TMC3    C4 8915   2.893   0.067  15.337 -0.4682 -0.0508 -0.3293
  598TMC3    C5 8916   2.814   0.044  15.229 -0.6405 -0.3418 -0.1251
  598TMC3    C6 8917   2.705   4.693  15.228 -0.6960 -0.0403 -0.1144
  598TMC3     C 8918   2.979   4.693  15.523  0.3915 -0.2359  0.5490
  598TMC3     O 8919   3.061   0.044  15.522 -0.3910 -0.2431  0.2718
  598TMC3     H 8920   2.745   4.569  15.532 -0.9738  1.7357  0.7862
  598TMC3    H1 8921   2.983   0.127  15.331 -1.2752  1.1838 -0.1546
  598TMC3    H2 8922   2.643   4.684  15.140 -1.6509 -2.9562  0.8529
  598TMC3    C7 8923   2.866   0.075  15.100  1.1996 -0.2895 -0.4265
  598TMC3    C8 8924   2.582   4.509  15.332  0.2838  0.0861 -0.0688
  598TMC3    O1 8925   2.810   0.012  15.009  0.4885  0.3803 -0.4428
  598TMC3    O2 8926   2.530   4.470  15.435 -0.4268  0.0437  0.4916
  599MPD2     C 8927   3.038   2.033  15.550 -0.1917 -0.7599  0.0299
  599MPD2    C1 8928   3.099   2.018  15.670 -0.0887  1.0664  0.0008
  599MPD2    C2 8929   3.060   2.083  15.783  0.0591 -0.0401  0.1982
  599MPD2    C3 8930   2.937   2.149  15.781  0.6579  0.2465 -0.1443
  599MPD2    C4 8931   2.877   2.162  15.663  0.3223  0.5923  0.2700
  599MPD2    C5 8932   2.929   2.109  15.547  0.3457  0.7373 -0.6067
  599MPD2     H 8933   3.123   2.075  15.871 -0.6280  1.0273  0.7854
  599MPD2    H1 8934   2.794   2.231  15.654  0.0288  0.0925 -0.8800
  599MPD2    H2 8935   3.064   1.975  15.462  1.1844 -1.6954  1.0666
  599MPD2    H3 8936   2.877   2.130  15.454  0.2308 -2.0536 -1.1815
  599MPD2     N 8937   2.886   2.196  15.905 -0.3184 -0.6259  0.3674
  599MPD2    H5 8938   2.944   2.188  15.989 -0.3919 -3.1426  0.1804
  599MPD2    N1 8939   3.220   1.938  15.678 -0.3799 -0.3037 -0.3988
  599MPD2    H7 8940   3.287   1.953  15.752 -0.5302  1.9888 -0.7202
  600TMC3    C1 8941   2.733   2.273  16.064 -0.1035  0.7563  1.3011
  600TMC3    C2 8942   2.689   2.171  16.146  0.1103  0.6136  0.3655
  600TMC3    C3 8943   2.716   2.185  16.282  0.5248 -0.0162 -0.8908
  600TMC3    C4 8944   2.778   2.391  16.109 -0.0949  0.7988  0.8556
  600TMC3    C5 8945   2.808   2.392  16.247 -0.3669 -0.1793  0.1039
  600TMC3    C6 8946   2.768   2.295  16.334  0.5180  0.4881 -0.7176
  600TMC3     C 8947   2.758   2.239  15.925  0.1437  0.0575  0.4640
  600TMC3     O 8948   2.660   2.223  15.852 -0.7093  0.2134  0.2413
  600TMC3     H 8949   2.666   2.071  16.111  0.5182  0.6294  0.0451
  600TMC3    H1 8950   2.809   2.472  16.045 -2.1607  0.1372 -0.9905
  600TMC3    H2 8951   2.799   2.299  16.437  0.7465 -0.5567 -0.7425
  600TMC3    C7 8952   2.850   2.510  16.312  0.3285  0.4163  0.5671
  600TMC3    C8 8953   2.623   2.116  16.370 -0.0808 -0.6849  0.0624
  600TMC3    O1 8954   2.832   2.516  16.431 -0.1002 -0.5926  0.0099
  600TMC3    O2 8955   2.653   2.118  16.495  0.1045  0.3334 -0.9050
  601MPD2     C 8956   0.320   0.549   0.215 -0.2826  0.2336  0.2919
  601MPD2    C1 8957   0.214   0.480   0.161  0.2857  0.0606  0.1308
  601MPD2    C2 8958   0.232   0.338   0.154 -0.8154  0.7533  0.3343
  601MPD2    C3 8959   0.350   0.279   0.194  0.2164 -0.4120 -0.0652
  601MPD2    C4 8960   0.458   0.351   0.233 -0.4769  0.5259 -0.7810
  601MPD2    C5 8961   0.443   0.487   0.248 -0.9815 -0.2659  0.6992
  601MPD2     H 8962   0.156   0.279   0.106 -0.0906  0.2933 -0.2582
  601MPD2    H1 8963   0.553   0.306   0.261  0.2657  2.0488 -0.8981
  601MPD2    H2 8964   0.312   0.657   0.224  1.6785  0.2963  1.2794
  601MPD2    H3 8965   0.520   0.549   0.292 -1.5095  1.6900 -1.1132
  601MPD2     N 8966   0.365   0.136   0.197 -0.4634  0.2064  0.3112
  601MPD2    H5 8967   0.457   0.108   0.228 -0.9258 -0.7490  0.8611
  601MPD2    N1 8968   0.090   0.537   0.124  0.3804 -0.6950 -0.0914
  601MPD2    H7 8969   0.027   0.464   0.092  0.7449 -0.5166 -1.2335
  602TMC3    C1 8970   4.669   0.678   0.050 -0.3333 -0.0858 -0.5208
  602TMC3    C2 8971   4.600   0.793   0.082 -0.3693 -1.0243 -0.1119
  602TMC3    C3 8972   4.461   0.783   0.066 -0.0461  0.2780 -0.1143
  602TMC3    C4 8973   4.611   0.571  17.731 -0.8469  0.6892 -0.2359
  602TMC3    C5 8974   4.485   0.568  17.712  0.3143  0.4997  0.1595
  602TMC3    C6 8975   4.407   0.669   0.013  0.5061 -0.2342  0.0761
  602TMC3     C 8976   0.064   0.669   0.113 -0.0413  0.0198  0.0498
  602TMC3     O 8977   0.123   0.772   0.152 -0.3901  0.0012  0.1418
  602TMC3     H 8978   4.643   0.890   0.103 -0.3685 -0.2379 -3.8485
  602TMC3    H1 8979   4.668   0.486  17.695 -1.9980  0.1705 -0.8225
  602TMC3    H2 8980   4.302   0.667  17.726  0.6907  3.6798 -0.9440
  602TMC3    C7 8981   4.448   0.505  17.588  1.2282 -0.4308  0.8226
  602TMC3    C8 8982   4.394   0.897   0.002 -0.6956 -0.1103 -0.2598
  602TMC3    O1 8983   4.504   0.405  17.546  0.3134 -0.2032  0.1326
  602TMC3    O2 8984   4.315   0.872  17.651 -0.1703 -0.3995  0.0538
  603TMC3    C1 8985   2.565   1.447  11.408 -0.6445  0.0668  0.5004
  603TMC3    C2 8986   2.611   1.381  11.522 -0.4923 -0.6176  0.1198
  603TMC3    C3 8987   2.737   1.409  11.565  0.2690 -0.3830 -0.3284
  603TMC3    C4 8988   2.648   1.528  11.333 -0.8266  0.1593  0.3218
  603TMC3    C5 8989   2.773   1.544  11.381 -0.0690 -0.3126 -0.2167
  603TMC3    C6 8990   2.821   1.493  11.495  0.0160 -0.1610 -0.1401
  603TMC3     C 8991   2.455   1.379  11.330 -0.0584 -0.0964  0.2311
  603TMC3     O 8992   2.432   1.264  11.364  0.3743 -0.0638  0.7170
  603TMC3     H 8993   2.540   1.316  11.572 -0.2855 -1.0869 -0.1911
  603TMC3    H1 8994   2.609   1.589  11.252 -0.0150  0.6172  0.2755
  603TMC3    H2 8995   2.928   1.482  11.506  0.1475  1.7561  0.5075
  603TMC3    C7 8996   2.867   1.619  11.296  0.4938  0.3907  0.0557
  603TMC3    C8 8997   2.792   1.327  11.671 -1.0845 -0.7694 -0.9477
  603TMC3    O1 8998   2.952   1.682  11.361  0.2877 -0.2360 -0.6455
  603TMC3    O2 8999   2.714   1.233  11.699 -0.3364  0.5041 -0.0027
  604MPD2     C 9000   4.334   4.266  16.309 -0.4378 -0.4750 -0.0285
  604MPD2    C1 9001   4.220   4.203  16.264 -0.2516  0.3278 -0.1610
  604MPD2    C2 9002   4.225   4.145  16.135 -0.5197  0.4227 -0.2133
  604MPD2    C3 9003   4.337   4.151  16.056 -0.2089  0.7941 -0.0596
  604MPD2    C4 9004   4.449   4.222  16.105  0.1019 -0.2808 -0.5537
  604MPD2    C5 9005   4.445   4.274  16.225 -0.3160 -0.3706 -0.2431
  604MPD2     H 9006   4.136   4.097  16.096 -0.8582  0.3536  0.6441
  604MPD2    H1 9007   4.541   4.246  16.052  0.0306  2.8199  0.7474
  604MPD2    H2 9008   4.339   4.332  16.395  1.2835  2.1868 -2.1500
  604MPD2    H3 9009   4.529   4.336  16.253 -0.6287 -0.5204  1.0024
  604MPD2     N 9010   4.337   4.089  15.930 -0.8761 -0.3515 -0.0872
  604MPD2    H5 9011   4.246   4.049  15.910 -0.3914 -1.3885 -0.2129
  604MPD2    N1 9012   4.102   4.215  16.343 -0.2854  0.1839  0.2694
  604MPD2    H7 9013   4.104   4.263  16.432 -0.5788 -1.1847  1.0143
  605TMC3    C1 9014   3.880   4.245  16.408  0.8274  0.5979 -0.5576
  605TMC3    C2 9015   3.950   4.278  16.522  0.0829  0.6607 -0.6133
  605TMC3    C3 9016   3.953   4.411  16.563  0.2364 -0.0740 -0.0169
  605TMC3    C4 9017   3.809   4.343  16.341 -0.5648  0.2395  0.5477
  605TMC3    C5 9018   3.801   4.470  16.394  0.2918  0.3194  0.4784
  605TMC3    C6 9019   3.880   4.507  16.501 -0.3787 -0.7794  0.3105
  605TMC3     C 9020   3.974   4.176  16.316 -0.3338  0.0820  0.2157
  605TMC3     O 9021   3.929   4.117  16.219  0.1855 -0.0090  0.3489
  605TMC3     H 9022   3.995   4.200  16.581  0.7251 -0.3672 -2.4658
  605TMC3    H1 9023   3.770   4.325  16.242  0.5536 -0.4526  0.2240
  605TMC3    H2 9024   3.878   4.611  16.531  2.1171 -0.6024 -0.1275
  605TMC3    C7 9025   3.694   4.550  16.344  0.3087  0.4214  0.1915
  605TMC3    C8 9026   4.085   4.452  16.601 -0.5942 -0.0074 -0.0774
  605TMC3    O1 9027   3.721   4.668  16.325  0.1457  0.0959 -0.4633
  605TMC3    O2 9028   4.167   4.365  16.591 -0.0911 -0.2665 -0.7364
  606TMC3    C1 9029   0.550   3.000  17.149 -0.0099  0.3840 -0.1668
  606TMC3    C2 9030   0.622   3.012  17.038  0.0321 -0.0664 -0.6588
  606TMC3    C3 9031   0.663   2.905  16.964  0.1599 -0.3130  0.0045
  606TMC3    C4 9032   0.500   2.872  17.185  0.9065 -0.0074  0.2136
  606TMC3    C5 9033   0.541   2.764  17.106  0.6551  0.5523  0.0218
  606TMC3    C6 9034   0.617   2.779  16.993 -0.2556  0.2395 -0.3921
  606TMC3     C 9035   0.528   3.115  17.233 -0.6602  0.2807  1.0802
  606TMC3     O 9036   0.598   3.218  17.228 -0.8280  0.1094 -0.1825
  606TMC3     H 9037   0.656   3.113  17.016  1.5412 -0.2027  1.0222
  606TMC3    H1 9038   0.460   2.866  17.286  1.1710 -0.3992  0.2960
  606TMC3    H2 9039   0.639   2.692  16.933 -1.2432  0.6579 -1.3644
  606TMC3    C7 9040   0.510   2.629  17.143  0.0444 -0.2194 -0.1335
  606TMC3    C8 9041   0.797   2.913  16.914  0.6312 -0.3472 -0.3326
  606TMC3    O1 9042   0.572   2.542  17.092  0.1787  0.1600 -0.1916
  606TMC3    O2 9043   0.858   3.014  16.942 -0.2964  0.2804 -0.2570
  607MPD2     C 9044   2.090   1.029  11.735 -0.1539  0.0968 -0.1264
  607MPD2    C1 9045   2.101   1.118  11.840  0.1294 -0.7567 -0.3598
  607MPD2    C2 9046   2.044   1.086  11.961 -0.1276  0.0537 -0.3062
  607MPD2    C3 9047   1.990   0.962  11.984 -0.5085 -0.9242 -0.0008
  607MPD2    C4 9048   1.980   0.873  11.874 -0.1183  0.0066  0.5873
  607MPD2    C5 9049   2.037   0.903  11.753 -0.9335 -0.3085 -0.3795
  607MPD2     H 9050   2.036   1.154  12.045  0.6223  0.0379 -0.2200
  607MPD2    H1 9051   1.947   0.770  11.885  0.1485  0.2298  3.4208
  607MPD2    H2 9052   2.125   1.047  11.635 -0.7543  0.1190 -0.3320
  607MPD2    H3 9053   2.031   0.825  11.678 -1.8829 -0.2267 -0.3908
  607MPD2     N 9054   1.959   0.929  12.118  0.7484  0.1177 -0.4062
  607MPD2    H5 9055   1.979   1.007  12.179 -0.7785 -0.1496  0.4489
  607MPD2    N1 9056   2.165   1.245  11.831  0.2174 -0.1912 -0.0186
  607MPD2    H7 9057   2.166   1.301  11.915 -2.0924  0.4272 -0.4136
  608TMC3    C1 9058   2.328   1.391  11.776  0.5030 -0.2730  0.6428
  608TMC3    C2 9059   2.362   1.393  11.907 -0.2599  0.2458 -0.6381
  608TMC3    C3 9060   2.425   1.503  11.964 -0.1140  0.2212 -0.5010
  608TMC3    C4 9061   2.362   1.498  11.699 -0.0080 -0.4529 -0.0090
  608TMC3    C5 9062   2.420   1.610  11.757 -0.5732 -0.2661 -0.2788
  608TMC3    C6 9063   2.458   1.612  11.884 -0.5831  0.5939 -0.5576
  608TMC3     C 9064   2.250   1.286  11.729 -0.0986 -0.7009 -0.5230
  608TMC3     O 9065   2.277   1.227  11.624 -0.0448 -0.0971  0.0322
  608TMC3     H 9066   2.351   1.303  11.967 -0.1884 -0.6844 -2.0342
  608TMC3    H1 9067   2.341   1.490  11.593 -2.4936  1.0275  0.3675
  608TMC3    H2 9068   2.507   1.697  11.930 -0.3507 -1.4306  2.9613
  608TMC3    C7 9069   2.466   1.712  11.664 -0.7131  0.2880 -0.3494
  608TMC3    C8 9070   2.443   1.520  12.106  0.2004  0.6575  0.0323
  608TMC3    O1 9071   2.441   1.698  11.545 -0.4590  0.1081  0.1293
  608TMC3    O2 9072   2.537   1.587  12.141 -0.3807  0.4080  0.5002
  609TMC3    C1 9073   0.476   0.226   9.047  0.0804 -0.0930 -0.2674
  609TMC3    C2 9074   0.510   0.304   8.938 -0.3592  0.2503  0.1847
  609TMC3    C3 9075   0.633   0.284   8.884 -0.6034 -0.0328  0.9722
  609TMC3    C4 9076   0.560   0.135   9.095  0.3553  0.0201 -0.0668
  609TMC3    C5 9077   0.686   0.124   9.041  0.1461 -0.1050 -0.2796
  609TMC3    C6 9078   0.720   0.189   8.922 -0.2237  0.1492  0.4235
  609TMC3     C 9079   0.389   0.280   9.148 -0.2319  0.4427 -0.6480
  609TMC3     O 9080   0.348   0.208   9.235 -0.8528 -0.5343 -0.7758
  609TMC3     H 9081   0.440   0.371   8.888 -1.4073 -0.8769  0.1263
  609TMC3    H1 9082   0.535   0.092   9.192 -1.1759  2.0527  0.4486
  609TMC3    H2 9083   0.824   0.191   8.892 -0.5874  1.3064 -0.7085
  609TMC3    C7 9084   0.787   0.059   9.118 -0.4644  0.3453  0.2781
  609TMC3    C8 9085   0.693   0.381   8.791  0.4487  0.2174  0.5061
  609TMC3    O1 9086   0.774   0.036   9.239 -0.1058  0.1225 -0.3608
  609TMC3    O2 9087   0.672   0.498   8.813 -0.0826  0.6381 -0.3162
  610TMC3    C1 9088   2.434   1.015  12.779  0.1514 -0.1398 -0.2627
  610TMC3    C2 9089   2.456   1.036  12.645  0.6084 -0.9257 -0.8536
  610TMC3    C3 9090   2.582   1.020  12.591  0.0121 -0.0523 -0.1881
  610TMC3    C4 9091   2.529   0.959  12.856 -0.4568  0.5285 -0.1663
  610TMC3    C5 9092   2.644   0.916  12.789  0.2365 -0.3216  0.6230
  610TMC3    C6 9093   2.676   0.947  12.658  0.1186  0.1036 -0.1050
  610TMC3     C 9094   2.319   1.087  12.830  0.3381  1.0315 -0.3014
  610TMC3     O 9095   2.222   1.101  12.753 -0.1620 -0.1113 -0.4036
  610TMC3     H 9096   2.375   1.082  12.589 -0.8994  0.7186  2.6824
  610TMC3    H1 9097   2.527   0.947  12.964  2.1627  3.2103  0.1734
  610TMC3    H2 9098   2.772   0.925  12.612 -0.3856 -1.5565 -0.3361
  610TMC3    C7 9099   2.749   0.834  12.854 -0.3340  0.0534 -0.3529
  610TMC3    C8 9100   2.609   1.058  12.457  0.2409  0.1974 -0.0423
  610TMC3    O1 9101   2.859   0.827  12.803  0.4280  0.3339  0.3601
  610TMC3    O2 9102   2.724   1.094  12.434 -0.1263 -0.1853 -0.7100
  611MPD2     C 9103   2.077   1.293  10.557 -0.2507 -0.2798  0.6862
  611MPD2    C1 9104   2.087   1.370  10.446  0.4210  0.2969 -0.2712
  611MPD2    C2 9105   2.203   1.445  10.432 -0.4216  0.7086 -0.1594
  611MPD2    C3 9106   2.303   1.453  10.529  0.1983  0.1941 -0.3998
  611MPD2    C4 9107   2.282   1.384  10.644 -0.2908  0.1520  0.5719
  611MPD2    C5 9108   2.178   1.304  10.651  0.5018 -0.5419 -0.3639
  611MPD2     H 9109   2.207   1.519  10.353  1.2976  0.5860 -0.1805
  611MPD2    H1 9110   2.368   1.378  10.711  0.8432 -0.0244 -0.9062
  611MPD2    H2 9111   1.989   1.235  10.580 -0.1907 -0.5694  0.1752
  611MPD2    H3 9112   2.183   1.233  10.733  0.9753  0.6487  0.6280
  611MPD2     N 9113   2.425   1.521  10.508 -0.1960 -0.1813  0.4695
  611MPD2    H5 9114   2.490   1.527  10.586  2.8771 -0.8633 -2.0342
  611MPD2    N1 9115   1.994   1.357  10.343  0.3079 -0.2655 -0.2913
  611MPD2    H7 9116   1.916   1.300  10.375  1.1560 -1.8632 -1.1001
  612TMC3    C1 9117   2.584   1.660  10.385 -0.7176 -0.0324 -0.3770
  612TMC3    C2 9118   2.621   1.722  10.497 -0.4342  0.1565  0.6313
  612TMC3    C3 9119   2.738   1.792  10.481 -0.2440  0.0206  0.8125
  612TMC3    C4 9120   2.631   1.682  10.253  0.2593  0.1539  0.4172
  612TMC3    C5 9121   2.744   1.758  10.241  0.2866 -0.4061  0.0919
  612TMC3    C6 9122   2.802   1.811  10.355  0.3481  0.0058  0.1842
  612TMC3     C 9123   2.469   1.567  10.389  0.0511 -0.1846 -0.6340
  612TMC3     O 9124   2.421   1.545  10.278 -0.0849  0.4456  0.4619
  612TMC3     H 9125   2.571   1.704  10.591  0.2077  1.5493  1.2302
  612TMC3    H1 9126   2.587   1.635  10.165  0.5167  1.0152 -0.1680
  612TMC3    H2 9127   2.891   1.873  10.359 -0.8734  1.6268  2.0128
  612TMC3    C7 9128   2.821   1.754  10.115  0.5060  0.4280 -0.0287
  612TMC3    C8 9129   2.824   1.824  10.596 -1.2826  0.0180  0.4436
  612TMC3    O1 9130   2.942   1.750  10.120 -0.4158  0.2817  0.7853
  612TMC3    O2 9131   2.893   1.925  10.585 -0.3139 -0.1653  0.0226
  613MPD2     C 9132   1.887   3.128  16.654 -0.3228 -0.0039  0.0103
  613MPD2    C1 9133   1.811   3.188  16.560 -0.8200  0.8281  0.1162
  613MPD2    C2 9134   1.747   3.101  16.473  0.0743 -0.2637  0.1160
  613MPD2    C3 9135   1.752   2.964  16.489  0.3040 -0.6203 -0.4772
  613MPD2    C4 9136   1.834   2.907  16.585  0.0878  0.3866 -0.0715
  613MPD2    C5 9137   1.887   2.995  16.675  0.5726 -0.5484 -0.4760
  613MPD2     H 9138   1.698   3.146  16.387  1.3940 -0.6526 -0.8242
  613MPD2    H1 9139   1.847   2.800  16.590  1.6187  0.4897 -1.7671
  613MPD2    H2 9140   1.952   3.188  16.717  0.5868  0.1011 -1.0435
  613MPD2    H3 9141   1.967   2.965  16.742  1.8923 -2.9599 -3.1174
  613MPD2     N 9142   1.692   2.879  16.391 -0.2351  0.0131 -0.0625
  613MPD2    H5 9143   1.718   2.781  16.395  0.5742  0.2414  0.1426
  613MPD2    N1 9144   1.828   3.324  16.529  0.1486 -0.3940  0.6935
  613MPD2    H7 9145   1.898   3.383  16.573  0.9789  0.2123 -1.4509
  614TMC3    C1 9146   1.811   3.507  16.368 -0.1230  0.7899  0.4429
  614TMC3    C2 9147   1.917   3.455  16.297 -0.3727  0.0953 -0.1247
  614TMC3    C3 9148   1.903   3.450  16.157 -0.5977 -0.4000 -0.2431
  614TMC3    C4 9149   1.710   3.572  16.303 -0.2228 -0.3920  0.5574
  614TMC3    C5 9150   1.715   3.581  16.167 -0.9118  0.4995  0.5456
  614TMC3    C6 9151   1.809   3.524  16.087  0.0785 -0.2719  0.1858
  614TMC3     C 9152   1.751   3.396  16.439  0.0935 -0.1053 -0.0054
  614TMC3     O 9153   1.630   3.372  16.406  0.3891 -0.1023 -0.0107
  614TMC3     H 9154   1.988   3.390  16.347  1.0097  1.7203  0.0434
  614TMC3    H1 9155   1.618   3.585  16.358  1.3171  1.9233  2.5748
  614TMC3    H2 9156   1.801   3.509  15.980  0.9376 -0.0537  0.0859
  614TMC3    C7 9157   1.609   3.659  16.104 -0.3991 -0.2420 -0.2035
  614TMC3    C8 9158   1.930   3.319  16.118  0.6883  0.0325  0.3618
  614TMC3    O1 9159   1.531   3.710  16.186  0.2387 -0.4128  0.1825
  614TMC3    O2 9160   1.940   3.239  16.208  0.5923  0.0061 -0.2026
  615MPD2     C 9161   0.717   4.730  15.954  0.0959  0.4379 -0.1449
  615MPD2    C1 9162   0.746   0.098  15.864 -0.1818  0.1701  0.2781
  615MPD2    C2 9163   0.740   0.066  15.731 -0.8310  0.9880 -0.7791
  615MPD2    C3 9164   0.736   4.668  15.683  0.4932 -0.0645 -0.5287
  615MPD2    C4 9165   0.715   4.565  15.779 -0.1784  0.1535 -0.0117
  615MPD2    C5 9166   0.707   4.605  15.911 -0.2529 -0.1276 -0.4924
  615MPD2     H 9167   0.750   0.150  15.663 -1.9352  1.0084 -0.9197
  615MPD2    H1 9168   0.702   4.461  15.754 -0.0651  0.4693 -1.4187
  615MPD2    H2 9169   0.720   0.015  16.060 -0.8911 -0.3167  0.0118
  615MPD2    H3 9170   0.696   4.531  15.990  0.7846  1.3154  1.0045
  615MPD2     N 9171   0.741   4.639  15.538 -0.3659  0.2744 -0.0590
  615MPD2    H5 9172   0.751   4.719  15.476 -1.0534  3.1546  3.5414
  615MPD2    N1 9173   0.751   0.233  15.901  0.1878 -0.4555 -0.4081
  615MPD2    H7 9174   0.774   0.300  15.828 -1.2288 -1.0639 -1.4016
  616TMC3    C1 9175   0.701   0.420  16.026  0.4412 -0.5999 -0.3103
  616TMC3    C2 9176   0.801   0.486  15.959  0.0942 -0.5400 -0.3369
  616TMC3    C3 9177   0.781   0.621  15.941 -0.2137  0.0750  0.3294
  616TMC3    C4 9178   0.594   0.480  16.083  0.0245 -0.2741  0.3033
  616TMC3    C5 9179   0.585   0.617  16.069  0.9102 -0.2159 -0.0750
  616TMC3    C6 9180   0.679   0.687  15.999  0.3385 -0.3638  0.6618
  616TMC3     C 9181   0.701   0.281  16.024  0.0418 -0.5993 -0.0800
  616TMC3     O 9182   0.635   0.229  16.114  0.5012 -0.3206  0.5590
  616TMC3     H 9183   0.877   0.432  15.904  0.3509 -0.2517 -0.2648
  616TMC3    H1 9184   0.520   0.420  16.133 -1.7021 -0.2593 -2.2474
  616TMC3    H2 9185   0.667   0.795  15.995  1.1362 -0.3655 -1.7320
  616TMC3    C7 9186   0.487   0.684  16.142  0.7773  0.5102  0.4057
  616TMC3    C8 9187   0.890   0.699  15.896  0.3092  0.5354 -1.2991
  616TMC3    O1 9188   0.500   0.799  16.182  0.5651  0.8055 -0.9692
  616TMC3    O2 9189   0.865   0.811  15.855 -0.0358  0.5019  0.1739
  617MPD2     C 9190   3.401   3.051  13.524 -0.0084 -0.0355 -0.0626
  617MPD2    C1 9191   3.467   2.942  13.585 -0.3916  0.2498  0.5496
  617MPD2    C2 9192   3.399   2.869  13.680  0.1763  0.2185 -0.1913
  617MPD2    C3 9193   3.264   2.893  13.702 -0.2807  1.2971  0.4426
  617MPD2    C4 9194   3.198   2.986  13.629  0.4515  0.5349 -1.1071
  617MPD2    C5 9195   3.266   3.068  13.542 -0.4061 -0.4337  0.5294
  617MPD2     H 9196   3.448   2.788  13.731 -2.0016 -0.8492  0.2223
  617MPD2    H1 9197   3.093   3.003  13.651  0.6710  1.8837 -1.1187
  617MPD2    H2 9198   3.443   3.121  13.452 -4.0876  0.6664 -1.7920
  617MPD2    H3 9199   3.222   3.142  13.477  0.8261 -1.7095 -1.7609
  617MPD2     N 9200   3.196   2.814  13.795  0.0503  0.3183  0.1620
  617MPD2    H5 9201   3.096   2.830  13.796  0.2380  1.3523  1.4467
  617MPD2    N1 9202   3.599   2.921  13.544  0.0460  0.2162 -0.9199
  617MPD2    H7 9203   3.647   2.993  13.491  0.2093  0.6852 -0.1469
  618TMC3    C1 9204   3.818   2.831  13.556  0.3634 -0.5757 -0.1235
  618TMC3    C2 9205   3.887   2.746  13.473 -0.9600 -0.1852 -0.1106
  618TMC3    C3 9206   4.004   2.788  13.429 -0.2231  0.2137 -0.7510
  618TMC3    C4 9207   3.873   2.950  13.599 -0.3131  0.3050  0.2769
  618TMC3    C5 9208   3.992   2.990  13.542  0.7403  0.2046 -0.2349
  618TMC3    C6 9209   4.058   2.911  13.453  0.3540  0.1494  0.4748
  618TMC3     C 9210   3.675   2.807  13.583 -0.2423 -1.3287 -0.0181
  618TMC3     O 9211   3.648   2.697  13.637 -0.0097  0.4445 -0.7360
  618TMC3     H 9212   3.838   2.664  13.422 -1.4095 -0.5988  0.9772
  618TMC3    H1 9213   3.829   3.008  13.680 -0.7656  0.1778  0.1202
  618TMC3    H2 9214   4.163   2.932  13.431  0.1202  0.1465 -0.6223
  618TMC3    C7 9215   4.079   3.085  13.606  0.9014  0.0053  0.3227
  618TMC3    C8 9216   4.062   2.710  13.322 -0.3721  0.0766 -0.4109
  618TMC3    O1 9217   4.120   3.044  13.714 -0.3141 -0.0355  0.5369
  618TMC3    O2 9218   4.018   2.594  13.302 -0.5778  0.4704 -0.3000
  619MPD2     C 9219   0.329   3.893  13.861 -0.3859 -1.0689 -0.4916
  619MPD2    C1 9220   0.246   3.988  13.797 -0.4380 -0.4621 -0.2907
  619MPD2    C2 9221   0.125   4.017  13.858  0.4319 -0.2272 -0.2028
  619MPD2    C3 9222   0.087   3.955  13.975 -0.3754 -0.0684  0.2514
  619MPD2    C4 9223   0.166   3.857  14.036  0.4461 -0.4075 -0.8580
  619MPD2    C5 9224   0.288   3.829  13.975 -0.1805 -0.0626 -0.2316
  619MPD2     H 9225   0.061   4.089  13.808  1.3343  1.1069  0.5410
  619MPD2    H1 9226   0.136   3.804  14.126 -0.4632 -1.0557 -1.5519
  619MPD2    H2 9227   0.428   3.894  13.818  0.7829  0.9562  2.2551
  619MPD2    H3 9228   0.363   3.777  14.033  1.9942  2.1886 -1.0047
  619MPD2     N 9229   4.695   3.980  14.029  0.2651 -0.3877  0.4350
  619MPD2    H5 9230   4.665   3.920  14.105 -0.1678 -0.9182 -0.1556
  619MPD2    N1 9231   0.285   4.060  13.677 -0.0096  0.3970  0.2423
  619MPD2    H7 9232   0.220   4.137  13.665  0.3249  0.4075 -1.5220
  620TMC3    C1 9233   0.411   4.116  13.488 -0.0962 -0.6956 -0.0160
  620TMC3    C2 9234   0.303   4.193  13.448 -0.3812 -0.2330  1.0024
  620TMC3    C3 9235   0.307   4.243  13.319  0.3071  0.3844  0.0987
  620TMC3    C4 9236   0.531   4.111  13.417 -0.2514  0.8326  0.3867
  620TMC3    C5 9237   0.537   4.169  13.294  0.2293  0.7242 -0.3199
  620TMC3    C6 9238   0.425   4.231  13.245  0.3052 -0.1033  0.5073
  620TMC3     C 9239   0.396   4.023  13.597 -0.6479  0.4635 -0.0389
  620TMC3     O 9240   0.482   3.940  13.618  0.0379  0.1695  0.7844
  620TMC3     H 9241   0.203   4.192  13.490  0.1897  1.3804  2.3932
  620TMC3    H1 9242   0.610   4.054  13.465 -0.5428  0.6067  0.6006
  620TMC3    H2 9243   0.435   4.284  13.150  1.6470  0.0098  0.7139
  620TMC3    C7 9244   0.659   4.171  13.223 -0.1104  0.0829 -0.1525
  620TMC3    C8 9245   0.238   4.364  13.300  0.0123  0.7738  0.1942
  620TMC3    O1 9246   0.672   4.115  13.117 -0.2211  0.1095  0.1523
  620TMC3    O2 9247   0.231   4.411  13.188 -0.0174 -0.2280 -0.1735
  621MPD2     C 9248   4.725   3.889  10.216 -0.2744 -0.5678  0.4948
  621MPD2    C1 9249   4.687   3.900  10.080  0.4203 -0.2898 -0.2941
  621MPD2    C2 9250   0.010   4.006  10.011 -0.4537 -0.0540 -0.3610
  621MPD2    C3 9251   0.090   4.099  10.070 -0.3827  0.2985 -0.8167
  621MPD2    C4 9252   0.133   4.077  10.199  0.4249 -0.6619 -0.3488
  621MPD2    C5 9253   0.075   3.980  10.273  0.8649 -0.2130  0.0880
  621MPD2     H 9254   4.718   4.028   9.908  1.3135  0.2868 -0.7475
  621MPD2    H1 9255   0.205   4.144  10.246 -1.5197  1.3449 -0.2030
  621MPD2    H2 9256   4.685   3.806  10.272  1.0271 -2.6431 -1.6355
  621MPD2    H3 9257   0.093   3.968  10.380 -0.8649  0.2418  0.4387
  621MPD2     N 9258   0.141   4.204   9.991 -0.3163 -0.3628  0.3890
  621MPD2    H5 9259   0.114   4.201   9.893  0.6095  0.8422  0.1034
  621MPD2    N1 9260   4.598   3.814  10.009  0.0843  0.9024 -0.0608
  621MPD2    H7 9261   4.562   3.854   9.923  1.4204 -1.0308 -1.4886
  622TMC3    C1 9262   4.477   3.613   9.961 -1.0018  0.2807 -0.4613
  622TMC3    C2 9263   4.416   3.505  10.023  0.5291 -0.5029 -0.3068
  622TMC3    C3 9264   4.290   3.465   9.982  0.6987  0.8121 -0.0108
  622TMC3    C4 9265   4.422   3.674   9.854  0.0886  0.3049  0.1240
  622TMC3    C5 9266   4.297   3.629   9.815 -0.4712 -0.6197 -0.0224
  622TMC3    C6 9267   4.232   3.530   9.879 -0.5322  0.5037  0.2475
  622TMC3     C 9268   4.579   3.678  10.041 -0.1370  0.4532 -0.3051
  622TMC3     O 9269   4.638   3.619  10.132 -0.0762 -0.0722 -0.5293
  622TMC3     H 9270   4.451   3.468  10.119  0.3508  1.8311  0.6329
  622TMC3    H1 9271   4.481   3.748   9.801 -0.6290 -0.9908 -2.4704
  622TMC3    H2 9272   4.127   3.504   9.868 -0.4810  0.4539 -0.1171
  622TMC3    C7 9273   4.222   3.704   9.725 -0.4975 -0.4072 -0.1843
  622TMC3    C8 9274   4.211   3.373  10.063 -0.2252 -0.2937 -0.6066
  622TMC3    O1 9275   4.106   3.673   9.695  0.5781  0.4851  0.4458
  622TMC3    O2 9276   4.119   3.317  10.008  0.5378 -0.2506  0.1571
  623MPD2     C 9277   4.624   4.479  15.824  0.6274 -0.9026 -0.4273
  623MPD2    C1 9278   4.524   4.511  15.915  0.7698 -0.4056 -0.6255
  623MPD2    C2 9279   4.559   4.559  16.035 -0.3256  0.5305 -0.7764
  623MPD2    C3 9280   4.690   4.578  16.067 -0.1691 -0.3822  1.2149
  623MPD2    C4 9281   0.052   4.572  15.968  0.3701  0.1484  0.0615
  623MPD2    C5 9282   0.016   4.516  15.845 -1.1310  0.5480  0.4012
  623MPD2     H 9283   4.485   4.592  16.107 -1.2227  0.2841 -1.5873
  623MPD2    H1 9284   0.158   4.584  15.989  0.6639 -0.7843 -0.8502
  623MPD2    H2 9285   4.602   4.436  15.727 -0.5554 -2.6647  0.6225
  623MPD2    H3 9286   0.103   4.497  15.782 -1.0961  1.0587  0.2967
  623MPD2     N 9287   4.720   4.619  16.195 -0.1136 -0.7433  0.1455
  623MPD2    H5 9288   4.643   4.613  16.261  0.3435  1.5951  0.9146
  623MPD2    N1 9289   4.383   4.492  15.904 -0.4235  0.0782 -0.5855
  623MPD2    H7 9290   4.327   4.539  15.974  2.0157  0.5693  1.0270
  624TMC3    C1 9291   0.200   4.700  16.599 -0.4064  0.3528  0.2234
  624TMC3    C2 9292   0.099   4.626  16.653 -0.5172 -0.3342  0.7153
  624TMC3    C3 9293   0.019   4.538  16.583  0.3815  0.0726  0.2036
  624TMC3    C4 9294   0.216   4.710  16.463 -0.9862  0.3117  0.0346
  624TMC3    C5 9295   0.125   4.627  16.384  0.1903 -0.2164 -0.3528
  624TMC3    C6 9296   0.023   4.545  16.446  0.4988  0.5197 -0.1516
  624TMC3     C 9297   0.290   0.028  16.704  0.7010 -0.2059  0.7128
  624TMC3     O 9298   0.270   0.003  16.826  0.0014  0.1015  0.4359
  624TMC3     H 9299   0.084   4.619  16.760  2.3874 -0.5617  1.1127
  624TMC3    H1 9300   0.294   0.032  16.415 -0.3331 -0.6459 -0.0418
  624TMC3    H2 9301   4.703   4.473  16.386 -0.5099 -0.7864  2.3625
  624TMC3    C7 9302   0.111   4.643  16.240 -0.0358  0.9952 -0.0234
  624TMC3    C8 9303   4.624   4.521  16.629 -0.1902 -0.6592 -0.0745
  624TMC3    O1 9304   0.188   4.723  16.186  0.0418 -0.3579  0.4370
  624TMC3    O2 9305   4.565   4.413  16.611  0.5523  0.3148  0.3906
  625MPD2     C 9306   0.242   1.308   0.530  0.3434  0.2106 -0.5021
  625MPD2    C1 9307   0.232   1.441   0.549 -0.2123  0.3875 -1.5832
  625MPD2    C2 9308   0.331   1.520   0.505  0.6806 -0.3381 -0.0676
  625MPD2    C3 9309   0.448   1.472   0.443  0.1773  0.7931  0.4454
  625MPD2    C4 9310   0.463   1.339   0.438 -0.2211 -0.9914  0.0858
  625MPD2    C5 9311   0.358   1.256   0.479 -0.0037 -0.4819 -0.2894
  625MPD2     H 9312   0.319   1.627   0.504 -1.0258 -0.5356  0.0129
  625MPD2    H1 9313   0.553   1.289   0.402  1.4189  0.1669  2.5776
  625MPD2    H2 9314   0.164   1.236   0.553  1.5165 -0.8469  0.2117
  625MPD2    H3 9315   0.372   1.148   0.479 -0.6094 -0.5590 -1.1269
  625MPD2     N 9316   0.547   1.568   0.406  0.6332 -0.1227  0.0291
  625MPD2    H5 9317   0.527   1.667   0.409 -1.3268 -0.5289  0.6792
  625MPD2    N1 9318   0.115   1.501   0.589 -0.6478 -0.1750 -0.9178
  625MPD2    H7 9319   0.114   1.602   0.603 -0.5440 -0.5805  1.9882
  626TMC3    C1 9320   4.648   1.547   0.670  0.5482 -0.3374  0.3013
  626TMC3    C2 9321   4.596   1.644   0.582  0.5114 -0.2853 -0.3039
  626TMC3    C3 9322   4.523   1.753   0.626 -0.4875  0.3077 -0.6077
  626TMC3    C4 9323   4.635   1.564   0.805 -0.2790  0.1062  0.1376
  626TMC3    C5 9324   4.577   1.684   0.846 -0.5471 -0.4016 -0.0268
  626TMC3    C6 9325   4.515   1.771   0.761  0.8768 -0.5490 -0.4525
  626TMC3     C 9326   4.734   1.443   0.619  0.6609 -0.3975 -0.6126
  626TMC3     O 9327   4.694   1.327   0.635 -0.0168 -0.0928 -0.4580
  626TMC3     H 9328   4.619   1.635   0.476 -0.4170  2.7057 -0.7397
  626TMC3    H1 9329   4.662   1.481   0.869  2.6505  0.6895 -0.3410
  626TMC3    H2 9330   4.463   1.858   0.801 -1.0850 -1.1247 -1.7594
  626TMC3    C7 9331   4.498   1.663   0.971 -0.1573 -0.1656  0.2222
  626TMC3    C8 9332   4.389   1.749   0.585  0.2591 -0.1744 -0.5114
  626TMC3    O1 9333   4.560   1.622   1.070  0.0026 -0.3011  0.0355
  626TMC3    O2 9334   4.299   1.744   0.672 -0.0099 -0.2796  0.6830
  627MPD2     C 9335   3.567   1.632  14.294  0.4859 -0.0382  0.0647
  627MPD2    C1 9336   3.510   1.629  14.416 -0.1456  0.8826  0.7565
  627MPD2    C2 9337   3.401   1.543  14.442  0.9083 -0.4890  0.7747
  627MPD2    C3 9338   3.354   1.464  14.341  0.3664  0.1032  0.2387
  627MPD2    C4 9339   3.411   1.462  14.221 -0.3554  0.2071 -0.0462
  627MPD2    C5 9340   3.523   1.539  14.206 -0.7778  0.7569 -0.0840
  627MPD2     H 9341   3.346   1.544  14.535  2.9439 -2.3583  1.9987
  627MPD2    H1 9342   3.380   1.405  14.134 -0.7360  0.7447 -0.2663
  627MPD2    H2 9343   3.654   1.689  14.264  0.4293  1.1480  2.1537
  627MPD2    H3 9344   3.579   1.531  14.113 -0.5631  1.5121 -0.0176
  627MPD2     N 9345   3.244   1.381  14.368 -0.2490  0.2573 -0.6424
  627MPD2    H5 9346   3.208   1.387  14.462 -1.7993 -0.0868 -1.2100
  627MPD2    N1 9347   3.558   1.724  14.504 -0.5094  0.1208 -0.0360
  627MPD2    H7 9348   3.623   1.794  14.470 -2.5261  1.4947 -1.0431
  628TMC3    C1 9349   3.615   1.825  14.701  0.5953 -0.0553 -0.0991
  628TMC3    C2 9350   3.726   1.765  14.745  0.1538 -0.1515  0.3717
  628TMC3    C3 9351   3.835   1.848  14.748  0.7548  0.6794 -1.2355
  628TMC3    C4 9352   3.598   1.958  14.661  0.3755  0.2970 -0.5178
  628TMC3    C5 9353   3.711   2.032  14.679  0.1094 -0.3895 -0.1327
  628TMC3    C6 9354   3.826   1.980  14.718 -0.2666 -0.4004 -0.7041
  628TMC3     C 9355   3.524   1.727  14.638  0.4816  0.4519  0.0231
  628TMC3     O 9356   3.473   1.645  14.713 -0.2455 -0.4620  0.7245
  628TMC3     H 9357   3.731   1.660  14.774 -1.3593 -0.6308 -1.1514
  628TMC3    H1 9358   3.510   1.997  14.611 -1.3565 -0.5081  1.8833
  628TMC3    H2 9359   3.914   2.043  14.709 -0.1405 -1.0284 -3.7707
  628TMC3    C7 9360   3.706   2.171  14.652 -0.3185  1.1974 -1.2305
  628TMC3    C8 9361   3.967   1.791  14.726  0.3850 -0.8655  0.0245
  628TMC3    O1 9362   3.789   2.241  14.706  0.0644  0.6426  0.0150
  628TMC3    O2 9363   4.058   1.866  14.691  0.2178 -0.2730  0.4489
  629MPD2     C 9364   1.385   0.790  15.795  0.6793 -0.2655 -0.2397
  629MPD2    C1 9365   1.383   0.697  15.894  0.8044 -0.3345  0.3909
  629MPD2    C2 9366   1.257   0.653  15.934  0.4488 -0.4033 -0.8757
  629MPD2    C3 9367   1.134   0.692  15.876  0.1621 -0.7678 -0.5911
  629MPD2    C4 9368   1.148   0.797  15.791  0.5998  0.5442  0.2511
  629MPD2    C5 9369   1.268   0.842  15.747 -0.1196 -0.5459  0.4373
  629MPD2     H 9370   1.255   0.571  16.004 -1.0695 -0.9559 -1.5844
  629MPD2    H1 9371   1.056   0.843  15.754  0.6742 -1.0613 -1.9395
  629MPD2    H2 9372   1.480   0.827  15.757  0.9668 -0.2084  0.5341
  629MPD2    H3 9373   1.277   0.912  15.665  0.3742 -0.7877  0.2812
  629MPD2     N 9374   1.012   0.636  15.919  0.2937  0.1889 -0.2147
  629MPD2    H5 9375   1.011   0.555  15.980 -0.0081 -0.4025 -0.9944
  629MPD2    N1 9376   1.511   0.673  15.952  0.2436  0.2816 -0.6522
  629MPD2    H7 9377   1.587   0.732  15.920  1.6603 -1.6380 -0.8313
  630TMC3    C1 9378   1.690   0.571  16.073  0.5578  0.1497 -0.2325
  630TMC3    C2 9379   1.767   0.681  16.046 -0.0551  0.5797  0.3190
  630TMC3    C3 9380   1.899   0.668  16.060 -0.4433 -0.5710 -0.3093
  630TMC3    C4 9381   1.745   0.450  16.100  0.2663 -0.5258 -0.0449
  630TMC3    C5 9382   1.881   0.446  16.118 -0.2691 -0.0870  0.0599
  630TMC3    C6 9383   1.957   0.552  16.094  0.4908 -0.0747  0.2044
  630TMC3     C 9384   1.547   0.579  16.042  0.1580 -0.5886  0.5424
  630TMC3     O 9385   1.468   0.492  16.079 -0.6360  0.1018  0.0691
  630TMC3     H 9386   1.722   0.776  16.018  1.3070  1.3922  0.9131
  630TMC3    H1 9387   1.673   0.379  16.140  0.7028 -0.3496  1.0580
  630TMC3    H2 9388   2.065   0.544  16.103  0.8415  2.1244 -1.8656
  630TMC3    C7 9389   1.952   0.332  16.169 -1.2138 -0.0903  0.5827
  630TMC3    C8 9390   1.987   0.789  16.059  0.1847 -0.3692 -0.1520
  630TMC3    O1 9391   2.074   0.337  16.183 -0.4150 -0.1271  0.3288
  630TMC3    O2 9392   2.092   0.769  16.126 -0.2926 -0.3509 -0.0713
  631MPD2     C 9393   4.609   4.683  15.230 -0.6966 -0.5434 -0.3815
  631MPD2    C1 9394   4.684   0.046  15.288 -0.0717 -0.1215 -0.1296
  631MPD2    C2 9395   0.087   0.037  15.285  0.3803  0.1245 -0.4594
  631MPD2    C3 9396   0.148   4.662  15.227  0.4385  0.3655  0.6620
  631MPD2    C4 9397   0.075   4.557  15.172 -0.1382  0.1255  0.6752
  631MPD2    C5 9398   4.670   4.573  15.170  0.2378  0.7059  0.1666
  631MPD2     H 9399   0.156   0.112  15.322  0.8234 -0.9860  0.9896
  631MPD2    H1 9400   0.115   4.466  15.129 -2.0106 -0.4799  0.2071
  631MPD2    H2 9401   4.503   4.703  15.224 -0.9220 -1.6103 -0.1216
  631MPD2    H3 9402   4.606   4.495  15.133  1.4566 -0.4440  0.4895
  631MPD2     N 9403   0.291   4.661  15.229  0.2011 -0.0987 -0.2414
  631MPD2    H5 9404   0.342   0.005  15.267  0.8681 -0.1601 -1.0032
  631MPD2    N1 9405   4.616   0.162  15.337 -0.1313  0.5202  0.3144
  631MPD2    H7 9406   4.518   0.176  15.315  0.6776  0.9912 -2.9025
  632TMC3    C1 9407   4.598   0.380  15.436  0.0909 -0.6607  0.4157
  632TMC3    C2 9408   4.462   0.381  15.427 -0.0970  0.5907 -0.5496
  632TMC3    C3 9409   4.405   0.505  15.433  0.3882  0.2755  0.5357
  632TMC3    C4 9410   4.668   0.487  15.483  0.0462  0.0580  0.5222
  632TMC3    C5 9411   4.607   0.603  15.499  0.0681 -0.2840 -0.3249
  632TMC3    C6 9412   4.481   0.618  15.455 -0.4714 -0.1773 -0.3686
  632TMC3     C 9413   4.674   0.254  15.424  0.4309 -0.0792  0.4168
  632TMC3     O 9414   0.048   0.248  15.479 -0.4563  0.3224 -0.5363
  632TMC3     H 9415   4.400   0.295  15.402  2.8821 -0.8623 -2.9907
  632TMC3    H1 9416   0.037   0.475  15.513 -0.6101 -1.1466  2.2845
  632TMC3    H2 9417   4.434   0.715  15.470  0.8563  0.2976  0.8145
  632TMC3    C7 9418   4.692   0.714  15.456 -0.6300 -0.0569  0.2331
  632TMC3    C8 9419   4.266   0.515  15.388 -0.4666 -0.1997  0.8241
  632TMC3    O1 9420   4.691   0.806  15.534 -0.0998 -0.0445  0.2721
  632TMC3    O2 9421   4.214   0.416  15.335  0.2040 -0.3121 -0.7348
  633MPD2     C 9422   4.309   3.123  17.379 -0.2518  0.2156  0.5064
  633MPD2    C1 9423   4.404   3.065  17.293 -0.3351 -0.1089  0.9478
  633MPD2    C2 9424   4.423   2.929  17.303 -0.2108 -0.0965 -0.0242
  633MPD2    C3 9425   4.347   2.851  17.388  0.0522  0.1479  0.8858
  633MPD2    C4 9426   4.258   2.912  17.474 -0.1079 -0.4331 -0.1177
  633MPD2    C5 9427   4.244   3.045  17.475 -0.4184  0.5945 -0.1397
  633MPD2     H 9428   4.493   2.882  17.235  0.0923  0.7603 -0.3082
  633MPD2    H1 9429   4.193   2.851  17.536 -1.1657 -0.6914 -1.4674
  633MPD2    H2 9430   4.275   3.226  17.375  2.4766  1.0967 -0.3090
  633MPD2    H3 9431   4.176   3.098  17.540 -0.5964  1.2042 -0.8247
  633MPD2     N 9432   4.364   2.711  17.388  0.4190  0.1121 -0.4133
  633MPD2    H5 9433   4.431   2.671  17.323 -0.8013  0.4237 -1.8594
  633MPD2    N1 9434   4.485   3.136  17.206 -0.0258 -0.3088  0.1775
  633MPD2    H7 9435   4.544   3.079  17.146  0.2891  0.5222 -0.2996
  634TMC3    C1 9436   4.517   3.296  17.040  0.4156 -0.1774  0.0411
  634TMC3    C2 9437   4.612   3.211  16.988 -0.1064 -0.1449  1.3409
  634TMC3    C3 9438   4.652   3.237  16.864 -0.6473  0.1773 -0.0112
  634TMC3    C4 9439   4.477   3.412  16.977 -0.6392  0.1797 -0.1876
  634TMC3    C5 9440   4.531   3.437  16.848 -0.0518  0.7426 -0.1240
  634TMC3    C6 9441   4.619   3.349  16.793 -1.1220 -0.3981  0.0291
  634TMC3     C 9442   4.464   3.267  17.174 -0.2403 -0.0746 -0.4183
  634TMC3     O 9443   4.387   3.350  17.222 -0.1388 -0.4195  0.2753
  634TMC3     H 9444   4.675   3.144  17.046 -0.1078  0.0396  1.5514
  634TMC3    H1 9445   4.401   3.478  17.017  0.2239  0.3681  1.1562
  634TMC3    H2 9446   4.644   3.365  16.689 -1.7246 -0.6435 -0.1534
  634TMC3    C7 9447   4.462   3.526  16.756  0.5485  0.0614  0.6713
  634TMC3    C8 9448   4.715   3.131  16.789 -0.2326 -0.0923 -0.0585
  634TMC3    O1 9449   4.484   3.505  16.639  0.1966  0.2167 -0.1536
  634TMC3    O2 9450   4.696   3.017  16.830 -0.3130 -0.4942 -0.6409
  635TMC3    C1 9451   4.408   3.846   0.353  0.0924 -0.7426 -1.1688
  635TMC3    C2 9452   4.479   3.729   0.353 -0.2405 -0.0968  0.2978
  635TMC3    C3 9453   4.403   3.616   0.361 -0.4052 -0.9543 -0.3278
  635TMC3    C4 9454   4.277   3.853   0.384  0.9327  0.2194  0.3049
  635TMC3    C5 9455   4.206   3.740   0.409 -1.3614  0.1034  0.6951
  635TMC3    C6 9456   4.271   3.617   0.390 -0.0787 -0.6050  0.6493
  635TMC3     C 9457   4.477   3.959   0.301  0.3472 -0.1904 -0.7209
  635TMC3     O 9458   4.597   3.954   0.333  0.1271 -0.6957 -0.2460
  635TMC3     H 9459   4.580   3.739   0.316  0.1354  0.7865  1.5794
  635TMC3    H1 9460   4.237   3.953   0.393  1.0451  0.3268 -0.3782
  635TMC3    H2 9461   4.219   3.521   0.392 -0.4211 -0.5009 -2.7293
  635TMC3    C7 9462   4.069   3.757   0.446  0.3198 -0.5349 -0.2802
  635TMC3    C8 9463   4.467   3.491   0.345  0.4202  0.2953  0.7379
  635TMC3    O1 9464   4.022   3.868   0.440  0.0030 -0.6628  0.8603
  635TMC3    O2 9465   4.399   3.400   0.302  0.2283  0.5656  0.5876
  636MPD2     C 9466   1.256   3.316  15.768 -0.2279  0.0858 -0.6580
  636MPD2    C1 9467   1.275   3.323  15.903 -1.3016 -0.3718 -0.1482
  636MPD2    C2 9468   1.313   3.203  15.966  0.4210  0.7731  0.0772
  636MPD2    C3 9469   1.326   3.085  15.896  0.1404  0.2370  0.2847
  636MPD2    C4 9470   1.334   3.090  15.759 -0.1227  0.4747  1.3017
  636MPD2    C5 9471   1.295   3.207  15.699  0.1543 -0.4667  0.1573
  636MPD2     H 9472   1.328   3.201  16.073  0.2957 -0.8975  0.0539
  636MPD2    H1 9473   1.347   3.000  15.700  0.0819  0.8300  0.8025
  636MPD2    H2 9474   1.225   3.403  15.711 -0.2518  0.2659 -0.3676
  636MPD2    H3 9475   1.299   3.210  15.590  0.6464 -2.1666  0.1404
  636MPD2     N 9476   1.354   2.970  15.977  0.7137  0.1913  0.1446
  636MPD2    H5 9477   1.359   2.977  16.078 -3.4583 -0.1161  0.3822
  636MPD2    N1 9478   1.246   3.440  15.979 -1.0421 -0.4186  0.6638
  636MPD2    H7 9479   1.258   3.433  16.079 -0.6367 -0.2325  0.6299
  637TMC3    C1 9480   1.418   2.751  16.037 -0.9487  0.5274 -0.0512
  637TMC3    C2 9481   1.433   2.796  16.165 -0.1491 -0.1552 -0.0936
  637TMC3    C3 9482   1.557   2.792  16.230  0.2062  0.7444 -0.1947
  637TMC3    C4 9483   1.517   2.677  15.982  0.0015  0.3783 -0.0698
  637TMC3    C5 9484   1.637   2.682  16.040  0.5668 -0.1063 -0.0802
  637TMC3    C6 9485   1.663   2.741  16.164 -0.1123 -0.1886 -0.0140
  637TMC3     C 9486   1.365   2.840  15.934  0.6928 -0.0067  0.2980
  637TMC3     O 9487   1.360   2.803  15.816  0.2206  0.3849 -0.0727
  637TMC3     H 9488   1.351   2.845  16.217 -0.1533  1.4455 -1.5916
  637TMC3    H1 9489   1.514   2.633  15.883 -0.1854  0.9853 -0.3317
  637TMC3    H2 9490   1.761   2.732  16.208 -0.4931  0.2154  0.9117
  637TMC3    C7 9491   1.740   2.719  15.947 -0.0059 -0.7729 -0.2050
  637TMC3    C8 9492   1.589   2.911  16.307  0.3269 -0.0307 -0.1186
  637TMC3    O1 9493   1.759   2.655  15.845  0.5316 -0.0193 -0.1431
  637TMC3    O2 9494   1.532   3.016  16.296 -0.0054  0.8257 -0.8294
  638MPD2     C 9495   0.819   2.600  15.073  0.2778  0.1204  0.1356
  638MPD2    C1 9496   0.720   2.546  14.999  0.2264  0.5280 -0.5185
  638MPD2    C2 9497   0.710   2.401  15.007 -0.2690  0.0099  0.5329
  638MPD2    C3 9498   0.804   2.329  15.082 -0.3822  0.6486 -0.3256
  638MPD2    C4 9499   0.892   2.398  15.159 -0.4966 -0.0555 -0.2639
  638MPD2    C5 9500   0.897   2.534  15.160 -0.0842  0.1949 -0.5915
  638MPD2     H 9501   0.647   2.349  14.936 -1.2363  2.4013 -0.3744
  638MPD2    H1 9502   0.967   2.356  15.225 -1.0539  0.2853  0.5877
  638MPD2    H2 9503   0.838   2.707  15.072  1.1348 -0.0286  0.2745
  638MPD2    H3 9504   0.978   2.596  15.197  1.4770 -0.7101 -2.4920
  638MPD2     N 9505   0.795   2.187  15.080  0.0972 -0.4914 -0.0212
  638MPD2    H5 9506   0.730   2.140  15.019 -0.6889 -0.8797  1.1226
  638MPD2    N1 9507   0.655   2.614  14.903  0.4386 -0.0114  0.2980
  638MPD2    H7 9508   0.680   2.712  14.890 -1.4733  0.4402 -0.0046
  639TMC3    C1 9509   0.876   1.967  15.082  0.3798 -0.0149 -0.2339
  639TMC3    C2 9510   0.739   1.929  15.072  0.0112  0.4839 -0.0985
  639TMC3    C3 9511   0.712   1.823  14.989 -0.2388 -0.2801 -0.4105
  639TMC3    C4 9512   0.970   1.908  15.000  0.3881  0.4981  0.2000
  639TMC3    C5 9513   0.933   1.798  14.918 -0.6486  0.0092 -0.3517
  639TMC3    C6 9514   0.804   1.756  14.914 -0.1656 -0.2238  0.1958
  639TMC3     C 9515   0.904   2.103  15.123 -0.5532  0.5165 -0.0198
  639TMC3     O 9516   1.010   2.133  15.177  0.4362  0.0516  0.8438
  639TMC3     H 9517   0.656   1.985  15.113  0.9236  1.5354  0.3185
  639TMC3    H1 9518   1.066   1.957  14.988  0.1607  0.8708 -0.0751
  639TMC3    H2 9519   0.769   1.694  14.833 -0.9035 -0.0362  0.3622
  639TMC3    C7 9520   1.013   1.757  14.804 -0.2293  0.2474  0.0611
  639TMC3    C8 9521   0.592   1.817  14.908  0.1337  1.0245 -0.0079
  639TMC3    O1 9522   0.942   1.721  14.712  0.2201  0.4909 -0.5167
  639TMC3    O2 9523   0.595   1.810  14.784 -0.6779 -0.0118  0.0782
  640MPD2     C 9524   0.798   0.878  10.443 -0.7121  0.3123 -0.0264
  640MPD2    C1 9525   0.795   0.926  10.312  0.5011  0.5372 -0.0831
  640MPD2    C2 9526   0.818   1.064  10.286 -0.7034  0.4492  0.4450
  640MPD2    C3 9527   0.843   1.155  10.387  0.2271  0.5861 -0.0937
  640MPD2    C4 9528   0.828   1.111  10.517 -0.3076 -0.2661 -0.1026
  640MPD2    C5 9529   0.809   0.978  10.538 -0.1867 -0.2943  0.2148
  640MPD2     H 9530   0.831   1.099  10.184  4.1617 -0.2083  0.8584
  640MPD2    H1 9531   0.837   1.172  10.607 -0.6428 -0.9409  0.3911
  640MPD2    H2 9532   0.784   0.773  10.466 -3.2077  1.4651  3.5636
  640MPD2    H3 9533   0.800   0.947  10.641  0.3738  0.1074  0.3825
  640MPD2     N 9534   0.873   1.287  10.348 -0.1857  0.6027 -0.0938
  640MPD2    H5 9535   0.877   1.309  10.249  2.2433 -0.6626 -0.2602
  640MPD2    N1 9536   0.755   0.829  10.213 -0.5964 -0.1057 -0.3748
  640MPD2    H7 9537   0.719   0.742  10.252  1.1289  0.1369  1.7925
  641TMC3    C1 9538   0.714   0.743  10.004  0.6150 -0.5499 -0.4684
  641TMC3    C2 9539   0.754   0.613  10.029  0.5335 -0.3449  0.0214
  641TMC3    C3 9540   0.719   0.515   9.938 -0.8349  0.0311  1.3174
  641TMC3    C4 9541   0.660   0.775   9.879 -1.2896 -0.0108 -0.1826
  641TMC3    C5 9542   0.641   0.676   9.787  0.2149 -0.2981  0.2797
  641TMC3    C6 9543   0.668   0.545   9.819 -0.5452  0.3464 -0.6457
  641TMC3     C 9544   0.744   0.862  10.080 -0.3005 -0.0861 -0.3110
  641TMC3     O 9545   0.747   0.967  10.020  0.0203 -0.0523  0.1320
  641TMC3     H 9546   0.832   0.593  10.102 -0.6379 -2.1669  0.7577
  641TMC3    H1 9547   0.646   0.875   9.841  0.9356  0.0368 -0.8695
  641TMC3    H2 9548   0.654   0.471   9.742  1.9459 -0.7811 -0.0110
  641TMC3    C7 9549   0.634   0.726   9.645 -0.3922 -0.1029 -0.0483
  641TMC3    C8 9550   0.775   0.375   9.947 -0.0490  0.1734  0.5396
  641TMC3    O1 9551   0.585   0.838   9.616  0.8809 -0.2991  0.1693
  641TMC3    O2 9552   0.768   0.315   9.842 -0.2579 -0.1622  0.7764
  642TMC3    C1 9553   2.105   1.865  12.603 -0.1264 -0.9748  0.3214
  642TMC3    C2 9554   2.228   1.899  12.549  0.6533  0.2423  0.4818
  642TMC3    C3 9555   2.266   1.837  12.434  0.2568  0.0765 -1.1911
  642TMC3    C4 9556   2.032   1.758  12.556  0.3290 -0.2699  0.4667
  642TMC3    C5 9557   2.077   1.697  12.445 -0.6975 -0.1148 -0.4853
  642TMC3    C6 9558   2.187   1.741  12.377 -0.6771 -0.0426 -0.9382
  642TMC3     C 9559   2.058   1.930  12.725  0.4031  0.5077  0.5191
  642TMC3     O 9560   2.141   1.999  12.783  0.0162 -0.3137 -0.4200
  642TMC3     H 9561   2.294   1.974  12.591 -0.6508  0.5045  2.0637
  642TMC3    H1 9562   1.948   1.719  12.612 -1.1843 -0.2337 -1.7423
  642TMC3    H2 9563   2.220   1.684  12.291  2.7298  0.3469  0.1196
  642TMC3    C7 9564   1.988   1.598  12.388 -0.5447  0.1841  0.4874
  642TMC3    C8 9565   2.395   1.855  12.378 -0.3146 -0.1769  0.0714
  642TMC3    O1 9566   1.977   1.596  12.267 -0.2623  0.1875  0.1029
  642TMC3    O2 9567   2.393   1.839  12.256 -0.4949 -0.0302 -0.4786
  643TMC3    C1 9568   1.487   1.494  17.531  0.4424  0.0327  0.4484
  643TMC3    C2 9569   1.407   1.553  17.440 -0.8909  0.7105 -0.2219
  643TMC3    C3 9570   1.375   1.492  17.317 -0.2993 -0.2859  0.0898
  643TMC3    C4 9571   1.537   1.368  17.507  0.0242  0.6357  0.2247
  643TMC3    C5 9572   1.497   1.299  17.395  0.4777  0.5132  0.9741
  643TMC3    C6 9573   1.422   1.367  17.301 -0.5965 -0.3860 -0.8557
  643TMC3     C 9574   1.581   1.596  17.574  0.1010 -0.0286  1.2180
  643TMC3     O 9575   1.591   1.696  17.507 -0.6131 -0.0418 -0.3231
  643TMC3     H 9576   1.360   1.649  17.463 -1.6375  0.5601 -1.1032
  643TMC3    H1 9577   1.586   1.320  17.591  1.0077  0.9255 -0.1917
  643TMC3    H2 9578   1.404   1.322  17.204  0.9145 -2.1879 -0.3143
  643TMC3    C7 9579   1.590   1.205  17.345  0.3317 -0.2512  0.2023
  643TMC3    C8 9580   1.399   1.582  17.204 -0.7694 -0.3252 -0.3808
  643TMC3    O1 9581   1.697   1.209  17.399  0.4704  0.5055 -0.0664
  643TMC3    O2 9582   1.370   1.552  17.090  0.0428  0.1694 -0.5597
  644MPD2     C 9583   0.970   1.306   9.239 -0.6335 -0.0053 -0.4319
  644MPD2    C1 9584   0.980   1.245   9.365 -0.4128 -0.0879  0.0883
  644MPD2    C2 9585   0.970   1.336   9.470  0.1262  1.4788 -0.7839
  644MPD2    C3 9586   0.935   1.469   9.450 -0.8972 -0.3737 -0.4567
  644MPD2    C4 9587   0.921   1.517   9.316  0.3270  0.3283  0.4050
  644MPD2    C5 9588   0.943   1.436   9.212 -0.2189  0.2687  0.4255
  644MPD2     H 9589   0.979   1.302   9.573  2.4087  0.7528 -1.2221
  644MPD2    H1 9590   0.885   1.619   9.304  0.6172  0.3261 -0.5060
  644MPD2    H2 9591   0.979   1.245   9.150  1.1230 -1.5637  0.8110
  644MPD2    H3 9592   0.928   1.462   9.108 -2.0228 -2.3863  0.0410
  644MPD2     N 9593   0.933   1.548   9.570 -0.2720 -0.2994 -0.2844
  644MPD2    H5 9594   0.938   1.500   9.659  1.8377  1.9994  0.8323
  644MPD2    N1 9595   1.007   1.106   9.381 -0.2223  0.1522 -0.1241
  644MPD2    H7 9596   1.007   1.058   9.291 -1.7008 -1.3587  0.6840
  645TMC3    C1 9597   0.927   1.729   9.711  0.5761  0.4394  0.4144
  645TMC3    C2 9598   0.852   1.665   9.804 -0.2525  0.1741  0.3391
  645TMC3    C3 9599   0.837   1.723   9.929 -0.7384 -0.3554 -0.3633
  645TMC3    C4 9600   0.988   1.849   9.735 -0.1365 -0.2213 -0.1248
  645TMC3    C5 9601   0.977   1.896   9.868 -0.0035  0.2624 -0.0538
  645TMC3    C6 9602   0.907   1.836   9.966 -1.2816 -0.5481  0.1333
  645TMC3     C 9603   0.913   1.686   9.575  0.0797 -0.0295 -0.6858
  645TMC3     O 9604   0.922   1.765   9.484  0.2032  0.3854 -0.0297
  645TMC3     H 9605   0.788   1.584   9.770  0.3965 -0.6933  1.2074
  645TMC3    H1 9606   1.045   1.901   9.660  1.7268 -2.6434 -0.4066
  645TMC3    H2 9607   0.910   1.879  10.065  0.8462  1.3080 -0.7300
  645TMC3    C7 9608   1.086   1.982   9.915 -0.0904  0.5995  0.5521
  645TMC3    C8 9609   0.751   1.671  10.035 -0.4012 -0.2002  0.6160
  645TMC3    O1 9610   1.131   1.966  10.030  0.4811 -0.2494  0.0676
  645TMC3    O2 9611   0.738   1.736  10.140 -0.0597  0.4889 -0.2058
  646MPD2     C 9612   0.850   1.108  14.377 -0.2007 -0.3375 -0.0958
  646MPD2    C1 9613   0.787   1.109  14.492  0.2113 -0.3754 -0.2018
  646MPD2    C2 9614   0.664   1.171  14.502 -0.5447  0.0420 -0.0072
  646MPD2    C3 9615   0.617   1.237  14.393  0.3792  0.4594  1.0351
  646MPD2    C4 9616   0.693   1.252  14.281 -0.0368  0.2232  0.5111
  646MPD2    C5 9617   0.815   1.185  14.270  0.2401 -0.4517 -0.7158
  646MPD2     H 9618   0.615   1.173  14.598  0.9479 -1.7606  0.7979
  646MPD2    H1 9619   0.652   1.318  14.205  0.9974 -1.0292 -1.1264
  646MPD2    H2 9620   0.935   1.044  14.356  0.7636  0.7671  0.3717
  646MPD2    H3 9621   0.869   1.174  14.177 -0.7817 -2.5561 -1.0515
  646MPD2     N 9622   0.493   1.304  14.393  0.0317  0.2363  0.0247
  646MPD2    H5 9623   0.476   1.358  14.309 -1.9998  0.7543  0.7807
  646MPD2    N1 9624   0.858   1.053  14.599  0.2368 -1.0011 -0.1883
  646MPD2    H7 9625   0.959   1.058  14.589  0.2456 -0.9376 -0.0613
  647TMC3    C1 9626   0.910   0.987  14.819 -0.2119  0.1588 -0.2522
  647TMC3    C2 9627   0.873   0.978  14.954 -0.3730  0.1359 -0.4010
  647TMC3    C3 9628   0.974   0.956  15.048  0.2794 -0.0294  0.6267
  647TMC3    C4 9629   1.028   0.934  14.777 -0.2496 -0.6578  0.3103
  647TMC3    C5 9630   1.124   0.906  14.876  0.7144  0.6702 -0.1917
  647TMC3    C6 9631   1.098   0.930  15.012  0.7131 -0.1519  0.5018
  647TMC3     C 9632   0.803   1.036  14.726 -0.9859  0.7363 -0.4737
  647TMC3     O 9633   0.687   1.044  14.767 -0.2199  0.4757  0.1260
  647TMC3     H 9634   0.774   1.008  14.985  0.5985  1.6856  1.1843
  647TMC3    H1 9635   1.051   0.919  14.672 -0.3595 -1.2710  0.3731
  647TMC3    H2 9636   1.171   0.895  15.084 -1.5065 -1.8891  1.9252
  647TMC3    C7 9637   1.252   0.863  14.844  0.3249 -0.8515  0.9920
  647TMC3    C8 9638   0.934   0.923  15.185  0.4051  0.1906 -0.6628
  647TMC3    O1 9639   1.330   0.837  14.933  0.3736 -0.4270 -0.3864
  647TMC3    O2 9640   1.015   0.931  15.279 -0.2565  0.2980 -0.0207
  648TMC3    C1 9641   0.538   3.023  16.268  0.2160 -0.0462  0.0761
  648TMC3    C2 9642   0.601   2.911  16.243 -0.1742  0.2679 -0.7133
  648TMC3    C3 9643   0.627   2.875  16.115  0.4359  0.8398  0.1939
  648TMC3    C4 9644   0.504   3.110  16.167  0.0635  0.0706 -1.0278
  648TMC3    C5 9645   0.533   3.079  16.034 -0.3453 -0.3842  0.1219
  648TMC3    C6 9646   0.584   2.951  16.001  0.0985 -0.3919 -0.4684
  648TMC3     C 9647   0.481   3.056  16.398  0.4638 -0.0277  0.5658
  648TMC3     O 9648   0.460   3.173  16.418  0.1328 -0.4938 -0.3255
  648TMC3     H 9649   0.633   2.849  16.326 -3.1066 -1.3387 -0.8085
  648TMC3    H1 9650   0.490   3.213  16.199 -0.9441 -0.0315 -1.1554
  648TMC3    H2 9651   0.601   2.904  15.905  0.1216  2.6727 -1.9518
  648TMC3    C7 9652   0.483   3.173  15.930  0.5037  0.2560  0.5121
  648TMC3    C8 9653   0.698   2.749  16.100 -0.0338 -0.7558 -0.2583
  648TMC3    O1 9654   0.510   3.140  15.816 -0.4463  0.0265  0.0061
  648TMC3    O2 9655   0.678   2.662  16.187  0.3740 -0.4282  0.3445
  649TMC3    C1 9656   3.782   4.216  13.221  0.1819  0.2908 -0.5862
  649TMC3    C2 9657   3.912   4.249  13.255  0.2043 -0.1846  0.9560
  649TMC3    C3 9658   3.968   4.217  13.374  0.2712 -0.3688  0.5120
  649TMC3    C4 9659   3.702   4.155  13.314  0.2492 -0.0311 -0.3550
  649TMC3    C5 9660   3.765   4.121  13.432 -0.2025  0.3743 -0.4672
  649TMC3    C6 9661   3.892   4.150  13.466 -0.7381 -0.2113 -0.1967
  649TMC3     C 9662   3.725   4.241  13.090 -0.7121  0.3470 -0.1381
  649TMC3     O 9663   3.604   4.243  13.080 -0.2521 -0.3370 -0.3273
  649TMC3     H 9664   3.973   4.305  13.185  0.4782 -0.9228  0.6002
  649TMC3    H1 9665   3.608   4.112  13.281 -0.3430  1.5096 -0.7009
  649TMC3    H2 9666   3.940   4.118  13.559 -0.7802 -0.1675 -0.1598
  649TMC3    C7 9667   3.687   4.047  13.532 -0.4674 -0.8940  0.7068
  649TMC3    C8 9668   4.120   4.218  13.384 -0.7877 -0.8061 -0.7476
  649TMC3    O1 9669   3.569   4.031  13.503 -0.7528  0.3078 -0.1942
  649TMC3    O2 9670   4.167   4.150  13.472 -0.7356 -0.1765 -0.2702
  650TMC3    C1 9671   1.561   0.878  12.749  0.0762 -0.0780 -0.3539
  650TMC3    C2 9672   1.513   0.935  12.864  0.3144  0.1632 -0.7346
  650TMC3    C3 9673   1.382   0.982  12.854  0.3353 -0.1801 -0.6742
  650TMC3    C4 9674   1.484   0.870  12.631 -0.0966 -0.0213  0.5992
  650TMC3    C5 9675   1.359   0.917  12.629 -0.0228 -0.7498 -0.3665
  650TMC3    C6 9676   1.305   0.970  12.744 -0.2725  0.4499 -0.1814
  650TMC3     C 9677   1.682   0.802  12.749  0.0590  0.1278 -0.3656
  650TMC3     O 9678   1.693   0.711  12.666  0.3049 -0.2587  1.1451
  650TMC3     H 9679   1.572   0.940  12.955 -0.4086 -0.0285 -0.2530
  650TMC3    H1 9680   1.530   0.839  12.538 -1.1665 -1.1903  0.4532
  650TMC3    H2 9681   1.209   1.020  12.739 -1.7722 -2.4261 -0.1325
  650TMC3    C7 9682   1.308   0.968  12.505  0.3116  0.0148  1.1747
  650TMC3    C8 9683   1.334   1.086  12.944  0.1710  0.0420  0.2908
  650TMC3    O1 9684   1.303   0.889  12.413 -0.0964 -0.0123  0.3572
  650TMC3    O2 9685   1.419   1.160  12.989 -0.1069 -0.2109 -0.0592
  651MPD2     C 9686   0.438   3.217  11.150 -0.1577 -0.3395 -0.2386
  651MPD2    C1 9687   0.367   3.315  11.088 -0.6155  0.5503 -0.1360
  651MPD2    C2 9688   0.428   3.430  11.058  0.6202  0.6541 -0.6687
  651MPD2    C3 9689   0.552   3.467  11.115 -0.0307 -0.1367  0.0513
  651MPD2    C4 9690   0.620   3.367  11.181 -0.6488 -1.0814  0.4477
  651MPD2    C5 9691   0.560   3.249  11.207  0.6928 -0.3394  0.3294
  651MPD2     H 9692   0.377   3.513  11.011 -1.0586  0.0304  0.0614
  651MPD2    H1 9693   0.714   3.385  11.232 -0.4874 -1.9242  0.4471
  651MPD2    H2 9694   0.405   3.114  11.164 -1.4674 -0.2250 -2.6204
  651MPD2    H3 9695   0.619   3.174  11.260  2.8125 -1.3019 -3.3951
  651MPD2     N 9696   0.608   3.594  11.084 -0.1675 -0.1420 -1.2044
  651MPD2    H5 9697   0.544   3.664  11.047 -0.4256 -0.6689 -1.7517
  651MPD2    N1 9698   0.239   3.293  11.032  0.4277 -0.0390  0.0307
  651MPD2    H7 9699   0.202   3.364  10.970 -0.3688 -0.3687  0.1295
  652TMC3    C1 9700   0.944   3.829  10.899 -0.6049  0.7405 -0.2224
  652TMC3    C2 9701   0.901   3.761  11.006 -1.4788 -0.5910 -0.0070
  652TMC3    C3 9702   0.770   3.760  11.040  0.3240 -0.4869  0.1317
  652TMC3    C4 9703   0.856   3.903  10.822 -0.6336 -0.0932 -0.3358
  652TMC3    C5 9704   0.720   3.897  10.847  0.1298 -0.6430 -0.9995
  652TMC3    C6 9705   0.682   3.820  10.956  0.0500 -0.4619 -0.0551
  652TMC3     C 9706   1.080   3.811  10.859  0.2435 -0.3861  0.2394
  652TMC3     O 9707   1.154   3.767  10.948 -0.1201  0.0297 -0.0492
  652TMC3     H 9708   0.976   3.707  11.063  0.7526 -0.6325 -2.9911
  652TMC3    H1 9709   0.896   3.958  10.738 -1.1610  1.9024  0.7255
  652TMC3    H2 9710   0.576   3.811  10.974  0.3000 -0.4615  1.4210
  652TMC3    C7 9711   0.611   3.960  10.779  0.3153  1.2677  0.1921
  652TMC3    C8 9712   0.736   3.636  11.104 -0.0328  0.3403  0.9122
  652TMC3    O1 9713   0.500   3.920  10.802 -0.2029 -0.6258 -0.4053
  652TMC3    O2 9714   0.830   3.575  11.155  0.1922 -0.1058 -0.3410
  653MPD2     C 9715   3.918   3.077  17.506  0.2552 -0.4518 -0.4102
  653MPD2    C1 9716   3.943   3.160  17.399 -0.4428  0.5345 -0.1780
  653MPD2    C2 9717   3.919   3.119  17.271 -0.7313 -0.8337 -0.5598
  653MPD2    C3 9718   3.882   2.986  17.249 -0.7594  0.1205 -0.3473
  653MPD2    C4 9719   3.873   2.901  17.359  0.0812  0.3595 -0.1784
  653MPD2    C5 9720   3.888   2.945  17.488 -0.3954 -0.2094 -0.2036
  653MPD2     H 9721   3.939   3.195  17.196 -1.1210 -0.2849 -0.1111
  653MPD2    H1 9722   3.848   2.798  17.336  1.5505  0.0167 -0.2415
  653MPD2    H2 9723   3.929   3.113  17.608 -3.3258  1.6501 -0.7957
  653MPD2    H3 9724   3.873   2.871  17.565  0.2617 -0.0419  0.0903
  653MPD2     N 9725   3.870   2.939  17.119 -1.0355  0.1074  0.0171
  653MPD2    H5 9726   3.869   3.010  17.046  1.1988 -0.3905 -0.5025
  653MPD2    N1 9727   3.975   3.303  17.420  0.1990  0.5481  0.1704
  653MPD2    H7 9728   3.956   3.373  17.349  0.9373 -0.6822 -1.2441
  654TMC3    C1 9729   3.836   2.771  16.947 -0.0649 -0.1002 -0.0998
  654TMC3    C2 9730   3.740   2.842  16.873 -0.4841 -0.2639  0.7690
  654TMC3    C3 9731   3.688   2.778  16.765  0.8344  0.6966  0.0023
  654TMC3    C4 9732   3.893   2.651  16.910 -0.0356  0.3203  0.0008
  654TMC3    C5 9733   3.837   2.600  16.793 -0.9186  0.5310 -1.3714
  654TMC3    C6 9734   3.730   2.653  16.725 -0.6887  0.5811  0.2934
  654TMC3     C 9735   3.866   2.806  17.086  0.5642 -0.1891  0.3037
  654TMC3     O 9736   3.885   2.710  17.154  0.1725 -0.2279  0.7404
  654TMC3     H 9737   3.703   2.939  16.906  0.0767  0.6726 -1.3412
  654TMC3    H1 9738   3.977   2.607  16.963  0.0957 -2.0296 -2.1864
  654TMC3    H2 9739   3.697   2.597  16.638  0.8770  1.3908 -0.8370
  654TMC3    C7 9740   3.849   2.458  16.773 -0.5908  0.2761  0.1090
  654TMC3    C8 9741   3.600   2.858  16.685  0.0528  0.0646  0.1594
  654TMC3    O1 9742   3.831   2.417  16.661 -0.1147 -0.0530  0.3464
  654TMC3    O2 9743   3.551   2.953  16.743 -0.2179  0.1994 -0.1804
  655MPD2     C 9744   0.898   3.134  15.929  0.2811 -0.5596  0.4737
  655MPD2    C1 9745   0.869   3.243  15.850 -0.0000  0.7401 -0.8079
  655MPD2    C2 9746   0.895   3.233  15.716 -0.2957  0.3644  0.0901
  655MPD2    C3 9747   0.942   3.118  15.658 -0.3140 -0.3926  0.3012
  655MPD2    C4 9748   0.981   3.012  15.740  0.3950 -0.0244 -0.2810
  655MPD2    C5 9749   0.954   3.019  15.872 -0.1998  0.6915  0.5221
  655MPD2     H 9750   0.864   3.317  15.655 -1.6151  0.0117  0.2781
  655MPD2    H1 9751   1.054   2.939  15.706 -1.0557 -1.9896  0.7907
  655MPD2    H2 9752   0.866   3.132  16.033 -1.6273  0.5973 -0.0931
  655MPD2    H3 9753   0.979   2.928  15.926  1.3653  0.2167 -1.0198
  655MPD2     N 9754   0.951   3.114  15.514 -0.7929 -0.9407 -0.4666
  655MPD2    H5 9755   0.924   3.199  15.466 -0.2777 -1.0061 -0.8562
  655MPD2    N1 9756   0.803   3.363  15.894 -0.0672  0.1934 -0.1519
  655MPD2    H7 9757   0.768   3.421  15.818 -1.8887  0.8079  1.1568
  656TMC3    C1 9758   0.721   3.530  16.025 -0.3644  0.0178 -0.4260
  656TMC3    C2 9759   0.638   3.548  16.131 -0.4316 -0.7453 -0.5705
  656TMC3    C3 9760   0.522   3.625  16.119 -0.0516  0.0365  0.0283
  656TMC3    C4 9761   0.712   3.604  15.908  0.2888 -0.8829  0.2550
  656TMC3    C5 9762   0.607   3.691  15.902 -0.0206  0.6640  0.7736
  656TMC3    C6 9763   0.510   3.698  16.001 -0.4860  0.2985  0.4490
  656TMC3     C 9764   0.781   3.397  16.024  0.5797 -0.3219  0.0952
  656TMC3     O 9765   0.802   3.338  16.129 -0.4121  0.4762 -0.2992
  656TMC3     H 9766   0.663   3.504  16.227  3.4445 -1.8445 -2.0571
  656TMC3    H1 9767   0.796   3.611  15.841  0.7737 -2.9134  0.6610
  656TMC3    H2 9768   0.410   3.740  15.996 -0.4822  0.6445  3.4636
  656TMC3    C7 9769   0.577   3.734  15.766 -0.3230  0.1926  0.3989
  656TMC3    C8 9770   0.407   3.591  16.196 -0.1188  0.3999  0.4480
  656TMC3    O1 9771   0.651   3.702  15.675  0.5529  0.5560 -0.5095
  656TMC3    O2 9772   0.397   3.472  16.219 -0.0572 -0.6491  0.7852
  657TMC3    C1 9773   4.337   3.074  15.066  0.5189  0.5214  0.8226
  657TMC3    C2 9774   4.346   3.087  15.198  0.0173 -0.0759 -0.1063
  657TMC3    C3 9775   4.353   3.214  15.250 -0.0438  0.0768 -0.1037
  657TMC3    C4 9776   4.319   3.184  14.986 -0.8842  0.0516  0.9125
  657TMC3    C5 9777   4.322   3.307  15.039  0.5583  0.3130  0.2241
  657TMC3    C6 9778   4.336   3.326  15.173 -0.0666  0.4086  0.1513
  657TMC3     C 9779   4.377   2.953  15.000  0.9195 -0.2878 -0.3343
  657TMC3     O 9780   4.347   2.944  14.881  0.2243 -0.0451  0.1129
  657TMC3     H 9781   4.347   2.996  15.256  2.1753  0.9184  1.3867
  657TMC3    H1 9782   4.307   3.168  14.879  1.7224  0.2920  0.5874
  657TMC3    H2 9783   4.336   3.423  15.222  2.2426 -0.0816  1.1613
  657TMC3    C7 9784   4.274   3.420  14.960  0.3076  0.0460 -0.0358
  657TMC3    C8 9785   4.352   3.236  15.396  0.4291 -0.0152 -0.1027
  657TMC3    O1 9786   4.273   3.534  15.010  0.3587 -0.1954 -0.0153
  657TMC3    O2 9787   4.336   3.352  15.433  0.1857  0.3467 -0.0506
  658MPD2     C 9788   1.275   3.280  14.851 -0.1190  0.3047  0.2610
  658MPD2    C1 9789   1.159   3.203  14.840  0.0814 -0.1169 -0.2746
  658MPD2    C2 9790   1.101   3.197  14.721 -0.1798  0.9169 -0.0281
  658MPD2    C3 9791   1.154   3.260  14.609  0.3435 -0.4078  0.3450
  658MPD2    C4 9792   1.260   3.343  14.615 -0.2405 -0.1856  0.1100
  658MPD2    C5 9793   1.323   3.349  14.738  0.1977  0.2537 -0.4042
  658MPD2     H 9794   1.018   3.132  14.695  1.8515 -0.6678 -2.5999
  658MPD2    H1 9795   1.298   3.403  14.534 -2.5804  0.4069 -0.5592
  658MPD2    H2 9796   1.339   3.271  14.938 -0.5721 -1.6972  0.3762
  658MPD2    H3 9797   1.411   3.412  14.741  0.9676 -0.8683  0.5886
  658MPD2     N 9798   1.085   3.242  14.488 -0.0529  0.1593 -0.4678
  658MPD2    H5 9799   1.021   3.164  14.477  0.6012 -0.3875 -0.3450
  658MPD2    N1 9800   1.102   3.149  14.956  0.5999 -0.0234 -0.1679
  658MPD2    H7 9801   1.152   3.171  15.041  1.2071 -2.2887  0.0666
  659TMC3    C1 9802   0.924   3.056  15.081 -0.5524  0.7441 -0.0213
  659TMC3    C2 9803   0.986   3.020  15.196  0.2000  0.1216 -0.5623
  659TMC3    C3 9804   0.916   3.009  15.313 -0.1852  0.1651  0.2440
  659TMC3    C4 9805   0.790   3.085  15.081  0.0527  0.6146  0.3168
  659TMC3    C5 9806   0.727   3.092  15.202 -0.1278 -0.3294 -0.1871
  659TMC3    C6 9807   0.784   3.046  15.315  0.0880 -0.6487  0.3855
  659TMC3     C 9808   0.990   3.074  14.960  0.9489 -0.7352 -0.2683
  659TMC3     O 9809   0.932   3.024  14.859 -0.1407  0.3080  0.1106
  659TMC3     H 9810   1.092   3.000  15.195  0.4545  1.4404  0.6480
  659TMC3    H1 9811   0.743   3.108  14.986 -1.7392 -0.5603  0.9292
  659TMC3    H2 9812   0.737   3.021  15.410 -0.7696  0.7439  0.3214
  659TMC3    C7 9813   0.614   3.187  15.219 -0.6219 -0.3917  0.0277
  659TMC3    C8 9814   0.983   3.001  15.442  0.0683 -0.1168  0.2575
  659TMC3    O1 9815   0.584   3.195  15.336 -0.0653  0.1492  0.0280
  659TMC3    O2 9816   1.034   2.892  15.473 -0.0396  0.2951  0.1757
  660MPD2     C 9817   3.237   2.088  12.947 -0.8468  0.9974  0.3609
  660MPD2    C1 9818   3.100   2.084  12.919  0.3775 -0.0791  0.1862
  660MPD2    C2 9819   3.030   1.971  12.963 -0.2355  0.6352  0.0541
  660MPD2    C3 9820   3.094   1.865  13.029  0.3877  0.1630 -0.2399
  660MPD2    C4 9821   3.228   1.871  13.055 -0.4867  0.0847 -0.5088
  660MPD2    C5 9822   3.294   1.978  13.002  0.0684  0.1245 -0.0323
  660MPD2     H 9823   2.921   1.965  12.960 -0.2595  1.2857 -0.6928
  660MPD2    H1 9824   3.277   1.785  13.099  1.2649  1.3325 -0.0385
  660MPD2    H2 9825   3.301   2.169  12.916 -1.7099  1.7111  0.4595
  660MPD2    H3 9826   3.402   1.973  13.012  0.3653 -0.1313 -3.3432
  660MPD2     N 9827   3.034   1.750  13.075 -0.0825 -0.0535 -0.2226
  660MPD2    H5 9828   3.098   1.690  13.128 -0.0979 -0.5264 -0.7389
  660MPD2    N1 9829   3.028   2.196  12.856  0.9053 -0.0865  0.1618
  660MPD2    H7 9830   3.083   2.280  12.844  0.4560  0.0098 -1.1878
  661TMC3    C1 9831   2.840   2.313  12.764  0.6161  0.1112 -0.5443
  661TMC3    C2 9832   2.921   2.356  12.664 -0.5182 -0.0666  0.1675
  661TMC3    C3 9833   2.857   2.413  12.560  0.1466  0.2999  0.0866
  661TMC3    C4 9834   2.706   2.336  12.762  0.1328 -0.3773 -0.0183
  661TMC3    C5 9835   2.647   2.417  12.666 -0.6415 -0.3477  0.3697
  661TMC3    C6 9836   2.722   2.449  12.555  0.0098 -0.4071 -0.2686
  661TMC3     C 9837   2.889   2.199  12.841  0.4875  0.2323  0.0832
  661TMC3     O 9838   2.804   2.114  12.853 -0.4835  0.2690  0.1073
  661TMC3     H 9839   3.025   2.327  12.658  0.1666  2.5671 -0.3299
  661TMC3    H1 9840   2.643   2.286  12.835  1.0476 -2.5721 -0.7397
  661TMC3    H2 9841   2.687   2.515  12.476  1.7930  1.9601  0.9238
  661TMC3    C7 9842   2.506   2.378  12.644  0.2669 -0.8840  0.2035
  661TMC3    C8 9843   2.930   2.407  12.433 -0.0314  0.0211 -0.0740
  661TMC3    O1 9844   2.431   2.413  12.733 -0.2341 -0.8578  0.5711
  661TMC3    O2 9845   3.022   2.331  12.422  0.5832  0.3105  0.1031
  662MPD2     C 9846   3.619   2.065  17.429 -0.0184 -0.2033 -0.0322
  662MPD2    C1 9847   3.562   1.971  17.514 -0.5060 -0.0863 -0.0523
  662MPD2    C2 9848   3.441   1.997  17.579  0.3276 -0.2552  0.1712
  662MPD2    C3 9849   3.380   2.122  17.569  0.0182 -0.5519  0.4668
  662MPD2    C4 9850   3.442   2.213  17.486 -0.2194  0.1337 -0.8875
  662MPD2    C5 9851   3.548   2.177  17.410 -0.1393 -0.0971  0.7469
  662MPD2     H 9852   3.404   1.924  17.650 -2.7615 -0.2478 -1.4530
  662MPD2    H1 9853   3.406   2.310  17.452  2.1025  0.5977 -2.0148
  662MPD2    H2 9854   3.710   2.054  17.371 -1.3291 -1.8839 -1.7748
  662MPD2    H3 9855   3.591   2.251  17.342 -0.9778  1.0528  1.4840
  662MPD2     N 9856   3.246   2.159  17.613 -0.4397  0.0639 -0.5581
  662MPD2    H5 9857   3.201   2.223  17.548  0.7864  0.4071 -1.0552
  662MPD2    N1 9858   3.616   1.838  17.525 -0.9609  0.2873 -0.1538
  662MPD2    H7 9859   3.579   1.786  17.605 -0.8619 -3.7660 -2.7200
  663TMC3    C1 9860   3.745   1.650  17.479 -0.0472 -0.3553 -0.6482
  663TMC3    C2 9861   3.790   1.626  17.606 -0.5556  0.6328 -0.4033
  663TMC3    C3 9862   3.900   1.544  17.625  0.5840 -0.0753 -0.4255
  663TMC3    C4 9863   3.781   1.573  17.377  0.1323 -0.0768 -0.6171
  663TMC3    C5 9864   3.871   1.476  17.396  0.3921  0.3011 -0.3671
  663TMC3    C6 9865   3.938   1.468  17.517 -0.5134  0.2924  0.0115
  663TMC3     C 9866   3.705   1.779  17.443 -0.0412 -0.3952 -0.1695
  663TMC3     O 9867   3.746   1.820  17.335 -0.5998 -0.4024 -0.1573
  663TMC3     H 9868   3.788   1.708  17.676  0.6073  0.4782 -0.1927
  663TMC3    H1 9869   3.737   1.587  17.279 -0.8968 -1.5822 -0.3820
  663TMC3    H2 9870   3.978   1.371  17.544  1.6274  0.4918 -2.3668
  663TMC3    C7 9871   3.848   1.350  17.332  0.0616  0.0839 -0.3969
  663TMC3    C8 9872   3.900   1.460   0.006 -0.3945 -0.2525  0.1028
  663TMC3    O1 9873   3.867   1.249  17.395 -0.6904  0.0976 -0.2897
  663TMC3    O2 9874   4.002   1.407   0.052 -0.5843  0.6100  0.1261
  664MPD2     C 9875   2.160   4.288  17.050  0.3495  0.1576 -1.5304
  664MPD2    C1 9876   2.160   4.422  17.098 -0.8235  0.6249 -0.1442
  664MPD2    C2 9877   2.096   4.452  17.216 -0.2245  0.0090  0.2695
  664MPD2    C3 9878   2.038   4.347  17.296 -0.4496  1.1009 -0.4176
  664MPD2    C4 9879   2.036   4.221  17.238  0.9701 -0.1844 -0.1351
  664MPD2    C5 9880   2.092   4.189  17.113 -1.0164 -0.2862  0.2078
  664MPD2     H 9881   2.079   4.554  17.247 -1.7309 -0.3488  0.5985
  664MPD2    H1 9882   1.983   4.140  17.287 -0.1430  3.1665  4.2243
  664MPD2    H2 9883   2.203   4.260  16.955  3.6030 -1.4673  0.4358
  664MPD2    H3 9884   2.081   4.093  17.065 -0.6268 -0.6440  0.8358
  664MPD2     N 9885   1.971   4.384  17.412 -0.1933 -0.0878 -0.2267
  664MPD2    H5 9886   1.978   4.481  17.442 -1.2756 -0.4851  1.2711
  664MPD2    N1 9887   2.210   4.534  17.027 -0.0833  0.4619 -0.1108
  664MPD2    H7 9888   2.206   4.627  17.067  0.1336 -0.6067  2.3828
  665TMC3    C1 9889   1.894   4.349  17.638  0.3667 -0.0799 -0.0459
  665TMC3    C2 9890   1.758   4.331  17.669  0.1151 -0.0052 -0.0616
  665TMC3    C3 9891   1.695   4.439  17.722  0.0135 -0.1020 -0.4951
  665TMC3    C4 9892   1.961   4.469  17.661  0.3147 -0.1569 -0.4313
  665TMC3    C5 9893   1.888   4.574  17.708  0.2954 -0.3804 -0.2978
  665TMC3    C6 9894   1.757   4.561   0.001  0.7101  0.0537  0.1559
  665TMC3     C 9895   1.928   4.289  17.508  0.4771 -0.3841  0.8094
  665TMC3     O 9896   1.890   4.170  17.487  0.4592  0.4105 -0.2728
  665TMC3     H 9897   1.708   4.239  17.644 -1.7687  0.9299  0.2677
  665TMC3    H1 9898   2.062   4.476  17.621  0.1947  1.7241 -0.4233
  665TMC3    H2 9899   1.708   4.656   0.018  2.5181  0.5733  2.5685
  665TMC3    C7 9900   1.968   4.695  17.736  0.4154  0.5235 -0.4959
  665TMC3    C8 9901   1.556   4.426   0.002 -0.1409 -0.4360 -0.3348
  665TMC3    O1 9902   2.085   4.689  17.699  0.1804  0.1261  0.0379
  665TMC3    O2 9903   1.508   4.494   0.095 -0.0685 -0.5719 -0.2596
  666TMC3    C1 9904   0.233   4.430   9.946  0.4784 -0.1141 -0.0814
  666TMC3    C2 9905   0.278   4.385   9.818 -0.2445  0.5258  0.3891
  666TMC3    C3 9906   0.281   4.478   9.718 -0.6616 -0.0045 -0.3107
  666TMC3    C4 9907   0.209   4.559   9.974  0.0665  0.2975  0.8801
  666TMC3    C5 9908   0.226   4.647   9.869 -0.2353  0.2157  0.1657
  666TMC3    C6 9909   0.253   4.611   9.735  0.5548  0.0895 -0.0991
  666TMC3     C 9910   0.204   4.323  10.035  0.0916 -0.8992  0.1682
  666TMC3     O 9911   0.206   4.359  10.156 -0.3142 -0.0233  0.4877
  666TMC3     H 9912   0.297   4.281   9.795 -1.1018  0.5748 -0.5829
  666TMC3    H1 9913   0.168   4.591  10.069  0.6257 -0.6633  1.4444
  666TMC3    H2 9914   0.236   4.680   9.653  2.9349 -1.0144 -1.5105
  666TMC3    C7 9915   0.244   0.049   9.906  0.2926 -0.2534 -0.1130
  666TMC3    C8 9916   0.345   4.434   9.590  0.6139  0.0409 -0.0187
  666TMC3    O1 9917   0.242   0.071  10.023  0.1063 -0.1521 -0.0360
  666TMC3    O2 9918   0.337   4.314   9.562  0.5111 -0.3431 -0.5804
  667MPD2     C 9919   2.710   4.716  14.499  0.2795  0.3812  0.7198
  667MPD2    C1 9920   2.611   4.707  14.590 -0.2470  0.1977  0.3260
  667MPD2    C2 9921   2.531   4.592  14.596  0.0136  0.2102 -0.0372
  667MPD2    C3 9922   2.558   4.485  14.508 -0.5880  0.0718  0.2181
  667MPD2    C4 9923   2.661   4.495  14.411 -0.1070 -0.0361 -1.0370
  667MPD2    C5 9924   2.731   4.612  14.403 -0.4551  0.8230 -0.4392
  667MPD2     H 9925   2.462   4.593  14.679 -0.8702  1.9416 -0.7915
  667MPD2    H1 9926   2.692   4.413  14.348  1.7222  0.3568 -0.6405
  667MPD2    H2 9927   2.784   0.059  14.496  1.1113 -0.3886  1.4560
  667MPD2    H3 9928   2.815   4.610  14.334  0.6914 -0.9520  0.9937
  667MPD2     N 9929   2.493   4.362  14.526 -0.1173 -0.0022  0.5750
  667MPD2    H5 9930   2.531   4.282  14.476 -1.8823 -0.7765  0.4823
  667MPD2    N1 9931   2.591   0.068  14.689  0.1846  0.0846 -0.2609
  667MPD2    H7 9932   2.510   0.063  14.750  0.2423 -0.0132 -0.1929
  668TMC3    C1 9933   2.627   0.266  14.816 -0.0798  0.0490 -0.0614
  668TMC3    C2 9934   2.676   0.393  14.822 -0.7231  0.5505  0.1562
  668TMC3    C3 9935   2.653   0.472  14.932  0.6676  0.3306 -0.4186
  668TMC3    C4 9936   2.563   0.212  14.920  0.4754  0.3013  0.2335
  668TMC3    C5 9937   2.541   0.299  15.027  0.5813 -0.2972  0.3982
  668TMC3    C6 9938   2.582   0.434  15.040  0.3361  0.1424 -0.3020
  668TMC3     C 9939   2.647   0.196  14.689  0.1700  0.2328  0.1356
  668TMC3     O 9940   2.705   0.250  14.599 -0.3254 -0.0886  0.0326
  668TMC3     H 9941   2.721   0.430  14.730  1.3654 -1.1768  0.4748
  668TMC3    H1 9942   2.536   0.107  14.913 -0.6027  0.6840 -1.4480
  668TMC3    H2 9943   2.585   0.482  15.138 -2.3974 -2.0668  0.8631
  668TMC3    C7 9944   2.498   0.240  15.151 -0.0926  0.3368  0.4408
  668TMC3    C8 9945   2.728   0.593  14.945 -0.0828  0.6038  0.4743
  668TMC3    O1 9946   2.542   0.285  15.253  0.5127  0.4935 -0.6828
  668TMC3    O2 9947   2.714   0.659  15.048 -0.0270 -0.0718  0.1858
  669TMC3    C1 9948   0.761   0.016  14.694  0.3458  0.3122 -0.1182
  669TMC3    C2 9949   0.648   0.014  14.621  0.6730 -0.0629  0.5553
  669TMC3    C3 9950   0.616   0.126  14.545  0.4267 -1.0020  0.3840
  669TMC3    C4 9951   0.845   0.121  14.691 -0.1858  0.2134 -0.2157
  669TMC3    C5 9952   0.814   0.231  14.614  0.6406  0.3718  0.3171
  669TMC3    C6 9953   0.697   0.234  14.538  0.3868 -0.2735  0.8800
  669TMC3     C 9954   0.772   4.646  14.793 -0.9795  0.4238 -0.0397
  669TMC3     O 9955   0.665   4.599  14.826 -0.3888  0.3960 -0.2153
  669TMC3     H 9956   0.587   4.659  14.617 -1.5771  1.5213 -0.9291
  669TMC3    H1 9957   0.931   0.129  14.756 -1.0120 -0.1377  0.9431
  669TMC3    H2 9958   0.673   0.326  14.486  0.0999 -0.3297  0.9130
  669TMC3    C7 9959   0.908   0.334  14.572  0.0123 -0.7517  0.2915
  669TMC3    C8 9960   0.479   0.124  14.488 -0.6805  0.0419  0.2293
  669TMC3    O1 9961   0.887   0.392  14.469 -0.4811 -0.2738 -0.0616
  669TMC3    O2 9962   0.425   0.017  14.461 -0.0418  0.3676 -0.3681
  670MPD2     C 9963   3.212   2.650  13.195  0.1288  0.1191  0.1764
  670MPD2    C1 9964   3.320   2.706  13.247  0.1917  0.1786  0.6903
  670MPD2    C2 9965   3.365   2.647  13.361  0.3989 -0.1272  0.2184
  670MPD2    C3 9966   3.312   2.537  13.418  1.4204  0.0276 -0.9126
  670MPD2    C4 9967   3.198   2.482  13.365  0.5930  0.1788 -1.1271
  670MPD2    C5 9968   3.152   2.538  13.244 -0.2016  0.2623 -1.1272
  670MPD2     H 9969   3.450   2.699  13.404 -1.6109  2.0922  1.4905
  670MPD2    H1 9970   3.149   2.393  13.401  0.5646  0.3725 -0.6862
  670MPD2    H2 9971   3.165   2.695  13.108 -1.4364  0.0950  1.0149
  670MPD2    H3 9972   3.067   2.496  13.192  0.4311 -0.8781 -1.2469
  670MPD2     N 9973   3.375   2.487  13.532 -0.0007 -0.0486 -0.0952
  670MPD2    H5 9974   3.446   2.543  13.578  0.5867 -0.5818 -0.3528
  670MPD2    N1 9975   3.387   2.818  13.182 -0.0787 -0.0778  0.3713
  670MPD2    H7 9976   3.462   2.853  13.240  0.6576  2.0608 -1.8426
  671TMC3    C1 9977   3.396   2.365  13.736  0.2858 -0.5317 -0.1451
  671TMC3    C2 9978   3.469   2.474  13.782  0.1965  0.4772 -0.1052
  671TMC3    C3 9979   3.513   2.461  13.907  0.6782  0.3862 -0.3882
  671TMC3    C4 9980   3.356   2.269  13.825 -0.5824 -0.5360  0.1540
  671TMC3    C5 9981   3.387   2.284  13.958 -0.3853 -0.4564  0.5276
  671TMC3    C6 9982   3.473   2.369  13.999 -0.9244 -0.0447  0.0718
  671TMC3     C 9983   3.332   2.380  13.608  0.3770 -0.4648  0.2488
  671TMC3     O 9984   3.236   2.302  13.590 -0.1533 -0.5025  0.7953
  671TMC3     H 9985   3.532   2.534  13.718 -0.3990 -1.6002 -2.6404
  671TMC3    H1 9986   3.284   2.198  13.788 -0.6362 -0.6423  0.4617
  671TMC3    H2 9987   3.535   2.344  14.085 -0.8383 -1.7316 -0.4907
  671TMC3    C7 9988   3.356   2.182  14.048 -0.2734  0.4942  0.5638
  671TMC3    C8 9989   3.659   2.484  13.912 -0.2265 -0.0128 -0.4832
  671TMC3    O1 9990   3.440   2.153  14.131  0.4019  0.0863 -0.6029
  671TMC3    O2 9991   3.710   2.459  13.804  0.0743  0.2905  0.6378
  672MPD2     C 9992   4.071   2.942   0.085  0.3894 -0.4989 -0.2593
  672MPD2    C1 9993   4.000   2.944   0.205 -0.1847  0.1472  0.9238
  672MPD2    C2 9994   4.050   3.018   0.310 -0.6982  0.2078  0.5513
  672MPD2    C3 9995   4.176   3.070   0.294  1.0206 -0.9255 -0.5965
  672MPD2    C4 9996   4.250   3.054   0.182 -0.5263 -0.0544 -0.4422
  672MPD2    C5 9997   4.198   2.986   0.077 -0.8572  0.0644  0.8753
  672MPD2     H 9998   4.008   3.034   0.409  2.2827 -1.2291  2.0326
  672MPD2    H1 9999   4.343   3.107   0.168  0.5907 -1.3337  2.2878
  672MPD2    H210000   4.036   2.887  17.736  0.2753  0.6989 -0.9597
  672MPD2    H310001   4.257   2.978  17.725  0.0732  1.8501  1.3271
  672MPD2     N10002   4.248   3.146   0.397  0.3870 -0.3691 -0.3634
  672MPD2    H510003   4.343   3.176   0.381  1.0330 -1.4382  1.4150
  672MPD2    N110004   3.880   2.867   0.234 -0.0394 -0.9314  0.3598
  672MPD2    H710005   3.837   2.867   0.326 -1.0564  1.6011 -0.1182
  673TMC3    C110006   3.739   2.690   0.227 -0.0928  0.3864  0.7986
  673TMC3    C210007   3.776   2.561   0.242  0.5571 -0.2329 -0.8643
  673TMC3    C310008   3.724   2.497   0.351 -0.3808 -0.0079 -0.3120
  673TMC3    C410009   3.661   2.758   0.311  0.3924 -0.3243  0.5861
  673TMC3    C510010   3.600   2.681   0.415 -0.1343  0.4874  0.5784
  673TMC3    C610011   3.627   2.550   0.424 -0.0270  0.4966 -0.5345
  673TMC3     C10012   3.832   2.768   0.154  0.2191  0.1603 -0.5022
  673TMC3     O10013   3.879   2.708   0.060 -0.9147  0.3751  0.5037
  673TMC3     H10014   3.847   2.508   0.180  0.1928 -1.2694 -0.4115
  673TMC3    H110015   3.641   2.864   0.301 -2.3023 -0.8254  0.8017
  673TMC3    H210016   3.582   2.479   0.492 -2.6225  1.6971 -0.9615
  673TMC3    C710017   3.527   2.751   0.526 -0.0219  0.1913  0.2003
  673TMC3    C810018   3.769   2.362   0.373 -0.2015  0.2005  0.2150
  673TMC3    O110019   3.494   2.701   0.631  0.5211 -0.4851 -0.5043
  673TMC3    O210020   3.684   2.285   0.412 -0.3396  0.0198 -0.0867
  674MPD2     C10021   3.477   2.729   0.028 -0.0421  0.1689  0.8060
  674MPD2    C110022   3.420   2.620   0.094 -0.7951  0.2809 -0.3840
  674MPD2    C210023   3.330   2.651   0.195  0.2096  0.6266 -0.7060
  674MPD2    C310024   3.293   2.784   0.225  0.2122 -0.0359 -0.5697
  674MPD2    C410025   3.344   2.887   0.150  1.3159  0.5900  0.5101
  674MPD2    C510026   3.434   2.854   0.049 -0.0229  0.2684  0.2922
  674MPD2     H10027   3.291   2.570   0.254  2.2774  1.2578  1.5228
  674MPD2    H110028   3.326   2.993   0.167  0.1969  0.9163 -2.6558
  674MPD2    H210029   3.557   2.714  17.695  0.3006 -0.6802  1.3695
  674MPD2    H310030   3.471   2.941  17.735  2.4659 -1.6449 -1.0768
  674MPD2     N10031   3.193   2.807   0.323  0.1116 -1.1305  0.3952
  674MPD2    H510032   3.156   2.724   0.368  0.5689 -0.6417  1.6806
  674MPD2    N110033   3.478   2.499   0.067 -0.4262  0.5942 -0.6260
  674MPD2    H710034   3.543   2.497  17.728 -0.5032 -0.7264 -0.6608
  675TMC3    C110035   3.537   2.270   0.103 -0.9130  0.3307  0.2446
  675TMC3    C210036   3.505   2.151   0.170  0.4109 -0.6071  0.2399
  675TMC3    C310037   3.591   2.045   0.149  0.7353  0.2743  0.5830
  675TMC3    C410038   3.652   2.290   0.039  0.4162  0.0188 -0.7553
  675TMC3    C510039   3.739   2.184   0.038  0.3547  0.5267 -0.1462
  675TMC3    C610040   3.710   2.054   0.084 -0.6102 -0.1677 -0.5147
  675TMC3     C10041   3.450   2.382   0.130  0.2502  0.5576  0.2107
  675TMC3     O10042   3.365   2.354   0.213 -0.0659 -0.0962 -0.3824
  675TMC3     H10043   3.421   2.148   0.239 -0.5040 -0.7924 -0.8834
  675TMC3    H110044   3.687   2.392   0.029  0.6479  0.3824  3.9275
  675TMC3    H210045   3.770   1.967   0.061  0.5471  0.4431  0.1837
  675TMC3    C710046   3.874   2.216  17.724 -0.6346  0.8116  0.7656
  675TMC3    C810047   3.558   1.920   0.212  0.3322 -1.9602 -0.8221
  675TMC3    O110048   3.888   2.327  17.674  0.4390 -0.5295 -0.6403
  675TMC3    O210049   3.647   1.840   0.231 -0.6713 -0.5426  0.4590
  676MPD2     C10050   1.516   1.167  10.919  0.0829 -0.1434 -0.0894
  676MPD2    C110051   1.469   1.056  10.982 -0.4711  0.0345 -0.4263
  676MPD2    C210052   1.456   0.941  10.913  0.1804 -0.1726  0.0909
  676MPD2    C310053   1.492   0.927  10.784  0.4564  0.7116  0.4696
  676MPD2    C410054   1.534   1.043  10.712  0.9574  0.7529  0.1737
  676MPD2    C510055   1.548   1.165  10.781 -0.2708 -0.2187 -0.2928
  676MPD2     H10056   1.417   0.855  10.966 -0.8001  0.4818  0.4228
  676MPD2    H110057   1.564   1.039  10.608 -0.3258 -0.9446 -0.1418
  676MPD2    H210058   1.544   1.255  10.976  0.4052  0.0231 -0.5068
  676MPD2    H310059   1.594   1.250  10.732 -1.2922 -0.0699 -0.9905
  676MPD2     N10060   1.483   0.801  10.724  0.0091 -0.1665  0.3072
  676MPD2    H510061   1.506   0.809  10.625 -0.1507 -1.2278  0.1767
  676MPD2    N110062   1.444   1.045  11.117 -0.6146  0.2923  0.3204
  676MPD2    H710063   1.414   0.955  11.152  0.3793 -1.7999 -4.1854
  677TMC3    C110064   1.419   1.090  11.340 -0.2663 -0.5438 -0.1708
  677TMC3    C210065   1.305   1.011  11.331 -0.1364  0.2496  0.1105
  677TMC3    C310066   1.210   1.034  11.424  0.1899  0.4881  0.7916
  677TMC3    C410067   1.443   1.179  11.443 -0.1598 -0.4407 -0.6282
  677TMC3    C510068   1.345   1.194  11.535  0.5429  0.6817 -0.0432
  677TMC3    C610069   1.230   1.114  11.536 -0.0986  1.0916 -0.2218
  677TMC3     C10070   1.471   1.136  11.214 -0.3375  0.3872 -0.3156
  677TMC3     O10071   1.513   1.249  11.206  0.3509 -0.5573  0.4595
  677TMC3     H10072   1.274   0.955  11.244 -0.9488 -1.0623  1.2563
  677TMC3    H110073   1.534   1.236  11.431  0.0639 -1.0689 -2.0131
  677TMC3    H210074   1.143   1.136  11.598  0.5614  1.8429  0.4315
  677TMC3    C710075   1.369   1.273  11.659 -0.2789  0.7741  0.0094
  677TMC3    C810076   1.081   0.979  11.391  0.4196  0.0208 -0.0763
  677TMC3    O110077   1.276   1.259  11.743  0.3199 -0.8105 -0.1875
  677TMC3    O210078   1.047   0.998  11.271 -0.9283  0.2700 -0.0455
  678MPD2     C10079   2.672   0.629   1.256  0.9082  0.2953  0.5595
  678MPD2    C110080   2.705   0.643   1.123  0.1696 -0.0728 -0.2974
  678MPD2    C210081   2.614   0.704   1.037 -0.2649 -0.5309 -0.2726
  678MPD2    C310082   2.484   0.733   1.082 -0.3460  0.2033  0.1909
  678MPD2    C410083   2.451   0.704   1.213 -0.2629  1.4623 -0.3328
  678MPD2    C510084   2.545   0.657   1.294  0.0603  0.2576 -0.1552
  678MPD2     H10085   2.654   0.724   0.938 -3.1480  2.2146 -0.8534
  678MPD2    H110086   2.362   0.734   1.267 -0.1495 -0.1796  0.7599
  678MPD2    H210087   2.748   0.604   1.330  0.6741  1.8738  1.3469
  678MPD2    H310088   2.526   0.650   1.400  0.0254  0.0798 -0.1734
  678MPD2     N10089   2.399   0.788   0.988 -0.0749 -0.1535  0.2652
  678MPD2    H510090   2.442   0.806   0.898 -3.7796  4.0313 -0.6371
  678MPD2    N110091   2.834   0.620   1.068  0.8471 -0.9198 -0.3233
  678MPD2    H710092   2.857   0.639   0.971  0.0699 -1.8035 -0.6783
  679TMC3    C110093   3.280   0.512   1.021  0.1642  0.3423  0.3820
  679TMC3    C210094   3.176   0.524   1.107  0.6247  0.2445  0.3183
  679TMC3    C310095   3.068   0.588   1.061 -0.0228  0.1887  0.4175
  679TMC3    C410096   3.282   0.572   0.899  0.3304 -0.1085  0.0184
  679TMC3    C510097   3.174   0.641   0.858 -0.7994 -0.2722  0.3269
  679TMC3    C610098   3.064   0.651   0.936 -0.7002 -0.2392  0.2217
  679TMC3     C10099   3.404   0.443   1.060 -0.4556 -0.3498  0.7361
  679TMC3     O10100   3.507   0.461   0.998 -0.4081 -0.1928 -0.6055
  679TMC3     H10101   3.178   0.467   1.199  3.9695  2.5950  1.7249
  679TMC3    H110102   3.366   0.544   0.836 -1.0078 -1.2217 -1.2758
  679TMC3    H210103   2.989   0.723   0.906 -1.0319 -0.1144  1.3630
  679TMC3    C710104   3.148   0.629   0.713 -0.6513  0.1498 -0.1086
  679TMC3    C810105   2.944   0.575   1.135 -0.3244  0.5626  0.3009
  679TMC3    O110106   3.240   0.662   0.642  0.3333  0.3843 -0.1591
  679TMC3    O210107   2.949   0.515   1.243  0.0298  0.1053 -0.2950
  680MPD2     C10108   3.092   4.428  13.894  0.6863  0.2310 -0.2708
  680MPD2    C110109   3.199   4.350  13.941  0.0485 -0.0112 -0.5739
  680MPD2    C210110   3.326   4.408  13.950  0.5153 -0.0241  0.4101
  680MPD2    C310111   3.351   4.535  13.906  0.0807  0.1122  0.4011
  680MPD2    C410112   3.243   4.602  13.840 -0.8290 -0.2788  0.1694
  680MPD2    C510113   3.114   4.549  13.842 -0.5271  0.0671 -0.3303
  680MPD2     H10114   3.410   4.351  13.988  0.0344  0.7179  2.6282
  680MPD2    H110115   3.251   4.702  13.797  1.7112 -0.6009 -0.1183
  680MPD2    H210116   2.992   4.387  13.886  0.4743  0.8652 -0.8782
  680MPD2    H310117   3.040   4.599  13.781 -1.4364  0.9834  1.5502
  680MPD2     N10118   3.482   4.597  13.916  0.1374 -0.1572 -0.0578
  680MPD2    H510119   3.487   4.686  13.869  0.7799 -0.7031 -1.0377
  680MPD2    N110120   3.176   4.217  13.987 -0.1530 -1.0161 -0.5040
  680MPD2    H710121   3.260   4.165  14.010 -1.2722 -1.2473  3.1070
  681TMC3    C110122   3.062   4.014  14.012 -0.0450 -0.2527 -0.2549
  681TMC3    C210123   2.982   3.960  14.109 -0.3834  0.1257  0.1028
  681TMC3    C310124   3.012   3.827  14.137  0.5380  0.2104  0.2854
  681TMC3    C410125   3.161   3.938  13.946 -0.0985 -0.3568  0.5213
  681TMC3    C510126   3.174   3.805  13.973 -0.9549  0.0131 -0.4760
  681TMC3    C610127   3.111   3.755  14.080  0.5606  0.6856  0.1444
  681TMC3     C10128   3.048   4.165  13.996 -0.3287 -0.5700  0.3028
  681TMC3     O10129   2.937   4.215  14.005  0.2940  0.0066 -0.3284
  681TMC3     H10130   2.913   4.026  14.161 -1.2886 -1.7715  1.3325
  681TMC3    H110131   3.216   3.985  13.866 -0.5320 -0.3062  0.2520
  681TMC3    H210132   3.130   3.653  14.112 -1.3211 -0.3234 -1.9859
  681TMC3    C710133   3.316   3.778  13.988 -0.3021 -0.4040  0.2620
  681TMC3    C810134   2.952   3.767  14.248  0.3540 -0.2083 -0.5539
  681TMC3    O110135   3.363   3.779  14.103  0.2107 -0.0280  0.5764
  681TMC3    O210136   2.918   3.648  14.242  0.4835 -0.0438 -0.2643
  682MPD2     C10137   0.516   1.104  10.662  0.5113  0.5669  0.1105
  682MPD2    C110138   0.501   0.972  10.664  0.2559 -0.5429  0.2442
  682MPD2    C210139   0.549   0.895  10.766  0.9239  0.1205 -0.3775
  682MPD2    C310140   0.618   0.956  10.866  0.5165 -0.6052 -0.3295
  682MPD2    C410141   0.633   1.094  10.873  0.7451 -0.5515  1.1001
  682MPD2    C510142   0.586   1.165  10.764  0.1458  0.7501  0.0875
  682MPD2     H10143   0.518   0.791  10.762  4.1054 -0.8583  0.4051
  682MPD2    H110144   0.675   1.152  10.955  2.4026 -0.7915  0.4197
  682MPD2    H210145   0.478   1.173  10.588 -1.9563 -1.1891 -0.2658
  682MPD2    H310146   0.594   1.273  10.767  0.8901  0.6778  0.5189
  682MPD2     N10147   0.667   0.879  10.974 -0.2052  0.2796  0.6960
  682MPD2    H510148   0.711   0.929  11.051 -0.4498 -1.0325  1.6710
  682MPD2    N110149   0.424   0.899  10.570 -0.2244 -0.4270 -0.1324
  682MPD2    H710150   0.408   0.802  10.599 -1.4498 -1.0171 -2.8582
  683TMC3    C110151   0.666   0.680  11.333 -0.0180 -0.5454 -0.7615
  683TMC3    C210152   0.711   0.548  11.345 -0.5452  0.5616 -0.0437
  683TMC3    C310153   0.764   0.492  11.233 -0.0325 -0.0526 -0.0985
  683TMC3    C410154   0.681   0.746  11.219 -0.1924 -0.0973  0.1540
  683TMC3    C510155   0.728   0.685  11.104  0.0443 -0.2602  0.1956
  683TMC3    C610156   0.767   0.554  11.105 -0.3564 -0.1973 -0.5906
  683TMC3     C10157   0.633   0.760  11.450 -1.2237 -0.8049  0.9153
  683TMC3     O10158   0.645   0.878  11.430 -0.0110  0.3181 -0.9366
  683TMC3     H10159   0.705   0.501  11.442 -0.8443 -0.7691 -0.6936
  683TMC3    H110160   0.642   0.846  11.209 -1.5006 -0.5060  1.0934
  683TMC3    H210161   0.827   0.521  11.021 -0.8748  1.1028 -1.4775
  683TMC3    C710162   0.690   0.746  10.971 -0.1411 -0.0195  0.0031
  683TMC3    C810163   0.823   0.358  11.243 -0.4832 -0.2930  0.3041
  683TMC3    O110164   0.682   0.665  10.876 -0.2267  0.2820  0.2259
  683TMC3    O210165   0.819   0.293  11.142 -0.5315  1.0002 -0.7560
  684MPD2     C10166   4.012   0.078  16.359  0.8089 -0.6108 -0.5170
  684MPD2    C110167   3.980   0.128  16.231  0.2272 -0.0549 -0.2450
  684MPD2    C210168   3.939   0.257  16.221 -0.8097  0.0921  0.3704
  684MPD2    C310169   3.924   0.341  16.331 -0.7412 -0.9574 -0.4326
  684MPD2    C410170   3.962   0.291  16.459 -0.6912 -0.7633  0.6576
  684MPD2    C510171   4.010   0.169  16.463 -0.2186 -0.3976  0.1921
  684MPD2     H10172   3.916   0.286  16.119 -1.0151  3.0170  1.2477
  684MPD2    H110173   3.959   0.358  16.543 -0.3121  0.4532 -0.3019
  684MPD2    H210174   4.034   4.708  16.375  1.0391 -0.2868  1.2832
  684MPD2    H310175   4.038   0.143  16.565  0.3775  1.9686  0.6228
  684MPD2     N10176   3.885   0.477  16.324 -0.2108 -0.6652 -0.2742
  684MPD2    H510177   3.894   0.527  16.411  0.4704  0.1462 -0.8254
  684MPD2    N110178   3.997   0.049  16.108  0.6615 -0.3798 -0.0645
  684MPD2    H710179   3.954   0.070  16.019  1.1346  1.9654  0.2543
  685TMC3    C110180   4.055   4.600  15.969  0.9434 -0.1165  0.5894
  685TMC3    C210181   3.996   4.663  15.868 -0.4144 -0.0404  0.1668
  685TMC3    C310182   4.027   4.630  15.738 -0.5189 -0.0633  0.2531
  685TMC3    C410183   4.142   4.501  15.937  0.2065  0.9466 -0.7791
  685TMC3    C510184   4.184   4.470  15.811 -0.0382 -0.0493  0.4353
  685TMC3    C610185   4.114   4.532  15.710  0.2579 -0.4437  0.3097
  685TMC3     C10186   4.062   4.666  16.098 -0.2333  0.4243 -0.2227
  685TMC3     O10187   4.135   4.619  16.183  0.3820 -0.0454  0.1965
  685TMC3     H10188   3.925   0.006  15.895 -1.5230 -0.5802 -1.1627
  685TMC3    H110189   4.169   4.439  16.022  2.4382  1.1216 -1.3535
  685TMC3    H210190   4.152   4.508  15.611  1.6420 -2.9120  1.4307
  685TMC3    C710191   4.323   4.433  15.794 -0.2381  0.0051 -0.6965
  685TMC3    C810192   3.938   4.671  15.625  0.0444  0.0653  0.1547
  685TMC3    O110193   4.377   4.401  15.692  0.1086  0.2616 -0.1915
  685TMC3    O210194   3.948   4.605  15.524 -0.0162  0.0888  0.3603
  686MPD2     C10195   0.337   0.391  15.312  0.6618 -0.8859 -0.4393
  686MPD2    C110196   0.402   0.279  15.365 -0.1553 -0.2742 -0.2878
  686MPD2    C210197   0.504   0.226  15.294 -0.0898 -0.3223  0.3091
  686MPD2    C310198   0.545   0.272  15.170 -0.4029 -0.3363  0.2675
  686MPD2    C410199   0.480   0.382  15.125 -0.5559  0.4014 -0.5341
  686MPD2    C510200   0.381   0.445  15.198  0.4948  0.2168 -0.4162
  686MPD2     H10201   0.550   0.140  15.340  0.9256 -0.5227 -1.0764
  686MPD2    H110202   0.517   0.433  15.037  2.3334 -0.4383  0.2046
  686MPD2    H210203   0.270   0.437  15.383 -0.3497  0.9710 -2.6024
  686MPD2    H310204   0.339   0.535  15.155  0.7558 -0.0210 -1.1603
  686MPD2     N10205   0.659   0.228  15.093 -0.4808 -0.0570 -0.9399
  686MPD2    H510206   0.689   0.292  15.020  1.2334 -0.6604 -0.7737
  686MPD2    N110207   0.360   0.231  15.493 -0.4381  0.3609 -0.7246
  686MPD2    H710208   0.286   0.281  15.542  2.3184  1.5634  2.2695
  687TMC3    C110209   0.684   4.735  15.182  0.3406 -0.5447  0.7561
  687TMC3    C210210   0.562   4.699  15.143 -0.4046  0.3030 -0.2148
  687TMC3    C310211   0.506   4.584  15.192  0.6792 -0.1560 -0.0320
  687TMC3    C410212   0.758   4.663  15.272  1.0940 -0.2474  0.2466
  687TMC3    C510213   0.695   4.549  15.331 -0.6523 -0.0743  0.1182
  687TMC3    C610214   0.571   4.515  15.292 -1.0692 -0.4781  0.0026
  687TMC3     C10215   0.745   0.118  15.116 -0.7551 -0.6457  0.1839
  687TMC3     O10216   0.855   0.102  15.066 -0.2111  0.4045  0.0428
  687TMC3     H10217   0.518   0.022  15.063 -0.7872  0.7694  0.3328
  687TMC3    H110218   0.853   4.708  15.298  0.3635  1.5641 -0.2468
  687TMC3    H210219   0.509   4.441  15.341 -0.2409  0.6149  2.6824
  687TMC3    C710220   0.715   4.521  15.475 -0.3757 -0.1846 -0.3599
  687TMC3    C810221   0.370   4.562  15.179 -0.5475  0.7011  0.0622
  687TMC3    O110222   0.677   4.413  15.519 -0.1915 -0.1739 -0.2578
  687TMC3    O210223   0.338   4.448  15.158 -0.4970  0.3411  0.0988
  688MPD2     C10224   4.369   3.845  17.108  0.7202  0.2312  0.2128
  688MPD2    C110225   4.386   3.754  17.208  0.0208 -0.5706 -0.0746
  688MPD2    C210226   4.514   3.693  17.218 -0.4125 -0.1836  0.1884
  688MPD2    C310227   4.607   3.720  17.128 -1.2507  0.5911  0.1288
  688MPD2    C410228   4.585   3.816  17.034 -0.0786 -0.3383 -0.4930
  688MPD2    C510229   4.465   3.876  17.022  0.4178 -1.2214 -0.3182
  688MPD2     H10230   4.533   3.620  17.296  2.6490  0.8584  0.4216
  688MPD2    H110231   4.664   3.847  16.966  0.7758 -2.1302 -0.3104
  688MPD2    H210232   4.281   3.903  17.086 -0.0646 -0.9854  0.1507
  688MPD2    H310233   4.446   3.954  16.948  0.0381 -1.0972 -0.0838
  688MPD2     N10234   4.733   3.661  17.122 -0.1761  0.2014  0.5715
  688MPD2    H510235   0.050   3.699  17.044  0.3207  0.7028  1.1489
  688MPD2    N110236   4.285   3.704  17.296  0.0359 -0.6612  0.4797
  688MPD2    H710237   4.310   3.630  17.360  0.7504  0.5242  1.5803
  689TMC3    C110238   4.081   3.680  17.421 -0.1192  0.2059 -0.6199
  689TMC3    C210239   4.014   3.753  17.515  0.5922 -0.2099  0.1363
  689TMC3    C310240   3.986   3.688  17.637  0.2153  0.4633 -0.1379
  689TMC3    C410241   4.085   3.549  17.420 -0.0252 -0.1344 -0.3435
  689TMC3    C510242   4.047   3.484  17.540 -0.6554 -1.1167  0.5493
  689TMC3    C610243   4.011   3.555  17.649  0.1082 -0.2548 -0.7045
  689TMC3     C10244   4.156   3.754  17.320  0.0424 -1.0786 -0.3015
  689TMC3     O10245   4.096   3.846  17.257 -0.0491  0.0285 -0.2368
  689TMC3     H10246   4.004   3.860  17.507 -0.0658 -0.0658  2.7632
  689TMC3    H110247   4.124   3.500  17.331  0.9679  0.9264 -0.4934
  689TMC3    H210248   3.995   3.504   0.004  0.3309  0.9020 -0.0387
  689TMC3    C710249   4.034   3.344  17.540 -0.2813  0.2043 -0.2340
  689TMC3    C810250   3.928   3.757   0.006  0.7988 -0.1838 -0.3588
  689TMC3    O110251   4.061   3.283  17.647  0.4827  0.4537  0.0497
  689TMC3    O210252   3.982   3.732   0.114 -0.6566  0.2921 -0.0256
  690MPD2     C10253   2.661   1.091  15.500 -0.3614 -0.9474 -0.1065
  690MPD2    C110254   2.535   1.116  15.442 -0.3564  0.5007 -0.4115
  690MPD2    C210255   2.528   1.169  15.321 -0.6260  0.6608 -0.3347
  690MPD2    C310256   2.646   1.204  15.252 -0.3430  0.4161 -0.5417
  690MPD2    C410257   2.764   1.185  15.315  0.2531 -0.1049  0.4764
  690MPD2    C510258   2.779   1.133  15.432  0.5055  1.1976  0.0556
  690MPD2     H10259   2.427   1.180  15.284 -1.2988 -1.2770  0.9749
  690MPD2    H110260   2.861   1.206  15.271  0.6063 -1.1476  0.7593
  690MPD2    H210261   2.675   1.044  15.597 -2.9432  1.6195  1.5005
  690MPD2    H310262   2.882   1.121  15.463 -0.1427 -0.5493  1.5243
  690MPD2     N10263   2.628   1.262  15.123  0.6006 -0.0643  0.1788
  690MPD2    H510264   2.539   1.263  15.074  1.2282 -2.6760 -1.0314
  690MPD2    N110265   2.415   1.099  15.514 -0.2049 -0.0787 -0.1345
  690MPD2    H710266   2.331   1.126  15.463  1.3079  3.3592 -0.7889
  691TMC3    C110267   2.264   1.048  15.673  0.4598  0.0028  0.3706
  691TMC3    C210268   2.177   1.130  15.596  0.4287 -0.1753 -0.5796
  691TMC3    C310269   2.058   1.090  15.556  0.5782  0.3653 -0.7053
  691TMC3    C410270   2.217   0.923  15.711 -0.9453  0.2226 -0.2558
  691TMC3    C510271   2.095   0.884  15.660 -0.0856  0.5002 -0.0499
  691TMC3    C610272   2.014   0.972  15.598  0.0667 -1.1624 -0.3109
  691TMC3     C10273   2.407   1.048  15.637  0.4358  0.6859 -0.3259
  691TMC3     O10274   2.486   0.976  15.699 -0.0838 -0.1176 -0.0718
  691TMC3     H10275   2.211   1.228  15.565 -1.1465  0.2260 -1.0210
  691TMC3    H110276   2.272   0.845  15.761  0.9643  1.6656 -0.1043
  691TMC3    H210277   1.936   0.924  15.539  1.1021  0.3481 -2.8855
  691TMC3    C710278   2.056   0.750  15.695 -0.1577 -0.5945  0.4952
  691TMC3    C810279   2.041   1.130  15.419  0.5969 -0.5204  0.1697
  691TMC3    O110280   2.128   0.699  15.777  0.1740 -0.7472  0.1533
  691TMC3    O210281   2.146   1.167  15.367 -0.1037 -0.3248 -0.0388
  692TMC3    C110282   3.377   1.776  15.601 -0.2563  0.1247 -0.3067
  692TMC3    C210283   3.469   1.827  15.697 -0.3358 -0.3010 -0.0542
  692TMC3    C310284   3.577   1.752  15.748  0.0538  0.7010  0.4532
  692TMC3    C410285   3.382   1.641  15.573 -0.7856  0.4977  0.1717
  692TMC3    C510286   3.477   1.564  15.639 -0.0806 -0.7453  0.3936
  692TMC3    C610287   3.570   1.619  15.719  0.4635 -0.4697  0.1433
  692TMC3     C10288   3.254   1.847  15.577 -0.3369  0.1435  0.4886
  692TMC3     O10289   3.183   1.794  15.491 -0.0169  0.2316  0.4389
  692TMC3     H10290   3.475   1.934  15.709 -2.6557 -0.2115  0.3457
  692TMC3    H110291   3.313   1.603  15.499  0.6275 -0.4272 -0.6572
  692TMC3    H210292   3.652   1.556  15.752  0.6384  0.1749  0.9451
  692TMC3    C710293   3.471   1.420  15.619  0.9868 -0.6985  0.7865
  692TMC3    C810294   3.629   1.784  15.880  0.0791  0.3464 -0.3991
  692TMC3    O110295   3.393   1.387  15.531  0.2142 -0.0644 -0.9261
  692TMC3    O210296   3.700   1.697  15.931  0.0061 -0.2217 -0.3310
  693MPD2     C10297   2.502   0.424  10.603 -0.0867  0.5605 -0.1573
  693MPD2    C110298   2.535   0.295  10.573 -0.9469 -0.0052 -0.4716
  693MPD2    C210299   2.664   0.244  10.582  0.3977 -0.0011  0.5589
  693MPD2    C310300   2.753   0.319  10.655  0.0233  0.4636 -0.0200
  693MPD2    C410301   2.715   0.439  10.707 -0.0669 -0.5458  0.2407
  693MPD2    C510302   2.593   0.490  10.672 -0.5002  0.0063  0.3295
  693MPD2     H10303   2.690   0.141  10.557 -0.2389  0.1440 -0.6872
  693MPD2    H110304   2.780   0.500  10.768 -0.1634  0.1992 -0.4153
  693MPD2    H210305   2.397   0.450  10.592 -0.9043 -2.7380 -0.3115
  693MPD2    H310306   2.555   0.580  10.717  1.2983  1.6093 -1.3929
  693MPD2     N10307   2.883   0.280  10.705  0.1842  0.1591 -0.1404
  693MPD2    H510308   2.932   0.334  10.775 -2.2581  2.0957  0.1100
  693MPD2    N110309   2.422   0.219  10.545 -0.2409 -0.0296  0.0455
  693MPD2    H710310   2.335   0.265  10.569 -0.8617 -0.5252 -1.2492
  694TMC3    C110311   2.299   0.024  10.548  0.1390  0.3116  0.0130
  694TMC3    C210312   2.250   4.646  10.498 -0.2292 -0.6548  0.2809
  694TMC3    C310313   2.170   4.558  10.582  0.5220 -0.8639  0.6607
  694TMC3    C410314   2.276   0.048  10.684 -0.3485  0.1797 -0.0509
  694TMC3    C510315   2.203   4.701  10.757  1.2754  0.2255 -0.9367
  694TMC3    C610316   2.147   4.589  10.709 -0.0550 -0.2311  0.6365
  694TMC3     C10317   2.415   0.091  10.495  0.2191  0.1870 -0.3200
  694TMC3     O10318   2.484   0.044  10.414  0.3486 -0.0583  0.2649
  694TMC3     H10319   2.272   4.626  10.394 -1.3971  0.3771 -0.1619
  694TMC3    H110320   2.334   0.126  10.730  0.4889 -0.4775  0.0089
  694TMC3    H210321   2.083   4.524  10.767 -1.4632 -0.1760 -0.8451
  694TMC3    C710322   2.224   4.715  10.902 -0.2592 -0.2529 -0.4688
  694TMC3    C810323   2.074   4.471  10.512  0.2700  0.1804 -0.3757
  694TMC3    O110324   2.268   0.084  10.945 -0.7236 -0.3875  0.4831
  694TMC3    O210325   2.043   4.378  10.583  0.1457 -0.0597  0.9966
  695MPD2     C10326   3.692   1.554  13.421  0.4982 -0.7498 -0.2587
  695MPD2    C110327   3.659   1.610  13.548 -0.2641 -0.8722 -0.5272
  695MPD2    C210328   3.526   1.622  13.577 -0.3499  0.0897 -0.0743
  695MPD2    C310329   3.430   1.606  13.480 -0.0333  0.6280  0.1547
  695MPD2    C410330   3.464   1.538  13.364 -0.6931 -0.3298 -0.1489
  695MPD2    C510331   3.599   1.516  13.333 -0.4956 -0.2896 -1.1283
  695MPD2     H10332   3.499   1.658  13.676  0.3467 -0.7430  0.4170
  695MPD2    H110333   3.392   1.512  13.287 -1.0147  1.6705 -0.5196
  695MPD2    H210334   3.796   1.549  13.393 -0.0392  1.5376 -2.6691
  695MPD2    H310335   3.626   1.468  13.240 -0.8060  3.3308 -3.1006
  695MPD2     N10336   3.304   1.636  13.515  0.0261 -0.7489  0.1138
  695MPD2    H510337   3.285   1.687  13.601  0.6158 -0.9281  0.3466
  695MPD2    N110338   3.759   1.657  13.635  0.0546  0.2313 -0.1397
  695MPD2    H710339   3.727   1.707  13.717  0.4251 -1.5720  1.0851
  696TMC3    C110340   3.068   1.663  13.493 -0.1735 -0.2084 -0.1436
  696TMC3    C210341   3.051   1.643  13.633  1.1413 -0.1612  0.0984
  696TMC3    C310342   2.925   1.663  13.687 -0.1601  0.3758  0.6896
  696TMC3    C410343   2.964   1.710  13.417 -0.1733  0.0441  0.5587
  696TMC3    C510344   2.843   1.736  13.474  0.5540 -0.1347  0.7689
  696TMC3    C610345   2.823   1.709  13.602 -0.6598  0.3754  0.0626
  696TMC3     C10346   3.194   1.629  13.425  0.0062 -0.6020 -0.2393
  696TMC3     O10347   3.192   1.626  13.305  0.1333 -0.2782 -0.1185
  696TMC3     H10348   3.135   1.604  13.690  0.4004 -1.7226  0.1289
  696TMC3    H110349   2.980   1.726  13.311 -0.7233 -0.2027  0.4374
  696TMC3    H210350   2.726   1.736  13.644 -1.5354 -0.1454 -1.6171
  696TMC3    C710351   2.804   1.877  13.437  1.0699 -0.4863 -0.4450
  696TMC3    C810352   2.942   1.757  13.799 -0.2802 -1.1343  0.8573
  696TMC3    O110353   2.812   1.902  13.314  0.5436  0.7946 -0.6892
  696TMC3    O210354   2.884   1.861  13.787  0.6184  0.5556  0.1017
  697MPD2     C10355   3.358   3.450  15.482 -0.3051 -0.0762  0.4348
  697MPD2    C110356   3.248   3.442  15.396  0.2181  0.0435  0.0049
  697MPD2    C210357   3.183   3.560  15.362 -0.5217  0.6597  0.5208
  697MPD2    C310358   3.217   3.676  15.422  0.1224  0.2010 -0.2103
  697MPD2    C410359   3.318   3.680  15.513 -1.0615  0.5472 -0.9355
  697MPD2    C510360   3.391   3.571  15.534  0.3323  0.0742 -0.4044
  697MPD2     H10361   3.096   3.548  15.298  1.6007 -1.8586 -1.9258
  697MPD2    H110362   3.340   3.758  15.585 -2.2111 -3.3164  3.6502
  697MPD2    H210363   3.424   3.366  15.504 -0.3753 -0.4477 -0.7502
  697MPD2    H310364   3.457   3.580  15.619 -1.3410  4.6167  0.4439
  697MPD2     N10365   3.129   3.781  15.395 -0.3515  0.3055 -0.2577
  697MPD2    H510366   3.065   3.763  15.318  0.3291 -4.5380  0.2996
  697MPD2    N110367   3.213   3.320  15.336 -0.3910  0.3049  0.2255
  697MPD2    H710368   3.136   3.321  15.270  0.3505  1.2910 -0.6190
  698TMC3    C110369   3.036   3.991  15.363  0.0868  0.1182  0.5277
  698TMC3    C210370   3.049   4.128  15.371 -1.0414  0.4791 -0.6893
  698TMC3    C310371   2.974   4.215  15.296 -0.2914  0.2166  0.9116
  698TMC3    C410372   2.934   3.936  15.286 -0.4481 -0.7216 -0.4108
  698TMC3    C510373   2.862   4.030  15.211 -0.0833 -0.0801 -0.1161
  698TMC3    C610374   2.886   4.163  15.208 -0.0222 -0.7930 -0.3573
  698TMC3     C10375   3.131   3.909  15.442 -0.2394  0.3216  0.2941
  698TMC3     O10376   3.198   3.952  15.536  0.1750  0.6535 -0.2697
  698TMC3     H10377   3.128   4.165  15.435 -1.7189  3.7689 -1.7574
  698TMC3    H110378   2.907   3.831  15.280  0.2938 -0.8773 -0.9816
  698TMC3    H210379   2.816   4.226  15.155  1.4437  0.7394 -0.4818
  698TMC3    C710380   2.771   3.984  15.103 -0.5664  0.0002  0.0794
  698TMC3    C810381   3.020   4.349  15.263 -0.5753  0.1073 -0.3345
  698TMC3    O110382   2.769   4.055  15.005  0.1516 -0.5162  0.5360
  698TMC3    O210383   2.933   4.427  15.223  0.2518 -0.0731 -0.7036
  699TMC3    C110384   2.885   1.573  13.098 -1.0407 -0.4652  0.2386
  699TMC3    C210385   2.982   1.481  13.133 -0.4595 -0.1708  0.5234
  699TMC3    C310386   2.929   1.362  13.169 -0.1921  0.2965 -0.6480
  699TMC3    C410387   2.752   1.561  13.134  0.2252  0.3218  0.1166
  699TMC3    C510388   2.712   1.441  13.188 -0.4755  0.6641 -0.1712
  699TMC3    C610389   2.800   1.345  13.209  0.2168 -0.0115 -0.6120
  699TMC3     C10390   2.911   1.708  13.046  0.3682 -0.0368  0.6151
  699TMC3     O10391   2.820   1.759  12.985 -0.2052  0.2180  0.5693
  699TMC3     H10392   3.087   1.493  13.107  0.0246 -1.5140  1.8314
  699TMC3    H110393   2.686   1.646  13.121 -1.4270 -0.7587  1.4817
  699TMC3    H210394   2.767   1.250  13.249 -3.1070 -0.0958 -3.5287
  699TMC3    C710395   2.627   1.463  13.305  0.5071 -0.1712  0.0425
  699TMC3    C810396   3.015   1.300  13.274 -0.3688  0.6324  0.0958
  699TMC3    O110397   2.525   1.530  13.297  0.0838  0.3763 -0.8027
  699TMC3    O210398   2.954   1.268  13.378 -0.4289 -0.3568 -0.6672
  700TMC3    C110399   2.631   4.388  16.690  0.1804 -0.0434 -0.3571
  700TMC3    C210400   2.678   4.261  16.694 -0.0908 -0.1446 -0.2064
  700TMC3    C310401   2.750   4.219  16.796 -0.4220 -0.1679  0.2872
  700TMC3    C410402   2.667   4.481  16.786  0.3216 -0.2178  0.4622
  700TMC3    C510403   2.733   4.436  16.900 -0.0973 -0.5346  0.6375
  700TMC3    C610404   2.774   4.302  16.903  0.1726 -0.4565  0.0892
  700TMC3     C10405   2.608   4.445  16.558  0.4911 -0.4700  0.3791
  700TMC3     O10406   2.527   4.392  16.484 -0.6923  0.2444 -0.1464
  700TMC3     H10407   2.673   4.209  16.599 -0.2242  0.7269 -0.6742
  700TMC3    H110408   2.630   4.582  16.778 -1.7196 -0.8885  1.1559
  700TMC3    H210409   2.845   4.268  16.977 -0.3900  0.5089  1.0671
  700TMC3    C710410   2.806   4.532  16.978  0.9748  0.0270 -0.0222
  700TMC3    C810411   2.835   4.094  16.781 -0.1078 -0.2959 -0.0832
  700TMC3    O110412   2.874   4.493  17.071  0.2813  0.2288  0.1596
  700TMC3    O210413   2.798   4.022  16.686 -0.1223  0.2279  0.5239
  701TMC3    C110414   2.529   2.895  15.545  0.0873  0.1531 -0.1322
  701TMC3    C210415   2.478   2.907  15.415  0.3304  0.2121  0.7003
  701TMC3    C310416   2.555   2.965  15.319 -1.0838 -0.6014  0.5029
  701TMC3    C410417   2.649   2.945  15.575  0.6507 -0.3078 -0.7033
  701TMC3    C510418   2.729   3.001  15.477 -0.3925 -0.4229  0.3855
  701TMC3    C610419   2.680   3.010  15.354 -0.5545 -0.3309 -0.1867
  701TMC3     C10420   2.446   2.859  15.664  0.7876  0.0476 -0.2170
  701TMC3     O10421   2.483   2.897  15.774 -0.8773  0.0988  0.5548
  701TMC3     H10422   2.388   2.856  15.384 -0.3500  0.8771  1.5702
  701TMC3    H110423   2.674   2.965  15.678  1.5476 -0.4335 -0.8941
  701TMC3    H210424   2.745   3.061  15.283  0.7857 -0.4434  0.9666
  701TMC3    C710425   2.782   3.129  15.522 -0.1036 -0.2212  0.1502
  701TMC3    C810426   2.510   2.973  15.178  0.0555 -0.2323 -0.2752
  701TMC3    O110427   2.752   3.234  15.458 -0.8253  0.1213  0.6711
  701TMC3    O210428   2.592   3.005  15.091  0.5412 -0.3302 -0.4294
  702MPD2     C10429   1.354   0.656  10.070 -0.9148  0.1009  0.0143
  702MPD2    C110430   1.458   0.683  10.165  0.4712  0.0072 -0.8140
  702MPD2    C210431   1.541   0.795  10.151 -0.2857  0.7368  0.9257
  702MPD2    C310432   1.521   0.886  10.051  0.5113  0.1966  0.8885
  702MPD2    C410433   1.423   0.857   9.959  0.5683 -0.7938  0.3989
  702MPD2    C510434   1.343   0.747   9.973 -0.0208  0.4354 -0.2613
  702MPD2     H10435   1.614   0.816  10.228 -1.6682 -1.4712  2.8254
  702MPD2    H110436   1.397   0.924   9.878 -2.8522 -1.0617  1.2544
  702MPD2    H210437   1.281   0.578  10.085 -1.0895  0.1697 -0.4953
  702MPD2    H310438   1.267   0.733   9.897 -1.0803  0.5925  0.7669
  702MPD2     N10439   1.589   1.009  10.044 -0.3553 -0.4224 -0.3431
  702MPD2    H510440   1.547   1.077   9.981 -0.8002 -0.1374  0.2584
  702MPD2    N110441   1.476   0.621  10.287  0.0769 -0.0409 -0.1002
  702MPD2    H710442   1.562   0.638  10.338  0.1485 -0.2572 -0.1484
  703TMC3    C110443   1.727   1.193  10.104 -0.4777  0.0694  0.4009
  703TMC3    C210444   1.632   1.284  10.064  0.3172 -0.5160 -0.1227
  703TMC3    C310445   1.680   1.407  10.047 -0.3095 -0.5240 -0.3733
  703TMC3    C410446   1.851   1.229  10.154 -0.3641  0.0475 -0.6999
  703TMC3    C510447   1.879   1.363  10.145 -1.2044 -0.1464 -0.1130
  703TMC3    C610448   1.806   1.450  10.071  0.0919  0.2756 -0.0565
  703TMC3     C10449   1.695   1.056  10.121  0.0155  0.5802  0.5500
  703TMC3     O10450   1.769   0.981  10.179 -0.1071  0.1919  0.1874
  703TMC3     H10451   1.536   1.252  10.026 -0.0721  0.4813  0.0144
  703TMC3    H110452   1.919   1.164  10.208  0.6078 -0.0533 -2.0499
  703TMC3    H210453   1.847   1.551  10.071 -1.0154  0.7309  1.4178
  703TMC3    C710454   1.990   1.414  10.222 -0.2190 -0.4576  0.2464
  703TMC3    C810455   1.588   1.512  10.099 -0.3475  0.1141  0.5566
  703TMC3    O110456   2.061   1.505  10.171  0.3461 -0.0951 -0.2000
  703TMC3    O210457   1.627   1.628  10.085  0.0790 -0.0546  0.3097
  704TMC3    C110458   4.086   3.640  12.853  0.0639  0.1019 -0.0212
  704TMC3    C210459   4.183   3.696  12.768  0.8957 -0.3822  0.2240
  704TMC3    C310460   4.307   3.649  12.763 -0.5856  0.3429 -0.0275
  704TMC3    C410461   4.124   3.537  12.933  0.4352 -0.2862  0.8590
  704TMC3    C510462   4.252   3.483  12.915  0.3416 -1.0222 -0.3465
  704TMC3    C610463   4.346   3.536  12.831 -0.0016 -0.0694  0.6518
  704TMC3     C10464   3.944   3.646  12.819  0.3797 -1.0596 -0.3998
  704TMC3     O10465   3.862   3.598  12.897  0.0266  0.0734 -0.2450
  704TMC3     H10466   4.164   3.788  12.714 -1.1661 -1.3654 -0.7030
  704TMC3    H110467   4.048   3.483  12.989  0.6022 -0.1045  1.2677
  704TMC3    H210468   4.445   3.492  12.830 -0.7004 -1.6396  1.6592
  704TMC3    C710469   4.253   3.337  12.900 -0.4871 -0.4997  0.4463
  704TMC3    C810470   4.351   3.652  12.631 -0.1111 -0.6155  0.5138
  704TMC3    O110471   4.312   3.284  12.806 -0.2081 -0.4413 -0.0007
  704TMC3    O210472   4.262   3.656  12.547 -0.6270 -0.2556  0.0402
  705MPD2     C10473   3.870   1.349  16.421 -0.0316  0.2950 -0.1801
  705MPD2    C110474   3.779   1.355  16.318  0.2889  0.0133 -0.6729
  705MPD2    C210475   3.647   1.387  16.341  0.2906 -0.2318  0.3213
  705MPD2    C310476   3.595   1.415  16.466 -0.0437 -0.2056 -1.0264
  705MPD2    C410477   3.684   1.418  16.571 -0.9067 -0.6117 -0.2719
  705MPD2    C510478   3.819   1.376  16.545  0.1344 -0.0069 -0.7239
  705MPD2     H10479   3.579   1.391  16.257 -0.2454 -2.2694  0.6416
  705MPD2    H110480   3.664   1.450  16.672 -2.1398  1.4703 -1.1801
  705MPD2    H210481   3.975   1.331  16.399  0.0718 -0.3278  0.8081
  705MPD2    H310482   3.899   1.390  16.617  0.2876 -0.5270 -0.7948
  705MPD2     N10483   3.460   1.466  16.481  0.0907 -0.3126 -0.2578
  705MPD2    H510484   3.443   1.502  16.575 -2.2707  1.4024 -1.3388
  705MPD2    N110485   3.823   1.361  16.181  0.2756  0.1281  0.6864
  705MPD2    H710486   3.769   1.415  16.113  0.5715  0.2481  0.5463
  706TMC3    C110487   4.107   1.343  15.801  0.6280  0.5117 -0.1428
  706TMC3    C210488   4.089   1.473  15.767  0.4534  0.0955  0.2936
  706TMC3    C310489   4.027   1.551  15.857 -0.5192 -0.5227  0.4544
  706TMC3    C410490   4.045   1.291  15.909  0.3859 -0.3232  0.9163
  706TMC3    C510491   3.968   1.367  15.994  0.0814 -1.3764 -0.8518
  706TMC3    C610492   3.966   1.503  15.971 -0.8006  0.1602  0.0691
  706TMC3     C10493   4.219   1.271  15.740  0.2961 -0.3122 -0.1924
  706TMC3     O10494   4.297   1.227  15.825  0.3883  0.2227 -0.7822
  706TMC3     H10495   4.142   1.512  15.680  1.6237 -0.7970  0.6019
  706TMC3    H110496   4.060   1.184  15.917  1.6636  0.0484  3.5262
  706TMC3    H210497   3.916   1.580  16.028 -0.1389  0.7952 -0.2162
  706TMC3    C710498   3.937   1.308  16.127  0.6306 -0.4535  0.1652
  706TMC3    C810499   4.018   1.692  15.832  0.0093  0.2785  0.1748
  706TMC3    O110500   3.996   1.209  16.168  0.0818  0.4482 -0.6231
  706TMC3    O210501   4.010   1.737  15.718 -0.6243 -0.3287 -0.1201
  707TMC3    C110502   0.607   0.690  17.680  0.0644  0.1555  0.3961
  707TMC3    C210503   0.577   0.570  17.618  0.0142 -0.1251 -0.2037
  707TMC3    C310504   0.444   0.552  17.598  0.2256 -0.7534 -0.4111
  707TMC3    C410505   0.510   0.781  17.715 -0.3873 -0.4202 -0.1937
  707TMC3    C510506   0.392   0.765  17.662 -0.2742  0.3134  0.6501
  707TMC3    C610507   0.352   0.650  17.614 -0.1888  0.2377  0.9432
  707TMC3     C10508   0.752   0.723  17.687  0.8124 -0.5099  0.0417
  707TMC3     O10509   0.785   0.812   0.019  0.0542 -0.1158 -0.0068
  707TMC3     H10510   0.654   0.497  17.594  0.2096  0.0110 -0.0013
  707TMC3    H110511   0.532   0.870   0.034  0.0675  0.2470 -1.4037
  707TMC3    H210512   0.246   0.638  17.598 -0.0996 -1.0565  1.2910
  707TMC3    C710513   0.305   0.879  17.658 -0.1309 -0.9932  0.3922
  707TMC3    C810514   0.407   0.414  17.567  0.1202 -0.5912 -0.5130
  707TMC3    O110515   0.336   0.981  17.711  0.8755 -0.6365  0.2289
  707TMC3    O210516   0.307   0.407  17.496 -0.2484  0.2717  0.2601
  708MPD2     C10517   2.202   0.240  13.784  0.5744 -0.7583 -0.0472
  708MPD2    C110518   2.098   0.248  13.868 -0.2279 -0.3843  0.1292
  708MPD2    C210519   2.110   0.183  13.990  0.3359  0.2358  0.1934
  708MPD2    C310520   2.221   0.115  14.027 -0.4290 -0.6103 -0.5926
  708MPD2    C410521   2.326   0.109  13.946 -0.1249 -0.1358  0.3741
  708MPD2    C510522   2.320   0.181  13.830 -0.7654 -0.6601 -0.0239
  708MPD2     H10523   2.022   0.181  14.054  1.7373 -0.3235  2.1126
  708MPD2    H110524   2.421   0.061  13.969  0.4904  0.1991 -1.4338
  708MPD2    H210525   2.206   0.292  13.689 -1.5111 -1.2552 -0.4169
  708MPD2    H310526   2.414   0.195  13.777 -0.5473  1.2424  0.8788
  708MPD2     N10527   2.229   0.064  14.157 -0.1919  0.6888 -0.3432
  708MPD2    H510528   2.147   0.069  14.216  0.5435  0.0693  0.7365
  708MPD2    N110529   1.977   0.313  13.833  0.2711  0.6365  0.2641
  708MPD2    H710530   1.963   0.323  13.733  2.9791 -1.0905 -0.2975
  709TMC3    C110531   1.756   0.378  13.876  0.4566 -0.1839 -0.5634
  709TMC3    C210532   1.714   0.312  13.760 -0.7471 -0.4393 -0.3750
  709TMC3    C310533   1.581   0.281  13.751 -0.6294 -0.2826  0.4418
  709TMC3    C410534   1.670   0.417  13.970  0.0281  0.2821 -0.1517
  709TMC3    C510535   1.538   0.377  13.958  0.7678  0.0162 -0.1922
  709TMC3    C610536   1.495   0.302  13.852  0.6567 -0.0910 -0.8240
  709TMC3     C10537   1.890   0.368  13.928  0.4931  0.4752  0.5448
  709TMC3     O10538   1.905   0.382  14.047 -0.0547 -0.1267  0.1448
  709TMC3     H10539   1.794   0.290  13.691 -0.2903  1.5032 -0.4580
  709TMC3    H110540   1.696   0.492  14.044  1.5737  0.9060 -1.3282
  709TMC3    H210541   1.394   0.264  13.851  0.5644  0.2238 -2.7303
  709TMC3    C710542   1.495   0.326  14.084  0.5134 -0.0835  0.3730
  709TMC3    C810543   1.558   0.161  13.679  0.6765  0.0199  0.3892
  709TMC3    O110544   1.376   0.327  14.108 -0.0606  0.0370  0.2993
  709TMC3    O210545   1.491   0.079  13.738  0.5425  0.7996  0.3004
  710TMC3    C110546   2.948   1.340   0.285 -0.1532 -0.7527 -0.0576
  710TMC3    C210547   3.077   1.391   0.287  0.6453 -0.5363 -0.0506
  710TMC3    C310548   3.178   1.302   0.286 -0.4192 -0.4442  0.1607
  710TMC3    C410549   2.917   1.207   0.273 -0.1789 -0.6577 -0.6310
  710TMC3    C510550   3.021   1.121   0.285  0.6933 -0.2013 -0.1854
  710TMC3    C610551   3.148   1.169   0.284 -0.6359 -0.5333 -0.4730
  710TMC3     C10552   2.844   1.423   0.230  0.1578  0.1924  0.1861
  710TMC3     O10553   2.782   1.374   0.135 -0.6013  0.3010 -0.0767
  710TMC3     H10554   3.091   1.499   0.283  2.3722 -0.7578  0.1241
  710TMC3    H110555   2.814   1.171   0.272 -0.1561 -0.6626 -2.2821
  710TMC3    H210556   3.229   1.097   0.273 -0.9423 -0.8363 -0.7455
  710TMC3    C710557   3.016   1.012   0.372 -0.8707 -0.0051  0.3381
  710TMC3    C810558   3.308   1.359   0.260  0.3347  0.8614  1.1961
  710TMC3    O110559   3.093   1.017   0.467  0.7416 -0.1922 -0.5903
  710TMC3    O210560   3.315   1.453   0.176 -0.7714 -0.2398 -0.7138
  711TMC3    C110561   2.957   2.500  14.629  0.1397  0.0439 -0.4200
  711TMC3    C210562   2.962   2.560  14.751 -1.0781 -0.0106 -0.1937
  711TMC3    C310563   3.085   2.559  14.820  1.0377  0.2360  0.0601
  711TMC3    C410564   3.063   2.436  14.570 -0.9449  0.1453  0.4537
  711TMC3    C510565   3.176   2.428  14.642 -0.3739  0.1759 -0.7042
  711TMC3    C610566   3.187   2.502  14.757  0.1281 -0.1007 -0.3275
  711TMC3     C10567   2.821   2.486  14.576 -0.4452  0.2942 -0.5232
  711TMC3     O10568   2.719   2.513  14.643  0.2220  0.0031 -0.5995
  711TMC3     H10569   2.875   2.592  14.808 -2.5920 -1.5869 -1.6332
  711TMC3    H110570   3.047   2.368  14.487  0.0597  2.6287 -1.7704
  711TMC3    H210571   3.283   2.494  14.807  0.2361 -2.0962 -0.8658
  711TMC3    C710572   3.258   2.303  14.652  0.1107 -0.4470  0.2449
  711TMC3    C810573   3.065   2.524  14.960  0.8811  0.1110  0.4255
  711TMC3    O110574   3.332   2.293  14.749  0.1472  0.6886 -0.3848
  711TMC3    O210575   2.954   2.481  14.995 -0.1576  0.1846 -0.4194
  712MPD2     C10576   4.112   3.318  13.902 -0.1028  0.4657 -0.2608
  712MPD2    C110577   4.033   3.423  13.862 -0.4367 -0.8408  0.2227
  712MPD2    C210578   4.088   3.546  13.889 -0.5690  0.1600  0.4145
  712MPD2    C310579   4.207   3.568  13.952  0.0573 -0.5777 -0.2589
  712MPD2    C410580   4.283   3.459  13.993  0.3484  0.1675 -0.1739
  712MPD2    C510581   4.233   3.337  13.965  0.4834  0.1193  0.4724
  712MPD2     H10582   4.021   3.626  13.860 -0.2509  0.4451  0.4615
  712MPD2    H110583   4.385   3.466  14.029 -0.2185  2.7905  0.9377
  712MPD2    H210584   4.089   3.213  13.891  0.9975 -0.2521  4.2285
  712MPD2    H310585   4.297   3.253  13.986 -1.5483 -1.3801  0.6812
  712MPD2     N10586   4.265   3.695  13.975 -0.4440  0.6604 -0.1197
  712MPD2    H510587   4.338   3.698  14.045 -2.6612 -0.4989  2.2629
  712MPD2    N110588   3.919   3.417  13.775  0.3389 -0.3527 -0.0004
  712MPD2    H710589   3.883   3.504  13.738  2.2974  0.7664  0.7218
  713TMC3    C110590   4.272   3.923  13.997  0.6947 -0.3984 -0.0421
  713TMC3    C210591   4.402   3.924  14.031 -0.6631 -0.1015  0.1616
  713TMC3    C310592   4.468   4.041  14.061  0.3578 -0.2964 -0.9833
  713TMC3    C410593   4.199   4.033  14.007 -0.2552  0.6344  0.4705
  713TMC3    C510594   4.261   4.147  14.037 -0.2176 -0.2210  0.2025
  713TMC3    C610595   4.394   4.157  14.063  0.2299 -0.1731 -0.2808
  713TMC3     C10596   4.212   3.813  13.931 -0.0344 -1.0140  0.6900
  713TMC3     O10597   4.110   3.829  13.863  0.1927  0.5811  0.0682
  713TMC3     H10598   4.459   3.835  14.008 -0.8395 -0.6858  1.9767
  713TMC3    H110599   4.093   4.030  13.983  0.7258 -0.5970 -3.7261
  713TMC3    H210600   4.449   4.247  14.086 -0.0232 -0.1868  0.3903
  713TMC3    C710601   4.209   4.269  13.971  0.2037 -0.3547  0.4871
  713TMC3    C810602   4.594   4.072  13.994  0.3037 -0.7554 -0.0877
  713TMC3    O110603   4.296   4.358  13.955 -0.9016 -0.3169 -0.6015
  713TMC3    O210604   4.597   4.166  13.917 -0.1205  0.0292  0.1565
  714MPD2     C10605   1.526   2.674   1.192 -0.0325 -0.2749 -0.3689
  714MPD2    C110606   1.563   2.563   1.117 -0.4057 -0.0418  0.2978
  714MPD2    C210607   1.486   2.528   1.009  0.3677 -0.6388  0.4477
  714MPD2    C310608   1.368   2.588   0.970 -0.5182  0.0055  0.5011
  714MPD2    C410609   1.331   2.686   1.051  0.1653  0.3731 -0.2022
  714MPD2    C510610   1.406   2.732   1.161  0.5089  0.2850  0.2727
  714MPD2     H10611   1.506   2.440   0.950  0.7683 -0.5860  0.5003
  714MPD2    H110612   1.243   2.744   1.023 -0.8527 -2.1625 -2.3006
  714MPD2    H210613   1.583   2.714   1.275  0.4960 -1.6834 -0.0563
  714MPD2    H310614   1.360   2.809   1.222 -1.9651 -2.3101  1.7030
  714MPD2     N10615   1.308   2.541   0.849  0.0914  0.5968  0.6158
  714MPD2    H510616   1.353   2.468   0.795  1.4434  0.9389  1.2715
  714MPD2    N110617   1.674   2.489   1.152 -0.5876  0.3541  0.1960
  714MPD2    H710618   1.732   2.532   1.224 -2.0144  0.5312  1.2345
  715TMC3    C110619   1.857   2.346   1.115 -0.2134  0.3268 -0.6685
  715TMC3    C210620   1.903   2.221   1.094 -0.1924 -0.0754  0.2483
  715TMC3    C310621   2.041   2.204   1.085  0.1392 -0.2917 -0.3075
  715TMC3    C410622   1.935   2.453   1.136  0.0943  0.2566  0.0049
  715TMC3    C510623   2.075   2.432   1.134 -0.2711 -0.6055  0.6820
  715TMC3    C610624   2.130   2.310   1.106  0.2721  0.1964 -0.0833
  715TMC3     C10625   1.715   2.367   1.100 -0.0230 -0.0704  0.1879
  715TMC3     O10626   1.650   2.290   1.032  0.2801  0.7202  0.4339
  715TMC3     H10627   1.840   2.138   1.066 -0.3478 -0.0373  0.4823
  715TMC3    H110628   1.895   2.554   1.136  0.2842  0.3319  0.1196
  715TMC3    H210629   2.237   2.315   1.091  0.2881 -2.5397 -0.8290
  715TMC3    C710630   2.162   2.529   1.186 -0.1598 -0.2549 -0.1022
  715TMC3    C810631   2.088   2.070   1.041  0.2868  0.3066 -0.4099
  715TMC3    O110632   2.275   2.541   1.147  0.0593  0.6125 -0.0745
  715TMC3    O210633   2.010   2.000   0.981 -0.2762  0.5086 -0.0738
  716MPD2     C10634   0.939   0.202  10.234 -0.7472 -0.5798 -0.4311
  716MPD2    C110635   0.915   0.231  10.104 -0.3939 -0.0403 -0.4660
  716MPD2    C210636   0.970   0.150  10.006 -0.7657 -0.3695 -0.5891
  716MPD2    C310637   1.054   0.048  10.031  0.7622 -0.2782 -0.1303
  716MPD2    C410638   1.087   0.020  10.162 -0.3325  0.5241  0.0734
  716MPD2    C510639   1.024   0.097  10.263 -0.1596  0.5173  0.3597
  716MPD2     H10640   0.945   0.168   9.902 -2.1572 -0.8012 -0.3341
  716MPD2    H110641   1.173   4.699  10.196 -0.2482 -2.0869 -4.5816
  716MPD2    H210642   0.886   0.262  10.306  2.5698  3.7300 -1.5777
  716MPD2    H310643   1.057   0.086  10.365  0.9176 -0.3330 -0.0786
  716MPD2     N10644   1.114   4.707   9.932  0.1617 -0.0142  0.4872
  716MPD2    H510645   1.072   4.727   9.841  3.5162  2.0558 -0.6241
  716MPD2    N110646   0.826   0.335  10.071 -0.1272  0.2690 -0.6870
  716MPD2    H710647   0.794   0.396  10.146 -0.6331 -0.1959 -0.5178
  717TMC3    C110648   1.257   4.571   9.809 -0.0164  1.0813 -0.0144
  717TMC3    C210649   1.196   4.618   9.693 -0.3857  0.0765 -0.0332
  717TMC3    C310650   1.231   4.558   9.572  0.9701 -0.6260 -0.0010
  717TMC3    C410651   1.340   4.470   9.806 -0.1511  0.3527 -0.0357
  717TMC3    C510652   1.352   4.405   9.692  0.3510 -0.3858 -0.1312
  717TMC3    C610653   1.307   4.443   9.572  0.0641  0.0507  0.1460
  717TMC3     C10654   1.220   4.623   9.939 -0.7368 -0.2275  0.1595
  717TMC3     O10655   1.276   4.575  10.039 -0.2669 -0.3113  0.0188
  717TMC3     H10656   1.137   4.709   9.692 -0.9319 -0.2798 -0.0195
  717TMC3    H110657   1.393   4.435   9.895  0.8373  0.5391 -0.5581
  717TMC3    H210658   1.333   4.389   9.482 -1.3462 -0.3672 -0.0145
  717TMC3    C710659   1.415   4.272   9.686 -0.8922 -0.6640 -0.2741
  717TMC3    C810660   1.167   4.616   9.454  0.0761 -0.0043  0.3681
  717TMC3    O110661   1.516   4.266   9.751 -0.3167  0.4509 -0.1592
  717TMC3    O210662   1.114   4.723   9.473  0.1868  0.2630  0.0066
  718MPD2     C10663   1.258   3.459  12.818  0.0944 -0.2926  0.2933
  718MPD2    C110664   1.194   3.478  12.700 -1.0903  0.3378  0.0449
  718MPD2    C210665   1.060   3.462  12.700 -0.5348 -0.0061 -0.2770
  718MPD2    C310666   0.981   3.422  12.812  0.1268 -0.3408 -0.1564
  718MPD2    C410667   1.050   3.409  12.929  0.1101 -0.3157 -0.0766
  718MPD2    C510668   1.187   3.426  12.931  0.2618 -0.2059 -1.1804
  718MPD2     H10669   1.001   3.474  12.609 -2.4330 -1.1176  0.8177
  718MPD2    H110670   0.995   3.403  13.022 -1.1332  3.3368 -0.5537
  718MPD2    H210671   1.366   3.455  12.819  0.1451  1.0947  0.4535
  718MPD2    H310672   1.248   3.421  13.020 -1.7950 -0.8944  0.1819
  718MPD2     N10673   0.843   3.412  12.792 -0.5528 -0.5635  0.1567
  718MPD2    H510674   0.816   3.455  12.704 -1.1059 -0.9473  0.1444
  718MPD2    N110675   1.252   3.528  12.589 -0.4752  0.2720  0.6511
  718MPD2    H710676   1.194   3.538  12.506  1.3798  0.0603 -0.6923
  719TMC3    C110677   1.408   3.626  12.451  0.0161  0.1446 -0.8246
  719TMC3    C210678   1.305   3.589  12.365 -0.2171  0.5558 -0.1650
  719TMC3    C310679   1.232   3.686  12.296 -0.3913  0.0570  0.2930
  719TMC3    C410680   1.438   3.756  12.462  0.1317 -0.6144 -1.2546
  719TMC3    C510681   1.367   3.843  12.384  0.7592  0.1363  0.1133
  719TMC3    C610682   1.261   3.815  12.307 -0.1308  0.4490  0.0796
  719TMC3     C10683   1.381   3.572  12.579 -0.0085 -0.3127 -0.1060
  719TMC3     O10684   1.444   3.617  12.672  0.2316  0.4173 -0.1282
  719TMC3     H10685   1.279   3.485  12.354  0.9148  0.1819  0.7598
  719TMC3    H110686   1.530   3.782  12.513  0.5502  2.1804 -3.4336
  719TMC3    H210687   1.192   3.894  12.278  0.5551  1.5350  1.4452
  719TMC3    C710688   1.416   3.974  12.356  0.4405 -0.3495  0.2265
  719TMC3    C810689   1.086   3.662  12.313  0.8697  0.4023  0.3874
  719TMC3    O110690   1.384   4.032  12.252  0.5550  0.0406 -0.3370
  719TMC3    O210691   1.073   3.578  12.401 -0.4874 -0.6566 -0.0554
  720MPD2     C10692   4.366   0.607  14.203 -0.3792 -0.0879 -0.2099
  720MPD2    C110693   4.460   0.676  14.122  0.1734  0.0398  0.1678
  720MPD2    C210694   4.577   0.721  14.175 -0.2462 -0.4017 -0.9064
  720MPD2    C310695   4.587   0.726  14.309  0.0720  0.2491 -0.0414
  720MPD2    C410696   4.497   0.658  14.391 -0.1322 -0.9362  0.1375
  720MPD2    C510697   4.392   0.596  14.334 -0.1937 -0.2613 -0.3309
  720MPD2     H10698   4.655   0.769  14.116 -0.1882  0.2132 -0.3293
  720MPD2    H110699   4.511   0.639  14.497 -0.8536  0.4830  0.4810
  720MPD2    H210700   4.282   0.558  14.156 -0.3659  1.0949 -1.4726
  720MPD2    H310701   4.330   0.534  14.398  0.0009  0.3492  0.4538
  720MPD2     N10702   4.697   0.800  14.357 -0.2261 -0.4580  0.0185
  720MPD2    H510703   0.031   0.841  14.295  0.2661 -0.6099  0.4719
  720MPD2    N110704   4.446   0.692  13.980 -0.7948 -0.1107 -0.1589
  720MPD2    H710705   4.533   0.723  13.936 -0.1195 -0.6159  0.8240
  721TMC3    C110706   0.105   0.908  14.521 -0.6198  0.4161 -0.1136
  721TMC3    C210707   0.115   0.951  14.650  0.5922  0.7178  0.4393
  721TMC3    C310708   0.242   0.969  14.700  0.1815 -0.2128 -0.3370
  721TMC3    C410709   0.219   0.904  14.442 -0.3935  0.2039 -0.1157
  721TMC3    C510710   0.341   0.909  14.501 -0.2377  0.1867  0.2877
  721TMC3    C610711   0.359   0.935  14.636 -0.3351  0.0536  0.3501
  721TMC3     C10712   4.715   0.827  14.488  1.0346 -0.6082  0.7599
  721TMC3     O10713   4.637   0.803  14.584  0.4284 -0.1149  0.0154
  721TMC3     H10714   0.025   0.956  14.709 -0.5490 -0.0772 -1.2296
  721TMC3    H110715   0.214   0.859  14.344 -0.0502  0.2055 -0.1334
  721TMC3    H210716   0.452   0.949  14.688  0.0788 -1.5474  0.0361
  721TMC3    C710717   0.458   0.874  14.423  0.0114 -0.1983  0.1454
  721TMC3    C810718   0.255   0.984  14.843 -0.5402 -0.3109  0.4446
  721TMC3    O110719   0.448   0.857  14.300 -0.2584  0.3954 -0.1343
  721TMC3    O210720   0.360   1.033  14.874  0.1150 -0.5404  0.2084
  722MPD2     C10721   3.015   4.053  13.569 -0.0768 -0.3026  0.3107
  722MPD2    C110722   3.034   4.142  13.468 -0.1846 -0.4074 -0.0673
  722MPD2    C210723   2.946   4.136  13.360 -0.0179 -0.1287 -0.4873
  722MPD2    C310724   2.852   4.037  13.347  0.5944 -0.6602 -0.0521
  722MPD2    C410725   2.830   3.949  13.449  0.1395 -0.1145  0.6024
  722MPD2    C510726   2.909   3.962  13.562 -0.0056  0.0053 -0.7070
  722MPD2     H10727   2.949   4.214  13.284 -0.4603  0.0666 -0.3032
  722MPD2    H110728   2.743   3.884  13.462 -1.7496  2.6129  1.5520
  722MPD2    H210729   3.076   4.044  13.658  1.9631  0.5396 -0.9944
  722MPD2    H310730   2.886   3.901  13.649 -1.1335  0.1851 -0.8829
  722MPD2     N10731   2.774   4.036  13.232 -0.6636 -0.0903  0.0872
  722MPD2    H510732   2.790   4.113  13.168  2.7304 -0.9424 -0.0649
  722MPD2    N110733   3.134   4.243  13.476 -0.8910 -0.1790  0.0822
  722MPD2    H710734   3.129   4.317  13.407 -0.4355 -1.2368 -1.0944
  723TMC3    C110735   2.591   4.005  13.090 -0.1846 -0.0402 -0.0325
  723TMC3    C210736   2.516   3.931  12.994 -0.6431  0.4830  0.7188
  723TMC3    C310737   2.440   3.998  12.898  0.0338 -0.5830  0.3892
  723TMC3    C410738   2.570   4.145  13.087 -0.1093 -0.0469 -0.2079
  723TMC3    C510739   2.483   4.204  12.996 -0.4053  0.0333 -0.1304
  723TMC3    C610740   2.420   4.131  12.900  0.5210  0.1423 -0.3398
  723TMC3     C10741   2.683   3.945  13.184 -0.2869  0.2421 -1.0964
  723TMC3     O10742   2.668   3.830  13.211  0.1041  0.5649  0.0680
  723TMC3     H10743   2.529   3.824  12.985 -0.0868  0.6838 -0.9005
  723TMC3    H110744   2.615   4.210  13.160 -3.3082  0.8244  0.9979
  723TMC3    H210745   2.352   4.168  12.824  0.5516 -0.8429 -0.8408
  723TMC3    C710746   2.452   4.348  13.005  0.0756  0.9991  0.6276
  723TMC3    C810747   2.361   3.925  12.799 -0.1342 -0.4035  0.1002
  723TMC3    O110748   2.453   4.405  13.115  0.1695  0.2237  0.3746
  723TMC3    O210749   2.299   3.989  12.713 -0.0120  0.3468 -0.4910
  724TMC3    C110750   3.143   2.396  10.357 -0.2247 -0.1706 -0.0941
  724TMC3    C210751   3.122   2.503  10.267 -0.5179  0.1917 -0.4734
  724TMC3    C310752   3.202   2.612  10.285 -0.4988 -0.0696  0.5384
  724TMC3    C410753   3.245   2.397  10.449 -0.3247 -0.4196 -0.2446
  724TMC3    C510754   3.340   2.496  10.436  0.2196 -0.6613 -0.2905
  724TMC3    C610755   3.313   2.610  10.361  0.1530  0.0797  0.2858
  724TMC3     C10756   3.063   2.278  10.340  0.2762 -0.0267 -0.7330
  724TMC3     O10757   3.053   2.206  10.438 -0.1884  0.0229 -0.7983
  724TMC3     H10758   3.023   2.528  10.229 -1.0804 -1.4239 -0.0754
  724TMC3    H110759   3.251   2.312  10.515 -1.7360  1.4584  2.2836
  724TMC3    H210760   3.393   2.682  10.355  1.3234 -1.2141  0.5421
  724TMC3    C710761   3.451   2.506  10.534 -0.3869 -0.6012  0.8267
  724TMC3    C810762   3.151   2.737  10.232 -0.1240 -0.7426  0.0712
  724TMC3    O110763   3.534   2.589  10.502 -0.2926 -0.3509 -0.0015
  724TMC3    O210764   3.056   2.736  10.151 -0.1077 -0.4192 -0.4906
  725TMC3    C110765   0.171   1.220  12.741  0.3214 -0.0324  0.3403
  725TMC3    C210766   0.201   1.234  12.606 -0.0028  0.5088  0.1801
  725TMC3    C310767   0.181   1.134  12.521 -0.6119 -0.1437  0.4016
  725TMC3    C410768   0.124   1.097  12.781  0.6062 -0.2397  0.1874
  725TMC3    C510769   0.105   0.994  12.688 -0.1392 -0.3715 -0.0272
  725TMC3    C610770   0.135   1.012  12.555 -0.3483  0.5020 -0.5668
  725TMC3     C10771   0.160   1.338  12.822 -0.3949 -0.8354 -1.2932
  725TMC3     O10772   0.215   1.434  12.777 -0.1075 -0.0654 -0.4367
  725TMC3     H10773   0.229   1.331  12.566  0.4296  0.3583  0.1204
  725TMC3    H110774   0.113   1.077  12.887  0.6839 -0.5393  0.1380
  725TMC3    H210775   0.107   0.933  12.486 -0.5164  0.2767 -0.2413
  725TMC3    C710776   0.110   0.857  12.733  0.8390 -0.4307  0.5856
  725TMC3    C810777   0.178   1.165  12.378 -0.2634  0.5025 -0.1532
  725TMC3    O110778   0.144   0.771  12.655 -0.3241 -0.6290 -0.4778
  725TMC3    O210779   0.156   1.280  12.345  0.3656 -0.2366 -0.3026
  726MPD2     C10780   2.293   2.908  10.645  0.8426  0.2586  0.1569
  726MPD2    C110781   2.215   2.886  10.533  0.0973  0.3477  0.3106
  726MPD2    C210782   2.093   2.827  10.549 -0.5182 -0.1915  0.3066
  726MPD2    C310783   2.051   2.775  10.672  0.3364  0.0365  0.8693
  726MPD2    C410784   2.132   2.791  10.777 -0.0920  0.1136 -0.2104
  726MPD2    C510785   2.251   2.859  10.766  0.4462  0.6424 -0.3050
  726MPD2     H10786   2.030   2.823  10.461  1.1792 -0.4090 -0.9074
  726MPD2    H110787   2.100   2.762  10.876  0.6916 -2.9603 -0.8726
  726MPD2    H210788   2.391   2.952  10.651  0.6559  0.8424 -1.1979
  726MPD2    H310789   2.327   2.865  10.843  0.1834  1.3117 -0.0997
  726MPD2     N10790   1.927   2.704  10.701 -0.4545  0.2382 -0.3259
  726MPD2    H510791   1.924   2.651  10.787 -1.0386 -0.1194 -0.5654
  726MPD2    N110792   2.248   2.945  10.411  0.1341 -0.0092 -0.4275
  726MPD2    H710793   2.180   2.953  10.336  1.0415  1.2628 -1.1098
  727TMC3    C110794   2.347   3.095  10.266 -0.2455 -0.2061  0.4213
  727TMC3    C210795   2.416   3.214  10.277  0.0467 -0.0663  0.4418
  727TMC3    C310796   2.390   3.307  10.178 -0.1810 -0.3137 -0.9848
  727TMC3    C410797   2.259   3.063  10.166  0.0419 -0.3231 -0.0844
  727TMC3    C510798   2.248   3.157  10.065  0.9421  0.5133 -0.0864
  727TMC3    C610799   2.309   3.285  10.070  0.1176 -0.1613  0.0772
  727TMC3     C10800   2.362   3.014  10.385  0.0054  0.3531  0.3784
  727TMC3     O10801   2.455   3.032  10.461  0.1461  0.0696  0.3880
  727TMC3     H10802   2.494   3.230  10.351 -0.5030  1.6693  0.6450
  727TMC3    H110803   2.258   2.957  10.144 -0.5417 -0.4851  0.7185
  727TMC3    H210804   2.287   3.365   9.999 -0.1040 -0.6669 -0.4260
  727TMC3    C710805   2.126   3.134   9.990 -0.6122 -0.3546  0.3908
  727TMC3    C810806   2.448   3.439  10.199 -0.2288  0.6745  0.4891
  727TMC3    O110807   2.057   3.037  10.030 -0.1073 -0.0740 -0.0797
  727TMC3    O210808   2.467   3.477  10.315  0.8668  0.6466 -0.0757
  728TMC3    C110809   2.704   1.396  14.936 -0.2934 -0.1688  0.0013
  728TMC3    C210810   2.783   1.506  14.911 -0.2161  0.1526 -0.0723
  728TMC3    C310811   2.736   1.589  14.818  0.6662 -0.5587  0.2527
  728TMC3    C410812   2.591   1.363  14.866 -0.7197 -0.0987  0.7067
  728TMC3    C510813   2.547   1.459  14.780 -0.0943 -0.0367 -0.1388
  728TMC3    C610814   2.615   1.573  14.755 -0.1314 -0.4673  0.1550
  728TMC3     C10815   2.738   1.325  15.057 -0.0104  0.6527 -0.2885
  728TMC3     O10816   2.841   1.364  15.105 -0.3950 -0.1020  0.4321
  728TMC3     H10817   2.882   1.518  14.951 -0.7592  0.8441  1.0528
  728TMC3    H110818   2.529   1.279  14.897  0.3499 -0.8543  0.8251
  728TMC3    H210819   2.583   1.647  14.683  1.0873  1.7400  1.8526
  728TMC3    C710820   2.413   1.447  14.716 -0.2644  0.0527 -0.1773
  728TMC3    C810821   2.808   1.713  14.793  0.6333  0.0332  0.0333
  728TMC3    O110822   2.343   1.365  14.776  0.3519  0.4388  0.3256
  728TMC3    O210823   2.791   1.765  14.683 -0.0565 -0.0200  0.0913
  729MPD2     C10824   4.324   2.450  16.610 -0.1053  0.5271 -0.3882
  729MPD2    C110825   4.437   2.413  16.675 -0.3906 -0.1623  0.8354
  729MPD2    C210826   4.439   2.387  16.811 -0.1021  0.4891  0.8394
  729MPD2    C310827   4.325   2.400  16.887 -0.1978 -0.1000  0.4666
  729MPD2    C410828   4.210   2.433  16.822 -0.3386  0.3591 -1.2349
  729MPD2    C510829   4.203   2.452  16.682 -0.7515 -0.5512  0.4323
  729MPD2     H10830   4.533   2.364  16.859  1.5150 -0.6385 -2.8200
  729MPD2    H110831   4.113   2.437  16.872 -0.4412 -1.3004 -1.2994
  729MPD2    H210832   4.312   2.460  16.503 -1.1293  0.4681 -0.2874
  729MPD2    H310833   4.110   2.477  16.633 -0.0164  1.9723  0.3490
  729MPD2     N10834   4.319   2.372  17.024  0.0331 -0.3398  0.3134
  729MPD2    H510835   4.403   2.332  17.065 -0.2423 -0.3667  0.8411
  729MPD2    N110836   4.556   2.409  16.588  0.0638  0.1501 -0.0029
  729MPD2    H710837   4.541   2.443  16.493  0.2803 -0.8261 -0.3784
  730TMC3    C110838   4.254   2.363  17.239 -0.3753 -0.1701  0.2127
  730TMC3    C210839   4.369   2.301  17.239 -0.8590  0.7159 -0.1152
  730TMC3    C310840   4.476   2.363  17.311  0.4183  0.1741 -0.6947
  730TMC3    C410841   4.224   2.451  17.324 -0.3365 -0.2562 -0.5680
  730TMC3    C510842   4.329   2.497  17.402  0.0361  1.2259 -0.0114
  730TMC3    C610843   4.460   2.470  17.386  0.5061  0.1850  0.2830
  730TMC3     C10844   4.212   2.397  17.109 -0.5193  0.0123 -0.4785
  730TMC3     O10845   4.113   2.466  17.101  0.0062  0.3059 -0.1980
  730TMC3     H10846   4.392   2.210  17.184  0.0742 -0.1040  1.6282
  730TMC3    H110847   4.124   2.492  17.334 -0.4119 -0.1663 -1.7685
  730TMC3    H210848   4.535   2.504  17.456  1.1204 -0.0379 -0.2716
  730TMC3    C710849   4.300   2.618  17.463  0.1329  0.1185 -0.2069
  730TMC3    C810850   4.608   2.309  17.294 -0.5344 -0.2980 -0.4059
  730TMC3    O110851   4.207   2.623  17.541 -0.1506  0.2283  0.3900
  730TMC3    O210852   4.623   2.188  17.284  0.0375  0.0106 -0.1430
  731MPD2     C10853   4.561   0.743  12.383  0.3538 -0.2385 -0.2385
  731MPD2    C110854   4.487   0.631  12.365 -0.1107  0.2161  0.0290
  731MPD2    C210855   4.421   0.566  12.465  0.0420  0.3543 -0.1838
  731MPD2    C310856   4.436   0.616  12.592 -0.4293 -0.4255 -0.0335
  731MPD2    C410857   4.513   0.732  12.619  0.6421 -0.4845  0.5153
  731MPD2    C510858   4.566   0.800  12.510  0.5099  0.8976  0.6020
  731MPD2     H10859   4.362   0.476  12.455 -0.5464  0.6419  0.6169
  731MPD2    H110860   4.517   0.774  12.719  1.2679  1.6132 -0.3882
  731MPD2    H210861   4.605   0.793  12.298 -0.6362  0.6615 -0.2179
  731MPD2    H310862   4.626   0.889  12.525  1.4137  0.5141 -0.7390
  731MPD2     N10863   4.369   0.546  12.690  0.2636  0.3470  0.6170
  731MPD2    H510864   4.320   0.466  12.653  0.6670  0.4712 -0.1737
  731MPD2    N110865   4.490   0.576  12.233  0.0214 -0.1010 -0.5937
  731MPD2    H710866   4.557   0.616  12.168  0.8024 -0.5784 -0.0873
  732TMC3    C110867   4.441   0.417  12.061  0.3400  0.1504  0.3959
  732TMC3    C210868   4.346   0.378  11.973 -0.4210 -0.2209 -0.4239
  732TMC3    C310869   4.375   0.294  11.875  0.1365 -0.4865 -0.3445
  732TMC3    C410870   4.567   0.377  12.039 -0.5185  0.2120 -0.2912
  732TMC3    C510871   4.602   0.302  11.938 -0.3326  0.2506  0.3239
  732TMC3    C610872   4.508   0.260  11.843  0.8723 -0.2104  0.3663
  732TMC3     C10873   4.405   0.480  12.184 -1.4207 -0.1290  0.4735
  732TMC3     O10874   4.296   0.443  12.231 -0.2316  0.1071  0.1454
  732TMC3     H10875   4.242   0.402  11.992  0.0130  1.6350 -0.4023
  732TMC3    H110876   4.639   0.407  12.114 -0.6170 -0.4212  0.0571
  732TMC3    H210877   4.537   0.180  11.775 -1.1998 -0.9260  0.3291
  732TMC3    C710878   0.001   0.241  11.933 -0.2796  0.2983  0.6184
  732TMC3    C810879   4.270   0.223  11.795 -0.1378  0.4347  0.5491
  732TMC3    O110880   0.041   0.210  11.822  0.0068 -0.3624 -0.4628
  732TMC3    O210881   4.306   0.125  11.731 -0.0569 -0.2613  0.5633
  733TMC3    C110882   0.392   3.450  12.858  0.2626  0.2147 -0.3093
  733TMC3    C210883   0.505   3.386  12.911 -0.5229 -0.3967  0.0750
  733TMC3    C310884   0.608   3.369  12.822 -0.4128  0.5823  0.2288
  733TMC3    C410885   0.381   3.485  12.722 -0.6439 -0.4546  0.2097
  733TMC3    C510886   0.482   3.457  12.642 -0.2460  0.1251 -0.0366
  733TMC3    C610887   0.597   3.404  12.689  0.3014  0.0896  0.0435
  733TMC3     C10888   0.276   3.484  12.939 -0.3866  0.3829  0.1115
  733TMC3     O10889   0.210   3.582  12.901 -0.0463 -0.3976  0.3353
  733TMC3     H10890   0.523   3.338  13.006  1.7039  2.4205  1.1001
  733TMC3    H110891   0.290   3.520  12.675  0.8824  1.1736 -1.5300
  733TMC3    H210892   0.661   3.359  12.615  0.4327  1.6803 -0.8053
  733TMC3    C710893   0.489   3.541  12.520  0.1425 -0.6661 -0.0454
  733TMC3    C810894   0.745   3.361  12.878 -1.3057 -0.0775  0.0356
  733TMC3    O110895   0.386   3.588  12.472  0.3185 -0.7259 -0.3423
  733TMC3    O210896   0.761   3.321  12.992  0.3069 -0.0497 -0.5848
  734MPD2     C10897   2.284   1.355  12.556  0.6396  0.7630 -0.3172
  734MPD2    C110898   2.222   1.286  12.458 -0.0890  0.2032  0.2279
  734MPD2    C210899   2.256   1.309  12.330  0.5749 -0.3888 -0.4084
  734MPD2    C310900   2.346   1.407  12.297  0.3858  0.6117 -0.4092
  734MPD2    C410901   2.412   1.476  12.389  0.3524  0.2309  0.1132
  734MPD2    C510902   2.383   1.448  12.522  0.2814  0.4373  0.6720
  734MPD2     H10903   2.211   1.248  12.252  2.4445 -2.3137  0.0129
  734MPD2    H110904   2.474   1.562  12.366 -0.4138  0.9507  0.7327
  734MPD2    H210905   2.252   1.354  12.660 -2.2394 -1.6349 -1.2057
  734MPD2    H310906   2.437   1.508  12.595  0.3760  1.5883 -0.3328
  734MPD2     N10907   2.360   1.430  12.164 -0.0027  0.4273 -0.1352
  734MPD2    H510908   2.290   1.393  12.100 -1.2023  1.0248  0.8231
  734MPD2    N110909   2.122   1.188  12.488  0.1709 -0.3166  0.4635
  734MPD2    H710910   2.105   1.162  12.584  0.9256 -0.5261  0.5382
  735TMC3    C110911   1.997   0.997  12.454  0.5985 -0.2417  0.4137
  735TMC3    C210912   1.907   0.943  12.367  0.2264 -0.7318  0.6706
  735TMC3    C310913   1.925   0.819  12.314 -0.6067 -0.1860 -0.0601
  735TMC3    C410914   2.092   0.917  12.511 -0.1035 -0.8730  0.2018
  735TMC3    C510915   2.098   0.786  12.468 -0.0298 -0.1800 -0.2804
  735TMC3    C610916   2.027   0.740  12.360 -0.4743 -0.1289  0.4003
  735TMC3     C10917   2.045   1.118  12.399  0.7526 -0.3595 -0.0254
  735TMC3     O10918   2.034   1.130  12.277  0.0893  0.0039  0.3681
  735TMC3     H10919   1.827   1.007  12.333 -0.1935 -0.7128  1.7033
  735TMC3    H110920   2.160   0.967  12.579 -2.1887  0.1235  1.5380
  735TMC3    H210921   2.055   0.652  12.301  0.9650  1.4258 -1.2444
  735TMC3    C710922   2.233   0.736  12.467  0.3447  0.2809 -0.2661
  735TMC3    C810923   1.929   0.808  12.169  0.5077 -0.0864 -0.1155
  735TMC3    O110924   2.323   0.815  12.477 -0.1056  0.4933  0.6603
  735TMC3    O210925   1.919   0.701  12.115  0.3757  0.1051  0.0069
  736MPD2     C10926   2.322   0.389  12.435  0.2756 -0.1259  0.0678
  736MPD2    C110927   2.352   0.523  12.429 -0.0872  0.2630  0.3906
  736MPD2    C210928   2.474   0.574  12.371  0.1285 -0.9415 -0.1008
  736MPD2    C310929   2.573   0.478  12.348 -0.8216 -0.0102  0.1230
  736MPD2    C410930   2.547   0.342  12.358 -1.0493  0.0403  0.0394
  736MPD2    C510931   2.423   0.302  12.397 -0.2343 -0.2984 -0.5898
  736MPD2     H10932   2.487   0.681  12.359 -0.9938 -0.7786  0.1144
  736MPD2    H110933   2.622   0.268  12.331  0.4343  2.1736 -1.6128
  736MPD2    H210934   2.224   0.348  12.457 -0.1256  0.9621  0.3054
  736MPD2    H310935   2.404   0.196  12.410 -0.8776  0.0393  1.1519
  736MPD2     N10936   2.699   0.505  12.293  0.5602 -0.1198  0.1262
  736MPD2    H510937   2.763   0.430  12.272 -0.6363 -0.5260 -2.1026
  736MPD2    N110938   2.240   0.603  12.463 -0.0378 -0.4561  0.7491
  736MPD2    H710939   2.155   0.549  12.478 -1.2295  1.1463 -0.3964
  737TMC3    C110940   2.869   0.619  12.173  0.4155 -0.1499  0.0945
  737TMC3    C210941   2.913   0.732  12.113  0.4275  0.5947  0.5487
  737TMC3    C310942   3.019   0.714  12.023 -0.1077 -0.8913  0.2879
  737TMC3    C410943   2.902   0.495  12.126  0.2681  0.4222 -0.0579
  737TMC3    C510944   2.989   0.486  12.025 -0.1541 -0.4828  0.0272
  737TMC3    C610945   3.056   0.593  11.980 -0.3380  0.3614  0.1287
  737TMC3     C10946   2.749   0.629  12.254  0.2368  0.0208 -0.3137
  737TMC3     O10947   2.708   0.735  12.286  0.2669 -0.0320 -0.0759
  737TMC3     H10948   2.881   0.832  12.140  3.4482  1.9120 -0.7478
  737TMC3    H110949   2.877   0.402  12.176 -0.5987 -0.7896 -2.7397
  737TMC3    H210950   3.141   0.567  11.919 -0.7738 -0.9577  0.0809
  737TMC3    C710951   3.001   0.356  11.955 -0.3439  0.0905  0.4131
  737TMC3    C810952   3.097   0.831  11.989  0.2257 -0.1164  0.7657
  737TMC3    O110953   2.942   0.267  12.017  0.1091  0.4457 -0.1711
  737TMC3    O210954   3.209   0.813  11.946  0.1343  0.3328 -0.4720
  738MPD2     C10955   3.154   4.591  15.174  0.1734  0.3570 -0.3778
  738MPD2    C110956   3.219   4.478  15.196 -0.7249  0.4464  0.9285
  738MPD2    C210957   3.358   4.472  15.184 -0.8595 -0.3756  0.5619
  738MPD2    C310958   3.425   4.575  15.123 -0.0125  0.0328  0.1589
  738MPD2    C410959   3.351   4.682  15.084  0.4087 -0.3371  0.4378
  738MPD2    C510960   3.219   4.695  15.114 -0.2760  0.2023  0.8968
  738MPD2     H10961   3.411   4.387  15.226  0.0008  0.7733  1.8236
  738MPD2    H110962   3.392   0.033  15.033 -0.0540  0.3624  1.2410
  738MPD2    H210963   3.047   4.603  15.185  0.0287  0.2089 -1.6614
  738MPD2    H310964   3.161   0.047  15.085  1.0792  0.8539  0.1513
  738MPD2     N10965   3.564   4.584  15.106  0.7596 -0.0568  0.1124
  738MPD2    H510966   3.601   4.679  15.108 -0.5499  0.5103 -1.9433
  738MPD2    N110967   3.158   4.360  15.248  0.8193  0.8225  0.2424
  738MPD2    H710968   3.216   4.285  15.284 -0.5516 -1.3331 -2.1380
  739TMC3    C110969   3.784   4.520  15.096  0.2315  0.1659 -0.1133
  739TMC3    C210970   3.813   4.598  14.986  0.6123  0.3476  0.2130
  739TMC3    C310971   3.948   4.611  14.942  0.0138 -1.1962  0.5455
  739TMC3    C410972   3.873   4.445  15.158 -0.1186 -0.3641 -0.3882
  739TMC3    C510973   4.000   4.442  15.101 -0.0202 -0.1377  0.1203
  739TMC3    C610974   4.043   4.532  15.003  0.3254  0.6678  0.4695
  739TMC3     C10975   3.642   4.472  15.098  0.3966 -0.4395  0.0534
  739TMC3     O10976   3.613   4.354  15.098 -0.8723 -0.0172 -0.4553
  739TMC3     H10977   3.739   4.655  14.931 -0.4310  0.2966  1.5621
  739TMC3    H110978   3.847   4.373  15.236 -1.3209  1.8183  1.2446
  739TMC3    H210979   4.151   4.541  14.994  0.3563  0.6947  0.8640
  739TMC3    C710980   4.104   4.365  15.171 -0.3641 -0.0587  0.3221
  739TMC3    C810981   3.968   4.652  14.806 -0.7707  0.5986  0.3241
  739TMC3    O110982   4.067   4.299  15.266  0.0957 -0.4297  0.1580
  739TMC3    O210983   3.865   4.659  14.741 -0.1648  0.6713  0.1887
  740TMC3    C110984   4.162   1.029  14.348  0.3608 -0.1120  0.5731
  740TMC3    C210985   4.225   1.017  14.469  0.3722 -0.3438  0.1675
  740TMC3    C310986   4.365   1.030  14.465  0.2659  0.1396  0.4040
  740TMC3    C410987   4.237   1.044  14.235 -0.8430 -0.5853 -0.9873
  740TMC3    C510988   4.368   1.047  14.231 -0.1174  0.0904  0.0837
  740TMC3    C610989   4.442   1.028  14.346  0.0522 -0.0035 -0.0581
  740TMC3     C10990   4.045   1.107  14.360 -0.8916 -0.5062  0.7738
  740TMC3     O10991   4.041   1.221  14.313 -0.1409  0.3432 -0.0113
  740TMC3     H10992   4.164   1.028  14.558  0.1297  1.3970 -0.2153
  740TMC3    H110993   4.188   1.074  14.143 -2.6558  0.6917  0.4012
  740TMC3    H210994   4.548   1.053  14.352  0.2261 -0.5445 -1.0142
  740TMC3    C710995   4.452   1.067  14.118  0.4984  0.2027 -0.5170
  740TMC3    C810996   4.425   1.053  14.593  0.2857  0.2868 -0.3367
  740TMC3    O110997   4.564   1.099  14.138 -0.6592 -0.8854  0.1483
  740TMC3    O210998   4.359   1.009  14.687 -0.2359  0.2659 -0.1499
  741TMC3    C110999   3.892   0.422  14.102 -0.3994  0.1185  0.1390
  741TMC3    C211000   3.764   0.379  14.106 -0.4968  0.5716 -0.8043
  741TMC3    C311001   3.724   0.294  14.209  1.2483  0.4587 -0.2081
  741TMC3    C411002   3.985   0.388  14.195 -0.3038 -0.4268  0.3270
  741TMC3    C511003   3.944   0.303  14.296  0.2454 -0.0377  1.1415
  741TMC3    C611004   3.815   0.260  14.305 -0.1925 -0.2600  0.1603
  741TMC3     C11005   3.944   0.478  13.978 -0.2697 -0.6323 -0.6597
  741TMC3     O11006   4.061   0.466  13.956  0.3367 -0.4759  0.2261
  741TMC3     H11007   3.695   0.390  14.023  0.2149  0.5018 -1.4068
  741TMC3    H111008   4.083   0.434  14.195 -0.1367 -0.7825  0.8841
  741TMC3    H211009   3.791   0.194  14.388  1.4838 -1.0570  0.0129
  741TMC3    C711010   4.029   0.291  14.410  0.5238 -0.4612 -0.0414
  741TMC3    C811011   3.597   0.230  14.190  0.2837  0.8866 -0.8308
  741TMC3    O111012   3.971   0.296  14.517 -0.0298 -0.6546  0.6952
  741TMC3    O211013   3.515   0.275  14.107 -0.3404 -0.2190  0.6119
  742TMC3    C111014   3.643   3.191  15.497  0.7640  0.3075  0.2338
  742TMC3    C211015   3.593   3.188  15.370  0.1553  0.3284  0.5931
  742TMC3    C311016   3.604   3.306  15.298 -0.3057  0.8914 -0.4687
  742TMC3    C411017   3.710   3.298  15.554  0.0080  0.3901  0.5425
  742TMC3    C511018   3.731   3.406  15.478  0.0611  0.1481  0.4542
  742TMC3    C611019   3.675   3.413  15.351  0.3620  0.1307  0.1394
  742TMC3     C11020   3.627   3.072  15.581 -0.3547  0.4800  0.8122
  742TMC3     O11021   3.697   3.064  15.683 -0.2043  0.6346 -0.7239
  742TMC3     H11022   3.584   3.091  15.324  1.9559  1.0052 -1.1566
  742TMC3    H111023   3.753   3.287  15.653  2.6919 -2.3306 -0.9609
  742TMC3    H211024   3.688   3.501  15.289  0.6157 -0.0499 -0.0636
  742TMC3    C711025   3.858   3.476  15.492 -0.3533  0.1377 -0.0359
  742TMC3    C811026   3.541   3.295  15.161 -0.2632 -0.5809  0.5912
  742TMC3    O111027   3.925   3.491  15.389  0.2502  0.1331  0.1496
  742TMC3    O211028   3.530   3.180  15.120 -0.2171 -0.3417  0.0624
  743MPD2     C11029   0.785   0.054   0.849 -0.0514  0.2290 -0.3305
  743MPD2    C111030   0.879   0.034   0.753 -0.0321 -0.5780 -0.2688
  743MPD2    C211031   0.999   0.099   0.766  0.6612 -0.3056 -0.5135
  743MPD2    C311032   1.024   0.183   0.871 -0.4350 -0.0075 -0.4708
  743MPD2    C411033   0.926   0.214   0.963 -0.7339 -0.9417  0.0321
  743MPD2    C511034   0.809   0.145   0.950 -0.2612 -0.2645 -0.4323
  743MPD2     H11035   1.086   0.075   0.706  1.3513  0.2684  0.2617
  743MPD2    H111036   0.938   0.292   1.038 -0.3458 -0.0862 -0.9260
  743MPD2    H211037   0.684   0.016   0.849  0.8830 -2.2738 -5.0530
  743MPD2    H311038   0.723   0.161   1.013 -0.4606  1.0200 -1.0279
  743MPD2     N11039   1.149   0.253   0.873 -0.4726 -0.2084 -0.6910
  743MPD2    H511040   1.211   0.236   0.794  0.4419  0.8904 -0.2271
  743MPD2    N111041   0.849   4.671   0.656 -0.4770 -1.1074  0.0685
  743MPD2    H711042   0.753   4.643   0.642 -0.5819 -1.1671  0.9387
  744TMC3    C111043   0.873   4.551   0.453 -0.0462  0.4214  0.4159
  744TMC3    C211044   0.782   4.632   0.390  1.3208 -0.5280 -0.5369
  744TMC3    C311045   0.760   4.594   0.261  0.4684  0.1167 -0.2898
  744TMC3    C411046   0.955   4.467   0.387  0.5788  0.3953 -0.3849
  744TMC3    C511047   0.931   4.430   0.259 -0.0474  0.3696 -0.0157
  744TMC3    C611048   0.832   4.497   0.190  0.0097 -0.1636  0.3666
  744TMC3     C11049   0.937   4.613   0.565  0.0628  0.5682  0.1191
  744TMC3     O11050   1.059   4.624   0.557 -0.3612 -0.3255  0.2997
  744TMC3     H11051   0.736   4.718   0.438  1.7755 -0.7504  0.2861
  744TMC3    H111052   1.029   4.412   0.445 -0.3688  0.9796  1.3892
  744TMC3    H211053   0.805   4.461   0.091 -0.4275  0.0777  0.4015
  744TMC3    C711054   1.050   4.393   0.196  0.2781 -0.6952 -0.3564
  744TMC3    C811055   0.681   4.693   0.185 -0.4452 -0.7426  0.3343
  744TMC3    O111056   1.149   4.446   0.243  0.0790 -0.2444  0.0694
  744TMC3    O211057   0.658   0.067   0.241  0.5272 -0.6412 -0.8829
  745TMC3    C111058   3.736   3.317  13.670 -0.8437 -0.1670  0.2448
  745TMC3    C211059   3.627   3.252  13.713 -0.2295  0.4368  1.2557
  745TMC3    C311060   3.505   3.320  13.702 -0.3476  0.0885  0.7463
  745TMC3    C411061   3.732   3.429  13.592  0.4582  0.2367  0.2082
  745TMC3    C511062   3.612   3.484  13.569 -0.5874  0.5734 -0.1526
  745TMC3    C611063   3.494   3.430  13.621 -0.6273 -0.6252 -0.3046
  745TMC3     C11064   3.852   3.297  13.757  0.2160 -0.1026 -0.0085
  745TMC3     O11065   3.852   3.197  13.824 -0.5574 -0.2196 -0.5005
  745TMC3     H11066   3.629   3.152  13.755 -0.2542 -0.7534 -1.5847
  745TMC3    H111067   3.825   3.466  13.550  1.8997 -3.0085  0.4892
  745TMC3    H211068   3.403   3.488  13.622  0.8377  1.7101 -1.8461
  745TMC3    C711069   3.590   3.589  13.473  0.8805  0.4037  0.3844
  745TMC3    C811070   3.454   3.338  13.835 -0.5563  0.4763 -0.1321
  745TMC3    O111071   3.481   3.603  13.417  0.1079 -0.4579  0.4566
  745TMC3    O211072   3.345   3.390  13.838 -0.3744  0.7070  0.5553
  746TMC3    C111073   1.466   0.566  10.688  0.3558  0.2471 -0.3191
  746TMC3    C211074   1.455   0.592  10.556 -0.0997 -0.2465  1.1403
  746TMC3    C311075   1.430   0.481  10.470 -0.1749 -0.3696  0.0045
  746TMC3    C411076   1.464   0.437  10.739  0.3486 -0.3942  0.1494
  746TMC3    C511077   1.427   0.337  10.654 -0.5377  0.8153  0.2127
  746TMC3    C611078   1.409   0.352  10.521 -0.4094  0.1363 -0.2886
  746TMC3     C11079   1.470   0.673  10.782 -0.1231 -0.6043  0.5848
  746TMC3     O11080   1.464   0.640  10.901  0.5135 -1.0398  0.3177
  746TMC3     H11081   1.453   0.696  10.525 -0.4047 -0.8535 -0.8533
  746TMC3    H111082   1.492   0.417  10.842 -1.7627  0.4287  0.8895
  746TMC3    H211083   1.371   0.274  10.456  2.1312  0.8037 -2.5860
  746TMC3    C711084   1.342   0.241  10.718 -0.6716  0.5091  0.0644
  746TMC3    C811085   1.404   0.511  10.327 -0.7633  0.3861 -0.0112
  746TMC3    O111086   1.230   0.228  10.671  0.7176  0.0327  0.3635
  746TMC3    O211087   1.332   0.430  10.272 -0.3327  0.0631  0.2271
  747TMC3    C111088   3.296   0.309  11.026 -0.8061  0.2808 -0.3996
  747TMC3    C211089   3.209   0.284  11.126 -0.1262 -0.2992  0.6720
  747TMC3    C311090   3.256   0.202  11.228  0.5317 -0.1719  0.0708
  747TMC3    C411091   3.430   0.271  11.022  0.1538 -0.1071  0.1411
  747TMC3    C511092   3.475   0.202  11.130 -0.0934  0.7662  0.4437
  747TMC3    C611093   3.391   0.172  11.233  0.0824  0.7489 -0.5740
  747TMC3     C11094   3.232   0.352  10.897 -0.5202 -0.1672  0.6956
  747TMC3     O11095   3.118   0.390  10.901  0.2342 -0.2485 -0.0580
  747TMC3     H11096   3.104   0.312  11.123 -0.2707 -1.1555 -2.6717
  747TMC3    H111097   3.492   0.297  10.937  2.1434  3.4756  2.7074
  747TMC3    H211098   3.422   0.125  11.325  3.8425 -1.1664 -2.7826
  747TMC3    C711099   3.616   0.185  11.153 -0.5785 -0.4604  0.1639
  747TMC3    C811100   3.180   0.211  11.351  0.2245 -1.1623  0.1683
  747TMC3    O111101   3.658   0.154  11.264 -0.1980 -0.0046  0.1373
  747TMC3    O211102   3.107   0.311  11.361  0.0208 -0.4637  0.0248
  748MPD2     C11103   0.822   1.878   1.230  0.5474  0.0676 -0.4935
  748MPD2    C111104   0.791   1.756   1.179 -0.2736 -0.0444 -0.5728
  748MPD2    C211105   0.891   1.682   1.120  0.0283  0.6309  0.8550
  748MPD2    C311106   1.020   1.730   1.117  0.0697 -0.1247 -0.9323
  748MPD2    C411107   1.045   1.853   1.168 -0.1850 -1.0714 -0.2206
  748MPD2    C511108   0.954   1.922   1.237 -0.2359  0.1638 -0.7418
  748MPD2     H11109   0.877   1.576   1.104  1.7104  0.5272  0.0732
  748MPD2    H111110   1.146   1.890   1.181 -0.8772  0.8621 -0.3756
  748MPD2    H211111   0.749   1.946   1.271  0.3867  1.7036 -3.5153
  748MPD2    H311112   0.968   2.016   1.288 -2.2184  0.0054  0.1133
  748MPD2     N11113   1.125   1.652   1.064  0.1023  0.5548 -0.2599
  748MPD2    H511114   1.099   1.560   1.030 -0.1490  0.3481  0.4783
  748MPD2    N111115   0.658   1.714   1.191 -0.4265 -0.0784 -0.2238
  748MPD2    H711116   0.595   1.787   1.220 -0.0810  0.6694 -1.3769
  749TMC3    C111117   1.338   1.592   0.986  0.2835  0.1970  0.2459
  749TMC3    C211118   1.308   1.464   1.012  0.2922 -0.5325 -0.4333
  749TMC3    C311119   1.369   1.366   0.940  0.3618 -0.3218  0.2342
  749TMC3    C411120   1.410   1.630   0.874 -0.3938  0.3822  0.6308
  749TMC3    C511121   1.443   1.528   0.791  0.7886 -0.4968 -0.0840
  749TMC3    C611122   1.437   1.392   0.823  0.3035  0.0389  0.4758
  749TMC3     C11123   1.257   1.701   1.045 -0.3981 -0.8565 -0.0154
  749TMC3     O11124   1.298   1.816   1.030  0.2061  0.2712  0.0161
  749TMC3     H11125   1.242   1.437   1.094  0.3859 -0.0787 -0.2100
  749TMC3    H111126   1.407   1.735   0.847  2.3089  0.2739 -0.1243
  749TMC3    H211127   1.473   1.312   0.759 -2.4324 -0.3079 -0.6070
  749TMC3    C711128   1.451   1.563   0.649  1.0451  0.1435 -0.3465
  749TMC3    C811129   1.386   1.238   1.006  0.1951  0.1168  0.5512
  749TMC3    O111130   1.481   1.681   0.623  0.4466 -0.0226 -0.0527
  749TMC3    O211131   1.338   1.230   1.119  0.2711  0.3891 -0.1840
  750MPD2     C11132   1.190   2.550  11.311  0.4542  0.2162 -0.0746
  750MPD2    C111133   1.194   2.479  11.430  0.3415  0.0108  0.2496
  750MPD2    C211134   1.270   2.361  11.430  0.3461 -0.3541  0.1545
  750MPD2    C311135   1.327   2.312  11.313  0.4781  0.6174  0.3194
  750MPD2    C411136   1.344   2.394  11.206  0.0345 -0.5129  0.6871
  750MPD2    C511137   1.282   2.519  11.217 -0.0667  0.3955 -0.9090
  750MPD2     H11138   1.283   2.311  11.526 -0.1074 -0.7176  0.0263
  750MPD2    H111139   1.408   2.356  11.128  0.5124 -0.9503  1.2929
  750MPD2    H211140   1.137   2.644  11.301  1.5824  1.1273  2.2914
  750MPD2    H311141   1.284   2.581  11.128  2.8308 -0.1534 -1.2438
  750MPD2     N11142   1.386   2.183  11.307 -0.5135 -0.4770 -0.1684
  750MPD2    H511143   1.423   2.159  11.216 -0.5257  0.8218 -0.5174
  750MPD2    N111144   1.130   2.533  11.544  0.0187 -0.3271  0.4189
  750MPD2    H711145   1.071   2.611  11.518 -3.1108 -2.7302  0.2870
  751TMC3    C111146   1.443   1.962  11.374  0.4638  0.2231  0.1362
  751TMC3    C211147   1.422   1.855  11.457 -0.0922  0.4802 -0.4312
  751TMC3    C311148   1.485   1.739  11.432  0.0489 -0.1784  0.2210
  751TMC3    C411149   1.553   1.967  11.289 -0.2240  0.7900 -0.0564
  751TMC3    C511150   1.627   1.850  11.279  0.4883  0.5614  0.2644
  751TMC3    C611151   1.594   1.739  11.352 -0.0429  0.0695  0.0587
  751TMC3     C11152   1.368   2.085  11.409  0.8449  0.1265 -0.7247
  751TMC3     O11153   1.324   2.091  11.523 -0.1832  0.3416  0.6983
  751TMC3     H11154   1.331   1.856  11.516 -0.0624 -0.1741 -0.3721
  751TMC3    H111155   1.570   2.046  11.217 -0.6695 -0.6551 -1.7571
  751TMC3    H211156   1.649   1.650  11.327  2.5079  1.5968  0.2806
  751TMC3    C711157   1.657   1.822  11.141  0.8323 -0.0494  1.0385
  751TMC3    C811158   1.404   1.623  11.393  0.2911 -0.1203 -1.0382
  751TMC3    O111159   1.723   1.897  11.071  0.3553 -0.0888 -0.5774
  751TMC3    O211160   1.443   1.574  11.282 -0.2637  0.0738  0.0971
  752TMC3    C111161   0.517   1.681  17.132 -0.4024 -0.0529  0.4169
  752TMC3    C211162   0.514   1.545  17.151 -0.2056  1.1523 -0.6848
  752TMC3    C311163   0.411   1.491  17.226  0.5670  0.2157  1.1386
  752TMC3    C411164   0.425   1.759  17.197  0.5397 -0.0804  0.3107
  752TMC3    C511165   0.325   1.702  17.268 -0.1316  0.1002 -0.4631
  752TMC3    C611166   0.322   1.569  17.292 -0.1204  0.8035  0.4831
  752TMC3     C11167   0.579   1.738  17.014  0.2064  0.0521 -0.1029
  752TMC3     O11168   0.657   1.669  16.953 -0.4635  0.1277  0.3409
  752TMC3     H11169   0.563   1.473  17.087  0.5364  0.0464  1.1611
  752TMC3    H111170   0.438   1.867  17.191  1.5347 -0.1255  1.4937
  752TMC3    H211171   0.242   1.530  17.356 -1.2798  1.1844 -0.7355
  752TMC3    C711172   0.231   1.796  17.342  0.4485 -1.0643  0.0725
  752TMC3    C811173   0.396   1.351  17.236 -0.8349 -0.0112  0.3597
  752TMC3    O111174   0.243   1.913  17.320  0.1659 -0.5873  0.5777
  752TMC3    O211175   0.352   1.317  17.347 -0.0393  0.5947 -0.6135
  753TMC3    C111176   2.408   3.521  13.270  0.0567 -0.4403  0.5673
  753TMC3    C211177   2.409   3.492  13.404  0.0357  0.2455  0.6948
  753TMC3    C311178   2.433   3.362  13.445 -0.3069  0.8275  0.3515
  753TMC3    C411179   2.432   3.427  13.177  0.1306  0.1509 -0.5737
  753TMC3    C511180   2.452   3.299  13.220  0.0211 -0.2349  0.1884
  753TMC3    C611181   2.471   3.266  13.352  0.1292 -0.5399  0.5382
  753TMC3     C11182   2.366   3.646  13.228  0.6494 -0.1065  0.7619
  753TMC3     O11183   2.343   3.659  13.109  0.1293 -0.2473  0.1516
  753TMC3     H11184   2.380   3.571  13.473  0.3347  0.5938  0.4238
  753TMC3    H111185   2.422   3.445  13.071  1.9294 -0.2225 -0.8155
  753TMC3    H211186   2.498   3.168  13.389 -0.7576 -0.4321  1.4731
  753TMC3    C711187   2.426   3.194  13.121 -0.3858 -0.1805 -0.4309
  753TMC3    C811188   2.416   3.326  13.582 -0.3664 -0.5618 -0.0224
  753TMC3    O111189   2.347   3.227  13.033  0.7637  0.2177  0.0015
  753TMC3    O211190   2.386   3.206  13.595 -0.2276  0.0748  0.2089
  754MPD2     C11191   1.093   2.011  13.391  0.1255 -0.3257 -0.2091
  754MPD2    C111192   1.026   1.894  13.354  0.4064 -0.1776 -0.3549
  754MPD2    C211193   0.898   1.908  13.309  0.1350 -0.4661 -0.7602
  754MPD2    C311194   0.842   2.030  13.285  0.2027  0.2511  0.3414
  754MPD2    C411195   0.922   2.143  13.286 -0.8581 -0.4354  0.1759
  754MPD2    C511196   1.041   2.137  13.351  0.2757 -0.1081  0.0943
  754MPD2     H11197   0.856   1.811  13.287 -0.5898 -0.2970 -0.1402
  754MPD2    H111198   0.890   2.239  13.247 -1.8855 -0.7465  0.2539
  754MPD2    H211199   1.190   2.013  13.439 -0.8984 -0.5972  1.8719
  754MPD2    H311200   1.103   2.226  13.360 -0.4730  0.3736  0.4482
  754MPD2     N11201   0.705   2.041  13.243  0.0327 -0.6033 -1.3295
  754MPD2    H511202   0.675   2.133  13.214 -0.9015 -0.8783 -1.2416
  754MPD2    N111203   1.087   1.771  13.383 -0.0028 -0.6825  0.1896
  754MPD2    H711204   1.187   1.787  13.397 -0.3065  1.0675  0.2827
  755MPD2     C11205   0.474   2.725  12.934  0.6983 -0.6774  0.4504
  755MPD2    C111206   0.346   2.686  12.947  1.0091  0.0635 -0.0264
  755MPD2    C211207   0.312   2.566  13.010  0.2958 -0.2876  0.3730
  755MPD2    C311208   0.421   2.492  13.062  0.1115  0.0392  0.3680
  755MPD2    C411209   0.548   2.536  13.049 -0.0495 -0.7070 -0.2844
  755MPD2    C511210   0.579   2.653  12.983  0.1155 -0.4681  0.0411
  755MPD2     H11211   0.218   2.514  12.992 -0.2419  0.2104  1.7446
  755MPD2    H111212   0.628   2.479  13.096  0.7003 -0.9098 -1.8202
  755MPD2    H211213   0.499   2.805  12.865 -2.2199 -0.3302 -0.2249
  755MPD2    H311214   0.681   2.685  12.971  0.0481  0.4927  1.9950
  755MPD2     N11215   0.403   2.371  13.128  0.1020  0.7242 -0.2090
  755MPD2    H511216   0.489   2.325  13.156  0.5625  1.8277  0.1924
  755MPD2    N111217   0.239   2.764  12.896  0.1845  0.0976  0.3716
  755MPD2    H711218   0.156   2.736  12.948 -0.1586 -0.5097 -0.5017
  756MPD2     C11219   0.910   2.970   9.335  0.6028  0.9277 -0.5260
  756MPD2    C111220   0.852   2.915   9.449 -0.2343  0.3782 -0.1218
  756MPD2    C211221   0.837   2.776   9.457  0.1638  0.6476 -0.0969
  756MPD2    C311222   0.864   2.687   9.354 -0.2822 -0.1456  0.5018
  756MPD2    C411223   0.917   2.747   9.241 -0.2107  0.6343 -0.0326
  756MPD2    C511224   0.939   2.884   9.230 -0.2698  0.6289 -0.2592
  756MPD2     H11225   0.794   2.733   9.546 -1.0641 -1.3903 -1.6808
  756MPD2    H111226   0.944   2.681   9.159 -1.5008  0.9410 -0.7026
  756MPD2    H211227   0.926   3.076   9.318 -1.6882  1.2411 -0.7424
  756MPD2    H311228   0.994   2.925   9.146  0.7272  2.6953  1.3930
  756MPD2     N11229   0.834   2.550   9.374 -0.2498  0.3614  0.3173
  756MPD2    H511230   0.785   2.525   9.458 -0.5803 -2.4734 -0.7119
  756MPD2    N111231   0.821   2.990   9.563  0.5948  0.2773  0.3433
  756MPD2    H711232   0.775   2.944   9.641  0.8351  2.8867  2.0520
  757MPD2     C11233   0.517   1.971  10.067 -0.7079  0.7617  0.0535
  757MPD2    C111234   0.625   2.060  10.052  0.1033  0.2065  0.5628
  757MPD2    C211235   0.679   2.089   9.928  0.8817  0.5942  0.3826
  757MPD2    C311236   0.631   2.023   9.814 -0.0102  0.4601 -0.1804
  757MPD2    C411237   0.526   1.935   9.827  0.6230  0.9112  0.1909
  757MPD2    C511238   0.469   1.915   9.953 -0.6480  0.0964  0.3006
  757MPD2     H11239   0.756   2.165   9.920  1.6264 -0.1371  0.6842
  757MPD2    H111240   0.480   1.883   9.744  1.2550  0.4826  0.1062
  757MPD2    H211241   0.462   1.939  10.155 -0.0196 -0.9974 -0.1427
  757MPD2    H311242   0.391   1.841   9.967 -0.3146 -0.0668  1.2573
  757MPD2     N11243   0.664   2.052   9.683  0.1076 -0.4690  0.2454
  757MPD2    H511244   0.598   2.023   9.612 -1.2381 -1.9625  2.1147
  757MPD2    N111245   0.669   2.110  10.180  1.0618  0.4056 -0.4011
  757MPD2    H711246   0.612   2.088  10.262  0.6619  1.2161 -0.4574
  758MPD2     C11247   1.037   1.855  15.786  0.2282 -0.2905 -0.0886
  758MPD2    C111248   1.139   1.793  15.848 -0.0754 -0.2163  0.5060
  758MPD2    C211249   1.187   1.831  15.973  0.8489 -1.0274 -0.1479
  758MPD2    C311250   1.118   1.930  16.039 -0.1483 -0.6724 -0.3047
  758MPD2    C411251   1.014   1.998  15.976 -0.7661  0.2069  0.3520
  758MPD2    C511252   0.972   1.962  15.850  0.1994 -0.1601 -0.5690
  758MPD2     H11253   1.268   1.779  16.023  0.3379 -0.2508  1.4893
  758MPD2    H111254   0.957   2.083  16.012 -1.5745 -0.8875  1.6500
  758MPD2    H211255   0.998   1.835  15.687 -0.4455 -1.3747  0.3948
  758MPD2    H311256   0.903   2.025  15.795 -0.5634 -0.1627  0.3752
  758MPD2     N11257   1.146   1.979  16.167  0.6430  0.3703  0.2075
  758MPD2    H511258   1.072   2.037  16.207  1.2329  1.6691 -0.5849
  758MPD2    N111259   1.206   1.691  15.782  0.4823  0.5790 -0.3479
  758MPD2    H711260   1.268   1.634  15.839  1.7177  0.7631 -1.5297
  759MPD2     C11261   4.615   4.379   9.826  0.4327 -0.0045 -0.0034
  759MPD2    C111262   4.551   4.437   9.935 -0.3342  0.2275  0.0328
  759MPD2    C211263   4.552   4.573   9.940 -0.5116 -0.1568  0.1890
  759MPD2    C311264   4.609   4.657   9.848  0.1295  0.3250 -0.2778
  759MPD2    C411265   4.673   4.599   9.740 -0.2433 -0.3369 -0.5421
  759MPD2    C511266   4.669   4.462   9.732  0.1736  0.0591 -0.3441
  759MPD2     H11267   4.497   4.620  10.021  1.2493  1.5159  0.4001
  759MPD2    H111268   4.728   4.656   9.667 -2.7886  0.9746 -1.4601
  759MPD2    H211269   4.625   4.271   9.816 -2.6571 -0.3177  0.2658
  759MPD2    H311270   4.717   4.420   9.644 -2.6486 -1.0933 -1.3200
  759MPD2     N11271   4.606   0.060   9.859 -0.0363  0.5380 -0.1306
  759MPD2    H511272   4.574   0.091   9.951 -0.9587  0.8193 -0.5475
  759MPD2    N111273   4.481   4.369  10.029  0.0152  0.8542  0.0418
  759MPD2    H711274   4.441   4.418  10.108  0.9686 -2.3580  2.4634
  760MPD2     C11275   4.129   1.680  11.955  0.0304  0.8566  0.6086
  760MPD2    C111276   4.233   1.769  11.962 -0.8183  0.0775  0.0518
  760MPD2    C211277   4.355   1.728  11.907  0.2337  0.6659  0.2953
  760MPD2    C311278   4.374   1.619  11.828  0.6149  0.3458  0.4038
  760MPD2    C411279   4.262   1.539  11.820 -1.0841 -0.0707 -0.1378
  760MPD2    C511280   4.144   1.563  11.889 -0.3888 -0.6357 -0.1912
  760MPD2     H11281   4.442   1.789  11.932 -1.1956  2.0093  1.9818
  760MPD2    H111282   4.266   1.448  11.760  1.3080 -0.0587 -0.0181
  760MPD2    H211283   4.035   1.703  12.003 -0.1541 -0.5771  0.9319
  760MPD2    H311284   4.060   1.495  11.874 -1.4462  0.5017  0.5847
  760MPD2     N11285   4.498   1.583  11.776  0.1765 -0.0366  0.4946
  760MPD2    H511286   4.514   1.495  11.727  0.7220  1.4726 -2.0453
  760MPD2    N111287   4.232   1.874  12.057 -0.4984  0.0355  0.1670
  760MPD2    H711288   4.321   1.923  12.065 -0.7296 -0.0864  3.9109
  761MPD2     C11289   0.993   1.321  11.389 -0.1463  0.2255 -0.1274
  761MPD2    C111290   1.084   1.348  11.281  0.8562  0.2872 -0.1653
  761MPD2    C211291   1.190   1.431  11.314 -0.3693  0.5827  0.5244
  761MPD2    C311292   1.196   1.502  11.434 -0.1679  0.5604 -0.3135
  761MPD2    C411293   1.096   1.476  11.526  0.2920 -0.0376 -0.2570
  761MPD2    C511294   0.999   1.386  11.506 -0.5424 -0.5774  0.2450
  761MPD2     H11295   1.274   1.442  11.247  0.1175  1.8291  1.3477
  761MPD2    H111296   1.096   1.531  11.620 -0.1212  0.1958 -0.3898
  761MPD2    H211297   0.906   1.261  11.362  0.0528  0.4265 -1.2279
  761MPD2    H311298   0.922   1.368  11.580  0.5848 -2.7682  0.8766
  761MPD2     N11299   1.297   1.597  11.467 -0.1117  0.2601 -0.7233
  761MPD2    H511300   1.280   1.647  11.554 -1.7202  1.6829 -1.8533
  761MPD2    N111301   1.083   1.274  11.164 -0.1025  0.4509  0.2554
  761MPD2    H711302   1.009   1.204  11.166 -0.4673  0.7959 -1.2439
  762MPD2     C11303   1.301   1.611  10.512 -0.0190  0.0265  0.8752
  762MPD2    C111304   1.276   1.478  10.478 -0.8845  0.3622  0.0256
  762MPD2    C211305   1.341   1.434  10.365 -0.1839  0.6756 -0.3064
  762MPD2    C311306   1.415   1.516  10.287  0.0894  0.2818 -0.3003
  762MPD2    C411307   1.425   1.647  10.313  0.3016 -0.1359 -0.3687
  762MPD2    C511308   1.371   1.694  10.431  0.1039  0.2447 -0.3737
  762MPD2     H11309   1.345   1.329  10.337 -0.8637  0.4799  0.3055
  762MPD2    H111310   1.480   1.718  10.252  0.2130  0.3469  0.1083
  762MPD2    H211311   1.285   1.650  10.612 -2.4181  0.7956  0.1887
  762MPD2    H311312   1.390   1.794  10.468 -1.0851  0.9266 -1.6000
  762MPD2     N11313   1.494   1.454  10.185  0.2000 -0.5484  0.5588
  762MPD2    H511314   1.469   1.356  10.176  2.3611 -1.1021  0.6802
  762MPD2    N111315   1.207   1.399  10.572  0.2576 -0.2600 -0.0577
  762MPD2    H711316   1.165   1.449  10.650  1.1378  0.0610  0.2135
  763MPD2     C11317   3.358   1.765  16.157 -0.8901  0.4890  0.1710
  763MPD2    C111318   3.252   1.822  16.084  0.0813 -0.1020 -0.0730
  763MPD2    C211319   3.212   1.951  16.121 -0.4570 -0.0830 -0.7034
  763MPD2    C311320   3.287   2.029  16.212  0.5039  0.4351 -0.2460
  763MPD2    C411321   3.391   1.962  16.275  0.3701 -0.1679 -0.1563
  763MPD2    C511322   3.412   1.831  16.255  1.0708 -0.0472 -0.5212
  763MPD2     H11323   3.121   1.987  16.073  0.7936  1.8803 -1.6035
  763MPD2    H111324   3.449   2.008  16.353  1.3171 -1.2004 -0.2486
  763MPD2    H211325   3.377   1.659  16.152 -1.1194  0.5151 -1.1800
  763MPD2    H311326   3.493   1.774  16.300 -1.3887 -2.1199  1.2499
  763MPD2     N11327   3.259   2.161  16.254  0.5729 -0.6211 -0.8034
  763MPD2    H511328   3.333   2.202  16.311 -1.7566  2.0900  0.2907
  763MPD2    N111329   3.184   1.744  15.984  0.1704  0.3301  0.1134
  763MPD2    H711330   3.089   1.771  15.962  0.2367  0.6764  0.2477
  764MPD2     C11331   1.389   3.741  17.242 -1.2987 -0.5502  0.1074
  764MPD2    C111332   1.323   3.667  17.144 -0.1759  0.2083 -0.5655
  764MPD2    C211333   1.347   3.532  17.155 -0.7525 -0.2736 -0.3176
  764MPD2    C311334   1.408   3.465  17.254  0.5007 -0.8382  1.0532
  764MPD2    C411335   1.477   3.541  17.349 -0.1396  0.0678  0.2760
  764MPD2    C511336   1.467   3.683  17.339  0.4586  0.5994 -0.2559
  764MPD2     H11337   1.302   3.465  17.083 -0.6614 -1.0756  0.3607
  764MPD2    H111338   1.539   3.502  17.429 -0.7146  2.6842  2.0122
  764MPD2    H211339   1.377   3.848  17.248  1.2820 -0.3354  1.5729
  764MPD2    H311340   1.525   3.746  17.405  0.6945  0.4864 -0.3576
  764MPD2     N11341   1.411   3.326  17.250  0.2695 -0.0595  0.5052
  764MPD2    H511342   1.370   3.283  17.167 -0.2561  0.9697  0.2275
  764MPD2    N111343   1.241   3.715  17.039  0.8363 -0.4413 -0.2687
  764MPD2    H711344   1.220   3.650  16.964  0.4699 -2.4557  1.5896
  765MPD2     C11345   1.740   1.261  15.027 -0.1349  0.0844 -0.4368
  765MPD2    C111346   1.659   1.231  15.136  0.5663  0.2250  0.8756
  765MPD2    C211347   1.717   1.188  15.255 -0.3973 -0.7240  0.1788
  765MPD2    C311348   1.855   1.167  15.262  0.9901  0.3302 -0.7840
  765MPD2    C411349   1.932   1.181  15.148 -0.3683 -0.0362 -0.1639
  765MPD2    C511350   1.871   1.231  15.030 -0.5107 -0.4899  0.6026
  765MPD2     H11351   1.660   1.165  15.344 -0.0904  0.3694  0.6603
  765MPD2    H111352   2.037   1.154  15.155 -0.1869  0.7639  0.1574
  765MPD2    H211353   1.704   1.303  14.934  2.5004 -0.8712 -1.8804
  765MPD2    H311354   1.937   1.247  14.945 -1.0432  2.0392  0.6716
  765MPD2     N11355   1.910   1.117  15.383 -0.1486  0.2188 -0.2030
  765MPD2    H511356   1.847   1.106  15.462  0.0615  2.4318  0.2614
  765MPD2    N111357   1.522   1.251  15.120 -0.0471  0.0100  0.8033
  765MPD2    H711358   1.499   1.301  15.035  0.5680  0.6419  1.0108
  766MPD2     C11359   0.639   1.463  15.259 -0.4128  0.7440  0.2015
  766MPD2    C111360   0.754   1.412  15.200 -0.1974 -0.2282  0.0262
  766MPD2    C211361   0.758   1.408  15.059  0.3422 -0.6771 -0.0529
  766MPD2    C311362   0.648   1.448  14.978  0.7188  0.6531 -0.3275
  766MPD2    C411363   0.534   1.489  15.042  0.2070  0.1439 -0.2457
  766MPD2    C511364   0.530   1.496  15.179 -0.4731  0.4665 -0.4466
  766MPD2     H11365   0.842   1.366  15.006 -0.2971 -0.2923 -1.3627
  766MPD2    H111366   0.456   1.528  14.978 -2.1560  0.5389  2.9300
  766MPD2    H211367   0.635   1.475  15.366 -0.5067 -0.4325  0.3263
  766MPD2    H311368   0.443   1.544  15.222 -0.4047 -0.5903  0.8525
  766MPD2     N11369   0.655   1.454  14.832 -0.3660  0.7816 -0.1051
  766MPD2    H511370   0.574   1.499  14.792 -0.6719 -0.4618 -0.8756
  766MPD2    N111371   0.861   1.374  15.284  0.4990  0.7581 -0.2223
  766MPD2    H711372   0.850   1.377  15.385  0.9078 -0.3761 -0.1425
  767MPD2     C11373   0.249   1.766  15.039  0.2496 -0.4360 -0.3081
  767MPD2    C111374   0.348   1.776  14.945 -0.5924  0.1062  0.3144
  767MPD2    C211375   0.303   1.740  14.814 -0.5936  0.4274 -0.9729
  767MPD2    C311376   0.174   1.706  14.784 -0.5275 -0.3620  0.0639
  767MPD2    C411377   0.081   1.686  14.883 -0.3697  0.7982  0.2766
  767MPD2    C511378   0.124   1.718  15.011 -0.5197 -1.1781  0.4899
  767MPD2     H11379   0.373   1.744  14.731  2.6776  1.4131  1.7830
  767MPD2    H111380   4.720   1.639  14.864  0.2369 -0.2368 -0.2207
  767MPD2    H211381   0.266   1.793  15.142 -1.5897  0.7199 -0.2999
  767MPD2    H311382   0.057   1.697  15.095 -0.4167 -0.3152  0.7851
  767MPD2     N11383   0.166   1.656  14.654 -0.2377 -0.2879 -0.4145
  767MPD2    H511384   0.249   1.665  14.596  0.1146 -0.2376  0.0958
  767MPD2    N111385   0.479   1.813  14.987 -0.0017 -0.1113 -0.7186
  767MPD2    H711386   0.495   1.822  15.087 -2.0478 -3.3721 -0.0980
  768MPD2     C11387   1.144   4.551  10.495 -0.2562 -0.0745  0.0702
  768MPD2    C111388   1.119   4.520  10.627 -0.2952  0.7453  0.5093
  768MPD2    C211389   1.230   4.492  10.705  0.1428 -0.3149  0.6998
  768MPD2    C311390   1.359   4.503  10.662 -0.0882 -0.1500 -0.0247
  768MPD2    C411391   1.388   4.555  10.535 -0.1902  0.2981 -0.3379
  768MPD2    C511392   1.277   4.571  10.454 -0.1064 -0.3803  0.1617
  768MPD2     H11393   1.221   4.449  10.804  1.0644 -0.0445  0.9051
  768MPD2    H111394   1.488   4.572  10.497 -0.4702  2.7093 -0.0139
  768MPD2    H211395   1.063   4.574  10.426 -0.8006  0.2342  0.8161
  768MPD2    H311396   1.300   4.600  10.352  0.4799  0.6672  0.5903
  768MPD2     N11397   1.462   4.474  10.754  0.3087  0.5932 -0.4928
  768MPD2    H511398   1.556   4.504  10.730  0.2537 -0.4821 -2.0167
  768MPD2    N111399   0.995   4.500  10.685 -0.7913  0.2076  0.2932
  768MPD2    H711400   0.993   4.482  10.785 -1.8325  1.3134  0.4722
  769MPD2     C11401   2.134   2.957  14.832 -0.0874  0.4593 -0.1598
  769MPD2    C111402   2.081   2.950  14.952  0.5044 -0.1564 -0.0642
  769MPD2    C211403   2.162   2.953  15.062  0.9784  0.9170  0.3916
  769MPD2    C311404   2.298   2.963  15.050 -0.4212  1.0027 -0.0026
  769MPD2    C411405   2.348   2.957  14.923 -0.9471 -0.4091 -0.1357
  769MPD2    C511406   2.273   2.952  14.815  1.1292  0.2740 -0.5220
  769MPD2     H11407   2.113   2.941  15.158 -2.0643  1.5341 -1.0793
  769MPD2    H111408   2.455   2.954  14.906 -0.5523 -1.1164  2.4620
  769MPD2    H211409   2.076   2.958  14.741 -0.3945  1.0903  0.0436
  769MPD2    H311410   2.319   2.945  14.717  5.0300  0.0899  1.3355
  769MPD2     N11411   2.374   2.965  15.169  0.0878 -0.1973 -0.9862
  769MPD2    H511412   2.317   2.968  15.253  1.4397 -0.6565 -0.0496
  769MPD2    N111413   1.943   2.936  14.955  1.1497 -0.4860 -0.5540
  769MPD2    H711414   1.900   2.920  14.865  0.2757  0.4100 -0.2964
  770MPD2     C11415   1.934   2.076  15.183  0.8027  0.9813  0.9963
  770MPD2    C111416   1.931   2.111  15.050 -0.4691 -0.5874 -0.0141
  770MPD2    C211417   1.866   2.231  15.014  0.5895 -0.3458  0.1599
  770MPD2    C311418   1.814   2.316  15.110  0.1908 -0.0728  0.5027
  770MPD2    C411419   1.815   2.271  15.243 -0.2256 -0.0728 -0.0962
  770MPD2    C511420   1.880   2.157  15.280 -0.1453  0.2262 -0.2933
  770MPD2     H11421   1.862   2.254  14.908 -0.7294 -2.5905 -0.2716
  770MPD2    H111422   1.771   2.333  15.320 -0.6793  1.4061 -1.5502
  770MPD2    H211423   1.983   1.985  15.218  1.2051  0.7572 -0.1646
  770MPD2    H311424   1.888   2.126  15.384 -0.2030  0.0338 -0.3455
  770MPD2     N11425   1.758   2.438  15.068  0.0928  0.0164  1.3568
  770MPD2    H511426   1.760   2.456  14.968  1.3583 -0.8864  1.2050
  770MPD2    N111427   1.981   2.014  14.966 -0.0172 -0.2921 -0.1191
  770MPD2    H711428   2.039   1.938  14.998  1.5543  0.6343 -0.7690
  771MPD2     C11429   3.023   0.322  13.738 -0.7570  0.3372 -0.3240
  771MPD2    C111430   2.948   0.443  13.731 -0.0873  0.2895  0.7093
  771MPD2    C211431   2.834   0.451  13.657 -0.1787 -0.8211  0.4220
  771MPD2    C311432   2.783   0.333  13.603 -0.3361 -0.7138  0.1067
  771MPD2    C411433   2.845   0.214  13.616 -0.4050 -0.5912 -0.5929
  771MPD2    C511434   2.973   0.208  13.674 -0.8133 -0.7768  0.3191
  771MPD2     H11435   2.783   0.544  13.639  0.7547 -0.2950  0.4860
  771MPD2    H111436   2.808   0.122  13.571  0.9109 -0.7309 -1.3850
  771MPD2    H211437   3.121   0.312  13.785 -2.1053  1.7424  2.7786
  771MPD2    H311438   3.034   0.120  13.663  2.8125  1.9615 -1.2884
  771MPD2     N11439   2.659   0.358  13.541  0.2257 -0.0953  0.1601
  771MPD2    H511440   2.618   0.450  13.549 -0.4858 -0.4743  0.8808
  771MPD2    N111441   2.993   0.567  13.785 -0.5415  0.2005 -0.7146
  771MPD2    H711442   2.942   0.648  13.752 -1.1047  0.9004  1.8833
  772MPD2     C11443   2.719   1.191  14.033  0.1333  0.5271 -0.0052
  772MPD2    C111444   2.724   1.082  13.946  0.1437  0.3039  0.3786
  772MPD2    C211445   2.608   1.034  13.884 -0.2198 -0.4054 -0.3338
  772MPD2    C311446   2.487   1.102  13.912 -0.2815 -0.1541  0.4048
  772MPD2    C411447   2.488   1.212  13.994  0.1657  0.4582  0.1030
  772MPD2    C511448   2.601   1.247  14.061  0.7613  0.0466  0.1701
  772MPD2     H11449   2.628   0.957  13.811  0.0306 -0.4540 -0.2119
  772MPD2    H111450   2.397   1.269  14.008  0.5168  0.5206  2.2300
  772MPD2    H211451   2.798   1.216  14.103  0.2136  0.8081 -0.1937
  772MPD2    H311452   2.602   1.321  14.140 -1.6600 -1.1313  1.2999
  772MPD2     N11453   2.369   1.065  13.846  0.1659  0.1110 -0.3956
  772MPD2    H511454   2.288   1.121  13.871  0.1303  0.1351 -0.5680
  772MPD2    N111455   2.836   0.995  13.924  0.1613 -0.7271  0.1400
  772MPD2    H711456   2.815   0.908  13.876 -1.1423 -0.7158  0.6814
  773MPD2     C11457   1.920   2.261   0.211  0.7794 -0.0016 -0.1913
  773MPD2    C111458   1.952   2.217   0.083 -0.2061 -0.0725  0.0855
  773MPD2    C211459   2.038   2.105   0.085  0.6498 -0.1122 -0.2061
  773MPD2    C311460   2.077   2.033   0.198 -0.4823 -0.2372  0.0602
  773MPD2    C411461   2.030   2.077   0.319 -0.2294 -0.2049  0.7841
  773MPD2    C511462   1.964   2.193   0.323 -0.2768  0.1175 -0.7719
  773MPD2     H11463   2.063   2.059  17.728  1.5592  0.0201 -0.0345
  773MPD2    H111464   2.054   2.022   0.409 -1.0399 -1.2058  0.3971
  773MPD2    H211465   1.868   2.355   0.228  0.3727 -0.7173  2.4402
  773MPD2    H311466   1.921   2.220   0.419 -0.2289  0.9611 -0.9848
  773MPD2     N11467   2.150   1.910   0.187 -0.0380 -0.6787 -0.6781
  773MPD2    H511468   2.181   1.882   0.094 -0.6283  0.8111 -1.3185
  773MPD2    N111469   1.918   2.266  17.694 -0.4400 -0.8351 -0.6702
  773MPD2    H711470   1.946   2.205  17.618  1.6388 -0.2490 -0.3647
  774MPD2     C11471   0.572   0.859  13.597 -0.1646 -0.3168 -0.6110
  774MPD2    C111472   0.708   0.882  13.609 -0.0517 -0.4925 -0.0662
  774MPD2    C211473   0.756   1.000  13.561  0.3301 -0.0450  0.0991
  774MPD2    C311474   0.675   1.095  13.504  0.2701 -0.7065 -0.2044
  774MPD2    C411475   0.547   1.068  13.477  0.0728 -0.1170  0.1739
  774MPD2    C511476   0.504   0.943  13.521 -0.3930  0.4886  0.4465
  774MPD2     H11477   0.859   1.026  13.583  0.1521  0.3224  0.4867
  774MPD2    H111478   0.478   1.128  13.419 -1.1188 -2.6568 -1.0144
  774MPD2    H211479   0.519   0.770  13.630 -0.9777  0.1996 -0.5310
  774MPD2    H311480   0.398   0.929  13.500  0.2970 -0.8112 -2.1654
  774MPD2     N11481   0.738   1.216  13.468  0.3225  0.0390  0.6093
  774MPD2    H511482   0.835   1.225  13.494  0.7473 -0.0276 -0.9302
  774MPD2    N111483   0.786   0.791  13.683  0.6537  0.1991 -0.2748
  774MPD2    H711484   0.725   0.728  13.734  0.2195  1.2057  0.4456
  775MPD2     C11485   2.555   2.528  15.375  1.0913 -0.0638 -0.3063
  775MPD2    C111486   2.639   2.556  15.476  0.1285 -0.3199  1.6464
  775MPD2    C211487   2.751   2.628  15.446  0.1756 -0.0903 -0.0327
  775MPD2    C311488   2.782   2.669  15.316 -0.7352  0.2378 -0.3049
  775MPD2    C411489   2.689   2.647  15.212 -0.2660 -0.1238 -0.5377
  775MPD2    C511490   2.582   2.568  15.246 -0.6208 -0.5381 -0.4077
  775MPD2     H11491   2.828   2.643  15.520 -1.4085  2.8865  1.0267
  775MPD2    H111492   2.707   2.689  15.114 -1.3340 -0.6660 -0.9649
  775MPD2    H211493   2.471   2.462  15.395  1.7132 -0.7781 -0.0525
  775MPD2    H311494   2.503   2.551  15.173 -0.6605  1.6114 -0.8646
  775MPD2     N11495   2.890   2.755  15.284  0.2796 -0.1452 -0.2861
  775MPD2    H511496   2.889   2.778  15.185  0.3952 -4.8701 -1.3848
  775MPD2    N111497   2.600   2.520  15.607 -0.2055 -0.3638  0.6030
  775MPD2    H711498   2.511   2.472  15.601  0.0081 -0.8369  1.2001
  776MPD2     C11499   0.477   2.990  11.597  0.8957  0.0012 -0.6502
  776MPD2    C111500   0.610   2.980  11.644 -0.1652 -0.1496  0.1686
  776MPD2    C211501   0.695   3.087  11.614  0.2005  0.1889 -0.2302
  776MPD2    C311502   0.638   3.210  11.572 -0.5706 -0.5008 -0.1912
  776MPD2    C411503   0.507   3.222  11.540 -0.2173  0.5356  0.2479
  776MPD2    C511504   0.428   3.111  11.553 -0.5937  0.3287 -0.3751
  776MPD2     H11505   0.800   3.086  11.640 -0.3532 -0.3143  1.9677
  776MPD2    H111506   0.468   3.318  11.508 -0.6451 -0.5200 -2.3743
  776MPD2    H211507   0.409   2.906  11.600 -1.0301  1.5164 -1.7801
  776MPD2    H311508   0.326   3.115  11.517 -1.2721 -1.5720  1.3280
  776MPD2     N11509   0.717   3.327  11.548 -0.0446  0.2229  0.3422
  776MPD2    H511510   0.667   3.413  11.531 -0.2615 -0.1578 -0.9625
  776MPD2    N111511   0.666   2.857  11.703 -0.6527  0.3433 -0.8520
  776MPD2    H711512   0.594   2.786  11.707 -3.0566  2.7394 -1.3418
  777MPD2     C11513   2.108   0.393   0.227  0.0426  0.0141  0.1318
  777MPD2    C111514   1.994   0.361   0.289  0.0103  0.2724 -0.3766
  777MPD2    C211515   1.922   0.249   0.238  0.4992 -0.4941 -1.0535
  777MPD2    C311516   1.973   0.181   0.127  0.1056 -1.3224 -0.1056
  777MPD2    C411517   2.086   0.234   0.058  0.2376  0.6110 -0.0545
  777MPD2    C511518   2.158   0.339   0.113 -0.2130 -1.2807 -0.8821
  777MPD2     H11519   1.830   0.208   0.278  0.8352  0.2660  0.4896
  777MPD2    H111520   2.117   0.204  17.698 -0.1503  2.2910 -0.6809
  777MPD2    H211521   2.168   0.476   0.263 -0.7653  0.4634  0.4445
  777MPD2    H311522   2.243   0.384   0.062  0.2062  0.6913  1.5835
  777MPD2     N11523   1.912   0.057   0.081 -0.3991 -0.2782 -0.0070
  777MPD2    H511524   1.825   0.033   0.126  1.5088 -2.5013  2.5029
  777MPD2    N111525   1.965   0.434   0.401 -0.6863  0.1882 -0.1684
  777MPD2    H711526   2.038   0.496   0.435 -2.0798  1.3518  0.6764
  778MPD2     C11527   2.894   0.849  14.894  0.2566  0.3330 -0.4072
  778MPD2    C111528   2.888   0.745  14.809 -0.1418 -0.1322  0.3672
  778MPD2    C211529   2.969   0.745  14.697  0.1339  0.7520 -0.5298
  778MPD2    C311530   3.053   0.845  14.667  0.4006  0.0391 -0.7973
  778MPD2    C411531   3.065   0.951  14.759  0.4463  0.3276 -0.2792
  778MPD2    C511532   2.985   0.948  14.873  0.3359 -0.0345  0.1136
  778MPD2     H11533   2.977   0.657  14.634  1.5904 -0.0922  0.8556
  778MPD2    H111534   3.132   1.034  14.742  0.7019  0.1662 -0.0578
  778MPD2    H211535   2.842   0.849  14.988 -2.7032 -0.1818 -2.0504
  778MPD2    H311536   2.991   1.023  14.951 -1.3465  2.2054 -1.9308
  778MPD2     N11537   3.138   0.834  14.553 -0.1036 -0.1142 -0.5166
  778MPD2    H511538   3.139   0.750  14.497 -0.5506  0.7821 -1.8764
  778MPD2    N111539   2.812   0.627  14.840 -0.2867 -0.4748 -0.3569
  778MPD2    H711540   2.829   0.553  14.772  2.2130 -0.5345  0.3184
  779MPD2     C11541   2.517   4.137  13.947  0.4093 -0.1991  0.5142
  779MPD2    C111542   2.568   4.171  14.072 -0.0298  0.5057  0.3002
  779MPD2    C211543   2.617   4.297  14.096  0.0424 -0.6996 -0.0628
  779MPD2    C311544   2.621   4.386  13.992  0.5802  0.0232  0.6669
  779MPD2    C411545   2.574   4.347  13.867  0.6674  0.2552  0.0540
  779MPD2    C511546   2.525   4.222  13.841 -0.6255  0.0604 -0.1007
  779MPD2     H11547   2.653   4.321  14.196 -0.1064  3.4030 -0.9707
  779MPD2    H111548   2.570   4.422  13.789 -1.5865 -0.4332 -0.5000
  779MPD2    H211549   2.476   4.040  13.919  2.8204 -1.2860  0.7551
  779MPD2    H311550   2.489   4.194  13.743 -0.3698  3.7116 -1.2380
  779MPD2     N11551   2.671   4.515  14.019 -0.3815 -0.1527  0.2077
  779MPD2    H511552   2.740   4.522  14.094  0.2504 -0.2375 -0.3621
  779MPD2    N111553   2.573   4.066  14.160 -0.6691  0.0383 -0.2146
  779MPD2    H711554   2.555   3.974  14.121  0.4770 -0.8290  1.2615
  780MPD2     C11555   2.640   4.058   0.423  0.0143 -0.4723  0.3351
  780MPD2    C111556   2.567   4.158   0.374 -0.1637  0.0080  0.1237
  780MPD2    C211557   2.609   4.240   0.269 -0.0638  0.0648 -0.0816
  780MPD2    C311558   2.735   4.217   0.219 -0.7527  0.0861 -0.2101
  780MPD2    C411559   2.814   4.117   0.274  0.0276 -0.1565  0.5291
  780MPD2    C511560   2.764   4.045   0.374 -0.3355 -0.5748  0.1473
  780MPD2     H11561   2.557   4.327   0.229  0.5783  1.5763  2.3796
  780MPD2    H111562   2.915   4.096   0.243 -0.0256  0.4943 -0.0834
  780MPD2    H211563   2.603   4.012   0.514  0.1936  0.4481  0.8673
  780MPD2    H311564   2.824   3.965   0.416  1.6734 -0.8856 -3.2941
  780MPD2     N11565   2.774   4.276   0.096  0.3969  0.0655  0.2285
  780MPD2    H511566   2.841   4.216   0.047  1.3134  0.6176  0.8002
  780MPD2    N111567   2.443   4.177   0.437 -0.5309 -0.4492  0.0784
  780MPD2    H711568   2.429   4.110   0.512  0.1172  0.8951  1.4096
  781MPD2     C11569   4.599   0.866  11.772 -0.8876 -0.0727  0.3310
  781MPD2    C111570   4.483   0.793  11.801  0.2642 -0.5801  0.0852
  781MPD2    C211571   4.454   0.669  11.735 -0.6919 -0.5390 -0.5958
  781MPD2    C311572   4.539   0.625  11.638 -0.8667 -0.3283  0.5307
  781MPD2    C411573   4.643   0.703  11.600  0.1837 -0.0852  0.5176
  781MPD2    C511574   4.679   0.813  11.672 -0.3018 -0.0746  0.2063
  781MPD2     H11575   4.368   0.610  11.764 -1.4577  0.5845 -0.5662
  781MPD2    H111576   4.705   0.683  11.513  0.6909 -1.5081  1.2090
  781MPD2    H211577   4.611   0.966  11.811 -0.3654 -1.0172  2.5642
  781MPD2    H311578   0.033   0.867  11.644  1.4386 -2.8862  0.3431
  781MPD2     N11579   4.515   0.507  11.556 -0.6709  0.0436 -0.3243
  781MPD2    H511580   4.584   0.484  11.485  1.4302  0.9495  1.4242
  781MPD2    N111581   4.401   0.829  11.914  0.4955  0.4552  0.0309
  781MPD2    H711582   4.318   0.771  11.924  0.0142  1.0444 -0.5492
  782MPD2     C11583   1.482   1.955  10.184  0.2396 -0.3702 -0.4577
  782MPD2    C111584   1.613   1.991  10.195  0.0002 -0.9667  0.4082
  782MPD2    C211585   1.646   2.112  10.268  0.3076 -0.1519 -0.1010
  782MPD2    C311586   1.552   2.175  10.351 -0.5749 -0.7363  0.1266
  782MPD2    C411587   1.420   2.129  10.346  0.0995  0.0402  0.1842
  782MPD2    C511588   1.387   2.032  10.253 -0.3246  0.2232  0.2746
  782MPD2     H11589   1.745   2.155  10.269  0.5472 -0.7411  1.3415
  782MPD2    H111590   1.341   2.182  10.398  1.1921  2.9505 -1.1590
  782MPD2    H211591   1.448   1.877  10.117  1.0318  0.5546 -1.9410
  782MPD2    H311592   1.283   2.004  10.252 -0.1945 -0.2632  0.2151
  782MPD2     N11593   1.593   2.274  10.446 -0.1343 -0.3026  0.1099
  782MPD2    H511594   1.681   2.321  10.427  0.1644 -1.1411 -0.5852
  782MPD2    N111595   1.711   1.896  10.146  0.0436  0.2973  0.2100
  782MPD2    H711596   1.684   1.808  10.103  1.7625 -0.3806  0.5222
  783MPD2     C11597   1.505   1.546  10.949 -0.5149 -0.2217  0.4106
  783MPD2    C111598   1.597   1.648  10.970 -0.2554 -0.0570  0.4179
  783MPD2    C211599   1.683   1.695  10.871 -0.6018 -0.4495 -0.6019
  783MPD2    C311600   1.680   1.634  10.746  0.0264  0.0040 -0.2560
  783MPD2    C411601   1.582   1.533  10.719 -0.1476  0.3711  0.5014
  783MPD2    C511602   1.500   1.489  10.823 -0.5785  0.5197 -0.3078
  783MPD2     H11603   1.755   1.774  10.887 -1.7678  0.4150  0.3212
  783MPD2    H111604   1.576   1.479  10.626  1.1455  0.1880  0.5175
  783MPD2    H211605   1.436   1.503  11.020 -0.2407 -1.0233  0.1848
  783MPD2    H311606   1.432   1.408  10.802 -1.4905  0.4015  3.0396
  783MPD2     N11607   1.780   1.668  10.654 -0.4371  0.3166  0.5706
  783MPD2    H511608   1.842   1.743  10.683  0.5325 -0.0340 -0.5776
  783MPD2    N111609   1.590   1.705  11.100 -0.2050 -0.0721 -0.4746
  783MPD2    H711610   1.533   1.658  11.168 -0.8874  0.1964 -0.8589
  784MPD2     C11611   4.171   2.063   0.485 -0.4124  0.0877 -0.7570
  784MPD2    C111612   4.218   2.191   0.457  0.1976  0.3556  0.0751
  784MPD2    C211613   4.124   2.285   0.415 -0.4915 -0.5232 -0.0261
  784MPD2    C311614   3.988   2.253   0.404  0.1982  0.1080 -0.0985
  784MPD2    C411615   3.944   2.126   0.433  0.2361  0.0165  0.6483
  784MPD2    C511616   4.038   2.034   0.473  0.4030  0.3973 -0.3245
  784MPD2     H11617   4.157   2.386   0.396  0.0081 -0.3222  1.8769
  784MPD2    H111618   3.841   2.095   0.446 -0.5042  1.2810 -2.0365
  784MPD2    H211619   4.231   1.977   0.512 -1.1765  0.2706  1.5716
  784MPD2    H311620   4.004   1.935   0.503  0.0481  0.8466  0.7682
  784MPD2     N11621   3.907   2.359   0.376  0.2865  0.2438  0.1519
  784MPD2    H511622   3.958   2.446   0.359 -1.5283  1.7722  2.5503
  784MPD2    N111623   4.355   2.235   0.466  0.3382  0.3469  0.0546
  784MPD2    H711624   4.367   2.336   0.456 -0.6059  0.5408  0.8609
  785MPD2     C11625   0.196   0.168  10.659 -0.2437 -0.4730 -0.0449
  785MPD2    C111626   0.072   0.230  10.701  0.0212 -0.2929 -0.2925
  785MPD2    C211627   4.725   0.285  10.600  0.7009 -0.7757 -0.6158
  785MPD2    C311628   0.036   0.298  10.470  0.4235 -0.0263 -0.2831
  785MPD2    C411629   0.164   0.244  10.433 -0.0657 -0.2839 -0.0093
  785MPD2    C511630   0.240   0.184  10.528 -0.8911  0.7268  0.1698
  785MPD2     H11631   4.623   0.309  10.624  1.0218  0.4180 -0.4431
  785MPD2    H111632   0.186   0.257  10.328 -1.8384 -0.9573 -0.4680
  785MPD2    H211633   0.271   0.128  10.726 -0.9247 -0.9425  0.4331
  785MPD2    H311634   0.333   0.134  10.504 -1.3968 -1.4869  2.8148
  785MPD2     N11635   4.681   0.348  10.373  0.1014 -0.3298  0.2174
  785MPD2    H511636   4.588   0.377  10.401  0.3373 -1.1790  1.8361
  785MPD2    N111637   0.017   0.231  10.829  0.2746  0.5445 -0.3297
  785MPD2    H711638   4.662   0.277  10.833  0.0277 -0.0520  0.8946
  786MPD2     C11639   3.167   3.419  14.835  0.0740 -0.3021  0.2077
  786MPD2    C111640   3.255   3.315  14.832  0.1816 -0.1123  0.0821
  786MPD2    C211641   3.352   3.306  14.929  0.0406 -0.5006  0.2025
  786MPD2    C311642   3.375   3.410  15.018  0.0162 -0.5397  0.2948
  786MPD2    C411643   3.292   3.518  15.011 -0.3291 -0.1956  0.4222
  786MPD2    C511644   3.187   3.519  14.920  0.3830 -0.4181 -0.1564
  786MPD2     H11645   3.426   3.227  14.924 -1.2597 -1.6382 -0.8447
  786MPD2    H111646   3.288   3.593  15.089  1.4598 -1.1858  1.4544
  786MPD2    H211647   3.090   3.437  14.762  3.3913  1.2767 -2.8936
  786MPD2    H311648   3.115   3.600  14.918 -0.1184 -0.9247 -3.0666
  786MPD2     N11649   3.474   3.409  15.118  0.4100  0.5654  0.4480
  786MPD2    H511650   3.496   3.498  15.162 -0.0216  0.0829  1.6455
  786MPD2    N111651   3.255   3.223  14.719 -0.1857  0.1286  0.9739
  786MPD2    H711652   3.330   3.155  14.708 -0.5040 -0.1776  0.7235
  787MPD2     C11653   3.764   2.913  14.586  0.5226  0.5589 -0.0764
  787MPD2    C111654   3.699   2.922  14.466  0.9495  0.1314  0.3429
  787MPD2    C211655   3.771   2.870  14.359  0.1714  0.3292 -0.6957
  787MPD2    C311656   3.889   2.802  14.377 -0.0808  0.1221  0.0695
  787MPD2    C411657   3.940   2.788  14.502 -0.3504 -0.3133 -0.0097
  787MPD2    C511658   3.882   2.852  14.608  0.0342 -0.1668 -0.8420
  787MPD2     H11659   3.735   2.867  14.257 -1.1875  0.6338 -0.2276
  787MPD2    H111660   4.039   2.748  14.515 -1.0937 -1.9815  0.5055
  787MPD2    H211661   3.707   2.956  14.668  0.2206 -0.4436  0.2408
  787MPD2    H311662   3.916   2.831  14.709  0.4409  2.2550 -0.4641
  787MPD2     N11663   3.954   2.750  14.260  0.2357  0.1521 -0.2459
  787MPD2    H511664   3.922   2.778  14.168  1.1303  0.2476 -0.5300
  787MPD2    N111665   3.575   2.992  14.444 -0.3453  0.2611  0.2625
  787MPD2    H711666   3.526   3.012  14.531  2.3788 -0.9195  2.0750
  788MPD2     C11667   0.798   2.254   0.651 -0.2376  0.6500 -0.1774
  788MPD2    C111668   0.788   2.235   0.510 -0.3177 -0.0483  0.6124
  788MPD2    C211669   0.764   2.346   0.426 -0.4607  0.1508  0.0566
  788MPD2    C311670   0.745   2.471   0.486 -0.1307 -0.4020 -0.8023
  788MPD2    C411671   0.760   2.488   0.629  0.5268 -0.4213  0.3401
  788MPD2    C511672   0.783   2.377   0.709 -0.6291  0.5656 -0.2532
  788MPD2     H11673   0.768   2.328   0.319 -0.9602 -0.0909  0.0755
  788MPD2    H111674   0.736   2.582   0.678 -3.7750 -1.1620 -0.4133
  788MPD2    H211675   0.816   2.173   0.720  1.5081  1.7486  0.6496
  788MPD2    H311676   0.780   2.394   0.816  0.0895  0.1903 -0.1760
  788MPD2     N11677   0.705   2.590   0.408 -0.4306 -0.1833 -0.0516
  788MPD2    H511678   0.689   2.676   0.459 -0.3968  0.3651 -0.9689
  788MPD2    N111679   0.803   2.112   0.440 -0.2543  0.1845  0.5896
  788MPD2    H711680   0.809   2.110   0.339  0.0539 -1.3434  0.6531
  789MPD2     C11681   0.853   1.723  16.209 -0.1355 -0.1851  0.2850
  789MPD2    C111682   0.793   1.611  16.264 -0.8406  0.6371 -0.5595
  789MPD2    C211683   0.679   1.633  16.339  0.1355 -0.2540  0.2410
  789MPD2    C311684   0.630   1.757  16.373 -0.0556  0.1466  0.0444
  789MPD2    C411685   0.694   1.864  16.320 -0.4134  0.7791 -0.5064
  789MPD2    C511686   0.800   1.849  16.234  0.1121 -0.2102  0.1292
  789MPD2     H11687   0.621   1.551  16.380  0.1951  0.2811  1.3863
  789MPD2    H111688   0.643   1.958  16.334 -0.6248  0.7529 -1.1000
  789MPD2    H211689   0.939   1.726  16.143 -0.3024 -0.0352  0.0730
  789MPD2    H311690   0.847   1.937  16.191  0.9385 -0.3872  0.6598
  789MPD2     N11691   0.518   1.780  16.460  0.4487  0.5402 -0.4749
  789MPD2    H511692   0.476   1.872  16.461  2.6553  1.5507  1.0593
  789MPD2    N111693   0.818   1.473  16.230 -0.7072 -0.0328  0.0531
  789MPD2    H711694   0.759   1.405  16.277  1.1422 -1.2843  0.5632
  790MPD2     C11695   1.228   2.828  13.596  0.4161 -0.6905  1.3153
  790MPD2    C111696   1.346   2.786  13.532  0.0407  0.4110  0.4848
  790MPD2    C211697   1.346   2.800  13.392 -0.1584  0.2689 -0.0565
  790MPD2    C311698   1.238   2.847  13.314 -0.0107 -0.9718  0.4499
  790MPD2    C411699   1.123   2.885  13.388 -0.5571 -0.0541  0.1840
  790MPD2    C511700   1.122   2.875  13.523 -0.1036 -0.1604  0.2999
  790MPD2     H11701   1.434   2.762  13.342  1.9224  2.0086  2.2711
  790MPD2    H111702   1.040   2.942  13.348 -1.5860 -1.2618  0.6164
  790MPD2    H211703   1.233   2.825  13.704 -0.2572  1.0455  1.3882
  790MPD2    H311704   1.034   2.904  13.579  0.0945  0.5133  0.2566
  790MPD2     N11705   1.251   2.862  13.172 -0.3017  0.0856 -0.7720
  790MPD2    H511706   1.165   2.880  13.121 -0.6044  0.2953 -0.1816
  790MPD2    N111707   1.441   2.735  13.616  0.3639  0.1778  0.1770
  790MPD2    H711708   1.425   2.753  13.715  0.9869  0.1007  0.2961
  791MPD2     C11709   0.874   2.842  12.476  0.3170  0.1973  0.2574
  791MPD2    C111710   0.887   2.761  12.581 -0.2795  0.0762  0.0532
  791MPD2    C211711   0.787   2.684  12.624 -0.2986 -0.0016  0.1168
  791MPD2    C311712   0.661   2.701  12.567 -0.0540  0.2230  0.1536
  791MPD2    C411713   0.647   2.796  12.465 -0.5432 -0.4995  0.2205
  791MPD2    C511714   0.754   2.855  12.411 -0.1178  0.1204  0.2780
  791MPD2     H11715   0.801   2.619  12.709 -1.2835 -0.3345  0.0253
  791MPD2    H111716   0.554   2.800  12.410  0.0110 -2.8248 -0.9201
  791MPD2    H211717   0.950   2.906  12.433 -0.2801  2.6390  2.8675
  791MPD2    H311718   0.745   2.924  12.328 -1.1185 -0.6261 -0.2305
  791MPD2     N11719   0.552   2.624  12.614 -0.0590 -0.0216  0.1935
  791MPD2    H511720   0.575   2.546  12.676 -2.2315 -0.1068  0.8894
  791MPD2    N111721   1.012   2.771  12.652 -0.8566  0.2766 -0.5978
  791MPD2    H711722   1.075   2.844  12.621  0.7290 -0.2286  1.4665
  792MPD2     C11723   1.478   3.014  11.206  0.1176 -0.3158  0.4613
  792MPD2    C111724   1.430   3.090  11.092 -0.0007  0.2027  0.6691
  792MPD2    C211725   1.308   3.072  11.028  0.1892 -0.2702  0.5472
  792MPD2    C311726   1.223   2.978  11.083 -0.0898 -0.4378  0.1513
  792MPD2    C411727   1.268   2.909  11.192  0.9020 -0.0686  0.7089
  792MPD2    C511728   1.392   2.929  11.254 -0.7777  0.6210 -0.3885
  792MPD2     H11729   1.278   3.144  10.952  1.3912 -1.4045 -1.0115
  792MPD2    H111730   1.196   2.844  11.241  2.2535 -2.1013 -0.0024
  792MPD2    H211731   1.572   3.019  11.259  2.0168 -1.9337 -2.7593
  792MPD2    H311732   1.413   2.868  11.341  0.7923 -0.0646 -1.2402
  792MPD2     N11733   1.089   2.959  11.042 -0.2757  0.1432  0.0914
  792MPD2    H511734   1.047   2.875  11.081  0.4293  0.7116  2.0853
  792MPD2    N111735   1.526   3.184  11.033 -0.2793  0.2004 -0.1808
  792MPD2    H711736   1.616   3.199  11.078 -0.5876  2.5834 -0.3510
  793MPD2     C11737   0.491   2.958  10.240  0.1179 -0.6268 -0.0768
  793MPD2    C111738   0.615   3.012  10.251 -0.8515 -0.3376  0.1450
  793MPD2    C211739   0.664   3.036  10.373 -0.4095 -0.0091 -0.5764
  793MPD2    C311740   0.595   3.005  10.488  0.4013  0.2655  0.4985
  793MPD2    C411741   0.474   2.952  10.476 -0.3240 -0.7845  0.4157
  793MPD2    C511742   0.425   2.919  10.355 -0.0638 -0.0870  0.1477
  793MPD2     H11743   0.762   3.083  10.380  0.3287 -1.3871 -1.7416
  793MPD2    H111744   0.412   2.922  10.560  1.4880 -1.8407  1.3845
  793MPD2    H211745   0.446   2.944  10.142  0.9796 -1.9790 -0.2661
  793MPD2    H311746   0.322   2.886  10.344  0.0398 -0.5216  0.4575
  793MPD2     N11747   0.661   3.022  10.617 -0.0501 -0.6045  0.3257
  793MPD2    H511748   0.759   3.046  10.611 -0.4462  0.9110 -0.2109
  793MPD2    N111749   0.702   3.059  10.148  0.0698 -0.5976 -0.3080
  793MPD2    H711750   0.795   3.083  10.181  0.1456  0.0502 -1.0003
  794MPD2     C11751   1.754   2.954  17.185 -0.9074 -0.8394 -0.3031
  794MPD2    C111752   1.724   2.830  17.135  0.7160  0.0335 -0.3266
  794MPD2    C211753   1.678   2.822  17.009 -0.5409  0.0334 -0.3750
  794MPD2    C311754   1.649   2.936  16.933 -0.7538 -0.2174  0.3874
  794MPD2    C411755   1.678   3.057  16.991  0.0138 -0.0801 -0.0813
  794MPD2    C511756   1.729   3.065  17.113 -0.2549 -0.0973  0.6663
  794MPD2     H11757   1.649   2.727  16.966 -0.7929 -0.2403  0.3911
  794MPD2    H111758   1.662   3.153  16.942  1.0572  0.1403  0.0037
  794MPD2    H211759   1.791   2.975  17.284  0.1620 -0.5488 -0.7674
  794MPD2    H311760   1.752   3.165  17.148  0.2482 -0.1567  0.5121
  794MPD2     N11761   1.582   2.946  16.812  0.6450  0.6147  0.2157
  794MPD2    H511762   1.556   3.039  16.782 -2.8120 -0.2688  0.5243
  794MPD2    N111763   1.740   2.713  17.208 -0.2326 -0.3548  0.1410
  794MPD2    H711764   1.720   2.629  17.153  1.0755 -0.5447 -0.0554
  795MPD2     C11765   3.945   4.503  13.591  0.5461  0.2103 -0.1589
  795MPD2    C111766   3.859   4.426  13.666 -0.0109  0.4006  1.0545
  795MPD2    C211767   3.911   4.346  13.765 -0.3282 -0.3008 -0.3794
  795MPD2    C311768   4.046   4.342  13.795 -0.4635 -0.0720  0.0517
  795MPD2    C411769   4.128   4.416  13.716  0.3516  0.3402  0.4957
  795MPD2    C511770   4.078   4.497  13.617  0.3143 -0.2410 -0.2888
  795MPD2     H11771   3.836   4.298  13.827 -1.2945 -0.1180 -1.3983
  795MPD2    H111772   4.235   4.413  13.733  0.5971  2.5593 -0.6543
  795MPD2    H211773   3.917   4.568  13.509  0.9445 -1.3674 -1.5303
  795MPD2    H311774   4.140   4.557  13.552  0.6527 -0.5875 -0.2850
  795MPD2     N11775   4.087   4.263  13.909  0.0439  0.6657  0.0470
  795MPD2    H511776   4.016   4.200  13.945  0.0131  0.2540 -0.7343
  795MPD2    N111777   3.715   4.427  13.653 -0.1383  0.6025  0.4909
  795MPD2    H711778   3.660   4.371  13.717 -0.1487 -1.4276 -1.2718
  796MPD2     C11779   3.631   0.936  15.699  0.0567 -1.0908 -0.0786
  796MPD2    C111780   3.647   1.001  15.821 -0.3376 -0.1875 -0.3746
  796MPD2    C211781   3.601   1.133  15.824  0.5038  0.0365 -0.0458
  796MPD2    C311782   3.550   1.205  15.712 -0.1890  0.4268 -0.0211
  796MPD2    C411783   3.532   1.125  15.599 -0.0904  0.6483 -0.5114
  796MPD2    C511784   3.569   0.994  15.596 -0.4966  0.5881 -0.0393
  796MPD2     H11785   3.616   1.187  15.917  0.0077 -2.2877  1.4054
  796MPD2    H111786   3.493   1.172  15.509 -0.6609  2.1475  0.5094
  796MPD2    H211787   3.670   0.835  15.691 -1.7885 -1.8359  0.3023
  796MPD2    H311788   3.540   0.943  15.505 -3.0109  0.6361  0.7400
  796MPD2     N11789   3.531   1.347  15.712 -0.0552  0.1886  0.8247
  796MPD2    H511790   3.563   1.388  15.799  1.8231 -2.7242  1.4861
  796MPD2    N111791   3.706   0.928  15.932 -0.2773  0.0626  1.0554
  796MPD2    H711792   3.724   0.829  15.916  0.2597  0.3856 -0.3441
  797MPD2     C11793   4.403   0.508  17.287  0.1577  0.6131 -0.4342
  797MPD2    C111794   4.362   0.607  17.380 -0.4560 -0.3556 -0.5294
  797MPD2    C211795   4.301   0.716  17.336  0.0313  0.2718 -0.2176
  797MPD2    C311796   4.289   0.749  17.194 -0.2106 -0.0943  0.3669
  797MPD2    C411797   4.334   0.658  17.107  0.2257 -0.1840  0.0865
  797MPD2    C511798   4.376   0.534  17.153 -0.2742  0.6891  0.0271
  797MPD2     H11799   4.262   0.787  17.408  0.4217  1.7769 -1.4852
  797MPD2    H111800   4.331   0.672  16.999  2.2802  1.7131  0.2836
  797MPD2    H211801   4.442   0.410  17.312  0.0521  0.8333  0.5633
  797MPD2    H311802   4.407   0.465  17.076  0.0733  1.8307 -0.8517
  797MPD2     N11803   4.251   0.869  17.139 -0.6805  0.0763 -0.4609
  797MPD2    H511804   4.230   0.867  17.040  2.2248 -2.5109 -1.0225
  797MPD2    N111805   4.380   0.596  17.518 -0.2884 -0.0992 -0.1969
  797MPD2    H711806   4.351   0.678  17.571 -2.4986 -1.8955  1.3553
  798MPD2     C11807   4.335   1.389  17.627  0.8804  0.3398 -0.7450
  798MPD2    C111808   4.317   1.273  17.561 -0.8290  1.0326 -0.2487
  798MPD2    C211809   4.327   1.157  17.620 -0.6212 -0.3265 -0.3300
  798MPD2    C311810   4.380   1.140   0.008  0.2101 -0.5876 -0.3079
  798MPD2    C411811   4.397   1.258   0.084 -0.3244  0.2447  0.1968
  798MPD2    C511812   4.366   1.377   0.024  0.2958  1.0786 -0.1863
  798MPD2     H11813   4.324   1.077  17.547 -1.8079  0.2594 -0.9237
  798MPD2    H111814   4.430   1.266   0.187 -3.8838  1.9993  1.2164
  798MPD2    H211815   4.307   1.487  17.590 -0.6678  0.1808  0.0022
  798MPD2    H311816   4.367   1.468   0.082  2.2153  0.6899  0.4090
  798MPD2     N11817   4.429   1.018   0.059  0.0767  0.4814  0.2268
  798MPD2    H511818   4.490   1.020   0.141  0.9865  1.8077 -0.4707
  798MPD2    N111819   4.272   1.269  17.427 -0.8262 -0.3207  0.3465
  798MPD2    H711820   4.270   1.178  17.382 -1.9590 -1.6091  2.9924
  799MPD2     C11821   3.650   2.442  14.571  0.1961  0.3399  0.2733
  799MPD2    C111822   3.583   2.336  14.509 -1.1832 -0.8596  0.3989
  799MPD2    C211823   3.483   2.359  14.415 -0.2335 -0.4972 -0.0566
  799MPD2    C311824   3.453   2.491  14.378 -0.2808 -0.2043 -0.6302
  799MPD2    C411825   3.522   2.591  14.437 -0.1206 -0.2902 -0.6612
  799MPD2    C511826   3.622   2.566  14.527  0.0543 -0.0177 -0.5408
  799MPD2     H11827   3.433   2.271  14.375 -0.1917 -1.1231  1.2519
  799MPD2    H111828   3.497   2.694  14.412  0.3972 -0.6018 -2.4354
  799MPD2    H211829   3.728   2.442  14.647  1.2508 -2.3291 -0.8007
  799MPD2    H311830   3.686   2.643  14.570  1.5047 -0.2382 -2.2971
  799MPD2     N11831   3.348   2.526  14.282  0.6199 -0.0297  0.3719
  799MPD2    H511832   3.375   2.600  14.218 -0.2145 -0.1756 -0.1511
  799MPD2    N111833   3.618   2.201  14.552  0.2044  0.0489 -0.3703
  799MPD2    H711834   3.560   2.124  14.522 -1.8910  0.8316  1.7298
  800MPD2     C11835   3.551   3.547  14.274  0.6611  0.7796  0.0443
  800MPD2    C111836   3.673   3.500  14.224 -0.7750  0.0304  0.2859
  800MPD2    C211837   3.674   3.428  14.108  0.2482  0.0527 -0.4337
  800MPD2    C311838   3.553   3.384  14.054  0.2718  0.4869  0.1315
  800MPD2    C411839   3.436   3.421  14.119  0.0394  0.4623  0.0603
  800MPD2    C511840   3.435   3.493  14.231  0.0461  0.2166 -0.8905
  800MPD2     H11841   3.765   3.411  14.053 -1.1967 -2.2536 -2.1248
  800MPD2    H111842   3.339   3.391  14.079  0.2869 -0.5040  0.1822
  800MPD2    H211843   3.549   3.622  14.352  1.9352  2.5287 -1.6348
  800MPD2    H311844   3.338   3.531  14.262 -0.4279  0.1679 -2.2832
  800MPD2     N11845   3.554   3.328  13.928  0.0246 -0.1611  0.8540
  800MPD2    H511846   3.648   3.301  13.902  0.2489 -0.0712  1.5668
  800MPD2    N111847   3.794   3.550  14.275 -0.4163 -0.2050 -0.1112
  800MPD2    H711848   3.783   3.625  14.343  2.1236 -0.9075  1.1045
  801MPD2     C11849   3.992   4.175  14.545  0.1347  0.0896 -0.0644
  801MPD2    C111850   3.919   4.062  14.533  0.6200  0.2696 -0.6808
  801MPD2    C211851   3.823   4.027  14.629  0.2188 -0.5508  0.1137
  801MPD2    C311852   3.791   4.118  14.732 -0.4809 -0.2089 -0.4531
  801MPD2    C411853   3.866   4.235  14.737  0.1657  0.0342 -0.5518
  801MPD2    C511854   3.965   4.265  14.644  0.3859  0.1690 -0.6768
  801MPD2     H11855   3.759   3.941  14.613  1.7181 -1.4220 -1.2294
  801MPD2    H111856   3.848   4.313  14.809  1.9902  1.6026 -1.7868
  801MPD2    H211857   4.074   4.197  14.477  0.1977  2.1728  0.6762
  801MPD2    H311858   4.023   4.356  14.653 -0.6829  0.7338  0.4898
  801MPD2     N11859   3.689   4.097  14.826  0.3501  0.0645 -0.2965
  801MPD2    H511860   3.675   4.172  14.892  1.1071  2.7507 -3.1967
  801MPD2    N111861   3.940   3.961  14.430  0.3506 -0.6258  0.3525
  801MPD2    H711862   3.879   3.880  14.426 -1.2557  0.5868  0.2073
  802MPD2     C11863   3.836   0.321   0.187 -0.5195  0.3194 -1.0215
  802MPD2    C111864   3.781   0.314   0.060  0.2388 -0.3389 -0.3090
  802MPD2    C211865   3.831   0.224  17.706 -0.4930  0.2450 -0.4054
  802MPD2    C311866   3.938   0.143  17.736 -0.0760 -0.3351 -0.4660
  802MPD2    C411867   3.985   0.142   0.124 -0.0094  0.3188 -0.7698
  802MPD2    C511868   3.933   0.231   0.214  0.1933 -0.7268 -0.5890
  802MPD2     H11869   3.795   0.231  17.604  0.5112  1.3679 -0.6845
  802MPD2    H111870   4.057   0.071   0.163  0.4917  1.3000  0.0794
  802MPD2    H211871   3.801   0.393   0.261  0.2144  0.6236 -0.9620
  802MPD2    H311872   3.978   0.241   0.312 -0.4711  2.4427 -0.6026
  802MPD2     N11873   3.973   0.049  17.632  0.2952  0.3134  0.3636
  802MPD2    H511874   3.922   0.052  17.545 -0.2101 -0.1610  0.6425
  802MPD2    N111875   3.670   0.392   0.021  0.1675  0.4779 -0.1249
  802MPD2    H711876   3.642   0.391  17.662  0.2098  0.4973 -0.1374
  803MPD2     C11877   3.846   3.412  11.963  0.2706  0.3591 -0.2776
  803MPD2    C111878   3.972   3.365  11.992  0.0811 -0.1610 -0.2890
  803MPD2    C211879   3.990   3.250  12.066  0.4189 -0.2027  0.2804
  803MPD2    C311880   3.880   3.189  12.130 -0.0194 -0.4003  0.0626
  803MPD2    C411881   3.756   3.242  12.108  0.7683  0.5630 -0.9770
  803MPD2    C511882   3.740   3.351  12.028  0.4685 -0.2526 -0.7327
  803MPD2     H11883   4.088   3.210  12.088  1.2213  0.2802 -2.4541
  803MPD2    H111884   3.674   3.192  12.159 -0.0940  1.1803 -1.7629
  803MPD2    H211885   3.832   3.495  11.895  1.8046  1.5631  0.8695
  803MPD2    H311886   3.643   3.400  12.025  1.1158  1.0188 -1.0115
  803MPD2     N11887   3.893   3.074  12.216  0.2062  0.3151  0.2080
  803MPD2    H511888   3.814   3.056  12.276 -1.1102  0.4788 -1.4740
  803MPD2    N111889   4.091   3.406  11.931 -0.5173  0.3262 -0.5063
  803MPD2    H711890   4.180   3.371  11.968  0.4004  4.0177  0.7161
  804MPD2     C11891   4.057   4.232  16.964  0.4177  0.0384 -0.5280
  804MPD2    C111892   4.077   4.134  17.055  0.3462 -0.2634  0.1465
  804MPD2    C211893   4.194   4.134  17.134  0.0523 -0.1530  0.0452
  804MPD2    C311894   4.299   4.212  17.099  0.9003  0.0771  0.3436
  804MPD2    C411895   4.281   4.303  16.994 -0.8952  0.0154 -0.0967
  804MPD2    C511896   4.162   4.317  16.938  0.2484 -0.3156  0.2759
  804MPD2     H11897   4.193   4.054  17.208 -1.9523 -1.1007 -1.0064
  804MPD2    H111898   4.362   4.369  16.965 -0.3563 -0.2855  0.7092
  804MPD2    H211899   3.962   4.231  16.913  0.2168  1.3828 -0.2002
  804MPD2    H311900   4.143   4.385  16.856  2.2785 -1.3165 -1.0382
  804MPD2     N11901   4.421   4.202  17.166  0.4629 -0.1756 -0.8932
  804MPD2    H511902   4.420   4.144  17.249  0.2582 -1.2898 -1.6668
  804MPD2    N111903   3.986   4.026  17.072  0.3073  0.2858  0.3674
  804MPD2    H711904   3.990   3.956  17.145  2.0347  1.2817  1.2325
  805MPD2     C11905   3.087   2.422  15.235  0.3040 -0.2027 -0.6328
  805MPD2    C111906   3.189   2.496  15.168 -0.3594 -0.9533 -0.5689
  805MPD2    C211907   3.310   2.512  15.232  0.7782 -0.0825  0.3107
  805MPD2    C311908   3.336   2.442  15.345  0.6028  0.0780  0.1375
  805MPD2    C411909   3.239   2.369  15.411  0.1210  0.6689  0.7867
  805MPD2    C511910   3.113   2.363  15.354 -0.8022  0.2542  0.1743
  805MPD2     H11911   3.388   2.576  15.193 -0.4681  0.9769 -0.4471
  805MPD2    H111912   3.246   2.325  15.510 -0.4270 -0.1675  0.4573
  805MPD2    H211913   2.981   2.408  15.216 -0.5333  1.6878  2.7596
  805MPD2    H311914   3.028   2.328  15.411 -0.7176  2.6693  1.7613
  805MPD2     N11915   3.461   2.462  15.414  0.2079  0.0424 -0.2827
  805MPD2    H511916   3.535   2.515  15.370  0.5466 -0.1214  0.0867
  805MPD2    N111917   3.176   2.550  15.043  0.0933  0.0803  0.6089
  805MPD2    H711918   3.258   2.599  15.010 -0.7678  1.2865  0.2634
  806MPD2     C11919   3.234   1.624   0.473 -0.1417  0.2352  0.5161
  806MPD2    C111920   3.370   1.624   0.469  0.2496  0.0364 -0.0618
  806MPD2    C211921   3.437   1.696   0.375 -0.7894 -0.2320 -0.1560
  806MPD2    C311922   3.372   1.796   0.309 -0.0826 -0.4082 -0.1238
  806MPD2    C411923   3.233   1.795   0.315  0.5338  0.1346  0.7178
  806MPD2    C511924   3.163   1.713   0.397  0.2430  0.1333 -0.5270
  806MPD2     H11925   3.546   1.693   0.376 -0.7746 -0.1709 -1.0376
  806MPD2    H111926   3.183   1.881   0.272 -0.6736 -1.3888 -0.9041
  806MPD2    H211927   3.189   1.560   0.547  0.1243 -0.3748  0.1569
  806MPD2    H311928   3.056   1.729   0.401  0.2625  0.3375 -0.7586
  806MPD2     N11929   3.429   1.902   0.238  0.5233 -0.0202 -0.1252
  806MPD2    H511930   3.365   1.971   0.198  1.2952  2.5072  2.9767
  806MPD2    N111931   3.437   1.539   0.569  0.7330  0.1698 -0.3172
  806MPD2    H711932   3.386   1.484   0.637  1.2996  0.5496  0.4181
  807MPD2     C11933   3.237   1.015   1.064  0.4043  0.5727 -0.0724
  807MPD2    C111934   3.371   0.990   1.038 -0.1164 -0.0484 -0.6813
  807MPD2    C211935   3.434   0.889   1.107  0.0582 -0.6820  1.1170
  807MPD2    C311936   3.369   0.808   1.199 -0.0598 -0.5910 -0.1820
  807MPD2    C411937   3.229   0.831   1.226  0.3870  0.0162 -0.2997
  807MPD2    C511938   3.166   0.935   1.159 -1.0705 -0.4269  0.1215
  807MPD2     H11939   3.540   0.872   1.099  0.0791  1.1610 -2.7504
  807MPD2    H111940   3.169   0.788   1.305  1.5357 -1.4718 -0.2376
  807MPD2    H211941   3.180   1.087   1.006 -0.0016  0.7938  0.6073
  807MPD2    H311942   3.061   0.952   1.182 -1.4552 -0.5642 -1.5051
  807MPD2     N11943   3.456   0.716   1.270  0.0139 -0.2808  0.1634
  807MPD2    H511944   3.554   0.716   1.245 -0.2503 -2.0333 -0.9181
  807MPD2    N111945   3.451   1.072   0.958 -0.0905  0.3566 -0.3755
  807MPD2    H711946   3.550   1.051   0.966  0.2050  3.0738  2.6741
  808MPD2     C11947   3.819   3.738  10.943  0.0904  0.5343 -0.3591
  808MPD2    C111948   3.779   3.796  10.827 -0.1293 -0.7411 -0.2467
  808MPD2    C211949   3.836   3.915  10.786 -0.7184  0.0747 -0.3313
  808MPD2    C311950   3.924   3.991  10.868  0.6785 -0.0052 -0.3916
  808MPD2    C411951   3.964   3.935  10.983 -0.4911  0.1507  0.2609
  808MPD2    C511952   3.903   3.817  11.022 -0.1920  0.8052  0.8279
  808MPD2     H11953   3.815   3.947  10.685  2.0699 -1.0321 -1.2677
  808MPD2    H111954   4.019   3.993  11.057  0.5602  0.5392 -0.8254
  808MPD2    H211955   3.773   3.647  10.980  0.5930  1.1510  1.7565
  808MPD2    H311956   3.912   3.778  11.123 -1.5066  1.3312  1.1479
  808MPD2     N11957   3.960   4.124  10.840  0.8302 -0.2802  0.4159
  808MPD2    H511958   4.034   4.153  10.903  0.4092  2.3066 -0.2779
  808MPD2    N111959   3.663   3.743  10.756  0.2256  0.2693  0.5340
  808MPD2    H711960   3.632   3.794  10.674  0.7250  0.4955  0.4862
  809MPD2     C11961   4.147   0.177  10.109  0.5164 -0.2226  0.6963
  809MPD2    C111962   4.148   0.041  10.090  0.4064 -0.6473  0.1173
  809MPD2    C211963   4.099   4.697  10.195 -0.2411 -0.4121 -0.4562
  809MPD2    C311964   4.068   0.022  10.318  0.0894  0.6131  0.2970
  809MPD2    C411965   4.056   0.160  10.333 -0.3439 -0.5133  0.7151
  809MPD2    C511966   4.100   0.237  10.228  0.2192  0.4720 -0.0028
  809MPD2     H11967   4.100   4.591  10.176 -0.3004 -0.2793 -1.1855
  809MPD2    H111968   4.016   0.202  10.425  0.3233 -0.0145  0.7757
  809MPD2    H211969   4.176   0.245  10.029 -0.7323 -0.5809 -0.0584
  809MPD2    H311970   4.096   0.345  10.242 -1.5061  0.5801 -1.3808
  809MPD2     N11971   4.046   4.691  10.442 -0.1851  0.0096 -0.1507
  809MPD2    H511972   4.006   0.010  10.518 -0.2591 -2.5180  1.6174
  809MPD2    N111973   4.194   4.719   9.966 -0.0771 -0.0707  1.1278
  809MPD2    H711974   4.176   4.620   9.958  0.4414 -0.0304 -0.4427
  810MPD2     C11975   3.163   3.502  10.966 -0.2835 -0.5175 -0.6229
  810MPD2    C111976   3.046   3.496  10.895 -0.2064  0.8078  0.1623
  810MPD2    C211977   2.998   3.611  10.839  0.3019  0.4430 -0.1668
  810MPD2    C311978   3.066   3.728  10.836  0.3402  0.4065 -0.1296
  810MPD2    C411979   3.185   3.734  10.895  0.5001  0.8992  0.4941
  810MPD2    C511980   3.237   3.620  10.956 -0.0717  0.0716  0.3978
  810MPD2     H11981   2.910   3.594  10.778  0.0761 -1.6278  0.7316
  810MPD2    H111982   3.247   3.823  10.889 -0.0840  1.2702  0.0014
  810MPD2    H211983   3.199   3.413  11.016 -2.0782 -0.1924  1.2696
  810MPD2    H311984   3.330   3.629  11.011  0.6192 -0.6025 -0.6498
  810MPD2     N11985   3.019   3.853  10.778  0.6030 -0.0145 -0.3920
  810MPD2    H511986   3.081   3.933  10.778  1.5464 -0.7368  0.3868
  810MPD2    N111987   2.980   3.378  10.852  0.1721  0.0195 -0.4702
  810MPD2    H711988   2.907   3.389  10.782 -0.4421 -1.7777 -0.1224
  811MPD2     C11989   2.732   3.132  10.101 -0.5005 -0.2069  0.0507
  811MPD2    C111990   2.779   3.214  10.195 -0.6634 -0.0226 -0.0123
  811MPD2    C211991   2.825   3.343  10.157  0.3331 -0.4926 -0.3993
  811MPD2    C311992   2.822   3.379  10.025 -0.1363 -1.2204  0.4961
  811MPD2    C411993   2.769   3.293   9.935 -0.2438 -0.3911  0.2777
  811MPD2    C511994   2.718   3.174   9.969  1.0264  0.2351 -0.1910
  811MPD2     H11995   2.868   3.405  10.235  0.6995  0.2843 -1.2325
  811MPD2    H111996   2.784   3.319   9.831  1.3203  1.0390  0.8447
  811MPD2    H211997   2.699   3.031  10.125  0.4581 -0.7750 -1.0287
  811MPD2    H311998   2.677   3.108   9.893 -0.8607  0.9077  0.2191
  811MPD2     N11999   2.885   3.504   9.997  0.1173  0.1708 -0.1117
  811MPD2    H512000   2.923   3.551  10.079  1.1195  2.0262 -1.6224
  811MPD2    N112001   2.791   3.168  10.327  0.3985  0.6249  0.5878
  811MPD2    H712002   2.763   3.071  10.341  1.9382  0.5414  3.0310
  812MPD2     C12003   2.161   2.641  12.173 -0.7068 -0.2247 -0.4014
  812MPD2    C112004   2.029   2.679  12.178  0.4076 -0.0175 -0.2963
  812MPD2    C212005   1.960   2.651  12.292 -0.2508 -0.6403  0.3498
  812MPD2    C312006   2.023   2.599  12.404 -0.0914 -0.1726  0.2456
  812MPD2    C412007   2.149   2.554  12.391  0.0947 -0.2031  0.1695
  812MPD2    C512008   2.215   2.572  12.272  0.4557  0.5526 -0.2977
  812MPD2     H12009   1.859   2.682  12.313  0.0395  1.0026 -0.6988
  812MPD2    H112010   2.191   2.496  12.472 -1.2954 -0.3266  0.8035
  812MPD2    H212011   2.215   2.655  12.079  0.9467  0.1502  0.6054
  812MPD2    H312012   2.312   2.525  12.259  0.5072  0.5801 -0.0224
  812MPD2     N12013   1.957   2.594  12.530 -0.3517 -0.1226  0.6976
  812MPD2    H512014   1.859   2.618  12.522  0.1141  1.0473 -1.4122
  812MPD2    N112015   1.974   2.755  12.067 -0.1093  0.8093  0.3830
  812MPD2    H712016   2.041   2.772  11.993 -1.0854  0.5406 -0.5724
  813MPD2     C12017   1.663   4.334  12.969  0.3879 -0.1187 -0.1939
  813MPD2    C112018   1.654   4.466  12.963 -0.5168 -0.2096  0.1565
  813MPD2    C212019   1.551   4.529  13.027  0.2960  0.3898  0.2871
  813MPD2    C312020   1.452   4.457  13.092 -0.0812 -0.1568 -0.4754
  813MPD2    C412021   1.451   4.319  13.076  0.7672  0.1130  0.2404
  813MPD2    C512022   1.560   4.261  13.022 -0.4055 -0.0076 -0.0020
  813MPD2     H12023   1.557   4.637  13.034 -0.0311  0.2439  2.7042
  813MPD2    H112024   1.390   4.251  13.133  0.7833 -1.1915 -1.3298
  813MPD2    H212025   1.736   4.286  12.905  0.3859 -1.0287  0.4879
  813MPD2    H312026   1.561   4.152  13.023  1.3478 -0.0084 -2.1838
  813MPD2     N12027   1.364   4.526  13.175  0.2817 -0.3913 -0.1479
  813MPD2    H512028   1.384   4.623  13.195  1.0345 -0.5045 -0.3367
  813MPD2    N112029   1.763   4.541  12.907  1.0445  0.7410 -0.6128
  813MPD2    H712030   1.845   4.491  12.874  0.0454 -0.9371 -0.5316
  814MPD2     C12031   1.661   1.187  12.427 -0.1449 -0.2087  0.0988
  814MPD2    C112032   1.712   1.260  12.317  0.4570  0.6911 -0.8724
  814MPD2    C212033   1.789   1.372  12.333 -0.9446  0.6594  0.1891
  814MPD2    C312034   1.841   1.406  12.456 -0.0584  0.1343 -0.1550
  814MPD2    C412035   1.801   1.333  12.563  0.3123  0.2743  0.1597
  814MPD2    C512036   1.706   1.235  12.553  0.2598 -0.2220 -0.4063
  814MPD2     H12037   1.818   1.432  12.248 -2.4387  0.5662 -0.3972
  814MPD2    H112038   1.835   1.363  12.662 -0.9125  2.2818 -0.0155
  814MPD2    H212039   1.584   1.112  12.423 -1.3170  1.0151 -0.3734
  814MPD2    H312040   1.683   1.183  12.645  0.5470 -0.6708 -0.5928
  814MPD2     N12041   1.922   1.518  12.481  0.3931 -0.3005  0.2705
  814MPD2    H512042   1.956   1.517  12.577  0.8220 -0.0729  0.1207
  814MPD2    N112043   1.683   1.224  12.181  0.5622 -0.1979 -0.4195
  814MPD2    H712044   1.712   1.290  12.109  4.3066 -0.4029  0.9225
  815MPD2     C12045   2.414   0.171  11.603 -0.2543 -0.1206 -0.4653
  815MPD2    C112046   2.432   0.045  11.623  1.0202 -0.8876  0.9948
  815MPD2    C212047   2.341   4.714  11.711  0.4766 -0.7118  0.7759
  815MPD2    C312048   2.231   0.036  11.757 -0.6558 -0.1867  1.0214
  815MPD2    C412049   2.218   0.166  11.726 -0.4998  1.1132 -0.1829
  815MPD2    C512050   2.314   0.241  11.666 -0.6816 -0.4950 -0.4813
  815MPD2     H12051   2.355   4.607  11.723  2.4817 -0.7305 -1.7176
  815MPD2    H112052   2.131   0.224  11.755 -0.6354 -0.6172  2.8505
  815MPD2    H212053   2.483   0.228  11.541  0.5514 -1.0172 -0.3896
  815MPD2    H312054   2.303   0.347  11.649 -1.4545 -0.2116  1.7579
  815MPD2     N12055   2.136   4.689  11.822 -0.1304 -0.0721  0.0074
  815MPD2    H512056   2.158   4.590  11.827  0.3753  0.0376 -0.0463
  815MPD2    N112057   2.538   4.713  11.552 -0.3863  0.3787 -0.0300
  815MPD2    H712058   2.574   0.027  11.470  0.2237 -0.5733 -0.3329
  816MPD2     C12059   3.078   3.921  16.998 -0.4842  0.0512 -0.4790
  816MPD2    C112060   3.006   3.951  16.884 -0.0943  0.3116  0.3477
  816MPD2    C212061   3.012   3.857  16.777  0.0943  1.0704  0.2948
  816MPD2    C312062   3.088   3.742  16.781  0.2475 -0.0568 -0.8624
  816MPD2    C412063   3.163   3.723  16.891  0.4673 -0.3764  0.0281
  816MPD2    C512064   3.159   3.811  16.992  0.5576  0.9176  0.1862
  816MPD2     H12065   2.960   3.877  16.684  0.6319 -0.9376 -0.4503
  816MPD2    H112066   3.226   3.636  16.908 -2.5633 -2.7748 -1.0736
  816MPD2    H212067   3.085   3.980  17.089 -1.1715 -2.4133  1.1927
  816MPD2    H312068   3.231   3.797  17.072 -0.9266 -1.5088  1.0668
  816MPD2     N12069   3.063   3.653  16.681  0.0346  0.3024 -0.5583
  816MPD2    H512070   3.004   3.686  16.605  0.3131  1.0111 -0.4657
  816MPD2    N112071   2.929   4.068  16.877  0.2076  0.3652 -0.1673
  816MPD2    H712072   2.930   4.132  16.956 -0.8135 -0.4007  0.4708
  817MPD2     C12073   1.334   0.239   9.937 -0.6482  0.7774 -1.0359
  817MPD2    C112074   1.350   0.229   9.800  1.0423 -0.4699 -0.2819
  817MPD2    C212075   1.281   0.311   9.716 -0.0936 -0.3580  0.2029
  817MPD2    C312076   1.190   0.407   9.766  0.0458  0.1412 -0.0145
  817MPD2    C412077   1.174   0.411   9.904 -0.0803  0.1171  1.0413
  817MPD2    C512078   1.249   0.333   9.983 -0.1261 -0.0393 -0.4241
  817MPD2     H12079   1.307   0.317   9.611  1.2952  0.7954  0.6051
  817MPD2    H112080   1.102   0.481   9.946 -1.9429 -0.5810 -0.9446
  817MPD2    H212081   1.375   0.167  10.008  0.4536  0.7005 -1.7447
  817MPD2    H312082   1.226   0.323  10.088  1.1454 -0.8647 -0.2295
  817MPD2     N12083   1.136   0.495   9.667 -0.4635 -0.1864  0.6387
  817MPD2    H512084   1.155   0.466   9.572 -0.7189  1.5284  0.0592
  817MPD2    N112085   1.446   0.138   9.735  0.7087 -0.4448  0.7533
  817MPD2    H712086   1.465   0.150   9.636 -1.8994  1.0672  0.4183
  818MPD2     C12087   0.360   0.539   9.829  0.6376 -0.4292  0.3992
  818MPD2    C112088   0.313   0.472   9.944  0.2572 -0.1188  0.4442
  818MPD2    C212089   0.286   0.340   9.931 -0.5091 -0.3436  0.4324
  818MPD2    C312090   0.295   0.274   9.806  0.6125  0.4433 -0.2677
  818MPD2    C412091   0.335   0.341   9.688 -0.8697  0.0123  0.0190
  818MPD2    C512092   0.361   0.475   9.702  0.3116 -0.0044 -0.1628
  818MPD2     H12093   0.250   0.289  10.020  0.7785 -2.3480 -0.1901
  818MPD2    H112094   0.325   0.291   9.592  1.5935 -0.2280 -0.1031
  818MPD2    H212095   0.380   0.645   9.838  2.4476 -0.3425 -4.4867
  818MPD2    H312096   0.386   0.538   9.617  0.2325  0.9800  0.5335
  818MPD2     N12097   0.279   0.133   9.796  0.1464  0.9990 -0.0338
  818MPD2    H512098   0.287   0.092   9.703  0.7659 -2.5292  1.5836
  818MPD2    N112099   0.291   0.537  10.067 -0.6371 -0.3730 -0.3035
  818MPD2    H712100   0.259   0.476  10.142  1.1364 -2.0878 -0.9334
  819MPD2     C12101   3.836   2.173  15.348  0.5029 -0.0188 -0.5140
  819MPD2    C112102   3.849   2.035  15.345 -0.5608  0.3158  0.1805
  819MPD2    C212103   3.935   1.980  15.442  0.9564  0.4161  0.2670
  819MPD2    C312104   4.014   2.054  15.518 -0.0762 -0.2543 -0.5869
  819MPD2    C412105   4.000   2.188  15.514 -0.0482  0.3779  0.2437
  819MPD2    C512106   3.912   2.244  15.434  0.1254 -0.3223  0.1991
  819MPD2     H12107   3.945   1.872  15.440 -1.2085  0.2304  0.1186
  819MPD2    H112108   4.061   2.256  15.572  2.0959 -2.2230  1.0549
  819MPD2    H212109   3.761   2.229  15.293  0.0090  0.0288  0.2007
  819MPD2    H312110   3.905   2.352  15.427  0.1110 -0.2625  1.1318
  819MPD2     N12111   4.109   1.984  15.587 -0.1720  0.1012  0.2312
  819MPD2    H512112   4.096   1.884  15.577  0.5233 -0.1379  1.6288
  819MPD2    N112113   3.770   1.962  15.257 -0.4412  0.0710 -0.1376
  819MPD2    H712114   3.710   2.021  15.200 -0.2300  0.9314  0.5367
  820MPD2     C12115   3.153   1.969  14.507  0.2456 -0.4444  0.8789
  820MPD2    C112116   3.201   2.063  14.598 -0.1189 -0.2896  0.0502
  820MPD2    C212117   3.247   2.013  14.716  0.0424 -0.4430 -0.1918
  820MPD2    C312118   3.251   1.881  14.757 -0.6895  0.6472  0.1569
  820MPD2    C412119   3.195   1.789  14.668 -0.0744  0.2792  0.5398
  820MPD2    C512120   3.141   1.838  14.547  0.4981 -0.2872  0.4002
  820MPD2     H12121   3.301   2.080  14.783  1.1217 -1.0949 -0.4122
  820MPD2    H112122   3.188   1.683  14.687 -2.1149  0.0959 -1.2657
  820MPD2    H212123   3.106   1.998  14.414  1.1112  1.5502  1.0602
  820MPD2    H312124   3.093   1.764  14.484  1.5294 -0.6967  0.1008
  820MPD2     N12125   3.316   1.839  14.872 -0.5853 -0.0793 -0.4518
  820MPD2    H512126   3.330   1.738  14.874 -1.7922 -0.2182  0.7910
  820MPD2    N112127   3.202   2.200  14.566 -0.5166 -0.4689  0.7438
  820MPD2    H712128   3.161   2.223  14.476 -0.0116  1.0449  0.9039
  821MPD2     C12129   3.652   3.748  13.226  0.9124  0.6926  0.6435
  821MPD2    C112130   3.743   3.728  13.332 -0.2034 -0.2128 -0.0883
  821MPD2    C212131   3.874   3.775  13.324 -0.0414 -0.2633 -0.0771
  821MPD2    C312132   3.914   3.840  13.207  0.3594  0.7519 -0.0578
  821MPD2    C412133   3.828   3.868  13.103 -0.7787  0.4047  0.0873
  821MPD2    C512134   3.696   3.820  13.117 -0.2759  0.4774 -0.0696
  821MPD2     H12135   3.942   3.749  13.404  1.3876  0.4442 -1.0501
  821MPD2    H112136   3.857   3.917  13.011 -1.6187 -1.9087 -1.4108
  821MPD2    H212137   3.548   3.718  13.230  1.0119  0.2236 -0.2073
  821MPD2    H312138   3.633   3.825  13.030  0.9411  1.6137 -0.8812
  821MPD2     N12139   4.051   3.876  13.189  0.3884  0.1589  0.1467
  821MPD2    H512140   4.063   3.928  13.103  0.0520  0.4294  0.2629
  821MPD2    N112141   3.709   3.648  13.446 -0.2355 -0.6138 -0.3231
  821MPD2    H712142   3.782   3.632  13.514 -0.1787 -0.3121 -0.3129
  822MPD2     C12143   0.353   3.388  15.767 -0.1035  0.2753  0.2665
  822MPD2    C112144   0.326   3.363  15.902  0.4704  0.3161 -0.0655
  822MPD2    C212145   0.223   3.422  15.974 -0.1919  0.2582 -0.2939
  822MPD2    C312146   0.148   3.514  15.908 -0.0752 -0.1303 -0.3304
  822MPD2    C412147   0.169   3.542  15.772 -0.7379  0.4705  0.5079
  822MPD2    C512148   0.276   3.484  15.702  0.5027  0.2032  0.3409
  822MPD2     H12149   0.200   3.406  16.079 -1.1873 -1.1073 -0.7159
  822MPD2    H112150   0.107   3.609  15.714 -0.5237  0.5214  0.3349
  822MPD2    H212151   0.433   3.340  15.712 -1.0927 -0.7688 -0.2568
  822MPD2    H312152   0.293   3.510  15.598  1.2838  1.5179  0.8033
  822MPD2     N12153   0.046   3.584  15.983  0.4521 -1.0386 -0.6685
  822MPD2    H512154   0.035   3.560  16.081  0.0543 -0.0407 -0.4663
  822MPD2    N112155   0.403   3.278  15.980 -0.0355  0.0021 -0.0742
  822MPD2    H712156   0.378   3.275  16.078 -2.4333  0.5183 -0.6666
  823MPD2     C12157   4.233   3.940  16.603 -0.1096  0.2256  0.5668
  823MPD2    C112158   4.318   3.857  16.537 -0.7675 -0.2108 -0.6395
  823MPD2    C212159   4.352   3.746  16.609  0.2073 -0.2782  0.2078
  823MPD2    C312160   4.324   3.723  16.739  0.0314 -0.1876  0.3976
  823MPD2    C412161   4.249   3.811  16.809  0.5792 -0.2065 -0.2342
  823MPD2    C512162   4.199   3.915  16.736  0.2614  0.0614  0.0285
  823MPD2     H12163   4.422   3.681  16.557  1.8508  2.0500 -0.4689
  823MPD2    H112164   4.222   3.807  16.914  0.6370  1.0814 -0.1673
  823MPD2    H212165   4.200   4.034  16.561  0.3801 -0.1581 -0.6743
  823MPD2    H312166   4.133   3.974  16.797 -1.9756  0.2569 -2.5936
  823MPD2     N12167   4.387   3.624  16.814 -0.4966 -0.2381 -0.5366
  823MPD2    H512168   4.379   3.637  16.914 -1.2206  1.8196 -0.8671
  823MPD2    N112169   4.360   3.873  16.403 -0.9627  0.3838  0.2326
  823MPD2    H712170   4.349   3.965  16.361 -2.4136 -0.5354 -1.4137
  824MPD2     C12171   0.840   2.505  16.023 -0.5588  0.2084  0.1589
  824MPD2    C112172   0.835   2.618  15.949 -0.0731  1.0172  0.4052
  824MPD2    C212173   0.906   2.630  15.836  0.3746 -0.4686 -0.8843
  824MPD2    C312174   0.966   2.519  15.781  1.1484  0.1123 -0.1450
  824MPD2    C412175   0.970   2.403  15.854 -0.0486  0.0292 -0.0445
  824MPD2    C512176   0.907   2.394  15.973 -0.4339 -0.2971 -0.0300
  824MPD2     H12177   0.907   2.720  15.777  2.0418  1.2888  1.8178
  824MPD2    H112178   1.027   2.317  15.823 -1.8181 -0.3492 -2.3065
  824MPD2    H212179   0.801   2.490  16.123 -0.5579 -0.4559  0.0541
  824MPD2    H312180   0.920   2.308  16.038 -0.1399  1.6293  2.4776
  824MPD2     N12181   1.022   2.524  15.653 -0.2501  0.4732  0.4797
  824MPD2    H512182   1.033   2.619  15.619 -1.8198 -0.1448 -1.7237
  824MPD2    N112183   0.768   2.736  15.988 -0.7086  0.0315  0.3518
  824MPD2    H712184   0.772   2.811  15.919  0.9902 -0.7163 -0.3662
  825MPD2     C12185   1.560   2.926  15.498  0.1844 -0.0561 -0.8787
  825MPD2    C112186   1.447   2.915  15.432 -0.4133  0.1725 -0.5931
  825MPD2    C212187   1.391   3.031  15.379  0.0302 -0.5399  0.7427
  825MPD2    C312188   1.456   3.158  15.386  0.7720 -0.3893 -0.0449
  825MPD2    C412189   1.583   3.156  15.439 -0.1724 -0.6482  0.1942
  825MPD2    C512190   1.629   3.045  15.502 -1.1145  0.3365 -0.5545
  825MPD2     H12191   1.296   3.027  15.327  0.3523  1.3656  0.0095
  825MPD2    H112192   1.648   3.243  15.442 -2.5111  1.0796  0.6321
  825MPD2    H212193   1.594   2.836  15.546 -1.6780  0.1836  0.8999
  825MPD2    H312194   1.722   3.043  15.557 -0.6480  0.0141 -1.3460
  825MPD2     N12195   1.395   3.278  15.347 -0.4717 -0.1338 -0.3026
  825MPD2    H512196   1.437   3.366  15.377  1.7697 -0.8381 -1.3682
  825MPD2    N112197   1.392   2.789  15.419  0.5759 -0.3132  0.5603
  825MPD2    H712198   1.444   2.716  15.467  0.5776 -0.8423 -0.2358
  826MPD2     C12199   0.095   2.587  13.830 -0.2344 -0.2032 -0.3038
  826MPD2    C112200   0.158   2.702  13.789 -0.6598 -0.2041 -0.8681
  826MPD2    C212201   0.116   2.821  13.834 -0.2272  0.3001 -0.7339
  826MPD2    C312202   0.031   2.832  13.937 -0.4476 -0.2773 -0.2416
  826MPD2    C412203   4.711   2.719  13.988  0.0116 -0.1143  0.2695
  826MPD2    C512204   0.001   2.597  13.926  0.7947 -0.2165 -0.0206
  826MPD2     H12205   0.155   2.912  13.790  2.6444 -0.9164 -0.7333
  826MPD2    H112206   4.638   2.727  14.068  0.0156  0.4978  0.2142
  826MPD2    H212207   0.129   2.489  13.796  2.2755  0.3871  0.5102
  826MPD2    H312208   4.703   2.503  13.969  0.8427 -0.3802 -0.3436
  826MPD2     N12209   4.712   2.955  13.986 -0.6523 -0.0623 -0.7671
  826MPD2    H512210   4.647   2.945  14.062  2.8067  1.0301  2.3232
  826MPD2    N112211   0.265   2.684  13.700 -0.9787  0.4442 -0.2205
  826MPD2    H712212   0.267   2.587  13.669 -0.2008 -0.3164  2.2011
  827MPD2     C12213   0.986   4.399  10.200 -0.8351  0.0070  0.0653
  827MPD2    C112214   0.990   4.286  10.285 -1.0948 -0.0871 -0.0014
  827MPD2    C212215   0.892   4.189  10.267  0.3279  0.1871  1.0007
  827MPD2    C312216   0.785   4.207  10.172  0.5043 -0.6473 -0.7835
  827MPD2    C412217   0.793   4.314  10.091  0.2262  0.1445 -0.1766
  827MPD2    C512218   0.889   4.414  10.107  0.1973 -0.1770  0.3585
  827MPD2     H12219   0.892   4.105  10.336  1.3343 -0.4127  0.2665
  827MPD2    H112220   0.725   4.340  10.011  1.2426  1.2387 -0.6927
  827MPD2    H212221   1.053   4.481  10.221 -1.2499  0.4261 -0.2526
  827MPD2    H312222   0.883   4.511  10.058  2.0897 -0.0236  0.4224
  827MPD2     N12223   0.685   4.108  10.161  0.2484 -0.2161 -0.0827
  827MPD2    H512224   0.675   4.047  10.241  0.6720  3.1135  2.4965
  827MPD2    N112225   1.105   4.273  10.376 -0.2548  0.1336  0.1216
  827MPD2    H712226   1.186   4.332  10.363  0.2301 -0.1442  1.9247
  828MPD2     C12227   4.301   4.004  12.672 -0.3074  0.3885  0.1438
  828MPD2    C112228   4.251   3.998  12.544 -0.5242 -0.8368  0.6105
  828MPD2    C212229   4.351   3.972  12.445 -0.3591 -0.5415 -0.2714
  828MPD2    C312230   4.491   3.961  12.474  0.0907 -0.0850 -0.4242
  828MPD2    C412231   4.529   3.963  12.611 -0.1995 -0.5933  0.2667
  828MPD2    C512232   4.438   3.999  12.701  0.3395  0.4733 -0.3846
  828MPD2     H12233   4.314   3.942  12.347 -2.8813 -4.7379  1.9423
  828MPD2    H112234   4.633   3.943  12.634  0.8087  2.1670 -1.9054
  828MPD2    H212235   4.234   4.029  12.753  0.7334  0.0070  1.1262
  828MPD2    H312236   4.465   4.013  12.805 -2.7492 -0.7055  0.5757
  828MPD2     N12237   4.589   3.946  12.373 -0.1332 -0.8193 -0.1092
  828MPD2    H512238   4.683   3.921  12.404  0.7229  2.1621 -0.3005
  828MPD2    N112239   4.110   3.991  12.513  0.1569 -0.7914 -0.3597
  828MPD2    H712240   4.080   3.977  12.417  0.8895  0.0617 -0.7112
  829MPD2     C12241   3.607   4.157  11.761 -0.2732  0.3328  0.7897
  829MPD2    C112242   3.531   4.078  11.842  0.6805  0.2425  0.0018
  829MPD2    C212243   3.573   4.042  11.971 -0.0893  0.5831 -0.2595
  829MPD2    C312244   3.693   4.090  12.022  0.5792 -0.1056 -0.1267
  829MPD2    C412245   3.773   4.165  11.936 -0.7426 -0.2717  0.5230
  829MPD2    C512246   3.729   4.191  11.806  0.6203 -0.2930  0.3335
  829MPD2     H12247   3.512   3.972  12.027 -0.9374  1.6836  0.1770
  829MPD2    H112248   3.871   4.200  11.966 -0.4456 -0.7120  0.0609
  829MPD2    H212249   3.575   4.176  11.659  2.6974  1.8661  0.1502
  829MPD2    H312250   3.798   4.234  11.733  0.2248 -2.4050 -1.2765
  829MPD2     N12251   3.737   4.090  12.157 -0.0467 -0.1664  0.6710
  829MPD2    H512252   3.822   4.144  12.172 -0.5416  0.4027  1.4141
  829MPD2    N112253   3.408   4.031  11.781  0.4222 -0.2267 -0.3842
  829MPD2    H712254   3.381   4.077  11.695  0.5786 -0.0814 -0.3558
  830MPD2     C12255   0.109   1.691  15.803 -0.0915  0.1706  0.0211
  830MPD2    C112256   0.009   1.753  15.730  0.4566  0.1125  0.3922
  830MPD2    C212257   0.033   1.881  15.680  0.2476  0.5721 -0.5657
  830MPD2    C312258   0.153   1.943  15.697  0.2987  0.1980 -0.5301
  830MPD2    C412259   0.253   1.882  15.780  1.1313  0.3650 -0.3694
  830MPD2    C512260   0.229   1.757  15.826 -0.3107  0.6977  0.4152
  830MPD2     H12261   4.687   1.931  15.629  0.3015  0.5204 -0.7035
  830MPD2    H112262   0.350   1.929  15.793  0.9711  0.8244 -0.8414
  830MPD2    H212263   0.095   1.599  15.860 -2.0542  0.9580  0.8024
  830MPD2    H312264   0.304   1.720  15.895 -0.2530 -0.8525 -0.4818
  830MPD2     N12265   0.192   2.072  15.647 -0.4328 -0.1746  0.4978
  830MPD2    H512266   0.282   2.112  15.671 -0.9658  0.8864  0.6754
  830MPD2    N112267   4.619   1.700  15.728  0.1777 -0.1364 -0.5046
  830MPD2    H712268   4.603   1.614  15.780  0.9877  0.2612  0.4025
  831MPD2     C12269   0.179   3.809  16.387 -0.9322  0.0293 -0.3225
  831MPD2    C112270   0.222   3.698  16.319  0.2739 -0.1886 -0.4350
  831MPD2    C212271   0.139   3.591  16.314  0.9216  0.3522  0.0841
  831MPD2    C312272   0.021   3.592  16.391 -0.1538 -0.3717 -0.2536
  831MPD2    C412273   4.727   3.698  16.471  1.0455  0.6866  0.2070
  831MPD2    C512274   0.071   3.808  16.472 -1.3080 -0.7851  0.3156
  831MPD2     H12275   0.167   3.512  16.245  2.1840  0.9900 -0.1326
  831MPD2    H112276   4.643   3.688  16.539  0.4961  0.4307 -0.5002
  831MPD2    H212277   0.246   3.895  16.383 -2.1170  1.0010  0.7633
  831MPD2    H312278   0.032   3.887  16.535  1.6596  0.2987  0.8216
  831MPD2     N12279   4.666   3.484  16.397  0.0753 -0.0303 -0.5326
  831MPD2    H512280   4.601   3.490  16.474  1.2663  0.7673  0.4189
  831MPD2    N112281   0.341   3.702  16.247  0.0674 -0.1977 -0.8756
  831MPD2    H712282   0.379   3.796  16.242  1.2242 -0.5711  1.1503
  832MPD2     C12283   3.610   0.080  17.086 -0.3102  0.8794 -0.6403
  832MPD2    C112284   3.597   0.217  17.071  0.0808  0.1622  0.0046
  832MPD2    C212285   3.511   0.263  16.970 -0.5917 -0.7568  0.3639
  832MPD2    C312286   3.427   0.175  16.902  0.5642  0.0597  0.3956
  832MPD2    C412287   3.443   0.043  16.922  0.3032  0.2460  0.1545
  832MPD2    C512288   3.540   4.734  17.008  0.7168 -0.7425 -0.7466
  832MPD2     H12289   3.494   0.370  16.968  0.0434 -0.6628 -0.1609
  832MPD2    H112290   3.396   4.700  16.864 -0.6170  0.3311  0.7777
  832MPD2    H212291   3.683   0.044  17.157 -0.8587  1.3242  0.1523
  832MPD2    H312292   3.553   4.628  17.024 -0.1260 -0.5550  1.2297
  832MPD2     N12293   3.333   0.227  16.811  0.2158 -0.4180  0.3212
  832MPD2    H512294   3.267   0.156  16.779  1.3399 -1.2014 -0.2523
  832MPD2    N112295   3.669   0.301  17.157  0.3743  0.4243 -0.0947
  832MPD2    H712296   3.718   0.259  17.235  0.2159 -1.6259 -1.1045
  833MPD2     C12297   0.466   1.501  12.627  0.3433  0.0376 -0.0037
  833MPD2    C112298   0.459   1.572  12.509  0.2957  0.3888 -0.1672
  833MPD2    C212299   0.549   1.532  12.414  0.2354 -0.2403 -0.5723
  833MPD2    C312300   0.648   1.443  12.434  0.4684 -0.4311 -0.0204
  833MPD2    C412301   0.646   1.368  12.544 -0.6470 -0.2725  0.2628
  833MPD2    C512302   0.564   1.403  12.646 -0.0333 -0.4442  0.4531
  833MPD2     H12303   0.541   1.582  12.318  1.3196  2.2413  0.6214
  833MPD2    H112304   0.711   1.283  12.564 -0.0456 -0.3844 -2.2454
  833MPD2    H212305   0.411   1.528  12.716 -0.3581  0.2919 -0.5115
  833MPD2    H312306   0.575   1.357  12.744 -3.5675  1.2884  1.6394
  833MPD2     N12307   0.739   1.416  12.331  0.2192 -0.0461  0.3236
  833MPD2    H512308   0.764   1.317  12.326 -2.1902 -0.5145 -2.3914
  833MPD2    N112309   0.343   1.652  12.483 -0.0051  0.6069  0.2517
  833MPD2    H712310   0.277   1.665  12.559 -0.6819  0.1858 -0.2603
  834MPD2     C12311   0.543   0.649  11.791  0.6686 -0.0367  0.3262
  834MPD2    C112312   0.564   0.746  11.693  0.2046  0.4028  0.1473
  834MPD2    C212313   0.560   0.884  11.716 -0.2269 -0.0791  0.0271
  834MPD2    C312314   0.554   0.924  11.848  0.4019  0.3586  0.0725
  834MPD2    C412315   0.532   0.830  11.942 -0.5015  0.6202 -0.3569
  834MPD2    C512316   0.526   0.695  11.912 -0.5887 -0.2710  0.2450
  834MPD2     H12317   0.563   0.956  11.635 -0.8241 -0.7275 -0.5638
  834MPD2    H112318   0.521   0.853  12.047  2.6207 -1.6546  0.4422
  834MPD2    H212319   0.544   0.543  11.765  0.8099 -0.3708  1.6791
  834MPD2    H312320   0.511   0.625  11.993 -0.9212  0.6405  0.9752
  834MPD2     N12321   0.564   1.064  11.875 -0.2171 -0.5513  0.6339
  834MPD2    H512322   0.549   1.121  11.793 -0.9043  1.6526  2.2823
  834MPD2    N112323   0.598   0.690  11.568  0.5256  0.2404  0.2328
  834MPD2    H712324   0.604   0.589  11.561 -1.8792  0.0685  0.5639
  835MPD2     C12325   0.329   4.309  10.923  0.1399  0.0101  0.0155
  835MPD2    C112326   0.241   4.297  11.027  0.2798  0.1438 -0.3759
  835MPD2    C212327   0.291   4.316  11.155  0.0493 -0.0347 -0.6108
  835MPD2    C312328   0.430   4.306  11.180  0.1207  0.1460 -0.5668
  835MPD2    C412329   0.512   4.301  11.070  0.6456 -0.2168 -0.3559
  835MPD2    C512330   0.464   4.303  10.944 -1.2365  0.4945  0.4379
  835MPD2     H12331   0.219   4.332  11.234  0.2973 -0.1380 -0.3635
  835MPD2    H112332   0.620   4.295  11.078  0.6603  0.1462 -0.3046
  835MPD2    H212333   0.309   4.316  10.817  0.2117  3.1446  0.2156
  835MPD2    H312334   0.522   4.302  10.852 -1.5686 -1.7656  0.2561
  835MPD2     N12335   0.483   4.299  11.313 -0.4488 -0.1318 -0.1560
  835MPD2    H512336   0.584   4.302  11.314 -0.3800 -3.4256  0.8725
  835MPD2    N112337   0.103   4.300  11.006 -0.2120  0.2456 -0.1186
  835MPD2    H712338   0.046   4.286  11.089 -1.0856  1.7747 -0.4489
  836MPD2     C12339   4.726   4.210  11.615 -0.2728 -0.0779  0.0652
  836MPD2    C112340   0.054   4.227  11.735 -0.4442  0.7542 -0.4720
  836MPD2    C212341   4.724   4.242  11.855  0.8366  0.1221  0.2274
  836MPD2    C312342   4.584   4.237  11.845 -1.2338  0.3959 -0.1015
  836MPD2    C412343   4.521   4.235  11.724  0.6053 -0.5172  0.6345
  836MPD2    C512344   4.591   4.205  11.613 -0.2389 -0.4172 -0.6703
  836MPD2     H12345   0.038   4.247  11.951  1.6554 -0.4726 -0.1559
  836MPD2    H112346   4.413   4.241  11.715  0.6673  0.0430  0.2429
  836MPD2    H212347   0.060   4.199  11.532  0.9521  1.1743  0.9135
  836MPD2    H312348   4.539   4.193  11.518  0.4811 -0.0764 -1.1027
  836MPD2     N12349   4.499   4.268  11.961 -0.0444  0.0106  1.0290
  836MPD2    H512350   4.398   4.277  11.952  0.0448 -0.2209 -0.3057
  836MPD2    N112351   0.194   4.243  11.724 -0.7941  0.4143 -0.1277
  836MPD2    H712352   0.233   4.254  11.631  0.0144  0.2363  0.1917
  837MPD2     C12353   3.354   4.094  10.220  0.2929 -0.2246 -0.3217
  837MPD2    C112354   3.253   4.109  10.138 -0.2399 -0.6589  0.0644
  837MPD2    C212355   3.216   4.235  10.098  0.4567 -0.4200 -0.2167
  837MPD2    C312356   3.274   4.341  10.149  0.8515  0.6098  0.6304
  837MPD2    C412357   3.385   4.326  10.228  0.4913  0.8174 -0.2927
  837MPD2    C512358   3.422   4.202  10.262 -0.2925  0.3591  0.6707
  837MPD2     H12359   3.146   4.244  10.015 -1.1787 -0.7738  1.1236
  837MPD2    H112360   3.443   4.403  10.279  1.5453 -0.8475  1.0301
  837MPD2    H212361   3.386   3.996  10.254  1.2758  0.1885 -0.0323
  837MPD2    H312362   3.502   4.198  10.336 -2.2320 -0.2971  2.7091
  837MPD2     N12363   3.224   4.460  10.103 -0.1386 -0.1158  0.1852
  837MPD2    H512364   3.147   4.451  10.037  0.8430  0.0243 -0.9905
  837MPD2    N112365   3.192   4.001  10.071 -0.2157  0.1322 -0.2561
  837MPD2    H712366   3.116   4.027  10.010  2.6871  3.4904 -2.4930
  838MPD2     C12367   1.778   2.258  12.294  0.6375  0.3949 -0.3736
  838MPD2    C112368   1.705   2.173  12.213  0.4743  0.1476 -0.0845
  838MPD2    C212369   1.602   2.095  12.274 -0.0163  0.2744 -0.7504
  838MPD2    C312370   1.573   2.107  12.404  0.1433  0.0794  0.5939
  838MPD2    C412371   1.644   2.191  12.481  1.2226  0.1120 -0.9807
  838MPD2    C512372   1.752   2.256  12.427  0.0079  0.2145  0.0798
  838MPD2     H12373   1.551   2.023  12.211  1.1701 -1.6039  0.4390
  838MPD2    H112374   1.648   2.186  12.589 -1.4985 -0.0536 -0.8871
  838MPD2    H212375   1.864   2.314  12.257  1.1480 -0.4533 -0.4741
  838MPD2    H312376   1.819   2.307  12.494  3.7723 -0.7731 -2.9340
  838MPD2     N12377   1.470   2.026  12.452 -0.3500  0.2560  0.0285
  838MPD2    H512378   1.414   1.972  12.387  0.0664  0.0569 -0.1651
  838MPD2    N112379   1.725   2.155  12.076  0.0017  0.2572 -0.0180
  838MPD2    H712380   1.661   2.091  12.030 -0.1561 -0.0901  0.6788
  839MPD2     C12381   1.437   1.444  11.891 -0.0338 -0.4467  0.4384
  839MPD2    C112382   1.480   1.467  11.758 -0.2658  0.3250 -0.5456
  839MPD2    C212383   1.563   1.577  11.737 -0.6507 -0.0665 -0.1582
  839MPD2    C312384   1.587   1.667  11.836 -0.0589 -0.5532 -0.4002
  839MPD2    C412385   1.537   1.645  11.961  0.2450  0.6113 -0.8886
  839MPD2    C512386   1.457   1.540  11.992  0.1921 -0.3924 -0.1452
  839MPD2     H12387   1.612   1.579  11.641 -1.0948 -1.4311 -0.4281
  839MPD2    H112388   1.548   1.720  12.038 -1.7937 -1.2359  1.1968
  839MPD2    H212389   1.372   1.360  11.913 -3.0020  1.6012 -0.5125
  839MPD2    H312390   1.415   1.529  12.091 -2.6393 -0.5770 -1.3789
  839MPD2     N12391   1.658   1.779  11.821 -0.2922 -0.0272  0.1116
  839MPD2    H512392   1.642   1.850  11.892 -0.7810 -0.5583  0.5337
  839MPD2    N112393   1.460   1.375  11.649  0.4539  0.3777  0.2518
  839MPD2    H712394   1.515   1.391  11.565 -0.9605 -0.4534 -0.8144
  840MPD2     C12395   1.666   4.434  10.185 -0.3183 -0.3678 -0.1266
  840MPD2    C112396   1.690   4.369  10.305 -0.3465  0.0319  0.2884
  840MPD2    C212397   1.813   4.389  10.367  0.1529 -0.0556  0.5717
  840MPD2    C312398   1.913   4.469  10.318 -0.0400 -0.6915  0.0640
  840MPD2    C412399   1.889   4.533  10.197  0.2309 -0.0030  0.1373
  840MPD2    C512400   1.768   4.516  10.134 -0.5694  0.3029 -0.6833
  840MPD2     H12401   1.831   4.342  10.463  2.2001  1.8488  1.0981
  840MPD2    H112402   1.969   4.589  10.149  1.2784 -1.0885  0.6545
  840MPD2    H212403   1.570   4.429  10.136 -0.0324  0.2293 -0.7563
  840MPD2    H312404   1.743   4.578  10.048  1.3927 -0.6462 -1.9297
  840MPD2     N12405   2.032   4.507  10.385 -0.1295  0.3541  0.2426
  840MPD2    H512406   2.092   4.569  10.331  1.6129 -1.8884 -0.3957
  840MPD2    N112407   1.582   4.295  10.364 -0.6812  0.3571  0.7245
  840MPD2    H712408   1.493   4.289  10.316  0.2157 -1.8290 -0.6976
  841MPD2     C12409   1.968   3.562  14.146 -0.0160 -0.2756  0.9526
  841MPD2    C112410   1.903   3.580  14.264  0.5974  0.1615 -0.2935
  841MPD2    C212411   1.960   3.673  14.349 -1.2107  0.2749  0.1233
  841MPD2    C312412   2.073   3.741  14.320 -0.0635 -0.2914 -0.3962
  841MPD2    C412413   2.135   3.730  14.196  0.0499 -0.4278 -0.2213
  841MPD2    C512414   2.087   3.626  14.120  0.0532 -0.8467 -0.6355
  841MPD2     H12415   1.909   3.697  14.442  0.0209  0.0248  0.8614
  841MPD2    H112416   2.219   3.791  14.163 -0.1528 -0.8442 -1.5243
  841MPD2    H212417   1.932   3.488  14.077 -1.1427  1.5518 -0.4257
  841MPD2    H312418   2.138   3.599  14.028  1.0573 -1.9105  0.2222
  841MPD2     N12419   2.105   3.850  14.412 -0.0248  0.6239  0.1006
  841MPD2    H512420   2.051   3.858  14.498  0.0514  1.9062  0.0244
  841MPD2    N112421   1.787   3.509  14.298  0.1246 -0.2449 -0.0069
  841MPD2    H712422   1.758   3.450  14.221  1.5470 -0.8346 -0.1024
  842MPD2     C12423   1.876   4.719  16.185 -0.0207  0.0453  0.0351
  842MPD2    C112424   1.922   0.104  16.237 -0.5942 -0.2529  0.3772
  842MPD2    C212425   2.020   0.100  16.339  0.5187  0.0373  0.2867
  842MPD2    C312426   2.062   4.711  16.391  0.7399 -0.0031  0.1213
  842MPD2    C412427   2.013   4.593  16.340  0.4392  0.9120  0.4746
  842MPD2    C512428   1.916   4.598  16.240  0.3525 -0.5346  0.7044
  842MPD2     H12429   2.037   0.196  16.386 -1.7287  0.3694  0.3980
  842MPD2    H112430   2.045   4.493  16.368 -0.8278 -0.1604 -1.8609
  842MPD2    H212431   1.802   4.709  16.106 -2.1130 -1.1249  2.1082
  842MPD2    H312432   1.870   4.506  16.204 -1.7812  0.2125  1.5189
  842MPD2     N12433   2.157   4.700  16.497 -0.7927  0.6654  0.3178
  842MPD2    H512434   2.165   4.610  16.543 -1.4257 -1.2003 -3.2894
  842MPD2    N112435   1.874   0.221  16.181  0.6999 -0.0680 -0.8866
  842MPD2    H712436   1.786   0.216  16.131 -0.6696  0.7950  1.4820
  843MPD2     C12437   4.732   1.166   0.254 -0.8114  0.3500 -0.9515
  843MPD2    C112438   4.644   1.264   0.301 -0.0699 -0.3859 -0.0515
  843MPD2    C212439   4.675   1.395   0.276 -0.4149  0.1219 -0.5271
  843MPD2    C312440   0.044   1.429   0.200  0.3381  0.7987  0.2693
  843MPD2    C412441   0.131   1.329   0.154  0.1136 -0.9901 -0.2900
  843MPD2    C512442   0.104   1.198   0.173  0.7804 -0.3025  0.0293
  843MPD2     H12443   4.602   1.469   0.308  1.3958  1.8080 -0.2763
  843MPD2    H112444   0.210   1.355   0.086  0.6382 -1.5317  0.1115
  843MPD2    H212445   4.710   1.062   0.274  1.0076  0.2821  0.6929
  843MPD2    H312446   0.165   1.119   0.130  0.3521 -0.7133  0.1742
  843MPD2     N12447   0.082   1.564   0.182 -0.2423  0.1625 -0.2491
  843MPD2    H512448   0.171   1.578   0.135 -0.6608 -0.7071 -1.3081
  843MPD2    N112449   4.549   1.227   0.399  0.2882 -0.4357 -0.1172
  843MPD2    H712450   4.558   1.130   0.427 -1.6945 -0.8262 -0.8419
  844MPD2     C12451   3.000   4.248  16.509  0.0362 -0.3595  0.3823
  844MPD2    C112452   2.988   4.352  16.414 -0.3799 -0.1310  0.6277
  844MPD2    C212453   3.089   4.452  16.421 -1.6229  0.2460 -0.6595
  844MPD2    C312454   3.192   4.439  16.510  0.8125 -0.3821  0.5218
  844MPD2    C412455   3.207   4.329  16.588 -0.3172 -0.0056 -0.0699
  844MPD2    C512456   3.105   4.239  16.595  0.2771 -0.2462  0.6273
  844MPD2     H12457   3.080   4.544  16.365  0.6972  0.9853  0.1787
  844MPD2    H112458   3.291   4.316  16.655 -0.2184  0.3612 -0.1214
  844MPD2    H212459   2.917   4.178  16.517 -1.6224  1.2022 -3.3863
  844MPD2    H312460   3.113   4.154  16.661 -1.8523 -0.5651  0.4849
  844MPD2     N12461   3.284   4.551  16.513 -0.5000 -0.4396  0.7743
  844MPD2    H512462   3.258   4.641  16.475 -1.7716 -1.5453 -0.9752
  844MPD2    N112463   2.876   4.356  16.320  0.3943  0.0522  0.1865
  844MPD2    H712464   2.878   4.426  16.247 -0.5673 -0.8253 -0.6706
  845MPD2     C12465   3.462   0.780  16.267 -0.1745 -0.3686  0.0434
  845MPD2    C112466   3.506   0.769  16.398  0.6055 -0.2223 -0.2309
  845MPD2    C212467   3.530   0.646  16.452 -0.1011  0.0491  0.6197
  845MPD2    C312468   3.503   0.527  16.388  0.1400 -0.2485 -0.0658
  845MPD2    C412469   3.454   0.543  16.261 -0.3022  0.0928 -0.4360
  845MPD2    C512470   3.437   0.666  16.198  0.4907  0.4234  0.5548
  845MPD2     H12471   3.577   0.642  16.550  0.2729 -0.9982  0.3917
  845MPD2    H112472   3.447   0.453  16.201  1.0904  0.0908 -0.5933
  845MPD2    H212473   3.446   0.878  16.222 -0.7460  0.2712  1.6518
  845MPD2    H312474   3.410   0.664  16.093  2.0229  2.8278  0.0924
  845MPD2     N12475   3.530   0.404  16.453  0.0618  0.4775  0.4899
  845MPD2    H512476   3.568   0.419  16.546  0.2543  1.0746  0.3151
  845MPD2    N112477   3.530   0.891  16.473  0.0280  0.0880 -0.6416
  845MPD2    H712478   3.487   0.974  16.433  1.5607  0.2331 -1.9730
  846MPD2     C12479   4.551   1.065  13.607  0.0795 -0.5007  0.1090
  846MPD2    C112480   4.420   1.108  13.626 -0.0163 -0.2892 -0.1888
  846MPD2    C212481   4.361   1.120  13.746 -0.7372 -0.7120  0.2528
  846MPD2    C312482   4.437   1.088  13.867  0.5580  0.7091 -0.6850
  846MPD2    C412483   4.565   1.053  13.845  0.8014 -0.4737  0.4718
  846MPD2    C512484   4.621   1.035  13.718  0.0303 -0.0707 -0.4888
  846MPD2     H12485   4.257   1.150  13.756 -1.2141 -1.8005 -1.3750
  846MPD2    H112486   4.630   1.039  13.931  1.4501  1.6203  0.3261
  846MPD2    H212487   4.601   1.063  13.511  1.2470 -0.1100  0.7191
  846MPD2    H312488   4.726   1.011  13.703  0.5955  1.3974  1.1656
  846MPD2     N12489   4.379   1.082  13.997  0.0545 -0.2104  0.3124
  846MPD2    H512490   4.278   1.085  14.000  0.0931 -0.0374  1.5267
  846MPD2    N112491   4.346   1.167  13.516 -0.0035 -0.9029 -0.1771
  846MPD2    H712492   4.252   1.194  13.542  0.4799  0.4836  0.1047
  847MPD2     C12493   0.165   2.367  14.941 -0.3207 -0.0624 -0.6486
  847MPD2    C112494   0.239   2.468  14.979 -0.8246  0.4344 -0.0550
  847MPD2    C212495   0.340   2.448  15.076  0.6529  0.0731  0.2978
  847MPD2    C312496   0.358   2.332  15.141  0.1330 -0.7423 -0.8800
  847MPD2    C412497   0.278   2.226  15.110 -0.0317  0.1680 -0.0759
  847MPD2    C512498   0.184   2.244  15.012 -0.1077  0.0939 -0.4770
  847MPD2     H12499   0.401   2.535  15.093  1.4060 -0.2161 -0.9419
  847MPD2    H112500   0.289   2.134  15.166  0.5333  0.4843  0.3311
  847MPD2    H212501   0.088   2.367  14.865 -2.8297  1.5655  1.8461
  847MPD2    H312502   0.113   2.166  14.990 -0.6780 -0.1265  2.0714
  847MPD2     N12503   0.459   2.317  15.246  0.4372  0.0564  0.0358
  847MPD2    H512504   0.482   2.223  15.276 -0.0304 -1.0040 -2.9317
  847MPD2    N112505   0.211   2.603  14.939  0.1146  1.0014 -0.3264
  847MPD2    H712506   0.261   2.679  14.985  0.7320 -0.0804  0.7614
  848MPD2     C12507   3.057   0.696  16.070 -0.4892  0.1755 -0.2452
  848MPD2    C112508   3.040   0.717  16.206 -0.2188 -0.7531 -0.4298
  848MPD2    C212509   2.942   0.798  16.253  0.0351  0.1686  0.2727
  848MPD2    C312510   2.868   0.863  16.148  0.8633  0.5954  0.0218
  848MPD2    C412511   2.890   0.843  16.012 -0.7819  0.0246  0.4570
  848MPD2    C512512   2.986   0.759  15.975  0.0409 -0.5957  0.0600
  848MPD2     H12513   2.911   0.807  16.357  1.5593  0.4805  0.7033
  848MPD2    H112514   2.832   0.893  15.935 -0.7568  0.0415  0.4490
  848MPD2    H212515   3.137   0.629  16.043 -0.7887 -0.1035 -0.4403
  848MPD2    H312516   2.992   0.738  15.868  2.0451  0.6117 -0.0655
  848MPD2     N12517   2.761   0.959  16.181  0.2339  0.8023 -0.4444
  848MPD2    H512518   2.715   1.000  16.100 -2.1828 -0.2733  0.4042
  848MPD2    N112519   3.104   0.627  16.297 -0.0939 -0.3355  0.7333
  848MPD2    H712520   3.147   0.545  16.257 -0.6965 -0.5577  0.5397
  849MPD2     C12521   1.494   0.189  14.351  0.5291 -0.2101 -0.8976
  849MPD2    C112522   1.604   0.222  14.276 -0.8361  0.3390 -0.0623
  849MPD2    C212523   1.731   0.185  14.316 -0.1778 -0.2178  0.6367
  849MPD2    C312524   1.748   0.129  14.438  0.5918  0.2349 -0.0357
  849MPD2    C412525   1.639   0.098  14.519 -0.1595 -0.9576 -0.0501
  849MPD2    C512526   1.511   0.131  14.474  0.3008  1.2372  0.0683
  849MPD2     H12527   1.814   0.215  14.253  0.8936 -1.3009  1.5349
  849MPD2    H112528   1.653   0.044  14.612  0.9610  0.6979  0.7485
  849MPD2    H212529   1.400   0.226  14.312  0.4611  0.1101 -0.4244
  849MPD2    H312530   1.429   0.092  14.533 -0.0520  0.5367 -0.8877
  849MPD2     N12531   1.871   0.081  14.488  0.2225 -0.1728  0.0205
  849MPD2    H512532   1.869   0.044  14.582 -1.0770 -1.8210 -0.6549
  849MPD2    N112533   1.602   0.279  14.153  0.1218 -0.0304  0.4050
  849MPD2    H712534   1.691   0.301  14.111 -0.8967 -1.9226 -2.7825
  850MPD2     C12535   0.281   3.549  15.115 -0.1061 -0.3145  0.2519
  850MPD2    C112536   0.273   3.448  15.205  0.1771  0.6291  0.4262
  850MPD2    C212537   0.376   3.359  15.208 -0.2539  0.4161  0.4729
  850MPD2    C312538   0.486   3.369  15.123  0.2378 -0.5900 -0.2930
  850MPD2    C412539   0.480   3.457  15.020 -0.0981  0.2018 -0.0217
  850MPD2    C512540   0.376   3.547  15.022  0.3793  0.2221  0.7440
  850MPD2     H12541   0.363   3.284  15.285  0.3310 -0.5096 -0.3350
  850MPD2    H112542   0.556   3.476  14.944  0.0253 -0.8417 -0.1516
  850MPD2    H212543   0.202   3.621  15.098 -1.2460 -1.3571  1.1298
  850MPD2    H312544   0.364   3.627  14.950  1.9071 -1.5219 -1.4430
  850MPD2     N12545   0.598   3.283  15.123  0.0612 -0.5811 -0.5665
  850MPD2    H512546   0.675   3.292  15.058 -0.4560 -1.9960 -1.3496
  850MPD2    N112547   0.164   3.422  15.289  0.5049  0.6130 -0.5817
  850MPD2    H712548   0.163   3.338  15.346  0.5426  0.9889 -0.0314
  851MPD2     C12549   0.138   3.007  15.939 -0.2896 -0.0737 -1.0609
  851MPD2    C112550   0.105   3.010  15.805 -0.2580  0.3311  0.2207
  851MPD2    C212551   0.126   2.891  15.725 -0.1334 -0.5117  0.1095
  851MPD2    C312552   0.188   2.774  15.777 -0.4294  0.4114 -0.7359
  851MPD2    C412553   0.237   2.779  15.907 -0.3557  0.1611  0.2780
  851MPD2    C512554   0.208   2.895  15.980 -0.2148 -0.3071  0.3039
  851MPD2     H12555   0.107   2.885  15.619 -1.5275 -2.2939  0.4632
  851MPD2    H112556   0.287   2.691  15.947  0.1494  0.2318 -0.2014
  851MPD2    H212557   0.107   3.088  16.004  4.3683  1.1198 -0.3194
  851MPD2    H312558   0.243   2.893  16.083 -1.4586 -0.0137  0.7257
  851MPD2     N12559   0.196   2.661  15.690 -0.6240  0.1763  0.8676
  851MPD2    H512560   0.154   2.682  15.600 -0.2250 -0.9316  0.4294
  851MPD2    N112561   0.058   3.136  15.751  0.7647  0.2252 -0.4983
  851MPD2    H712562   0.057   3.214  15.815 -0.2686  0.4353 -0.7687
  852MPD2     C12563   4.716   1.091  10.135  0.2725  0.4622 -0.0069
  852MPD2    C112564   4.689   1.026  10.256  0.1390 -0.4312 -0.9386
  852MPD2    C212565   4.711   1.095  10.373 -0.4471 -0.0956 -0.0454
  852MPD2    C312566   0.047   1.209  10.380  0.4792 -0.5081 -1.7118
  852MPD2    C412567   0.078   1.274  10.265  0.6697  0.3557  0.5331
  852MPD2    C512568   0.039   1.216  10.145 -0.3061  0.1378  0.6055
  852MPD2     H12569   4.685   1.046  10.466  0.3014 -1.5036 -0.5782
  852MPD2    H112570   0.129   1.370  10.259  1.1135  0.0272 -0.8275
  852MPD2    H212571   4.690   1.048  10.040  0.6377 -0.6198  0.3814
  852MPD2    H312572   0.039   1.279  10.056  1.6082 -0.9207 -0.1409
  852MPD2     N12573   0.085   1.250  10.510  0.9866 -0.2350  0.7487
  852MPD2    H512574   0.055   1.191  10.586  0.0789 -0.5999  0.1082
  852MPD2    N112575   4.634   0.896  10.267 -0.1599 -0.2084  0.0293
  852MPD2    H712576   4.622   0.850  10.356 -0.4482  2.1064  1.1785
  853MPD2     C12577   1.557   0.257  12.294 -0.3916 -0.1879 -0.2945
  853MPD2    C112578   1.462   0.351  12.264  1.0121 -0.6151 -0.2389
  853MPD2    C212579   1.433   0.365  12.129  0.2426  0.0430  0.1810
  853MPD2    C312580   1.496   0.294  12.026 -0.3577  0.9283  0.8070
  853MPD2    C412581   1.589   0.203  12.069  0.4764 -0.1820 -0.1173
  853MPD2    C512582   1.630   0.193  12.200  0.3497  0.6069  0.4281
  853MPD2     H12583   1.367   0.446  12.101 -0.4504 -0.6004 -0.0350
  853MPD2    H112584   1.648   0.147  11.998 -0.5306 -1.4161  0.0006
  853MPD2    H212585   1.587   0.226  12.393  2.0471  0.0371 -0.9588
  853MPD2    H312586   1.713   0.132  12.234  0.3608  1.7465  2.4451
  853MPD2     N12587   1.476   0.315  11.885 -0.1534  0.3354  1.4079
  853MPD2    H512588   1.514   0.247  11.819 -0.6535  1.5101 -0.0835
  853MPD2    N112589   1.403   0.411  12.373  0.6725  0.8421 -0.0982
  853MPD2    H712590   1.443   0.385  12.462 -0.4386  1.4591  0.5823
  854MPD2     C12591   2.700   0.667  13.179  0.4242  0.2617 -0.8041
  854MPD2    C112592   2.774   0.700  13.065 -0.1211 -0.3204 -0.5943
  854MPD2    C212593   2.906   0.666  13.044 -0.0147  0.3831  0.1629
  854MPD2    C312594   2.965   0.586  13.142 -0.0706  0.8208  0.3678
  854MPD2    C412595   2.897   0.553  13.255 -0.0076 -0.0385  0.7376
  854MPD2    C512596   2.768   0.593  13.277 -0.4256 -0.1799 -0.5821
  854MPD2     H12597   2.954   0.696  12.951  0.1240 -2.2070 -0.6190
  854MPD2    H112598   2.946   0.477  13.314  2.1198 -0.0606 -1.0628
  854MPD2    H212599   2.596   0.699  13.184  0.3435 -0.0433 -0.4938
  854MPD2    H312600   2.712   0.563  13.365 -2.9128 -1.9360 -2.7518
  854MPD2     N12601   3.097   0.541  13.143 -0.0954  0.3307  0.0371
  854MPD2    H512602   3.125   0.492  13.227 -0.1187 -2.2918 -1.5105
  854MPD2    N112603   2.705   0.778  12.974 -0.4964 -0.3179 -0.0646
  854MPD2    H712604   2.614   0.812  13.005 -0.0881  1.5712 -0.8763
  855MPD2     C12605   3.980   0.168  13.525  0.4047 -0.0368  0.3810
  855MPD2    C112606   3.857   0.195  13.584  0.0383  0.2744 -0.3980
  855MPD2    C212607   3.754   0.250  13.509  0.1368 -0.4916 -0.2746
  855MPD2    C312608   3.777   0.292  13.383  0.4911  0.5988 -0.2912
  855MPD2    C412609   3.901   0.280  13.330 -0.0270 -0.5705 -0.6821
  855MPD2    C512610   4.000   0.217  13.400 -0.4237  0.2830  0.0268
  855MPD2     H12611   3.655   0.254  13.554 -0.7556  1.1191 -2.3816
  855MPD2    H112612   3.919   0.315  13.229 -3.5501  1.2890 -0.6476
  855MPD2    H212613   4.068   0.124  13.572 -1.2872 -1.6355  2.0643
  855MPD2    H312614   4.101   0.196  13.365 -1.5750  0.2353 -3.2761
  855MPD2     N12615   3.672   0.331  13.293 -0.5134  0.0814 -0.0716
  855MPD2    H512616   3.705   0.330  13.197 -1.5249  0.4842 -0.4146
  855MPD2    N112617   3.828   0.154  13.716 -0.4127  0.1414  0.0681
  855MPD2    H712618   3.732   0.152  13.748 -0.3704 -0.3725  0.1702
  856MPD2     C12619   0.283   1.438  13.635  0.0672  0.2059  0.8535
  856MPD2    C112620   0.312   1.495  13.757 -0.0825 -0.4003 -0.6300
  856MPD2    C212621   0.236   1.598  13.813 -0.2921  0.5357  0.2670
  856MPD2    C312622   0.136   1.660  13.738 -0.4861  0.1421 -0.1103
  856MPD2    C412623   0.108   1.610  13.615  0.1095 -0.2176 -0.7848
  856MPD2    C512624   0.175   1.497  13.565 -0.4779 -0.4253  0.3409
  856MPD2     H12625   0.266   1.632  13.911 -0.4785 -0.6384  0.7249
  856MPD2    H112626   0.036   1.656  13.548 -0.9266 -1.1091 -0.2864
  856MPD2    H212627   0.327   1.343  13.609  2.3034  1.8602 -1.3630
  856MPD2    H312628   0.128   1.456  13.476 -1.4622  0.6015  0.3875
  856MPD2     N12629   0.070   1.779  13.785  0.5266  0.0374 -0.0353
  856MPD2    H512630   4.734   1.820  13.725 -0.5798 -0.8897  0.6428
  856MPD2    N112631   0.400   1.429  13.847 -0.1799  0.0463  0.1969
  856MPD2    H712632   0.425   1.486  13.927  0.8662 -0.3225  0.1359
  857MPD2     C12633   2.137   3.517  12.599  0.5611 -0.3242 -0.0820
  857MPD2    C112634   2.246   3.481  12.670  0.1067 -0.2037  0.5270
  857MPD2    C212635   2.318   3.572  12.741 -0.5073 -0.0242  1.1313
  857MPD2    C312636   2.279   3.705  12.743  0.4037 -0.9313  0.3392
  857MPD2    C412637   2.166   3.740  12.679  0.3409 -1.3711 -0.0442
  857MPD2    C512638   2.098   3.647  12.607  0.1493  0.2198 -0.4049
  857MPD2     H12639   2.400   3.545  12.807 -0.2343  0.5505  1.0270
  857MPD2    H112640   2.135   3.843  12.673 -0.2993 -1.4922  1.2224
  857MPD2    H212641   2.067   3.456  12.543  0.0977 -1.2556  1.5295
  857MPD2    H312642   2.014   3.678  12.546 -1.7308  0.9667  2.6007
  857MPD2     N12643   2.361   3.793  12.814  0.6428  0.4082  0.2445
  857MPD2    H512644   2.421   3.752  12.884  0.3999  2.3724  1.6038
  857MPD2    N112645   2.287   3.350  12.672  0.1058  0.0503 -0.5703
  857MPD2    H712646   2.233   3.279  12.623 -1.3010 -0.0814  1.1780
  858MPD2     C12647   3.192   2.801  16.645 -0.0969  0.4531  0.1328
  858MPD2    C112648   3.269   2.691  16.664 -0.7413  0.5151 -0.0139
  858MPD2    C212649   3.323   2.675  16.791 -0.0082  0.0561 -0.0610
  858MPD2    C312650   3.320   2.778  16.888  0.5494  0.2512 -0.0693
  858MPD2    C412651   3.242   2.887  16.860  0.4362  0.0994  0.1978
  858MPD2    C512652   3.177   2.894  16.738  0.0207  0.3047 -0.8683
  858MPD2     H12653   3.387   2.590  16.810  0.5305 -0.1587 -2.7194
  858MPD2    H112654   3.240   2.971  16.929  0.5423  2.0743 -2.2472
  858MPD2    H212655   3.127   2.808  16.558  0.4011 -1.1078 -0.3709
  858MPD2    H312656   3.112   2.979  16.719  0.9141  0.7829 -1.7925
  858MPD2     N12657   3.378   2.769  17.016  0.1633  0.4831  0.6258
  858MPD2    H512658   3.376   2.859  17.063  0.9644  0.0930  1.4214
  858MPD2    N112659   3.262   2.596  16.560  0.3104  1.0844  0.2376
  858MPD2    H712660   3.223   2.624  16.471  1.5721 -0.6372 -0.8608
  859MPD2     C12661   1.357   0.241  15.048  0.2009  0.2106 -0.2046
  859MPD2    C112662   1.468   0.167  15.025 -0.3742 -0.0120  0.9328
  859MPD2    C212663   1.471   0.038  15.070  0.0627  0.3290  0.5477
  859MPD2    C312664   1.371   4.732  15.159  0.4082 -0.2779 -0.5986
  859MPD2    C412665   1.262   0.079  15.186  0.5705  0.5747  0.2151
  859MPD2    C512666   1.256   0.197  15.126  0.3271  0.5093  0.4453
  859MPD2     H12667   1.551   4.708  15.039  0.2304 -0.2640  2.2227
  859MPD2    H112668   1.183   0.046  15.252  0.9040 -0.4256  0.1128
  859MPD2    H212669   1.355   0.338  15.001  1.9481 -1.1980 -3.1917
  859MPD2    H312670   1.177   0.271  15.137  0.3349  0.5398  0.2902
  859MPD2     N12671   1.382   4.612  15.234 -0.0890  0.7472 -0.1693
  859MPD2    H512672   1.310   4.596  15.304 -1.0362  1.1095 -1.0645
  859MPD2    N112673   1.576   0.222  14.940 -0.1964 -0.3142 -0.4260
  859MPD2    H712674   1.559   0.320  14.920 -1.3597 -0.2648  0.7905
  860MPD2     C12675   4.051   0.112  11.641 -0.3766 -0.4946 -0.0222
  860MPD2    C112676   4.042   0.224  11.724 -0.6350  0.2725  0.1803
  860MPD2    C212677   3.915   0.277  11.740 -0.1696  0.2836  0.5067
  860MPD2    C312678   3.800   0.228  11.678  0.3725  0.3072  0.9123
  860MPD2    C412679   3.811   0.119  11.599 -0.2416  0.5894 -0.5535
  860MPD2    C512680   3.934   0.065  11.577  0.1612 -0.1172  0.2717
  860MPD2     H12681   3.902   0.356  11.813  0.2599 -0.1270  1.0258
  860MPD2    H112682   3.731   0.084  11.535  1.1521 -0.8038 -1.5354
  860MPD2    H212683   4.139   0.050  11.625 -0.1290 -0.0631 -0.3400
  860MPD2    H312684   3.936   4.710  11.517  0.4585 -0.8608  1.4040
  860MPD2     N12685   3.675   0.290  11.705  0.2164  0.1552 -0.6336
  860MPD2    H512686   3.679   0.380  11.751  0.8455 -0.1157 -0.1578
  860MPD2    N112687   4.150   0.278  11.801 -0.0547  0.4942 -0.4438
  860MPD2    H712688   4.129   0.365  11.849  0.5604 -0.4782  1.6125
  861MPD2     C12689   2.619   3.254  10.819 -0.1202 -0.1465 -0.6327
  861MPD2    C112690   2.609   3.372  10.889 -0.6511  0.1089 -0.1224
  861MPD2    C212691   2.550   3.481  10.826  0.1804 -0.4930  0.2772
  861MPD2    C312692   2.497   3.475  10.701  0.7589 -0.2229  0.2919
  861MPD2    C412693   2.497   3.355  10.637  0.3781  0.5209 -0.3611
  861MPD2    C512694   2.559   3.246  10.700  0.3403  0.6175 -1.6434
  861MPD2     H12695   2.556   3.580  10.868 -0.3651 -0.5852  0.5792
  861MPD2    H112696   2.452   3.338  10.540 -1.1052  0.0728  0.4123
  861MPD2    H212697   2.659   3.163  10.863 -1.4775  0.0166  0.9578
  861MPD2    H312698   2.557   3.154  10.644  1.0931 -1.4600  1.7379
  861MPD2     N12699   2.450   3.584  10.627 -0.0360  0.1885  0.2341
  861MPD2    H512700   2.440   3.565  10.528  1.9615 -0.1911  0.0922
  861MPD2    N112701   2.640   3.381  11.029 -0.6727 -0.3352 -0.2221
  861MPD2    H712702   2.629   3.474  11.069  0.2230 -0.1183 -0.4740
  862MPD2     C12703   2.124   3.664  10.003 -0.5498  0.7614 -0.0878
  862MPD2    C112704   2.131   3.624  10.136 -0.3418  0.0029  0.9935
  862MPD2    C212705   2.054   3.524  10.173  0.2031  0.2750  0.5967
  862MPD2    C312706   1.965   3.457  10.084  0.1923  0.3589 -0.0902
  862MPD2    C412707   1.951   3.497   9.951 -0.8361  0.0160 -0.0124
  862MPD2    C512708   2.040   3.596   9.912 -0.6249  0.0023 -0.3034
  862MPD2     H12709   2.065   3.482  10.272  0.4424  0.8809  0.8207
  862MPD2    H112710   1.879   3.454   9.882  0.8021 -0.8118 -1.2385
  862MPD2    H212711   2.192   3.739   9.964  1.2356 -1.7805 -1.8274
  862MPD2    H312712   2.040   3.632   9.809 -0.2228 -0.7667 -0.5705
  862MPD2     N12713   1.876   3.356  10.130  0.5985  0.2237  0.7433
  862MPD2    H512714   1.806   3.320  10.066  0.5444 -2.3716  2.2800
  862MPD2    N112715   2.211   3.688  10.234  0.1325 -0.4193 -0.0233
  862MPD2    H712716   2.213   3.637  10.322  0.5630 -0.5616 -0.1175
  863MPD2     C12717   1.360   1.440  16.809  0.2109 -0.3146 -0.3870
  863MPD2    C112718   1.434   1.542  16.745  0.0641  0.4443 -0.0237
  863MPD2    C212719   1.571   1.528  16.738  0.6552 -0.6987 -0.0732
  863MPD2    C312720   1.635   1.420  16.800 -1.0102  0.5566  0.2576
  863MPD2    C412721   1.561   1.315  16.856  0.4147 -0.0760  0.2263
  863MPD2    C512722   1.428   1.332  16.867 -0.6000  0.0562 -0.5190
  863MPD2     H12723   1.626   1.613  16.698  1.3209  0.2040  2.7531
  863MPD2    H112724   1.614   1.230  16.897 -1.4528 -2.3913 -2.1433
  863MPD2    H212725   1.252   1.440  16.820  0.2122  1.8189 -0.4055
  863MPD2    H312726   1.371   1.259  16.924  1.0712 -1.9663 -1.4217
  863MPD2     N12727   1.776   1.399  16.798 -0.0813  0.3383  0.1568
  863MPD2    H512728   1.802   1.307  16.833  0.6050 -0.1416 -1.6275
  863MPD2    N112729   1.366   1.657  16.703  0.0940 -0.2270 -0.3119
  863MPD2    H712730   1.270   1.657  16.736  0.6830  1.4813  1.4109
  864MPD2     C12731   2.067   2.771  16.989  0.2636  0.1936  0.7925
  864MPD2    C112732   2.181   2.696  16.951  1.0498  0.5247  0.1277
  864MPD2    C212733   2.290   2.764  16.893  0.0966 -0.9389 -0.5661
  864MPD2    C312734   2.288   2.904  16.901 -0.0880 -0.0937 -1.1023
  864MPD2    C412735   2.176   2.971  16.954 -0.4484  0.0483 -0.3700
  864MPD2    C512736   2.061   2.908  16.987 -0.3848 -0.2872 -0.6715
  864MPD2     H12737   2.373   2.703  16.860  1.0812  0.4144 -0.5467
  864MPD2    H112738   2.180   3.079  16.948  0.9245  0.0005 -0.2322
  864MPD2    H212739   1.978   2.716  17.019 -0.8429  1.5052 -0.1221
  864MPD2    H312740   1.976   2.965  17.024  1.2540  1.3477  0.5850
  864MPD2     N12741   2.394   2.984  16.843  0.2640 -0.3243 -0.3641
  864MPD2    H512742   2.370   3.081  16.827 -0.9893 -0.6363 -0.4291
  864MPD2    N112743   2.190   2.557  16.951  1.0513  0.5163 -1.0896
  864MPD2    H712744   2.267   2.516  16.898  0.4896 -0.9562 -0.7651
  865MPD2     C12745   2.581   3.133  16.009  0.7665  0.0927 -0.4018
  865MPD2    C112746   2.566   3.029  16.103  0.1287  0.0939 -0.0467
  865MPD2    C212747   2.581   3.053  16.237 -1.0104 -0.2693  0.3571
  865MPD2    C312748   2.608   3.176  16.288 -0.5075 -0.4478 -0.2456
  865MPD2    C412749   2.630   3.279  16.200  0.1799  0.1737 -0.0960
  865MPD2    C512750   2.607   3.257  16.065 -0.6572 -0.2957  0.2867
  865MPD2     H12751   2.560   2.978  16.312 -2.4086 -0.7244 -0.4711
  865MPD2    H112752   2.639   3.382  16.233  0.7239  0.2245 -0.3872
  865MPD2    H212753   2.581   3.123  15.901 -0.1105  2.2821 -0.6143
  865MPD2    H312754   2.612   3.333  15.988 -1.0582 -0.4697  0.0879
  865MPD2     N12755   2.584   3.190  16.427  0.0431 -0.3744  0.1254
  865MPD2    H512756   2.553   3.105  16.473 -0.5609 -0.0451  0.3350
  865MPD2    N112757   2.558   2.903  16.054  0.1545 -0.1667 -0.1004
  865MPD2    H712758   2.548   2.888  15.954 -1.1561 -1.7674  0.2726
  866MPD2     C12759   3.203   3.644  11.520 -0.6441  0.0498 -0.5627
  866MPD2    C112760   3.267   3.711  11.421 -0.5553 -0.2274 -0.5123
  866MPD2    C212761   3.187   3.814  11.350  0.3704  0.2590  0.5480
  866MPD2    C312762   3.053   3.830  11.382 -0.2619  0.6791 -0.0367
  866MPD2    C412763   3.009   3.771  11.499  0.5830 -0.6969  0.1048
  866MPD2    C512764   3.084   3.683  11.572  0.4315 -0.1976 -0.5208
  866MPD2     H12765   3.233   3.840  11.255  2.5086  0.9190  1.7526
  866MPD2    H112766   2.905   3.775  11.531  0.3318  0.2147 -0.8264
  866MPD2    H212767   3.269   3.589  11.585 -1.3848 -1.9409 -1.5051
  866MPD2    H312768   3.048   3.643  11.666  0.0393 -1.4546 -1.2102
  866MPD2     N12769   2.960   3.898  11.297 -0.2971 -0.7068  0.2413
  866MPD2    H512770   2.862   3.903  11.321  0.0280 -1.4834  1.7071
  866MPD2    N112771   3.389   3.651  11.384 -0.5979 -0.0017  0.0074
  866MPD2    H712772   3.425   3.568  11.431  1.8283  0.1872 -1.5703
  867MPD2     C12773   0.838   3.196  16.515  0.1805 -0.4860 -0.9725
  867MPD2    C112774   0.946   3.203  16.597 -0.1094 -0.9722  0.0599
  867MPD2    C212775   0.993   3.331  16.627  0.4390  0.2243  0.3096
  867MPD2    C312776   0.933   3.450  16.584  0.4632 -0.1983  0.2177
  867MPD2    C412777   0.822   3.435  16.501 -0.7510  0.1511 -0.2857
  867MPD2    C512778   0.781   3.310  16.463  0.3320  0.2257  0.3709
  867MPD2     H12779   1.080   3.333  16.691  1.8802 -0.0688 -1.6423
  867MPD2    H112780   0.767   3.521  16.464  0.6751  0.5586 -1.4553
  867MPD2    H212781   0.795   3.101  16.486  1.3620 -0.7282 -1.9338
  867MPD2    H312782   0.695   3.286  16.401  1.1277  1.1471 -1.0848
  867MPD2     N12783   0.985   3.570  16.639  0.8396 -0.3337 -0.3891
  867MPD2    H512784   1.064   3.550  16.699  1.3434 -1.5496 -1.4755
  867MPD2    N112785   1.007   3.085  16.638  0.6435  0.0187  0.3648
  867MPD2    H712786   0.964   2.998  16.608  1.6356 -0.2307 -0.3155
  868MPD2     C12787   2.752   1.398  13.646  0.3117 -0.4266 -0.0125
  868MPD2    C112788   2.660   1.446  13.559 -0.1982 -0.5935  0.7002
  868MPD2    C212789   2.546   1.508  13.609 -0.5308  0.2352  0.4393
  868MPD2    C312790   2.521   1.523  13.746  0.1380  0.3900 -0.1195
  868MPD2    C412791   2.620   1.478  13.824  0.8541 -0.0081  0.1237
  868MPD2    C512792   2.725   1.408  13.780 -0.1332  0.6157 -0.5577
  868MPD2     H12793   2.480   1.551  13.535 -2.0186 -2.5279  0.1372
  868MPD2    H112794   2.614   1.475  13.932 -0.4857 -0.5377  0.0373
  868MPD2    H212795   2.841   1.344  13.615  0.3263 -1.5185  1.9443
  868MPD2    H312796   2.796   1.365  13.850 -0.6787  0.1156 -0.3097
  868MPD2     N12797   2.403   1.586  13.796  0.3249 -0.1460 -0.1073
  868MPD2    H512798   2.328   1.620  13.737 -0.9402 -1.4728  0.7313
  868MPD2    N112799   2.690   1.416  13.424 -0.3418  0.1360  0.2130
  868MPD2    H712800   2.781   1.374  13.408 -0.0181  0.7842  0.3228
  869MPD2     C12801   3.675   0.011   0.436 -0.5401 -0.3079  0.1743
  869MPD2    C112802   3.713   0.131   0.486  0.7841  0.6749  0.2899
  869MPD2    C212803   3.820   0.141   0.572  0.1897 -0.5357  0.3227
  869MPD2    C312804   3.893   0.024   0.599 -0.4311  0.1333 -0.4646
  869MPD2    C412805   3.847   4.632   0.556  0.1705 -0.5377  0.2282
  869MPD2    C512806   3.737   4.634   0.467 -0.0740 -0.3980 -0.7482
  869MPD2     H12807   3.857   0.235   0.611 -0.1286 -0.6180  0.8226
  869MPD2    H112808   3.898   4.541   0.585  2.4171  1.8813  3.7390
  869MPD2    H212809   3.584   0.011   0.378 -1.2284  0.5289  1.2568
  869MPD2    H312810   3.713   4.545   0.410  2.6653 -1.4415 -0.2904
  869MPD2     N12811   4.001   0.025   0.696 -0.3096 -0.9239  0.0235
  869MPD2    H512812   4.036   4.676   0.742 -2.2615 -2.0199 -0.4789
  869MPD2    N112813   3.629   0.240   0.455  0.1865  0.1989 -0.1337
  869MPD2    H712814   3.550   0.232   0.391 -1.2720 -0.4764  1.7384
  870MPD2     C12815   2.150   4.520   0.864 -0.4276 -0.0628  0.6218
  870MPD2    C112816   2.251   4.452   0.927  0.4757 -0.0733  0.3325
  870MPD2    C212817   2.354   4.400   0.857  0.2258 -0.6342 -0.6959
  870MPD2    C312818   2.365   4.451   0.729  0.1835 -0.1158  0.1115
  870MPD2    C412819   2.270   4.522   0.666 -0.2914  0.4767  0.1660
  870MPD2    C512820   2.154   4.556   0.732  0.1924 -0.1382 -0.0028
  870MPD2     H12821   2.434   4.339   0.898 -0.2844 -0.3384  0.7210
  870MPD2    H112822   2.267   4.556   0.563 -0.1564 -2.8175 -0.9341
  870MPD2    H212823   2.070   4.546   0.932  0.5735  0.8181  1.4687
  870MPD2    H312824   2.084   4.627   0.689  1.8823  2.1069  0.9782
  870MPD2     N12825   2.492   4.424   0.664 -0.1020  0.1292  0.9069
  870MPD2    H512826   2.549   4.354   0.710  2.0103  0.8675 -0.5564
  870MPD2    N112827   2.234   4.412   1.065 -0.3931 -0.1473 -0.0811
  870MPD2    H712828   2.148   4.443   1.108 -0.5005  0.6824 -0.8821
  871MPD2     C12829   0.129   3.161  16.454 -0.3911 -0.6490 -0.5575
  871MPD2    C112830   0.070   3.092  16.560  0.0398  0.0870  0.5469
  871MPD2    C212831   0.053   2.957  16.556  0.4295 -0.0057 -0.0595
  871MPD2    C312832   0.097   2.885  16.444 -0.2936  1.0111 -0.2201
  871MPD2    C412833   0.132   2.949  16.330 -1.2657 -0.2445 -0.4551
  871MPD2    C512834   0.148   3.083  16.342  0.0722  0.8287  0.3662
  871MPD2     H12835   0.014   2.892  16.633 -2.4982  0.4676 -1.1505
  871MPD2    H112836   0.158   2.887  16.244 -0.7124  1.1450 -1.2915
  871MPD2    H212837   0.129   3.269  16.444 -1.5607 -0.8154 -2.2641
  871MPD2    H312838   0.203   3.130  16.262  2.1391  0.3738  1.5157
  871MPD2     N12839   0.115   2.745  16.465  0.1369  0.1543  0.0934
  871MPD2    H512840   0.083   2.705  16.553 -0.5241  0.1610 -0.1424
  871MPD2    N112841   0.026   3.173  16.670  0.0019  0.3998  0.6924
  871MPD2    H712842   0.033   3.273  16.654  1.7314  0.0844 -0.5670
  872MPD2     C12843   0.950   0.721  14.424  0.4918  0.1968 -0.3260
  872MPD2    C112844   0.867   0.751  14.314 -0.1310 -0.1463 -0.5101
  872MPD2    C212845   0.742   0.802  14.341 -0.3683  0.4378  0.5678
  872MPD2    C312846   0.691   0.797  14.468  0.1295  0.1808  0.2223
  872MPD2    C412847   0.772   0.751  14.571  0.0509  0.3131  0.2682
  872MPD2    C512848   0.901   0.720  14.550 -0.0842 -0.0188 -0.0038
  872MPD2     H12849   0.678   0.826  14.256 -1.2395  0.0750  1.1236
  872MPD2    H112850   0.727   0.742  14.669  1.3255 -0.3462  0.7882
  872MPD2    H212851   1.054   0.692  14.418  0.8707  1.7371 -1.1293
  872MPD2    H312852   0.954   0.689  14.640 -0.2802 -0.9010 -0.1886
  872MPD2     N12853   0.561   0.836  14.508 -0.2296 -0.3868 -0.0071
  872MPD2    H512854   0.544   0.839  14.608  0.5303  0.9876  0.0728
  872MPD2    N112855   0.911   0.730  14.181 -0.2587 -0.7085  0.2355
  872MPD2    H712856   0.854   0.774  14.109  0.3843 -0.0489  0.1276
  873MPD2     C12857   2.441   0.724   0.265 -0.5628  1.2886  0.6303
  873MPD2    C112858   2.382   0.656   0.377  0.5598 -0.2979  0.0689
  873MPD2    C212859   2.401   0.522   0.381  0.9922 -0.2460 -0.3927
  873MPD2    C312860   2.456   0.447   0.284  0.6261  0.9531  0.3565
  873MPD2    C412861   2.510   0.510   0.178 -0.2245 -0.1393 -0.0074
  873MPD2    C512862   2.503   0.650   0.179  0.6024 -0.8457  0.4165
  873MPD2     H12863   2.362   0.474   0.471 -0.6761  0.1251 -0.9131
  873MPD2    H112864   2.560   0.453   0.102  0.5882  0.5863 -0.0172
  873MPD2    H212865   2.441   0.832   0.257 -0.2405  1.1801 -0.9716
  873MPD2    H312866   2.544   0.699   0.091 -1.9848  3.5259  1.6631
  873MPD2     N12867   2.441   0.304   0.282 -0.0753  0.2051 -0.2788
  873MPD2    H512868   2.467   0.255   0.197 -2.4929  1.0271 -1.4789
  873MPD2    N112869   2.315   0.730   0.482 -0.1326  0.1805 -0.1161
  873MPD2    H712870   2.348   0.823   0.507  0.5621  0.1355 -0.8605
  874MPD2     C12871   1.960   1.130  15.914 -0.3778  0.5888 -0.0668
  874MPD2    C112872   2.014   1.022  15.984 -0.4758  0.1397 -0.2825
  874MPD2    C212873   2.140   1.044  16.043  0.4008 -0.0887 -0.1913
  874MPD2    C312874   2.215   1.163  16.030  0.5872 -0.0646 -0.0208
  874MPD2    C412875   2.157   1.264  15.958  0.6346  0.5071 -0.4555
  874MPD2    C512876   2.031   1.247  15.903  0.2176  1.0665  0.3300
  874MPD2     H12877   2.188   0.965  16.100  1.4201  0.6307 -0.0584
  874MPD2    H112878   2.210   1.357  15.944  0.3088  1.3855  3.9327
  874MPD2    H212879   1.860   1.122  15.872  0.6467 -1.0933 -2.1192
  874MPD2    H312880   1.995   1.322  15.834 -0.0211  0.8666  0.2351
  874MPD2     N12881   2.336   1.185  16.110 -0.1769  0.4921 -0.0849
  874MPD2    H512882   2.361   1.105  16.167  0.0813  0.7901  0.2196
  874MPD2    N112883   1.943   0.896  15.985 -0.1531 -0.4964 -0.3114
  874MPD2    H712884   1.859   0.884  15.930  0.5380  2.6692 -2.0318
  875MPD2     C12885   2.454   3.638  14.894  0.5691  0.2426 -0.1701
  875MPD2    C112886   2.531   3.738  14.841 -1.0091  0.2689 -0.1057
  875MPD2    C212887   2.610   3.812  14.927 -0.3057 -0.0279 -0.0409
  875MPD2    C312888   2.610   3.800  15.067 -0.1054 -0.2374 -0.7300
  875MPD2    C412889   2.536   3.696  15.115 -0.2363 -0.6342  0.7244
  875MPD2    C512890   2.443   3.629  15.034 -0.1448 -0.4910  0.2731
  875MPD2     H12891   2.675   3.883  14.878  0.5942 -1.3678 -0.8068
  875MPD2    H112892   2.526   3.677  15.221 -0.5466  1.2925  1.0365
  875MPD2    H212893   2.393   3.578  14.828  0.1697 -0.4629  0.8377
  875MPD2    H312894   2.382   3.554  15.082 -0.0103 -0.0229  1.1783
  875MPD2     N12895   2.701   3.874  15.145  0.3747  0.0244  0.3834
  875MPD2    H512896   2.704   3.852  15.244 -3.2185 -1.7923  0.0882
  875MPD2    N112897   2.547   3.779  14.703 -0.4385 -0.5693  0.1629
  875MPD2    H712898   2.613   3.853  14.679 -0.9710 -0.3757 -0.7168
  876MPD2     C12899   1.488   4.628  15.582 -0.3270  0.5674  0.0079
  876MPD2    C112900   1.617   4.590  15.545 -0.0256 -0.0488 -1.2789
  876MPD2    C212901   1.672   4.463  15.584  0.4775 -0.0076  0.0297
  876MPD2    C312902   1.597   4.375  15.655 -0.3096 -0.0782 -0.3670
  876MPD2    C412903   1.469   4.411  15.690 -0.1180 -0.2986  0.4439
  876MPD2    C512904   1.416   4.529  15.650  0.3322  0.5336  0.4025
  876MPD2     H12905   1.770   4.430  15.548  1.1411  1.3158  0.6483
  876MPD2    H112906   1.407   4.354  15.758 -0.8158  0.7730  0.7050
  876MPD2    H212907   1.450   4.728  15.564  1.5047  1.6088  1.8512
  876MPD2    H312908   1.318   4.553  15.688  0.3124 -2.9226  2.5088
  876MPD2     N12909   1.656   4.255  15.698  0.3292 -1.1704 -0.1136
  876MPD2    H512910   1.747   4.242  15.655  0.1223 -1.1731 -0.5504
  876MPD2    N112911   1.695   4.701  15.488 -0.2818  0.0177  0.2781
  876MPD2    H712912   1.648   0.054  15.467  1.1571  1.3611  2.5843
  877MPD2     C12913   1.649   0.675  15.215 -0.0336 -0.0709 -0.3622
  877MPD2    C112914   1.770   0.625  15.183  0.7245 -0.4618 -0.1274
  877MPD2    C212915   1.856   0.696  15.099 -0.1240  0.0357  0.5162
  877MPD2    C312916   1.803   0.809  15.036  0.3872  0.4144  0.1868
  877MPD2    C412917   1.673   0.852  15.065  0.9023 -0.2234  0.3007
  877MPD2    C512918   1.603   0.789  15.153 -0.3481  0.1422 -0.2335
  877MPD2     H12919   1.957   0.664  15.074  1.0358  1.5051  3.3434
  877MPD2    H112920   1.634   0.935  15.009  0.2558 -0.8378 -0.1542
  877MPD2    H212921   1.589   0.624  15.290 -0.8809  1.4847  0.0049
  877MPD2    H312922   1.500   0.812  15.178 -0.5439 -2.2087  1.0884
  877MPD2     N12923   1.874   0.894  14.944  0.2908 -0.0727 -0.6817
  877MPD2    H512924   1.824   0.974  14.908  1.6694  1.4705  0.8306
  877MPD2    N112925   1.822   0.507  15.235 -0.4346  0.1889  1.0044
  877MPD2    H712926   1.922   0.491  15.221 -0.5837  0.7736 -0.7364
  878MPD2     C12927   1.742   4.581  13.316 -0.2487  0.1050  0.7593
  878MPD2    C112928   1.820   4.689  13.312 -0.7008  0.3184 -0.8061
  878MPD2    C212929   1.776   0.063  13.393  0.2098  0.4098  0.3753
  878MPD2    C312930   1.682   0.046  13.488  0.3421  0.4653  0.1298
  878MPD2    C412931   1.613   4.658  13.507  0.7717  0.0716 -0.5667
  878MPD2    C512932   1.642   4.566  13.408  0.3051  0.4458 -0.3576
  878MPD2     H12933   1.824   0.161  13.387 -0.4451  0.6508 -0.9127
  878MPD2    H112934   1.524   4.645  13.567 -0.0211 -0.0058 -1.7760
  878MPD2    H212935   1.752   4.489  13.260  1.6281 -0.4718  2.0508
  878MPD2    H312936   1.566   4.489  13.395 -0.0794  0.8916 -0.7647
  878MPD2     N12937   1.647   0.152  13.574 -0.5981 -0.2045  0.1901
  878MPD2    H512938   1.690   0.241  13.549  0.9770 -1.6154 -2.1824
  878MPD2    N112939   1.918   4.693  13.209  0.3626  0.0410 -0.1338
  878MPD2    H712940   1.921   4.620  13.138 -2.9039  0.0710 -0.2867
  879MPD2     C12941   2.252   1.582  16.395 -0.0427 -0.2808 -0.1321
  879MPD2    C112942   2.277   1.480  16.488 -0.3144 -0.3505 -0.8266
  879MPD2    C212943   2.218   1.359  16.464  0.0599 -0.1458 -0.1249
  879MPD2    C312944   2.130   1.339  16.356 -0.7555 -0.5907  0.3813
  879MPD2    C412945   2.099   1.451  16.278 -0.1443  0.5942 -0.0308
  879MPD2    C512946   2.160   1.568  16.298 -0.0700  0.4194 -0.0743
  879MPD2     H12947   2.244   1.269  16.519 -0.6639 -0.1025  0.2927
  879MPD2    H112948   2.031   1.443  16.194 -0.5195  0.0102  0.3330
  879MPD2    H212949   2.300   1.678  16.411  0.1159 -0.1001 -1.7186
  879MPD2    H312950   2.133   1.653  16.236 -1.2904  2.3269  3.0721
  879MPD2     N12951   2.039   1.229  16.328  0.1765  0.1268  0.3303
  879MPD2    H512952   1.970   1.259  16.260 -0.7255 -0.6524  0.9029
  879MPD2    N112953   2.370   1.506  16.592  0.0648 -0.4100  0.2820
  879MPD2    H712954   2.413   1.597  16.593 -0.2512 -0.2796  2.1471
  880MPD2     C12955   3.371   3.193   0.724  0.1056  0.6452 -0.3442
  880MPD2    C112956   3.399   3.217   0.596  0.4945  0.7361  0.0716
  880MPD2    C212957   3.449   3.102   0.528 -0.0312  0.4946  0.7785
  880MPD2    C312958   3.462   2.982   0.586  0.6143  0.2319  0.0890
  880MPD2    C412959   3.409   2.958   0.716 -0.2173  0.1373  0.3302
  880MPD2    C512960   3.360   3.073   0.784  0.3015 -0.3206 -0.1701
  880MPD2     H12961   3.483   3.106   0.425 -1.5693 -0.6923  0.2457
  880MPD2    H112962   3.408   2.866   0.775  2.0473 -1.5163 -2.2498
  880MPD2    H212963   3.347   3.281   0.784 -0.2764 -0.3019  0.8909
  880MPD2    H312964   3.336   3.073   0.890 -1.4066 -0.8826 -0.5645
  880MPD2     N12965   3.510   2.887   0.500  0.3388 -0.2195 -0.2105
  880MPD2    H512966   3.528   2.915   0.404 -0.5653 -0.2688 -0.3913
  880MPD2    N112967   3.408   3.345   0.541  1.0629 -0.2361 -0.1056
  880MPD2    H712968   3.366   3.421   0.594 -0.8868 -2.5532  1.6403
  881MPD2     C12969   3.330   3.895  17.371 -0.3018  0.0133 -0.1455
  881MPD2    C112970   3.439   3.823  17.400  0.8277 -0.5511 -0.7796
  881MPD2    C212971   3.463   3.793  17.528 -0.7312 -0.3241  0.5121
  881MPD2    C312972   3.361   3.804  17.624 -0.0927 -0.5320 -0.2477
  881MPD2    C412973   3.243   3.862  17.593  0.5564  0.5609  1.1308
  881MPD2    C512974   3.235   3.916  17.468  0.1107  0.5146  0.0950
  881MPD2     H12975   3.557   3.747  17.558 -1.7791 -2.8897 -0.1295
  881MPD2    H112976   3.165   3.886  17.665  0.8296  0.3520  1.5005
  881MPD2    H212977   3.329   3.953  17.279  1.0073  1.2141  0.6085
  881MPD2    H312978   3.150   3.973  17.432 -0.0979 -0.3699 -0.8281
  881MPD2     N12979   3.373   3.768   0.021  0.4183 -0.4063  0.4224
  881MPD2    H512980   3.299   3.808   0.078  2.1890  0.9148  1.7917
  881MPD2    N112981   3.547   3.833  17.307  0.0231 -0.0139  0.3222
  881MPD2    H712982   3.528   3.875  17.217 -2.9200  0.1966  1.0454
  882MPD2     C12983   2.149   1.006  14.177  0.1184 -0.0459  0.0159
  882MPD2    C112984   2.056   1.049  14.268 -0.7136  0.3432  0.8335
  882MPD2    C212985   1.923   1.057  14.227 -0.6784  0.1512  0.5691
  882MPD2    C312986   1.887   0.997  14.109  0.1099  0.3338 -1.1425
  882MPD2    C412987   1.987   0.953  14.025  1.1120  0.7651  0.5890
  882MPD2    C512988   2.113   0.962  14.053 -0.5194 -0.0164 -0.3674
  882MPD2     H12989   1.858   1.097  14.304  0.3182 -0.2540  1.6307
  882MPD2    H112990   1.960   0.898  13.936  2.3834  1.5241 -0.2548
  882MPD2    H212991   2.254   1.019  14.200  0.2786  2.1737 -2.0026
  882MPD2    H312992   2.186   0.913  13.989  2.1601  0.9029  2.0020
  882MPD2     N12993   1.753   0.982  14.089  0.0986  0.9564 -0.1746
  882MPD2    H512994   1.692   1.030  14.154  1.3752  0.1999  1.5664
  882MPD2    N112995   2.098   1.086  14.399 -0.0981 -0.6393  0.8620
  882MPD2    H712996   2.194   1.062  14.421  1.3451  3.3354 -1.2407
  883MPD2     C12997   4.273   4.687  15.457  0.0613  0.0324 -1.0812
  883MPD2    C112998   4.218   0.081  15.480  0.5385 -0.2819 -0.3546
  883MPD2    C212999   4.273   0.164  15.567  0.5438  0.1174 -0.2567
  883MPD2    C313000   4.390   0.137  15.628  0.4460  0.0055 -0.0488
  883MPD2    C413001   4.448   0.017  15.599  0.0398 -0.3547 -0.2396
  883MPD2    C513002   4.383   4.656  15.524  0.0101 -0.2596 -0.4816
  883MPD2     H13003   4.255   0.271  15.572  0.2345  0.0823 -0.6177
  883MPD2    H113004   4.543   4.725  15.645 -1.2282 -0.4603  2.3424
  883MPD2    H213005   4.223   4.612  15.397 -1.4335  0.3838 -0.2788
  883MPD2    H313006   4.434   4.561  15.514 -1.4191 -0.9145 -1.5051
  883MPD2     N13007   4.443   0.231  15.715 -0.8375 -0.0944  0.5923
  883MPD2    H513008   4.385   0.313  15.725 -3.1934 -1.6309 -0.5671
  883MPD2    N113009   4.105   0.119  15.398  0.1889 -0.2604  0.3284
  883MPD2    H713010   4.064   0.210  15.414  0.8775 -0.2854  2.2462
  884MPD2     C13011   1.451   1.610  14.581  0.9589  0.5850 -0.4888
  884MPD2    C113012   1.482   1.708  14.673 -0.0806  0.7843 -0.2259
  884MPD2    C213013   1.379   1.773  14.738 -0.3409  0.6219 -0.1825
  884MPD2    C313014   1.251   1.725  14.728  0.9708  0.0991 -0.2603
  884MPD2    C413015   1.225   1.627  14.637  0.0272  0.5076 -0.1031
  884MPD2    C513016   1.322   1.563  14.569  0.3529  0.1606 -0.7683
  884MPD2     H13017   1.400   1.853  14.809 -1.2687  1.1399 -0.4997
  884MPD2    H113018   1.132   1.573  14.628  0.7110 -0.7814  0.5361
  884MPD2    H213019   1.533   1.562  14.528  0.6218  0.1021 -0.5719
  884MPD2    H313020   1.293   1.478  14.508  0.8750 -0.8938  0.4648
  884MPD2     N13021   1.152   1.779  14.808  0.6671  0.4602  0.7018
  884MPD2    H513022   1.190   1.850  14.871  0.6664  0.5060  0.6509
  884MPD2    N113023   1.618   1.743  14.704  0.4324  0.6729 -0.5119
  884MPD2    H713024   1.645   1.838  14.725 -0.2226  0.5936  0.6835
  885MPD2     C13025   4.149   1.675   0.420 -0.5229  0.7002  0.5492
  885MPD2    C113026   4.271   1.708   0.370  0.2426 -0.2450 -0.5503
  885MPD2    C213027   4.277   1.718   0.233  0.0863 -0.2269  0.0100
  885MPD2    C313028   4.168   1.733   0.153 -0.2960  1.1299  0.0446
  885MPD2    C413029   4.050   1.705   0.209 -0.0130 -0.5017 -0.2952
  885MPD2    C513030   4.042   1.663   0.341  0.1381 -0.1869  0.1248
  885MPD2     H13031   4.374   1.733   0.186  0.5734 -1.8741  0.4881
  885MPD2    H113032   3.961   1.694   0.148 -0.3055  1.2426 -0.1820
  885MPD2    H213033   4.130   1.636   0.520 -1.3098 -2.7544 -0.9261
  885MPD2    H313034   3.941   1.632   0.367  0.1206 -0.5771 -0.4147
  885MPD2     N13035   4.182   1.764   0.012 -0.5107 -0.4805  0.5734
  885MPD2    H513036   4.277   1.763  17.716 -0.2907 -1.3419  1.2063
  885MPD2    N113037   4.384   1.721   0.452  0.0351 -0.0949  0.0079
  885MPD2    H713038   4.471   1.716   0.399 -0.2072 -1.8959 -0.2311
  886MPD2     C13039   0.731   0.558  15.478 -0.0267  0.1176 -0.3687
  886MPD2    C113040   0.858   0.603  15.462 -0.2195  0.9006 -0.2105
  886MPD2    C213041   0.882   0.692  15.365  0.2357 -0.4189  0.1116
  886MPD2    C313042   0.790   0.755  15.287  0.4462  0.7459  0.3059
  886MPD2    C413043   0.662   0.712  15.300  0.3951  0.1759 -0.3655
  886MPD2    C513044   0.629   0.621  15.405 -0.0444  0.0565 -0.1805
  886MPD2     H13045   0.987   0.720  15.358  0.1739 -0.1540  0.2499
  886MPD2    H113046   0.580   0.745  15.238 -0.0481 -2.4646 -1.1439
  886MPD2    H213047   0.701   0.495  15.561  0.8875  0.9555  0.5931
  886MPD2    H313048   0.526   0.589  15.413  0.1750 -0.6559 -0.2351
  886MPD2     N13049   0.821   0.847  15.186 -0.3544  0.0104 -0.0044
  886MPD2    H513050   0.739   0.871  15.131 -0.3700  1.0567  0.4630
  886MPD2    N113051   0.970   0.544  15.527  0.1499 -0.0543  0.6889
  886MPD2    H713052   1.057   0.566  15.481  0.1948 -0.9085  0.3707
  887MPD2     C13053   1.776   0.334  15.725 -0.4015  0.1052 -0.5817
  887MPD2    C113054   1.689   0.430  15.681  0.5526 -0.2416 -0.0606
  887MPD2    C213055   1.736   0.559  15.659  0.2616  0.3057  0.6229
  887MPD2    C313056   1.874   0.581  15.671  0.3795 -0.0889 -0.8642
  887MPD2    C413057   1.959   0.482  15.723  0.2286  0.0081 -0.2107
  887MPD2    C513058   1.910   0.358  15.747 -0.0896  0.1354  0.1979
  887MPD2     H13059   1.667   0.638  15.630 -0.3490 -1.3010 -2.2556
  887MPD2    H113060   2.067   0.490  15.728  0.4891 -2.2471 -2.0629
  887MPD2    H213061   1.740   0.236  15.755  1.2695 -0.2799  0.2033
  887MPD2    H313062   1.986   0.284  15.765 -0.0629 -0.1702 -1.1755
  887MPD2     N13063   1.932   0.708  15.644  0.2092  0.3606  0.2376
  887MPD2    H513064   1.870   0.780  15.609  0.4621  1.2147  1.5382
  887MPD2    N113065   1.553   0.388  15.681  0.0270 -0.4065 -0.4428
  887MPD2    H713066   1.533   0.293  15.710  2.0625 -0.3337  1.2295
  888MPD2     C13067   2.969   0.211  14.850  0.3101  0.0621  0.4648
  888MPD2    C113068   2.989   0.258  14.980  0.3270  0.3226 -0.1925
  888MPD2    C213069   3.067   0.367  15.007 -0.7670  0.0941 -0.0463
  888MPD2    C313070   3.123   0.433  14.903  0.5537 -0.0365 -0.5960
  888MPD2    C413071   3.098   0.400  14.774 -0.1758  0.0650  0.0660
  888MPD2    C513072   3.015   0.297  14.749 -0.3614  0.3939  0.4430
  888MPD2     H13073   3.099   0.395  15.107 -4.1373 -1.1122  1.4026
  888MPD2    H113074   3.145   0.442  14.685 -2.8062  1.1139 -0.8463
  888MPD2    H213075   2.896   0.132  14.837  0.0014  0.4807 -0.3085
  888MPD2    H313076   3.001   0.264  14.647  2.6292  3.0417 -0.7819
  888MPD2     N13077   3.204   0.543  14.935 -0.0131  0.5997  0.2627
  888MPD2    H513078   3.208   0.567  15.034  2.1647 -1.0997  0.5990
  888MPD2    N113079   2.945   0.190  15.095 -0.1134 -0.0960  0.2826
  888MPD2    H713080   2.955   0.234  15.187 -1.1281  0.4307  0.1421
  889MPD2     C13081   2.378   4.574  12.738 -0.1119 -0.7346  0.2257
  889MPD2    C113082   2.421   4.534  12.859  0.9216 -0.5643 -0.1375
  889MPD2    C213083   2.394   4.628  12.963 -0.3941  0.0459 -0.0860
  889MPD2    C313084   2.363   0.026  12.943  0.2774  0.2844 -0.2142
  889MPD2    C413085   2.319   0.062  12.818  1.2154 -0.3369  0.3253
  889MPD2    C513086   2.326   4.695  12.718 -0.0782 -0.3282 -0.6053
  889MPD2     H13087   2.428   4.621  13.066  0.0490 -1.9280 -0.3738
  889MPD2    H113088   2.280   0.159  12.788 -0.6626 -1.0852  0.3698
  889MPD2    H213089   2.371   4.509  12.651 -1.6559  0.4264 -0.5317
  889MPD2    H313090   2.283   4.728  12.624  0.0870 -0.2508 -0.6533
  889MPD2     N13091   2.382   0.115  13.053 -0.1650 -0.0747  0.6883
  889MPD2    H513092   2.399   0.062  13.138  0.7462 -0.6789  0.1350
  889MPD2    N113093   2.445   4.399  12.881 -0.1926 -0.1745  0.5769
  889MPD2    H713094   2.455   4.342  12.797 -2.2462  0.4716 -0.1020
  890MPD2     C13095   1.998   1.610  14.459 -0.3885  0.7429  0.0005
  890MPD2    C113096   2.089   1.716  14.466  0.3466 -0.1575 -0.8618
  890MPD2    C213097   2.209   1.680  14.526  0.0645  0.1791 -0.0226
  890MPD2    C313098   2.239   1.563  14.587 -0.5069  0.4524  0.3571
  890MPD2    C413099   2.139   1.465  14.584  0.3318  0.5375 -0.5186
  890MPD2    C513100   2.021   1.488  14.520  0.3357  0.1528 -0.1518
  890MPD2     H13101   2.290   1.752  14.527 -0.7916  1.1081  1.9611
  890MPD2    H113102   2.160   1.365  14.620 -0.0753  0.2275 -1.1418
  890MPD2    H213103   1.909   1.621  14.398 -2.9218 -0.7404  3.3739
  890MPD2    H313104   1.945   1.412  14.505 -0.6654  1.2479 -0.6734
  890MPD2     N13105   2.372   1.548  14.635 -0.0181  0.4073  0.0594
  890MPD2    H513106   2.448   1.608  14.603 -1.9017  1.7021 -1.9839
  890MPD2    N113107   2.058   1.849  14.419 -0.1456  0.5227 -0.1782
  890MPD2    H713108   1.963   1.860  14.385 -0.8836 -1.1177  1.3591
  891MPD2     C13109   0.616   0.179  16.622 -0.1448 -0.1497  0.0507
  891MPD2    C113110   0.517   0.127  16.701  0.1720  0.7372  0.1644
  891MPD2    C213111   0.550   0.118  16.837  0.5683 -0.7924 -0.1194
  891MPD2    C313112   0.668   0.150  16.889  0.7871  0.4371 -0.1836
  891MPD2    C413113   0.771   0.199  16.805 -0.0559 -0.0383 -0.5396
  891MPD2    C513114   0.737   0.219  16.674 -0.5317 -0.0124  0.9550
  891MPD2     H13115   0.476   0.086  16.910 -0.8831  0.5521 -1.0093
  891MPD2    H113116   0.874   0.225  16.825 -1.3148  2.3863  2.6995
  891MPD2    H213117   0.598   0.182  16.515  3.7584  0.7751 -0.5840
  891MPD2    H313118   0.819   0.256  16.613 -1.7284  1.1223  0.0273
  891MPD2     N13119   0.688   0.134  17.036 -0.1612  0.5387 -0.8216
  891MPD2    H513120   0.612   0.096  17.091 -0.0548  2.7367  0.8452
  891MPD2    N113121   0.393   0.088  16.638  0.1938 -0.6155  0.0567
  891MPD2    H713122   0.381   0.114  16.540  1.0947  0.2669  0.1797
  892MPD2     C13123   1.157   1.560  14.143  0.2571 -0.8067  0.1812
  892MPD2    C113124   1.106   1.464  14.230 -0.8808  0.2803  0.8612
  892MPD2    C213125   1.143   1.327  14.221 -0.8799 -0.1480 -0.3339
  892MPD2    C313126   1.236   1.292  14.124 -1.0156 -0.3258 -0.1903
  892MPD2    C413127   1.282   1.387  14.038  0.0577  0.2472  0.0627
  892MPD2    C513128   1.240   1.515  14.040  0.1313 -0.5537  0.3078
  892MPD2     H13129   1.098   1.253  14.286 -2.8608  1.1944 -0.1469
  892MPD2    H113130   1.360   1.374  13.964 -0.7503 -1.8976 -0.4069
  892MPD2    H213131   1.129   1.664  14.155 -0.2075 -0.9982  0.7335
  892MPD2    H313132   1.277   1.585  13.966 -1.4627  1.2511  1.1809
  892MPD2     N13133   1.298   1.166  14.109  0.1459 -0.4985 -0.1108
  892MPD2    H513134   1.353   1.159  14.024  1.2860 -0.1915  0.5977
  892MPD2    N113135   1.023   1.491  14.336 -0.2306 -0.1280  0.3137
  892MPD2    H713136   0.990   1.418  14.399  0.3143 -0.1788  0.5403
  893MPD2     C13137   2.200   0.078   1.104  0.9762  0.5519  0.5729
  893MPD2    C113138   2.313   0.016   1.156  0.1626 -0.2858  0.0354
  893MPD2    C213139   2.317   4.704   1.285 -0.2869  0.5537  0.0696
  893MPD2    C313140   2.210   4.732   1.372 -0.6143  0.0453  0.4125
  893MPD2    C413141   2.094   0.048   1.316 -0.0696  0.1715  0.5276
  893MPD2    C513142   2.091   0.096   1.187 -0.5155 -0.3604  0.7031
  893MPD2     H13143   2.400   4.645   1.321 -0.2452  0.3988 -0.2804
  893MPD2    H113144   2.010   0.079   1.376 -0.1716  1.2664 -0.1701
  893MPD2    H213145   2.202   0.107   0.999 -0.8301  2.7842  1.1528
  893MPD2    H313146   2.000   0.146   1.156  1.3475  2.1911 -0.6254
  893MPD2     N13147   2.208   4.692   1.508 -0.3445 -0.5550  0.7839
  893MPD2    H513148   2.118   4.709   1.553 -0.9752  2.1814 -1.5072
  893MPD2    N113149   2.420   4.723   1.067 -0.7995 -0.0219  0.0465
  893MPD2    H713150   2.404   0.005   0.969 -0.9718  1.0618  0.2566
  894MPD2     C13151   1.158   1.765   0.554  0.2455 -0.2705 -0.3854
  894MPD2    C113152   1.083   1.827   0.652 -0.5019 -0.5854 -0.7299
  894MPD2    C213153   1.089   1.967   0.658 -0.2485 -0.4454  0.3638
  894MPD2    C313154   1.147   2.041   0.560 -0.3758 -0.9267  0.1901
  894MPD2    C413155   1.207   1.973   0.455 -0.0686 -0.1764  0.1304
  894MPD2    C513156   1.211   1.838   0.454  0.6663  0.2801  0.7056
  894MPD2     H13157   1.030   2.018   0.734 -1.1528  0.2328 -0.8049
  894MPD2    H113158   1.261   2.025   0.376  0.7347 -0.0765  0.7473
  894MPD2    H213159   1.167   1.658   0.538 -1.1531 -0.2541 -1.2803
  894MPD2    H313160   1.262   1.795   0.369  0.0004 -0.8589  0.8692
  894MPD2     N13161   1.139   2.183   0.561 -0.2264 -0.2090  0.4192
  894MPD2    H513162   1.093   2.227   0.640  0.3084 -0.2535  0.7551
  894MPD2    N113163   0.992   1.766   0.739 -0.1919  0.4137 -0.2727
  894MPD2    H713164   0.946   1.823   0.810 -2.2675  0.2240 -1.4514
  895MPD2     C13165   0.711   4.484  13.613 -0.5882  0.8708  0.2386
  895MPD2    C113166   0.627   4.503  13.509  0.0207  0.3047  0.8574
  895MPD2    C213167   0.643   4.426  13.402 -0.3024  0.2500 -0.5925
  895MPD2    C313168   0.746   4.330  13.394  0.2506  0.7649 -0.2568
  895MPD2    C413169   0.840   4.328  13.494 -0.5612  0.0719 -0.0489
  895MPD2    C513170   0.817   4.400  13.606  0.3642 -0.9145 -0.3985
  895MPD2     H13171   0.567   4.429  13.325  0.8187  0.9254 -1.6583
  895MPD2    H113172   0.927   4.265  13.480 -0.6876 -0.0270 -0.3947
  895MPD2    H213173   0.701   4.546  13.701  1.3515  3.9525 -1.7331
  895MPD2    H313174   0.886   4.385  13.688 -0.4497  0.7167  0.5922
  895MPD2     N13175   0.770   4.234  13.293 -0.4118  0.5504  0.7785
  895MPD2    H513176   0.864   4.213  13.262 -1.3362  1.3815 -2.5805
  895MPD2    N113177   0.527   4.604  13.494  0.6668  0.2926 -0.9028
  895MPD2    H713178   0.481   4.601  13.404 -1.8506  2.3800  0.3006
  896MPD2     C13179   1.616   3.126   1.449 -0.4499 -0.3595 -0.1556
  896MPD2    C113180   1.717   3.110   1.358 -0.3062 -0.3550 -0.3662
  896MPD2    C213181   1.682   3.068   1.227  0.7844  0.8440  0.0326
  896MPD2    C313182   1.555   3.060   1.183  0.0773 -0.3400  0.0966
  896MPD2    C413183   1.458   3.088   1.277 -0.2731 -0.2700  0.3208
  896MPD2    C513184   1.488   3.117   1.407 -0.0206 -0.6040 -0.0992
  896MPD2     H13185   1.753   3.038   1.151  0.2416 -0.0123 -0.1302
  896MPD2    H113186   1.357   3.087   1.237 -0.0384 -0.5175 -0.2633
  896MPD2    H213187   1.631   3.164   1.550  1.5021 -1.7303  0.0538
  896MPD2    H313188   1.410   3.132   1.481 -2.4481 -0.0051 -2.8048
  896MPD2     N13189   1.533   3.025   1.046  0.5713 -0.1332  0.3007
  896MPD2    H513190   1.610   2.980   0.998 -0.4188  1.4293 -2.8151
  896MPD2    N113191   1.854   3.137   1.399  0.4757 -0.5275 -0.0164
  896MPD2    H713192   1.871   3.177   1.490 -1.9094 -1.6707  0.9292
  897MPD2     C13193   3.631   4.427  10.481 -0.6378 -0.2989 -0.2159
  897MPD2    C113194   3.596   4.556  10.457  0.0281  0.1052 -0.4225
  897MPD2    C213195   3.498   4.618  10.535  0.5571  0.2823  0.4757
  897MPD2    C313196   3.424   4.540  10.621  0.3351 -0.4104 -0.3237
  897MPD2    C413197   3.462   4.410  10.647  0.3273 -0.3090  0.3160
  897MPD2    C513198   3.565   4.352  10.576 -0.4436 -0.0861 -0.4263
  897MPD2     H13199   3.465   4.717  10.505  1.7393  0.4435 -0.2550
  897MPD2    H113200   3.415   4.351  10.724 -0.6345  0.0399 -0.0122
  897MPD2    H213201   3.703   4.371  10.421 -2.1037 -1.9297 -0.4516
  897MPD2    H313202   3.584   4.246  10.593  1.3833  0.3191  0.0563
  897MPD2     N13203   3.316   4.609  10.679  0.1137 -0.1147 -0.1112
  897MPD2    H513204   3.294   4.703  10.648  0.1925  0.0240  0.2546
  897MPD2    N113205   3.659   4.620  10.354 -0.0358  0.3397  0.6906
  897MPD2    H713206   3.714   4.569  10.286 -1.8893 -1.4253  0.5275
  898MPD2     C13207   1.520   0.545  17.056 -0.5728  0.1191 -0.0515
  898MPD2    C113208   1.534   0.547  17.194 -0.6708  0.3238 -0.5436
  898MPD2    C213209   1.435   0.615  17.268 -0.2360  0.2098  0.5601
  898MPD2    C313210   1.332   0.687  17.215 -0.6360 -0.0528 -0.5670
  898MPD2    C413211   1.325   0.688  17.075 -0.3091  0.0481  0.3750
  898MPD2    C513212   1.417   0.616  17.004 -0.1031  0.7540  0.1482
  898MPD2     H13213   1.453   0.609  17.375 -0.2793  0.3160  0.5729
  898MPD2    H113214   1.251   0.741  17.016  0.3965  2.0394  1.2627
  898MPD2    H213215   1.588   0.486  16.996 -1.1351  2.0627 -2.5964
  898MPD2    H313216   1.414   0.613  16.896 -2.9386  0.8874  0.2030
  898MPD2     N13217   1.263   0.766  17.302  0.4498  0.0005  0.0804
  898MPD2    H513218   1.297   0.769  17.398  0.5750  0.9338  0.0142
  898MPD2    N113219   1.642   0.501  17.274  0.1722 -0.5190 -0.1672
  898MPD2    H713220   1.628   0.496  17.375 -1.5965  2.2281 -0.2851
  899MPD2     C13221   1.782   0.948  16.959  0.0961 -0.1215 -0.5894
  899MPD2    C113222   1.838   1.058  17.019  0.1257 -1.1746 -0.2800
  899MPD2    C213223   1.762   1.116  17.117 -0.7353  0.6093 -0.2838
  899MPD2    C313224   1.635   1.065  17.150  0.2514 -0.4694  0.6984
  899MPD2    C413225   1.591   0.949  17.091 -0.0089 -0.0387  0.1832
  899MPD2    C513226   1.663   0.890  16.997 -0.3834 -0.0320 -0.1515
  899MPD2     H13227   1.801   1.202  17.170  1.5654  0.6095 -1.9915
  899MPD2    H113228   1.493   0.913  17.121  0.1410 -0.8994 -0.3775
  899MPD2    H213229   1.835   0.899  16.878  1.7090 -0.8962  0.9488
  899MPD2    H313230   1.633   0.799  16.947  0.8330  0.2179 -1.3345
  899MPD2     N13231   1.552   1.123  17.245  0.0132  0.7070 -0.0452
  899MPD2    H513232   1.453   1.101  17.246  0.7324 -2.5922 -1.2868
  899MPD2    N113233   1.955   1.118  16.967 -0.1984  0.6353 -0.6139
  899MPD2    H713234   1.980   1.084  16.875  0.2806 -1.4335  0.2733
  900MPD2     C13235   1.219   2.349  12.638  0.0713 -0.0480  0.0338
  900MPD2    C113236   1.113   2.269  12.679 -0.5079  0.4913 -0.4257
  900MPD2    C213237   0.996   2.284  12.615 -0.4919 -0.1133  0.0939
  900MPD2    C313238   0.985   2.373  12.511  0.7257  0.0504  0.1039
  900MPD2    C413239   1.087   2.453  12.477 -0.1957  0.2313  0.0246
  900MPD2    C513240   1.202   2.443  12.536 -0.6284  0.3912  1.0546
  900MPD2     H13241   0.907   2.226  12.639 -0.3507 -0.1090  0.6225
  900MPD2    H113242   1.070   2.527  12.400  0.7023  0.3362 -0.0646
  900MPD2    H213243   1.315   2.329  12.686 -0.3062 -0.9786  0.3867
  900MPD2    H313244   1.278   2.517  12.515 -0.3024  0.4741  2.4646
  900MPD2     N13245   0.856   2.372  12.452 -0.2508  0.3235  0.1378
  900MPD2    H513246   0.778   2.331  12.501 -0.6576 -0.2520 -0.9787
  900MPD2    N113247   1.140   2.178  12.781  0.2262  0.2502  0.2348
  900MPD2    H713248   1.237   2.165  12.807 -0.2555 -2.0078  0.8464
  901MPD2     C13249   0.975   1.162  13.013 -0.0979 -0.2253  0.6751
  901MPD2    C113250   1.115   1.186  13.000 -0.2683  0.0049  0.3959
  901MPD2    C213251   1.159   1.318  13.016 -0.2949  0.9895  0.2936
  901MPD2    C313252   1.071   1.420  13.027 -0.0893  0.1372 -0.2832
  901MPD2    C413253   0.933   1.395  13.040  0.0418  0.2717 -0.0921
  901MPD2    C513254   0.891   1.262  13.033  0.5108 -0.5487  0.5530
  901MPD2     H13255   1.264   1.343  13.007  0.0670 -1.0982 -1.4856
  901MPD2    H113256   0.852   1.465  13.054 -0.3631 -0.4659  1.2434
  901MPD2    H213257   0.930   1.065  12.997  1.7950 -1.0952  0.6520
  901MPD2    H313258   0.786   1.237  13.031  0.6867 -1.1315 -1.3789
  901MPD2     N13259   1.116   1.555  13.008  0.2230 -0.4065 -0.1971
  901MPD2    H513260   1.214   1.569  12.986  0.3318  0.1133  0.5839
  901MPD2    N113261   1.201   1.076  12.973 -0.0751  0.3806  0.2865
  901MPD2    H713262   1.159   0.989  12.943 -2.0400  1.3371  0.2466
  902MPD2     C13263   4.673   0.721  13.025  0.0112  0.5381 -0.3225
  902MPD2    C113264   0.030   0.723  12.922  0.3499 -0.4658  0.3605
  902MPD2    C213265   0.113   0.623  12.903 -0.3694 -0.7371  0.1478
  902MPD2    C313266   0.111   0.515  12.986  0.0006  0.6189  0.2364
  902MPD2    C413267   0.004   0.493  13.070 -0.1666  0.2587  0.2843
  902MPD2    C513268   4.649   0.604  13.096 -0.1316  0.1256 -0.7038
  902MPD2     H13269   0.185   0.641  12.824 -0.3304 -0.7177  0.1876
  902MPD2    H113270   4.729   0.408  13.137 -1.1380  1.1874  1.2990
  902MPD2    H213271   4.610   0.806  13.048 -2.4765 -1.1449 -0.9985
  902MPD2    H313272   4.574   0.591  13.173  1.9823 -0.0783  1.3094
  902MPD2     N13273   0.210   0.409  12.978 -0.3414  0.0009  0.8750
  902MPD2    H513274   0.165   0.321  13.003 -1.3449 -0.2913 -2.0577
  902MPD2    N113275   0.036   0.839  12.851 -0.3297  0.2552  0.9708
  902MPD2    H713276   4.729   0.922  12.892 -0.3247  0.2242  1.0389
  903MPD2     C13277   0.437   0.097  12.178  0.1306 -0.0310 -0.1617
  903MPD2    C113278   0.355   0.142  12.275  0.5642  0.1034 -0.3518
  903MPD2    C213279   0.230   0.179  12.235 -0.6789  0.0793 -0.3369
  903MPD2    C313280   0.188   0.172  12.101 -0.2611 -0.3047 -0.2901
  903MPD2    C413281   0.271   0.121  12.006  0.6894 -0.1079 -0.4515
  903MPD2    C513282   0.399   0.085  12.046 -0.3871 -0.3488 -0.7981
  903MPD2     H13283   0.163   0.229  12.304 -0.7490 -1.4090  0.6793
  903MPD2    H113284   0.238   0.116  11.902  0.0605  0.7979 -0.2929
  903MPD2    H213285   0.539   0.069  12.199 -0.0226  0.4324  1.2025
  903MPD2    H313286   0.467   0.042  11.974 -2.6059 -3.7580 -0.9005
  903MPD2     N13287   0.059   0.229  12.061  0.3752 -0.3500 -0.9123
  903MPD2    H513288   4.734   0.259  12.137 -0.0028  1.1964 -1.8346
  903MPD2    N113289   0.408   0.153  12.408 -0.2192 -0.1348 -0.0127
  903MPD2    H713290   0.510   0.151  12.413 -0.1989 -0.6688 -0.7610
  904MPD2     C13291   4.672   4.187  14.367  0.7072  0.6131  0.1061
  904MPD2    C113292   0.007   4.256  14.269  0.0157 -0.2308 -0.4294
  904MPD2    C213293   0.133   4.207  14.237  0.3508  0.4941  0.0164
  904MPD2    C313294   0.185   4.086  14.286 -0.2801 -0.2912  0.9708
  904MPD2    C413295   0.123   4.030  14.392 -0.2115  0.4837  0.0696
  904MPD2    C513296   4.734   4.084  14.432  0.0121  0.6104 -0.6088
  904MPD2     H13297   0.179   4.263  14.157  1.2298 -1.0475 -0.5341
  904MPD2    H113298   0.162   3.938  14.434  0.1688  0.3943 -0.4910
  904MPD2    H213299   4.573   4.210  14.403  0.0464 -1.0206 -0.6940
  904MPD2    H313300   4.680   4.033  14.511 -0.2477 -0.5054 -1.5101
  904MPD2     N13301   0.311   4.056  14.237 -0.0793 -0.1423  0.5168
  904MPD2    H513302   0.344   4.114  14.161 -2.5426 -0.1610 -0.5697
  904MPD2    N113303   4.690   4.368  14.193 -0.0536 -0.4822 -0.3065
  904MPD2    H713304   0.007   4.397  14.110 -2.2531  1.8015 -0.8840
  905MPD2     C13305   4.673   0.002  13.492 -0.6330  0.1305  0.1943
  905MPD2    C113306   4.723   4.656  13.592 -0.2190  0.1058  0.3180
  905MPD2    C213307   0.095   4.572  13.571 -0.1838 -0.6151 -0.5578
  905MPD2    C313308   0.127   4.543  13.437  0.0336  0.1447 -0.3310
  905MPD2    C413309   0.073   4.618  13.336  0.5566 -0.7822 -0.3146
  905MPD2    C513310   4.723   4.721  13.366 -0.3976 -0.1079  0.4665
  905MPD2     H13311   0.138   4.518  13.654 -1.6235  1.0421  1.2679
  905MPD2    H113312   0.104   4.617  13.232  1.2873 -2.6105 -0.0646
  905MPD2    H213313   4.595   0.075  13.509 -3.0612 -2.1216 -1.1267
  905MPD2    H313314   4.685   0.054  13.291 -0.0604 -0.4946 -0.0550
  905MPD2     N13315   0.208   4.427  13.417 -0.3839 -0.3769  0.2122
  905MPD2    H513316   0.245   4.387  13.502 -0.6347  0.7301  0.8453
  905MPD2    N113317   4.681   4.684  13.718  0.6156  0.0450 -0.1633
  905MPD2    H713318   4.639   0.042  13.723  0.2810 -0.0222 -1.9235
  906MPD2     C13319   2.284   4.671  11.189 -0.2840 -0.4321  0.0192
  906MPD2    C113320   2.256   4.571  11.097  0.6935 -0.0602  0.5759
  906MPD2    C213321   2.252   4.435  11.133 -0.0878  0.1882  0.8469
  906MPD2    C313322   2.278   4.398  11.261  0.6495  0.1509  0.6268
  906MPD2    C413323   2.294   4.503  11.354 -0.2953 -0.1347 -0.4126
  906MPD2    C513324   2.305   4.631  11.319  0.0027  0.4567 -0.0151
  906MPD2     H13325   2.221   4.361  11.060 -0.9679  1.4640 -0.0877
  906MPD2    H113326   2.320   4.482  11.458 -0.1498  4.0149  0.3978
  906MPD2    H213327   2.279   0.040  11.161  1.1813  0.1010  1.7565
  906MPD2    H313328   2.320   4.705  11.396 -0.1489 -0.2875  0.7279
  906MPD2     N13329   2.266   4.267  11.312 -0.0018  0.9941  0.2716
  906MPD2    H513330   2.256   4.255  11.412 -1.5347 -2.3995 -0.2965
  906MPD2    N113331   2.223   4.594  10.961 -0.2130 -0.6338 -0.6303
  906MPD2    H713332   2.212   4.514  10.900  0.1144 -1.4429  0.3699
  907MPD2     C13333   1.341   3.845  15.708  0.3309 -0.3625 -0.9864
  907MPD2    C113334   1.419   3.746  15.665  0.2041 -0.3060  0.0188
  907MPD2    C213335   1.513   3.685  15.747 -0.0541  0.5776 -0.0365
  907MPD2    C313336   1.519   3.722  15.879 -0.1600  0.5593  0.2918
  907MPD2    C413337   1.440   3.825  15.925  0.3567 -0.5143  0.2223
  907MPD2    C513338   1.355   3.886  15.838 -0.2115 -0.8476 -0.3389
  907MPD2     H13339   1.577   3.608  15.705 -1.0590  0.1383 -0.7461
  907MPD2    H113340   1.433   3.857  16.028  2.4250 -0.3818  0.3269
  907MPD2    H213341   1.270   3.900  15.646  0.0432 -0.4751 -0.7601
  907MPD2    H313342   1.279   3.957  15.869  1.6974  1.1267 -0.1679
  907MPD2     N13343   1.612   3.657  15.968  0.5713  1.3344 -0.2361
  907MPD2    H513344   1.693   3.617  15.921 -0.1077 -1.1974  0.7120
  907MPD2    N113345   1.412   3.700  15.530  0.6702  0.8877  0.2505
  907MPD2    H713346   1.474   3.627  15.498 -2.8755 -1.2294 -1.7648
  908MPD2     C13347   3.460   4.188   9.754 -0.5211 -0.0990  0.8847
  908MPD2    C113348   3.533   4.178   9.874  0.8128  0.2872 -0.7783
  908MPD2    C213349   3.566   4.296   9.934  1.0244 -0.1271 -0.4930
  908MPD2    C313350   3.545   4.422   9.881  0.0636 -0.1832  0.1875
  908MPD2    C413351   3.477   4.424   9.763  0.0259  0.2970  0.2714
  908MPD2    C513352   3.427   4.311   9.705 -0.0050  0.6187 -0.1694
  908MPD2     H13353   3.605   4.294  10.035 -0.4219  0.4916  0.0670
  908MPD2    H113354   3.455   4.519   9.716  0.5442 -0.3482 -1.2550
  908MPD2    H213355   3.415   4.101   9.708 -0.8859 -0.1431  1.3248
  908MPD2    H313356   3.380   4.320   9.607 -3.2474 -0.5773  1.2572
  908MPD2     N13357   3.580   4.535   9.960 -0.6167  0.5001 -0.3411
  908MPD2    H513358   3.616   4.508  10.051 -1.4444  1.4596  0.2814
  908MPD2    N113359   3.549   4.053   9.929 -0.1008  0.0037 -0.4198
  908MPD2    H713360   3.500   3.973   9.889 -0.2066  0.2768 -0.8348
  909MPD2     C13361   3.745   2.221  11.990  0.2995  0.0236 -0.0120
  909MPD2    C113362   3.734   2.337  11.911  0.1656 -0.3681 -0.4506
  909MPD2    C213363   3.623   2.411  11.936  0.4479 -0.3657  0.2798
  909MPD2    C313364   3.538   2.381  12.041  0.5374  0.3580 -0.6294
  909MPD2    C413365   3.548   2.262  12.115  0.2646 -0.8486 -0.1837
  909MPD2    C513366   3.653   2.182  12.082  1.0289 -0.3005  0.1004
  909MPD2     H13367   3.609   2.506  11.887 -0.5464 -0.7365 -0.1553
  909MPD2    H113368   3.485   2.235  12.198 -1.2471  0.5430 -0.8810
  909MPD2    H213369   3.829   2.153  11.984 -0.9286 -1.3501 -1.5424
  909MPD2    H313370   3.661   2.086  12.131  2.3062  0.7535  1.9708
  909MPD2     N13371   3.433   2.473  12.054  0.2020  0.0168 -0.2568
  909MPD2    H513372   3.443   2.554  11.993 -2.5770 -1.2849 -2.4585
  909MPD2    N113373   3.816   2.386  11.807  0.0147 -0.5613 -0.0678
  909MPD2    H713374   3.789   2.477  11.770 -0.7709 -1.3273 -1.3527
  910MPD2     C13375   0.717   4.119  16.027  0.5256  0.1352  0.0554
  910MPD2    C113376   0.773   4.030  15.936  0.3358 -0.1788  0.0721
  910MPD2    C213377   0.731   4.031  15.804  0.2765  0.2135  0.0048
  910MPD2    C313378   0.639   4.113  15.763  0.1989  0.1410 -0.5844
  910MPD2    C413379   0.581   4.202  15.857  0.0568 -0.0035 -0.3126
  910MPD2    C513380   0.617   4.202  15.992 -0.7549 -0.4110  0.2203
  910MPD2     H13381   0.786   3.962  15.741 -0.5286  0.8623 -1.4017
  910MPD2    H113382   0.511   4.282  15.836  1.1298  0.6504 -1.3889
  910MPD2    H213383   0.758   4.130  16.127 -1.2394 -0.7229  0.8571
  910MPD2    H313384   0.581   4.271  16.068 -2.0587 -1.3323  0.4490
  910MPD2     N13385   0.594   4.106  15.627 -0.0415 -0.4883 -0.7614
  910MPD2    H513386   0.530   4.180  15.598 -0.4157 -0.9307 -1.0691
  910MPD2    N113387   0.860   3.927  15.975 -0.7807 -0.9744  0.4880
  910MPD2    H713388   0.895   3.871  15.898 -0.7143 -0.1469 -0.0844
  911MPD2     C13389   3.379   4.421  16.222  0.9149 -0.2348 -0.4234
  911MPD2    C113390   3.466   4.520  16.247 -0.2377  0.0386 -0.5186
  911MPD2    C213391   3.437   4.649  16.218 -0.3035 -0.0650 -0.7348
  911MPD2    C313392   3.316   4.676  16.162 -0.2126  0.0418  0.0734
  911MPD2    C413393   3.224   4.578  16.130 -0.2743  0.1941 -0.1046
  911MPD2    C513394   3.265   4.454  16.165 -0.3448 -0.0997 -0.0952
  911MPD2     H13395   3.496   0.003  16.232  0.5800 -0.6616 -0.6562
  911MPD2    H113396   3.128   4.593  16.083 -1.1089 -0.7596  1.3055
  911MPD2    H213397   3.380   4.324  16.270  0.0478  0.7000  1.4614
  911MPD2    H313398   3.193   4.373  16.155 -1.1243  0.7040 -0.9581
  911MPD2     N13399   3.290   0.075  16.137  0.0412 -0.2660 -0.3131
  911MPD2    H513400   3.356   0.140  16.179 -0.6145  0.0132  0.2809
  911MPD2    N113401   3.589   4.475  16.311  0.8947  0.4784  0.5876
  911MPD2    H713402   3.591   4.378  16.341  0.6586  0.3586  0.2130
  912MPD2     C13403   2.716   0.195  15.706 -0.0684  0.4007 -0.3046
  912MPD2    C113404   2.814   0.140  15.776 -0.1357  0.2290  0.9417
  912MPD2    C213405   2.794   0.014  15.835  0.4462  0.5504 -0.5592
  912MPD2    C313406   2.676   4.682  15.833 -0.0833  0.1981 -0.0172
  912MPD2    C413407   2.575   4.735  15.750 -0.5433 -0.2838  0.3750
  912MPD2    C513408   2.597   0.121  15.695  0.0935  0.2187 -0.3941
  912MPD2     H13409   2.878   4.717  15.895 -1.4693 -0.5978  1.5154
  912MPD2    H113410   2.482   4.683  15.730  0.1434 -2.3636  2.5999
  912MPD2    H213411   2.723   0.290  15.655  0.5134  1.1997  1.2686
  912MPD2    H313412   2.507   0.162  15.649  1.9915  4.1171 -0.6095
  912MPD2     N13413   2.667   4.563  15.906 -0.0351  0.5189 -0.6348
  912MPD2    H513414   2.747   4.529  15.957 -0.4008  1.2060  0.3949
  912MPD2    N113415   2.928   0.213  15.816 -0.0336 -0.1726  0.2458
  912MPD2    H713416   2.995   0.167  15.877  0.9304 -3.3996 -3.2246
  913MPD2     C13417   3.612   1.720  11.178 -0.2470 -0.6633  1.1559
  913MPD2    C113418   3.607   1.612  11.093 -0.4763  0.2313  0.2411
  913MPD2    C213419   3.528   1.615  10.980  0.2179  0.1189  0.1983
  913MPD2    C313420   3.454   1.731  10.950  0.0411  0.1736 -0.1219
  913MPD2    C413421   3.461   1.838  11.034  0.0254  0.6442 -0.5761
  913MPD2    C513422   3.540   1.834  11.149 -0.9335  0.7991  0.9047
  913MPD2     H13423   3.539   1.531  10.913 -0.2498 -0.7737  1.2405
  913MPD2    H113424   3.396   1.921  11.010  1.0154  1.8449  0.9057
  913MPD2    H213425   3.667   1.718  11.271  1.5077 -1.7042  0.0797
  913MPD2    H313426   3.555   1.920  11.214 -1.7352  1.6530 -0.0392
  913MPD2     N13427   3.374   1.748  10.832  0.0483 -0.3798  0.2713
  913MPD2    H513428   3.343   1.843  10.812  0.4678 -0.5233 -1.0183
  913MPD2    N113429   3.679   1.503  11.131 -0.0295 -0.0524  0.2890
  913MPD2    H713430   3.732   1.516  11.216  1.0299 -0.8064 -0.2543
  914MPD2     C13431   1.100   1.357  12.268 -0.4423 -0.1663  0.3156
  914MPD2    C113432   1.152   1.413  12.382 -0.0357  0.5460 -0.1720
  914MPD2    C213433   1.224   1.320  12.462 -0.3280 -0.2221 -0.3832
  914MPD2    C313434   1.234   1.191  12.426 -0.6707  0.6947  0.7045
  914MPD2    C413435   1.174   1.143  12.315  0.4165 -0.7871  0.3240
  914MPD2    C513436   1.112   1.223  12.231  0.5728 -0.6965  0.0433
  914MPD2     H13437   1.272   1.340  12.557 -1.6140  0.3970  0.1401
  914MPD2    H113438   1.167   1.042  12.277 -1.9664 -0.5902  0.2517
  914MPD2    H213439   1.046   1.417  12.195 -0.4144  0.2290  0.6229
  914MPD2    H313440   1.052   1.184  12.149  0.9875 -1.3418  0.0481
  914MPD2     N13441   1.288   1.101  12.516 -0.0272  0.1383 -0.5463
  914MPD2    H513442   1.317   1.138  12.606 -0.3320 -1.0079  0.0278
  914MPD2    N113443   1.148   1.555  12.409 -0.3293  0.0809  0.1352
  914MPD2    H713444   1.097   1.620  12.349  1.7682  2.3354  0.7864
  915MPD2     C13445   4.479   1.024  15.381  0.4322  0.0585  0.5431
  915MPD2    C113446   4.348   1.030  15.334  0.6290 -0.0757 -0.0558
  915MPD2    C213447   4.269   1.119  15.410 -0.0306  0.4692  0.3655
  915MPD2    C313448   4.310   1.179  15.530 -0.0470 -0.2207 -0.0618
  915MPD2    C413449   4.434   1.162  15.576  0.1036 -0.3624 -1.0033
  915MPD2    C513450   4.523   1.088  15.498  0.3672 -0.3912  0.2525
  915MPD2     H13451   4.166   1.140  15.383 -0.5778  0.3681  2.3763
  915MPD2    H113452   4.474   1.214  15.662  1.9746 -0.6978 -1.6742
  915MPD2    H213453   4.549   0.952  15.341 -2.2734 -1.9843 -0.4596
  915MPD2    H313454   4.620   1.075  15.543  0.2921  0.4729  0.6665
  915MPD2     N13455   4.213   1.254  15.605  0.4515 -0.3399 -0.0996
  915MPD2    H513456   4.128   1.279  15.557 -0.5891 -0.3568  1.7460
  915MPD2    N113457   4.306   0.959  15.220 -0.1408  0.5952 -0.3548
  915MPD2    H713458   4.381   0.908  15.174  0.7630  2.1317 -0.5829
  916MPD2     C13459   2.143   3.848  15.452 -0.3084 -0.4817  0.1425
  916MPD2    C113460   2.158   3.914  15.571 -0.1354 -0.3567 -0.3174
  916MPD2    C213461   2.283   3.955  15.615 -0.0490 -0.3168 -0.1358
  916MPD2    C313462   2.392   3.917  15.540  0.4078  0.6492  0.7286
  916MPD2    C413463   2.374   3.870  15.409  0.3220 -0.4432  0.0275
  916MPD2    C513464   2.248   3.839  15.367 -0.0705  0.5246 -0.6398
  916MPD2     H13465   2.298   4.005  15.710  0.4662 -3.9620  1.7365
  916MPD2    H113466   2.454   3.865  15.337  0.4681 -0.8262  0.2152
  916MPD2    H213467   2.047   3.816  15.412 -0.0671 -0.6642 -0.2959
  916MPD2    H313468   2.232   3.811  15.263  1.5207  0.0017 -0.7390
  916MPD2     N13469   2.522   3.939  15.592 -0.1655  0.2465  0.4028
  916MPD2    H513470   2.523   3.987  15.682 -2.2271 -0.4203  0.7681
  916MPD2    N113471   2.042   3.930  15.647  0.4082 -0.1208  0.1231
  916MPD2    H713472   1.952   3.899  15.612  0.7671  0.0911 -0.9597
  917MPD2     C13473   2.317   2.149  11.355 -0.5662 -0.1143 -1.3749
  917MPD2    C113474   2.235   2.187  11.457  0.4339 -0.0904 -0.0379
  917MPD2    C213475   2.157   2.303  11.446  0.4236 -0.5269 -0.3359
  917MPD2    C313476   2.180   2.391  11.343  0.0756  0.1415  0.3132
  917MPD2    C413477   2.268   2.352  11.244  0.0525 -0.7094  0.0562
  917MPD2    C513478   2.340   2.231  11.247 -0.3503 -0.0600  0.0451
  917MPD2     H13479   2.080   2.331  11.517  0.1464  0.2976 -0.9613
  917MPD2    H113480   2.291   2.421  11.164 -0.6594 -1.5653 -0.8895
  917MPD2    H213481   2.383   2.063  11.362  1.4638  1.6489  1.0728
  917MPD2    H313482   2.408   2.203  11.168 -1.6596  0.3227 -1.2266
  917MPD2     N13483   2.122   2.521  11.342  0.6337  0.1439 -0.6515
  917MPD2    H513484   2.116   2.565  11.250 -1.8846  1.3121  0.0745
  917MPD2    N113485   2.217   2.097  11.570  0.1946 -0.4674  0.0961
  917MPD2    H713486   2.231   1.997  11.567  0.1766 -0.4527 -0.4617
  918MPD2     C13487   2.232   2.272  12.567 -0.0347  0.1363  0.4474
  918MPD2    C113488   2.344   2.267  12.486  0.3555  0.0463  0.0647
  918MPD2    C213489   2.339   2.220  12.357 -0.4504 -0.0110  0.4796
  918MPD2    C313490   2.219   2.167  12.313 -0.4551 -0.3012 -0.0499
  918MPD2    C413491   2.107   2.174  12.391 -0.0597  0.3968 -0.1541
  918MPD2    C513492   2.115   2.221  12.520  0.6928  0.4946  0.3605
  918MPD2     H13493   2.437   2.211  12.311 -0.8724 -0.8650 -0.2512
  918MPD2    H113494   2.015   2.123  12.362  0.5921 -0.4227 -0.7957
  918MPD2    H213495   2.237   2.304  12.671 -1.7213  0.1965  0.5182
  918MPD2    H313496   2.019   2.227  12.571  2.4421  1.2304  3.5583
  918MPD2     N13497   2.211   2.093  12.192 -0.6258  0.6110  0.8715
  918MPD2    H513498   2.293   2.093  12.132  0.2956 -2.7060  2.0985
  918MPD2    N113499   2.472   2.320  12.523  0.0745  0.6268 -0.0160
  918MPD2    H713500   2.555   2.311  12.466  1.1365  2.4792  1.2733
  919MPD2     C13501   3.176   1.102  11.926  0.2689  0.3321 -1.0802
  919MPD2    C113502   3.055   1.049  11.887 -0.4509 -0.3140 -0.2418
  919MPD2    C213503   2.966   1.136  11.829 -0.3462 -0.2370  0.6525
  919MPD2    C313504   3.002   1.265  11.790  0.5666 -0.7876 -0.2201
  919MPD2    C413505   3.133   1.308  11.816  0.0437 -0.3761  0.3769
  919MPD2    C513506   3.223   1.228  11.881 -0.0437 -0.1157 -0.7714
  919MPD2     H13507   2.865   1.105  11.807 -0.4894  1.0284 -0.4308
  919MPD2    H113508   3.161   1.411  11.796 -0.9426 -0.0600  0.6559
  919MPD2    H213509   3.239   1.051  11.998 -0.3039 -1.1868 -1.6333
  919MPD2    H313510   3.320   1.261  11.917 -1.2938  0.9559  1.6778
  919MPD2     N13511   2.918   1.358  11.714 -0.4465 -0.0156 -0.3639
  919MPD2    H513512   2.960   1.447  11.690  3.1802 -1.0349  2.3917
  919MPD2    N113513   3.012   0.927  11.944 -0.6231 -0.3316 -0.1586
  919MPD2    H713514   2.913   0.907  11.939 -0.3671 -1.2049 -1.6379
  920MPD2     C13515   2.984   1.819  10.852  0.4318  0.4570 -0.5491
  920MPD2    C113516   2.871   1.746  10.827  1.0662  0.6467 -0.6566
  920MPD2    C213517   2.827   1.672  10.934  0.2806 -0.3200 -0.4922
  920MPD2    C313518   2.883   1.686  11.061  0.2182  0.4105  0.0817
  920MPD2    C413519   2.989   1.767  11.082  1.2762  1.1546  0.2084
  920MPD2    C513520   3.042   1.829  10.979 -0.0847 -0.3632  0.1891
  920MPD2     H13521   2.770   1.582  10.911 -0.4802 -0.4941  2.0879
  920MPD2    H113522   3.034   1.784  11.179  1.1848  0.3989  0.3878
  920MPD2    H213523   3.028   1.877  10.772  0.0537  0.5460 -0.6931
  920MPD2    H313524   3.136   1.883  10.986 -0.2613  0.2127 -1.6576
  920MPD2     N13525   2.829   1.602  11.167  0.1756  0.1019  0.2626
  920MPD2    H513526   2.761   1.528  11.154 -0.1046  0.4135 -0.0401
  920MPD2    N113527   2.795   1.747  10.707  0.9828  0.6552  0.1375
  920MPD2    H713528   2.726   1.673  10.696  1.2912  0.7748 -2.4979
  921MPD2     C13529   4.424   0.044  16.802 -0.5644 -0.3222 -0.5690
  921MPD2    C113530   4.446   4.668  16.721  0.0005 -0.1290 -0.1948
  921MPD2    C213531   4.336   4.602  16.661  0.1860 -0.2558 -0.9333
  921MPD2    C313532   4.208   4.652  16.679 -0.6257  0.4827 -0.1553
  921MPD2    C413533   4.192   0.037  16.747 -0.1540  0.3721  0.1432
  921MPD2    C513534   4.298   0.099  16.807 -0.4886 -0.4072 -0.1533
  921MPD2     H13535   4.352   4.511  16.604  0.7940 -0.2838 -0.7103
  921MPD2    H113536   4.100   0.094  16.747 -1.1324 -1.1722  3.1138
  921MPD2    H213537   4.501   0.098  16.856  0.4682 -1.4156 -0.9216
  921MPD2    H313538   4.275   0.188  16.864 -0.5808  0.5814 -1.7359
  921MPD2     N13539   4.091   4.586  16.635  0.0274  0.3818  0.6962
  921MPD2    H513540   4.004   4.635  16.654  0.4790  0.8694  1.4937
  921MPD2    N113541   4.587   4.635  16.696  0.4177 -0.0039  0.1180
  921MPD2    H713542   4.655   4.701  16.733  0.6522  0.1984 -0.6782
  922MPD2     C13543   0.372   2.375  17.204 -0.0337  0.1628 -0.7451
  922MPD2    C113544   0.312   2.500  17.209  0.4565 -0.4087  0.3686
  922MPD2    C213545   0.174   2.507  17.233  0.6499  0.0974 -0.2722
  922MPD2    C313546   0.101   2.391  17.259  0.0734  0.0375 -0.0410
  922MPD2    C413547   0.166   2.271  17.245  0.2637 -0.2381  0.8096
  922MPD2    C513548   0.298   2.259  17.217  0.2015 -0.4466  0.0982
  922MPD2     H13549   0.123   2.603  17.236  0.6691  0.0481  1.7287
  922MPD2    H113550   0.117   2.176  17.262  1.4655 -0.7145  1.5624
  922MPD2    H213551   0.477   2.357  17.185 -0.0013 -0.1415 -0.2802
  922MPD2    H313552   0.343   2.162  17.234  0.0591 -0.4195  0.6439
  922MPD2     N13553   4.701   2.406  17.284  0.1529 -0.4884  0.4326
  922MPD2    H513554   4.664   2.500  17.285  1.5991  0.0811  0.9143
  922MPD2    N113555   0.383   2.619  17.191  0.8295 -0.1510  0.1615
  922MPD2    H713556   0.324   2.701  17.198 -0.4700 -0.9686 -1.2797
  923MPD2     C13557   1.049   4.589   8.961  0.1310 -0.2403 -0.2894
  923MPD2    C113558   0.993   4.661   9.059  0.3503 -0.2093 -0.8092
  923MPD2    C213559   1.045   4.659   9.190 -0.2606 -0.3199 -0.2881
  923MPD2    C313560   1.149   4.578   9.215 -0.4477  0.3771  0.6994
  923MPD2    C413561   1.213   4.517   9.105  0.5576  0.0861  0.0492
  923MPD2    C513562   1.159   4.516   8.985  0.2624  0.2302 -0.4434
  923MPD2     H13563   0.997   4.718   9.268  0.6800 -0.9843  0.7815
  923MPD2    H113564   1.293   4.449   9.132  0.2590 -0.1389  0.3636
  923MPD2    H213565   1.007   4.584   8.861 -0.5791 -0.0476 -0.0017
  923MPD2    H313566   1.205   4.459   8.905  0.4812 -1.6878  1.0555
  923MPD2     N13567   1.199   4.545   9.340 -0.6284 -0.4101  0.2852
  923MPD2    H513568   1.259   4.463   9.338 -0.6535 -0.4249  0.1739
  923MPD2    N113569   0.876   4.730   9.027  0.1697  0.0983 -0.1120
  923MPD2    H713570   0.857   4.729   8.928  2.2592  1.6487 -0.5502
  924MPD2     C13571   1.925   2.928  15.787  0.0822  0.1112 -0.1925
  924MPD2    C113572   1.862   2.936  15.913  0.0781 -0.0963  0.2329
  924MPD2    C213573   1.866   3.058  15.975 -0.0624  0.9387 -0.4053
  924MPD2    C313574   1.916   3.176  15.912 -0.2849  0.2467  0.1563
  924MPD2    C413575   1.955   3.160  15.782 -0.3770  0.7021  0.4672
  924MPD2    C513576   1.960   3.038  15.718  0.1741  0.4584  0.0665
  924MPD2     H13577   1.833   3.062  16.078 -0.1612 -1.2168 -0.3493
  924MPD2    H113578   1.979   3.248  15.723 -1.0492  0.6161  0.0650
  924MPD2    H213579   1.944   2.835  15.735 -2.0770 -0.1952 -0.4216
  924MPD2    H313580   1.987   3.037  15.613  0.5200 -1.9452  0.1929
  924MPD2     N13581   1.913   3.299  15.982  0.1834  0.2948  0.6125
  924MPD2    H513582   1.946   3.374  15.923  0.6046  0.6731  1.3254
  924MPD2    N113583   1.793   2.838  15.987  0.5819 -0.7354 -0.3404
  924MPD2    H713584   1.761   2.874  16.076  1.7397 -0.4356 -0.0450
  925MPD2     C13585   0.210   1.024  15.136  0.5557 -0.1521  0.2851
  925MPD2    C113586   0.151   0.924  15.062  0.4490  0.6873  0.9906
  925MPD2    C213587   0.079   0.823  15.124 -0.2210 -0.1949  0.3276
  925MPD2    C313588   0.073   0.813  15.262 -0.1424 -0.0145  0.7907
  925MPD2    C413589   0.133   0.914  15.336  0.3164 -0.5486  0.3569
  925MPD2    C513590   0.195   1.020  15.272 -0.0716 -0.2851  0.6107
  925MPD2     H13591   0.024   0.748  15.068 -1.2112  1.4368 -0.9078
  925MPD2    H113592   0.128   0.928  15.443  0.7026  0.6779  0.2050
  925MPD2    H213593   0.241   1.119  15.094  0.7821 -0.0061  0.7870
  925MPD2    H313594   0.216   1.104  15.336  3.3139 -0.7649  0.1500
  925MPD2     N13595   4.733   0.710  15.327  0.4164 -0.1547 -0.5132
  925MPD2    H513596   4.706   0.626  15.276  0.2692 -0.9134  0.8178
  925MPD2    N113597   0.157   0.924  14.923  0.6708 -0.5280  0.8325
  925MPD2    H713598   0.102   0.849  14.883  1.8560 -1.1809  0.4339
  926MPD2     C13599   3.616   3.753  13.957  0.5505 -0.1280  0.3437
  926MPD2    C113600   3.527   3.800  13.861  0.0962  0.5287 -0.6058
  926MPD2    C213601   3.567   3.859  13.746  0.3194 -0.4008  0.7690
  926MPD2    C313602   3.698   3.896  13.728  0.5248 -0.1937 -0.3448
  926MPD2    C413603   3.788   3.861  13.827 -0.3867  0.8607 -0.5484
  926MPD2    C513604   3.747   3.790  13.934  0.7542  0.2540 -0.4934
  926MPD2     H13605   3.497   3.908  13.679 -0.1311 -0.5229  1.1501
  926MPD2    H113606   3.888   3.902  13.821 -0.9075  1.8868 -2.4359
  926MPD2    H213607   3.589   3.698  14.046 -0.5340 -0.0444  0.0666
  926MPD2    H313608   3.826   3.766  14.004 -1.1000  1.1745  1.8947
  926MPD2     N13609   3.753   3.981  13.628 -0.7618 -0.0666  0.3777
  926MPD2    H513610   3.854   3.973  13.627 -0.9116 -2.2030  2.1041
  926MPD2    N113611   3.382   3.798  13.872 -0.3952 -0.5774 -0.0321
  926MPD2    H713612   3.334   3.825  13.787 -0.5140 -0.5022  0.0604
  927MPD2     C13613   3.634   1.243   0.390  0.3655 -0.2221 -0.1171
  927MPD2    C113614   3.546   1.316   0.307  0.0521  1.4295  0.1333
  927MPD2    C213615   3.605   1.388   0.203 -0.1887  0.7066 -0.2021
  927MPD2    C313616   3.735   1.393   0.173 -0.1054  0.1092  0.2310
  927MPD2    C413617   3.821   1.326   0.260 -0.1368  0.0502  0.0239
  927MPD2    C513618   3.768   1.249   0.366 -0.0394  0.0906 -0.7716
  927MPD2     H13619   3.539   1.444   0.138  0.7631 -1.2319 -2.8435
  927MPD2    H113620   3.929   1.320   0.252  0.0240  3.3755 -0.3674
  927MPD2    H213621   3.599   1.187   0.476  0.4128  0.3579  0.2785
  927MPD2    H313622   3.828   1.210   0.447 -0.9129 -1.6186 -0.9531
  927MPD2     N13623   3.776   1.469   0.067  0.5321  0.6841 -0.0080
  927MPD2    H513624   3.707   1.526   0.019  1.7194  0.6303 -1.7817
  927MPD2    N113625   3.409   1.296   0.327 -0.8830  0.1323  0.6315
  927MPD2    H713626   3.380   1.228   0.397  0.3381 -1.8743 -0.8146
  928MPD2     C13627   1.105   4.213  17.610 -0.8422  0.3379  0.3994
  928MPD2    C113628   1.134   4.281  17.729 -0.8329  0.2866 -0.1788
  928MPD2    C213629   1.265   4.324   0.002  0.0787 -0.2213 -0.3764
  928MPD2    C313630   1.360   4.302  17.647  0.0875  0.1862 -0.2267
  928MPD2    C413631   1.331   4.216  17.544  0.0290  0.0914  0.0650
  928MPD2    C513632   1.202   4.181  17.518  0.7507 -0.2666  0.0492
  928MPD2     H13633   1.296   4.389   0.083  1.6240 -0.7135 -0.5638
  928MPD2    H113634   1.399   4.189  17.464 -0.3157 -1.1733  0.1882
  928MPD2    H213635   1.002   4.180  17.596 -1.1135  0.8194  1.2288
  928MPD2    H313636   1.177   4.116  17.435  0.1347  3.4897 -2.7163
  928MPD2     N13637   1.493   4.348  17.644 -0.4381  0.3957  0.8810
  928MPD2    H513638   1.545   4.318  17.562 -1.0177 -3.5822  1.9689
  928MPD2    N113639   1.036   4.314   0.084 -0.3737  0.1694 -0.5484
  928MPD2    H713640   0.948   4.264   0.074 -1.2196  1.1266  2.3414
  929MPD2     C13641   0.595   0.136   9.649 -0.3062  0.0556 -0.2580
  929MPD2    C113642   0.584   0.029   9.734  0.5987 -0.8790 -0.1999
  929MPD2    C213643   0.543   4.642   9.682  0.0668  0.5770  0.1522
  929MPD2    C313644   0.494   4.637   9.556 -0.0520 -0.7853 -0.4914
  929MPD2    C413645   0.520   4.735   9.468  0.0197 -0.1819 -0.3351
  929MPD2    C513646   0.579   0.111   9.516  0.4240  0.0433  0.5022
  929MPD2     H13647   0.524   4.556   9.745 -1.2532  1.1825  0.5812
  929MPD2    H113648   0.511   4.720   9.361 -0.7881 -1.3561 -0.1013
  929MPD2    H213649   0.633   0.232   9.684 -0.0943  0.0043 -0.3479
  929MPD2    H313650   0.606   0.197   9.456 -0.1961  0.6422  1.0842
  929MPD2     N13651   0.416   4.529   9.513  0.1841 -0.6652 -0.9520
  929MPD2    H513652   0.414   4.526   9.412 -0.9536  0.9349 -0.9735
  929MPD2    N113653   0.623   0.042   9.872  0.2398  0.0806 -0.4751
  929MPD2    H713654   0.657   0.135   9.894 -0.7939  0.8584 -2.1852
  930MPD2     C13655   3.249   1.931  14.165 -0.3230 -0.9655  0.2053
  930MPD2    C113656   3.194   1.992  14.057 -0.3008 -0.0079 -0.0744
  930MPD2    C213657   3.110   1.923  13.971  0.5081 -0.6749  0.0088
  930MPD2    C313658   3.077   1.790  14.001 -0.3242 -0.3656 -0.6585
  930MPD2    C413659   3.137   1.730  14.105  0.0050 -0.9821 -0.1723
  930MPD2    C513660   3.219   1.800  14.187  0.2331 -0.2678 -0.4094
  930MPD2     H13661   3.070   1.973  13.883 -1.3901 -0.3498  1.0634
  930MPD2    H113662   3.137   1.623  14.123  1.8618 -0.8596  0.5242
  930MPD2    H213663   3.327   1.973  14.226 -0.1521 -2.3288  0.9220
  930MPD2    H313664   3.274   1.742  14.261  0.2467  1.5053  0.9730
  930MPD2     N13665   3.022   1.708  13.897 -0.2530  0.1344 -0.3549
  930MPD2    H513666   3.049   1.610  13.892  0.3775  0.3742 -1.6491
  930MPD2    N113667   3.236   2.117  14.013 -0.0817 -0.0052 -0.5104
  930MPD2    H713668   3.185   2.150  13.932  1.5946 -0.8805 -1.9253
  931MPD2     C13669   2.792   0.724   0.363  0.0919  0.0114  0.8939
  931MPD2    C113670   2.898   0.805   0.401 -0.5685  0.4173 -0.5852
  931MPD2    C213671   2.980   0.758   0.504  0.1478  0.5264  0.2724
  931MPD2    C313672   2.946   0.649   0.582  0.2154  0.6948  0.3708
  931MPD2    C413673   2.839   0.575   0.544 -0.6386 -0.1302  0.2964
  931MPD2    C513674   2.761   0.615   0.433  0.0972 -0.3813  0.0861
  931MPD2     H13675   3.060   0.810   0.557  1.2057 -0.6430 -0.1845
  931MPD2    H113676   2.797   0.490   0.598 -2.2058  0.7078  0.4091
  931MPD2    H213677   2.716   0.757   0.292 -1.2698 -2.6463  1.0988
  931MPD2    H313678   2.671   0.565   0.401  0.1915  1.1751 -2.5864
  931MPD2     N13679   3.020   0.596   0.685  0.0941  0.2689  0.5028
  931MPD2    H513680   2.984   0.516   0.736  0.4779 -0.8179 -0.9470
  931MPD2    N113681   2.911   0.928   0.340  0.3681  0.6816 -0.9542
  931MPD2    H713682   2.853   0.951   0.260  1.8792  2.3684 -1.5532
  932MPD2     C13683   0.935   0.105  11.324 -0.4396  0.7836  0.9986
  932MPD2    C113684   0.939   0.212  11.403 -0.2504 -0.4534  0.2080
  932MPD2    C213685   1.008   0.201  11.524 -0.4909  0.2440  0.0124
  932MPD2    C313686   1.058   0.078  11.568  0.4482 -0.4393  1.2541
  932MPD2    C413687   1.058   4.709  11.476 -0.3895 -0.1252 -0.4706
  932MPD2    C513688   1.000   4.720  11.348  0.8280 -0.5581 -0.3942
  932MPD2     H13689   1.007   0.289  11.588  2.2341  1.3804 -1.5376
  932MPD2    H113690   1.120   4.621  11.492 -0.5515 -0.5961 -2.3399
  932MPD2    H213691   0.882   0.092  11.230  2.3753 -1.4938 -0.3081
  932MPD2    H313692   1.007   4.635  11.282 -0.1790 -1.6653  0.9276
  932MPD2     N13693   1.138   0.060  11.687  0.0150  0.7053 -0.0263
  932MPD2    H513694   1.185   4.706  11.701 -3.1631 -1.2624 -1.7915
  932MPD2    N113695   0.877   0.334  11.370  0.0583  0.2506 -1.1842
  932MPD2    H713696   0.882   0.410  11.437 -0.2427  0.7770 -1.7556
  933MPD2     C13697   0.459   4.646  17.635  0.9442  0.7810 -0.6807
  933MPD2    C113698   0.556   4.709  17.716  0.3289  0.9387  0.3739
  933MPD2    C213699   0.564   0.107  17.702  0.4031 -0.6860  0.0861
  933MPD2    C313700   0.484   0.181  17.622 -0.9117  1.1149 -0.6731
  933MPD2    C413701   0.392   0.115  17.540 -0.1338  0.3250 -0.2347
  933MPD2    C513702   0.383   4.711  17.541 -0.5004 -0.1785  0.3978
  933MPD2     H13703   0.639   0.163   0.018 -0.9450  0.3216  0.9291
  933MPD2    H113704   0.330   0.170  17.470 -2.4110 -1.1449  0.6320
  933MPD2    H213705   0.457   4.537  17.641 -1.7391  0.8206 -0.8316
  933MPD2    H313706   0.322   4.652  17.473 -0.5748 -2.0146  2.0595
  933MPD2     N13707   0.496   0.326  17.623  0.2470 -0.3894 -0.4357
  933MPD2    H513708   0.565   0.362  17.687 -0.2368 -0.5691  0.1886
  933MPD2    N113709   0.636   4.640   0.070 -0.2647  0.4751 -0.1358
  933MPD2    H713710   0.637   4.539   0.066 -3.4997  0.4742 -0.4893
  934MPD2     C13711   2.227   2.925   1.520  0.5489 -0.7013  0.7996
  934MPD2    C113712   2.321   2.862   1.433 -0.3557  0.6258  0.8817
  934MPD2    C213713   2.290   2.757   1.349  0.3307 -0.4442  0.4223
  934MPD2    C313714   2.161   2.710   1.360  0.3862 -0.1135  0.4852
  934MPD2    C413715   2.069   2.767   1.443 -0.0168  0.1677  0.2429
  934MPD2    C513716   2.100   2.875   1.523  0.0205  0.5924 -0.6817
  934MPD2     H13717   2.365   2.720   1.281  1.4260  0.9017  0.9026
  934MPD2    H113718   1.968   2.728   1.446 -0.2303  0.7140  0.1475
  934MPD2    H213719   2.257   3.010   1.581  1.4047  0.7191 -1.6083
  934MPD2    H313720   2.025   2.924   1.584  1.0464 -1.9910  2.6428
  934MPD2     N13721   2.108   2.596   1.291  0.0247 -0.2234 -0.2671
  934MPD2    H513722   2.012   2.567   1.305 -0.8143  1.3635 -2.8326
  934MPD2    N113723   2.453   2.910   1.416 -0.3158 -0.5239  0.2219
  934MPD2    H713724   2.508   2.871   1.340  0.3417  0.7217  0.0652
  935MPD2     C13725   2.455   1.714   0.979 -0.7301 -0.1717 -0.5672
  935MPD2    C113726   2.339   1.728   0.910  0.4170 -0.0856  0.7978
  935MPD2    C213727   2.257   1.835   0.948 -0.1869 -0.4889 -0.3684
  935MPD2    C313728   2.291   1.925   1.049 -0.2636  0.1616 -0.0077
  935MPD2    C413729   2.416   1.907   1.116 -0.5100 -0.0899  0.3129
  935MPD2    C513730   2.495   1.798   1.078  0.1486  0.6120 -0.9628
  935MPD2     H13731   2.164   1.857   0.898 -0.4883  1.2696  0.9445
  935MPD2    H113732   2.450   1.974   1.193 -0.3823  0.0624  0.1228
  935MPD2    H213733   2.529   1.641   0.948 -0.1632  0.2073 -0.1105
  935MPD2    H313734   2.589   1.773   1.125 -0.9428 -1.0494  0.3444
  935MPD2     N13735   2.210   2.038   1.088  1.0147  0.4626  0.3207
  935MPD2    H513736   2.255   2.102   1.153 -0.4446  0.0613  1.7395
  935MPD2    N113737   2.296   1.626   0.817  0.1007 -0.1676  0.4972
  935MPD2    H713738   2.359   1.551   0.792  0.9399 -0.1146  2.4769
  936MPD2     C13739   0.587   3.668  12.268 -0.2742 -0.1363  0.1349
  936MPD2    C113740   0.662   3.625  12.371  0.0968  0.3102  0.5899
  936MPD2    C213741   0.797   3.658  12.366 -0.3564  0.3014  0.1175
  936MPD2    C313742   0.855   3.736  12.269 -0.5539 -0.4701  0.0346
  936MPD2    C413743   0.777   3.789  12.171  0.3122 -0.3864 -0.6658
  936MPD2    C513744   0.648   3.756  12.176 -0.1823 -0.0789 -0.0830
  936MPD2     H13745   0.864   3.621  12.443  2.8565  0.8893 -2.3806
  936MPD2    H113746   0.817   3.850  12.090  2.3408  0.1930  0.7829
  936MPD2    H213747   0.482   3.643  12.255 -1.0562  2.4823  1.4668
  936MPD2    H313748   0.584   3.787  12.094  2.5794  0.4168 -2.0711
  936MPD2     N13749   0.992   3.746  12.248 -0.4601  0.2883  0.1487
  936MPD2    H513750   1.017   3.805  12.169 -0.9878 -1.3348 -1.2248
  936MPD2    N113751   0.621   3.555  12.480 -0.1164  0.1215  0.2127
  936MPD2    H713752   0.698   3.526  12.540  0.7238 -1.5648 -1.6754
  937MPD2     C13753   3.096   0.102  11.835  0.2543  0.6989 -0.4878
  937MPD2    C113754   3.094   0.222  11.768  0.1122 -0.0799  0.1560
  937MPD2    C213755   3.146   0.234  11.641  0.5351 -0.2389  0.0233
  937MPD2    C313756   3.193   0.119  11.576  0.0287 -0.5691  0.1459
  937MPD2    C413757   3.199   4.731  11.646  0.2900  0.2922  0.2383
  937MPD2    C513758   3.144   4.724  11.770 -0.0207 -0.0773 -0.3628
  937MPD2     H13759   3.162   0.333  11.599 -3.3386  0.4770  0.2631
  937MPD2    H113760   3.231   4.639  11.597 -0.0735  0.5408 -0.4778
  937MPD2    H213761   3.069   0.089  11.939  0.8758  0.6445 -0.3360
  937MPD2    H313762   3.147   4.628  11.821 -1.2225 -0.5511 -1.1995
  937MPD2     N13763   3.217   0.118  11.440  0.0836 -0.2549 -0.3538
  937MPD2    H513764   3.258   0.029  11.414  1.3117 -0.0833  0.9569
  937MPD2    N113765   3.075   0.346  11.837  0.3911 -0.3098 -0.0115
  937MPD2    H713766   3.088   0.433  11.787 -2.7200 -1.5557 -3.0504
  938MPD2     C13767   1.295   1.532   0.174 -0.0276 -0.3650  0.0591
  938MPD2    C113768   1.397   1.614   0.235 -0.5317  0.3952 -0.3412
  938MPD2    C213769   1.435   1.575   0.360  0.5370  0.6047  0.0955
  938MPD2    C313770   1.373   1.473   0.432  0.2961 -0.0044 -0.0243
  938MPD2    C413771   1.280   1.395   0.374  0.0614  0.0660 -0.3368
  938MPD2    C513772   1.238   1.429   0.247 -0.6338  0.4231  0.1043
  938MPD2     H13773   1.515   1.637   0.398  1.3564 -0.3809 -0.0314
  938MPD2    H113774   1.244   1.312   0.435  1.7661 -0.4371 -0.0042
  938MPD2    H213775   1.248   1.562   0.081 -1.9704  0.5836  1.3595
  938MPD2    H313776   1.154   1.380   0.199 -2.4123  2.7834  0.8025
  938MPD2     N13777   1.401   1.459   0.571  0.0733  0.1684  0.7708
  938MPD2    H513778   1.358   1.381   0.620  0.4552  0.8086  2.1230
  938MPD2    N113779   1.450   1.733   0.177  0.3529  0.1321 -0.1878
  938MPD2    H713780   1.512   1.791   0.233  2.0045 -1.8427  0.0357
  939MPD2     C13781   2.144   2.957   0.957  0.3520 -0.5449  0.0654
  939MPD2    C113782   2.152   3.087   0.907  0.1902  0.1808 -0.3648
  939MPD2    C213783   2.243   3.111   0.810  0.5332  0.0226  0.0149
  939MPD2    C313784   2.316   3.008   0.758  0.2432  0.6336  0.6094
  939MPD2    C413785   2.311   2.882   0.808  0.2337  0.1985  0.1081
  939MPD2    C513786   2.230   2.863   0.918  0.2047 -0.0345 -0.4764
  939MPD2     H13787   2.255   3.209   0.766  0.2779 -1.0044 -2.3363
  939MPD2    H113788   2.368   2.795   0.778 -1.2048  0.0590 -2.1868
  939MPD2    H213789   2.071   2.922   1.030 -0.1337 -1.1010 -0.6912
  939MPD2    H313790   2.227   2.765   0.965 -1.5219  0.1575 -0.2050
  939MPD2     N13791   2.396   3.035   0.644  0.1621  0.5870  0.3631
  939MPD2    H513792   2.403   3.131   0.613 -2.2288  0.3327 -0.9491
  939MPD2    N113793   2.074   3.186   0.966 -0.5198  0.1307  0.1218
  939MPD2    H713794   2.006   3.150   1.032  0.2620 -0.9552  0.3313
  940MPD2     C13795   1.627   3.184  13.256  0.5123 -0.5959  0.5410
  940MPD2    C113796   1.505   3.203  13.195  1.0726  0.1270  0.4403
  940MPD2    C213797   1.502   3.224  13.055  0.0263 -0.1244  0.1309
  940MPD2    C313798   1.620   3.203  12.982  0.4274 -0.1131  0.2983
  940MPD2    C413799   1.739   3.191  13.051  0.1075  0.4754 -0.3718
  940MPD2    C513800   1.738   3.168  13.185  0.4736  0.5062  0.6820
  940MPD2     H13801   1.405   3.240  13.008  0.8292 -3.6703 -2.6833
  940MPD2    H113802   1.827   3.182  12.987 -0.0314  1.0930 -0.6467
  940MPD2    H213803   1.636   3.157  13.360 -0.3533  0.5557  0.9196
  940MPD2    H313804   1.830   3.142  13.237  0.3937 -1.6380 -0.2723
  940MPD2     N13805   1.622   3.203  12.838 -0.2007  0.1399 -0.3647
  940MPD2    H513806   1.706   3.219  12.783  0.9240 -1.2679  0.9305
  940MPD2    N113807   1.389   3.227  13.272 -0.2346 -0.5686 -0.0292
  940MPD2    H713808   1.309   3.233  13.211  0.5588  0.4991 -0.9514
  941MPD2     C13809   0.013   3.180  10.634  0.3255 -0.1746 -0.1412
  941MPD2    C113810   0.122   3.106  10.681  0.1995 -0.1524 -0.4252
  941MPD2    C213811   0.093   3.006  10.769 -0.1287 -0.4169  0.4340
  941MPD2    C313812   4.694   2.971  10.785  0.3891  0.7242 -0.0198
  941MPD2    C413813   4.589   3.042  10.722 -0.2011  0.2890 -0.1159
  941MPD2    C513814   4.614   3.150  10.650  0.0722 -0.4239 -0.2422
  941MPD2     H13815   0.172   2.967  10.833 -0.3220 -0.4102  0.6768
  941MPD2    H113816   4.488   3.008  10.742  0.9558 -2.3089  1.3807
  941MPD2    H213817   0.023   3.273  10.579 -0.2766 -0.5707 -0.9160
  941MPD2    H313818   4.532   3.209  10.611 -1.4983  0.1407  3.8794
  941MPD2     N13819   4.645   2.862  10.865 -0.2405 -0.2834  0.8897
  941MPD2    H513820   4.545   2.852  10.882  0.0967  1.0251  3.5953
  941MPD2    N113821   0.254   3.156  10.666  0.2454 -0.1445 -0.1945
  941MPD2    H713822   0.336   3.112  10.707 -0.0443 -0.9359 -0.4498
  942MPD2     C13823   0.151   0.451   8.793 -0.1133  0.0048 -0.6156
  942MPD2    C113824   0.087   0.422   8.917  0.3503 -0.1412 -0.4119
  942MPD2    C213825   0.083   0.293   8.967  0.1121 -0.5512 -0.1927
  942MPD2    C313826   0.148   0.186   8.908 -0.2723 -0.5955  0.2404
  942MPD2    C413827   0.213   0.215   8.792 -0.3602 -0.0565 -0.5312
  942MPD2    C513828   0.215   0.341   8.738 -0.1800  0.1543 -0.3129
  942MPD2     H13829   0.024   0.284   9.057 -1.2378  2.1589 -0.7910
  942MPD2    H113830   0.274   0.147   8.733 -0.1827 -0.4521  0.1102
  942MPD2    H213831   0.177   0.546   8.748  0.8163 -0.6344 -1.4432
  942MPD2    H313832   0.277   0.348   8.649 -1.8302  0.6193 -1.4311
  942MPD2     N13833   0.148   0.053   8.958  0.5468 -0.0924 -0.8631
  942MPD2    H513834   0.195   4.718   8.902  1.5907 -1.1996  1.3924
  942MPD2    N113835   0.034   0.527   8.985  0.1830  0.2128  0.0273
  942MPD2    H713836   0.004   0.519   9.082 -0.7861  1.5887 -0.1590
  943MPD2     C13837   3.619   3.122  10.366 -0.7121  0.4862 -0.4002
  943MPD2    C113838   3.656   2.985  10.384 -0.3677 -0.9069  0.6335
  943MPD2    C213839   3.734   2.952  10.492  0.0201 -0.3492  0.6527
  943MPD2    C313840   3.791   3.046  10.574  0.5537  0.0281 -0.5170
  943MPD2    C413841   3.761   3.178  10.548 -0.2477  0.0057 -0.8737
  943MPD2    C513842   3.668   3.212  10.450 -0.4717 -0.0928 -0.4367
  943MPD2     H13843   3.767   2.852  10.517 -2.2103 -1.5524 -1.2627
  943MPD2    H113844   3.802   3.257  10.610  0.5764 -1.1321  0.0522
  943MPD2    H213845   3.544   3.157  10.296 -0.3627  1.1607 -0.4387
  943MPD2    H313846   3.634   3.315  10.445  0.5475  0.2471 -0.4975
  943MPD2     N13847   3.873   3.010  10.678  0.8399  0.3687  0.2969
  943MPD2    H513848   3.902   2.913  10.680 -1.2443 -0.2394  0.9758
  943MPD2    N113849   3.619   2.888  10.281  0.1947  0.3878 -0.2409
  943MPD2    H713850   3.553   2.922  10.212 -1.5772 -0.3927  1.0614
  944MPD2     C13851   3.858   2.312  11.280  0.3698 -0.5862  0.1951
  944MPD2    C113852   3.856   2.178  11.298  0.3546  0.3222  1.0824
  944MPD2    C213853   3.771   2.124  11.400  0.4663 -0.5685 -0.6407
  944MPD2    C313854   3.703   2.214  11.480 -0.0787 -0.7344 -0.0849
  944MPD2    C413855   3.716   2.351  11.474  0.1771  0.9294 -0.3878
  944MPD2    C513856   3.790   2.397  11.371  0.0355 -0.8475 -0.6143
  944MPD2     H13857   3.762   2.016  11.402 -1.0935 -0.4026  0.9544
  944MPD2    H113858   3.672   2.422  11.542 -1.1777 -0.1003 -0.1843
  944MPD2    H213859   3.911   2.361  11.199 -0.1737  1.1541  0.8921
  944MPD2    H313860   3.796   2.503  11.351 -0.6098 -0.6163  0.4412
  944MPD2     N13861   3.610   2.157  11.574 -0.5180  0.2640 -0.5004
  944MPD2    H513862   3.615   2.056  11.587 -1.0097  0.2535 -0.3790
  944MPD2    N113863   3.937   2.104  11.205  0.1732 -0.7232  0.1568
  944MPD2    H713864   3.983   2.159  11.133 -0.5016  1.7318  1.5753
    1TMC1    C113865   1.636   2.246  14.426  0.3384  0.9066 -0.0063
    1TMC1    C213866   1.670   2.116  14.442 -1.2501  0.0732 -0.0334
    1TMC1    C313867   1.610   2.023  14.364  0.7976  0.3615 -0.1291
    1TMC1    C413868   1.525   2.278  14.352 -0.1471  0.1169 -0.1192
    1TMC1    C513869   1.457   2.182  14.281  0.3251  0.0592 -0.7183
    1TMC1    C613870   1.503   2.053  14.280  0.8848 -0.0338 -0.1962
    1TMC1     C13871   1.739   2.344  14.463  0.4771  0.3667 -1.0395
    1TMC1     O13872   1.827   2.300  14.541 -0.2940 -0.4717  0.0004
    1TMC1     H13873   1.761   2.081  14.489 -0.5353  0.7011 -0.9496
    1TMC1    H113874   1.505   2.381  14.324 -1.4174 -0.1082 -0.0405
    1TMC1    H213875   1.466   1.984  14.205  1.5323 -2.0248  1.3009
    1TMC1    C713876   1.392   2.223  14.162 -0.4253 -0.0226 -0.0026
    1TMC1    C813877   1.662   1.889  14.369 -0.0458  0.3421  0.3541
    1TMC1    O113878   1.405   2.159  14.057  0.0908  0.5265 -0.2243
    1TMC1    O213879   1.786   1.873  14.371  0.1054  0.1135 -0.7602
    1TMC1    O313880   1.273   2.269  14.208 -0.2786 -0.5664 -0.6901
    1TMC1    H313881   1.276   2.291  14.304 -1.0031 -0.5398 -0.6723
    1TMC1    O513882   1.570   1.790  14.341  0.7115 -0.4630  0.1710
    1TMC1    H513883   1.479   1.828  14.343  1.0275  0.2315  1.6432
    2MPD2     C13884   2.012   2.767  14.357 -0.0663  0.3423 -0.1570
    2MPD2    C113885   1.897   2.768  14.283 -0.1020 -0.4436  0.3799
    2MPD2    C213886   1.807   2.665  14.297  0.4236  0.1332 -0.4055
    2MPD2    C313887   1.835   2.558  14.383 -0.3847  0.5290 -0.0147
    2MPD2    C413888   1.938   2.568  14.476  0.6275  0.0555 -0.0084
    2MPD2    C513889   2.027   2.671  14.454 -0.3030 -0.3293  0.0387
    2MPD2     H13890   1.709   2.668  14.250 -1.3747  0.9676  3.3732
    2MPD2    H113891   1.945   2.496  14.557 -1.5440 -1.1730 -0.9226
    2MPD2    H213892   2.092   2.838  14.338 -0.7640  0.6009 -2.1648
    2MPD2    H313893   2.109   2.682  14.525 -1.1246 -0.1989  0.9751
    2MPD2     N13894   1.740   2.456  14.384 -0.2353  0.5189 -0.5320
    2MPD2    H513895   1.669   2.467  14.313  0.1469  0.7112 -0.8855
    2MPD2    N113896   1.871   2.870  14.188  0.2618  0.0373  0.1563
    2MPD2    H713897   1.938   2.946  14.177  1.0429 -0.9592 -1.8605
    3TMC2    C113898   1.750   2.998  14.040 -0.2826  0.2684 -0.2055
    3TMC2    C213899   1.635   3.052  13.995  0.6254 -0.0941  0.6191
    3TMC2    C313900   1.630   3.154  13.906 -0.3575 -0.1722 -0.5801
    3TMC2    C413901   1.861   3.030  13.967  0.4897 -0.5117  0.0646
    3TMC2    C513902   1.849   3.110  13.856 -0.0275 -0.5278  0.7591
    3TMC2    C613903   1.732   3.177  13.823  0.5240  0.5958 -0.0505
    3TMC2     C13904   1.748   2.892  14.137  0.2083 -0.3191 -0.5043
    3TMC2     O13905   1.635   2.853  14.170  0.1634  0.1475  1.1111
    3TMC2     H13906   1.539   3.019  14.033  0.0247  1.2338  0.2324
    3TMC2    H113907   1.955   2.976  13.974  0.3161 -0.6543  1.2921
    3TMC2    H213908   1.723   3.249  13.743 -1.8954  0.1315 -0.1884
    3TMC2    C713909   1.959   3.123  13.765  0.1209 -0.1684 -0.2526
    3TMC2    C813910   1.505   3.161  13.837  0.1973 -0.1916  0.2168
    3TMC2    O113911   2.045   3.039  13.787 -0.2748 -0.0810 -0.4706
    3TMC2    O213912   1.443   3.058  13.812  0.5636  0.6006  0.2783
    3TMC2    O513913   1.467   3.290  13.827 -0.4818 -0.4243  0.3207
    3TMC2    H513914   1.538   3.343  13.868 -0.1981  0.6689 -1.5729
    4TMC2    C113915   1.572   3.642  13.034 -0.4492  0.2012 -0.6112
    4TMC2    C213916   1.630   3.630  12.911  0.2379 -0.5771 -0.7789
    4TMC2    C313917   1.751   3.564  12.911  0.3500  0.2409  0.8784
    4TMC2    C413918   1.631   3.601  13.154  0.3774  0.5210  0.0908
    4TMC2    C513919   1.754   3.547  13.140 -0.1185 -0.1558 -0.3807
    4TMC2    C613920   1.814   3.518  13.020  0.0445  0.6886 -0.3893
    4TMC2     C13921   1.439   3.698  13.053 -0.0039  0.6380 -0.4398
    4TMC2     O13922   1.415   3.723  13.170 -0.1136  0.6139 -0.0747
    4TMC2     H13923   1.580   3.672  12.824 -0.1335 -1.9740 -1.2509
    4TMC2    H113924   1.588   3.610  13.253  0.1008 -3.2753  0.3244
    4TMC2    H213925   1.906   3.463  13.007  0.3859  1.1092  0.2439
    4TMC2    C713926   1.811   3.488  13.256 -0.7032 -0.4620 -0.2258
    4TMC2    C813927   1.810   3.525  12.784 -0.4458 -0.0211  0.0966
    4TMC2    O113928   1.743   3.487  13.360  0.5530 -0.3700 -0.0054
    4TMC2    O213929   1.856   3.410  12.786 -0.3625  0.0292 -0.4164
    4TMC2    O513930   1.748   3.575  12.680  0.4448  0.4421  0.3805
    4TMC2    H513931   1.724   3.668  12.698 -0.2813  0.2262  0.5079
    5MPD2     C13932   0.974   3.879  12.968 -0.5277 -0.0605  0.1488
    5MPD2    C113933   1.037   3.870  12.842 -0.2337  0.7046  0.2119
    5MPD2    C213934   1.159   3.801  12.833  0.2168  0.9867  0.0590
    5MPD2    C313935   1.222   3.768  12.954  0.7449  0.3472 -0.4627
    5MPD2    C413936   1.151   3.766  13.074  0.7749 -0.2474  0.0125
    5MPD2    C513937   1.026   3.815  13.075 -0.3862 -0.3726 -0.1249
    5MPD2     H13938   1.207   3.772  12.740 -1.8291 -1.7791 -0.1389
    5MPD2    H113939   1.186   3.722  13.166 -2.4807 -0.5143  1.1072
    5MPD2    H213940   0.883   3.935  12.988  0.2907  1.5142 -0.5124
    5MPD2    H313941   0.973   3.813  13.170  0.1928  1.5275  0.2395
    5MPD2     N13942   1.360   3.727  12.945  0.2962  0.0374  0.1828
    5MPD2    H513943   1.390   3.705  12.851  1.5907  0.0901  0.5902
    5MPD2    N113944   0.965   3.926  12.730  0.4627 -0.2791 -0.1820
    5MPD2    H713945   0.870   3.956  12.749  0.6783 -0.9435  1.9440
    6MPD1     C13946   0.651   0.833  13.113  0.5190 -0.0180  0.4435
    6MPD1    C113947   0.702   0.769  12.999  0.3435  0.7735 -0.5259
    6MPD1    C213948   0.752   0.639  13.013  0.5221  0.1707 -0.3104
    6MPD1    C313949   0.741   0.566  13.128 -0.0095  0.2425 -0.1492
    6MPD1    C413950   0.663   0.619  13.228 -0.2844 -0.0128  0.4770
    6MPD1    C513951   0.629   0.753  13.224 -0.2220  0.0476  0.0730
    6MPD1     H13952   0.795   0.590  12.926 -1.0887  1.2918 -1.7133
    6MPD1    H113953   0.651   0.560  13.318 -1.2330 -0.2599  0.1844
    6MPD1    H213954   0.613   0.934  13.119  2.0432  0.6500 -0.9298
    6MPD1    H313955   0.596   0.802  13.315  0.7750  0.9620 -0.0531
    6MPD1     N13956   0.796   0.433  13.130  0.1217  0.0913  0.7827
    6MPD1    H513957   0.821   0.395  13.039 -0.8149 -1.7878  1.3162
    6MPD1    N113958   0.733   0.849  12.887  0.0958 -0.2333 -0.2375
    6MPD1    H613959   0.742   0.802  12.797  3.1523 -0.5163  0.2186
    6MPD1    H713960   0.688   0.940  12.879 -1.5949 -0.9613  1.0800
    7MPD2     C13961   0.439   4.456  12.921  0.4438 -0.0128  0.1276
    7MPD2    C113962   0.559   4.504  12.884  0.3126  0.0434 -0.4900
    7MPD2    C213963   0.625   4.449  12.775 -0.0344 -0.9908  0.1812
    7MPD2    C313964   0.569   4.349  12.705  0.4325 -0.3164  0.1251
    7MPD2    C413965   0.449   4.292  12.749  0.1742 -0.2013 -0.0511
    7MPD2    C513966   0.387   4.345  12.864 -0.1913  0.3862 -0.3579
    7MPD2     H13967   0.719   4.491  12.740 -0.8546  1.3299  0.7444
    7MPD2    H113968   0.397   4.212  12.697  3.0629 -1.2131 -1.3899
    7MPD2    H213969   0.384   4.497  13.005  0.9491  2.5241 -0.7675
    7MPD2    H313970   0.306   4.292  12.914  1.6743 -2.3593 -0.2649
    7MPD2     N13971   0.644   4.293  12.596 -0.3533 -0.4072 -0.4105
    7MPD2    H513972   0.726   4.346  12.570 -0.8200  0.0090 -1.0400
    7MPD2    N113973   0.631   4.597  12.961 -0.3790 -0.6394 -0.1460
    7MPD2    H713974   0.718   4.622  12.915  0.8844 -0.9857  2.1025
    8TMC3    C113975   0.742   4.130  12.461 -0.0531  0.0483  0.4656
    8TMC3    C213976   0.813   4.022  12.507  0.0632  0.0530 -0.0643
    8TMC3    C313977   0.950   4.042  12.521 -0.5559 -0.9022 -0.8198
    8TMC3    C413978   0.812   4.240  12.419 -0.0607  0.0172 -0.0544
    8TMC3    C513979   0.945   4.254  12.427  0.4471 -0.2078  0.5947
    8TMC3    C613980   1.018   4.148  12.470  0.0370 -0.3966  0.1923
    8TMC3     C13981   0.627   4.163  12.547  0.2557 -0.9373  0.3074
    8TMC3     O13982   0.553   4.079  12.588  0.4359  0.1348  0.3919
    8TMC3     H13983   0.755   3.937  12.539  1.2323 -0.9959 -0.7007
    8TMC3    H113984   0.759   4.320  12.369  1.4194  0.8562 -0.3053
    8TMC3    H213985   1.124   4.160  12.491 -0.6578 -0.2730  3.6568
    8TMC3    C713986   0.970   4.376  12.505  0.2220 -0.3157 -0.3501
    8TMC3    C813987   1.030   3.965  12.617 -0.8297 -0.7724 -0.8559
    8TMC3    O113988   0.880   4.430  12.567  0.0278  0.3016 -0.3254
    8TMC3    O213989   1.152   3.953  12.596 -0.3939  0.2067  0.1578
    9TMC3    C113990   0.803   0.202  13.178  0.2421 -0.0309  0.3783
    9TMC3    C213991   0.931   0.163  13.142  1.0489  0.1020 -0.2783
    9TMC3    C313992   0.948   0.042  13.100 -0.2253  0.2343 -0.6508
    9TMC3    C413993   0.699   0.122  13.162 -0.0098  1.2284 -0.3499
    9TMC3    C513994   0.717   4.734  13.113  0.5721  0.6895  0.7525
    9TMC3    C613995   0.842   4.694  13.081 -0.0957  0.6193  0.4358
    9TMC3     C13996   0.780   0.335  13.227 -0.0768 -0.9552 -0.1231
    9TMC3     O13997   0.700   0.337  13.321  0.1888 -0.1299  0.0206
    9TMC3     H13998   1.011   0.236  13.140  0.0271  1.2541  0.6190
    9TMC3    H113999   0.596   0.142  13.188  0.1343 -0.0921  1.2328
    9TMC3    H214000   0.856   4.587  13.082  2.6970  0.9092 -3.4313
    9TMC3    C714001   0.602   4.656  13.077 -0.3986  0.0971 -0.1294
    9TMC3    C814002   1.072   0.001  13.026  0.6384  0.4712  0.9355
    9TMC3    O114003   0.497   4.649  13.139 -0.2561  0.2348  0.5717
    9TMC3    O214004   1.172   0.068  13.050 -0.4266  0.3927  0.5795
   10MPD2     C14005   1.298   4.489  12.628  0.0860 -1.1119 -0.3985
   10MPD2    C114006   1.159   4.463  12.637 -0.1960 -0.0537  0.0597
   10MPD2    C214007   1.080   4.519  12.735 -0.2228 -0.0290  0.2257
   10MPD2    C314008   1.135   4.589  12.837 -0.3515 -0.2351  0.0443
   10MPD2    C414009   1.273   4.616  12.823  0.3994  0.0736  0.9010
   10MPD2    C514010   1.348   4.562  12.726  0.8770  0.0048 -0.1001
   10MPD2     H14011   0.974   4.500  12.747  0.1367 -1.3156  1.3178
   10MPD2    H114012   1.317   4.688  12.892 -1.5357  0.9757  1.1944
   10MPD2    H214013   1.358   4.447  12.547 -0.8260  0.0248 -1.6664
   10MPD2    H314014   1.445   4.609  12.710  0.3049  1.3096  0.2278
   10MPD2     N14015   1.043   4.646  12.928  0.3090  0.8333  0.1005
   10MPD2    H514016   0.946   4.622  12.909  0.4534  1.0078 -0.8555
   10MPD2    N114017   1.104   4.385  12.532  0.0706 -0.3719  0.4968
   10MPD2    H714018   1.163   4.344  12.460 -1.0808  0.8640 -1.1535
   11MPD2     C14019   2.091   3.141  13.505 -0.3563 -0.6700  0.3089
   11MPD2    C114020   2.003   3.235  13.555 -0.0823  0.1716  0.3964
   11MPD2    C214021   1.956   3.328  13.464 -0.2556 -0.0513  0.1702
   11MPD2    C314022   1.996   3.342  13.331  0.5013 -0.4071 -0.0822
   11MPD2    C414023   2.094   3.256  13.294 -0.6404  0.3461  0.4339
   11MPD2    C514024   2.144   3.158  13.380  0.2475  0.2508 -0.3225
   11MPD2     H14025   1.876   3.389  13.504 -0.2525  0.6052 -0.8317
   11MPD2    H114026   2.128   3.263  13.192 -0.4411 -1.0156  0.4061
   11MPD2    H214027   2.138   3.072  13.574  0.0527 -1.0215 -0.3204
   11MPD2    H314028   2.220   3.089  13.344  0.3112  0.1387  0.0338
   11MPD2     N14029   1.934   3.422  13.235 -0.0373 -0.1959  0.4206
   11MPD2    H514030   1.978   3.425  13.143 -2.6966 -1.5237 -0.9155
   11MPD2    N114031   1.945   3.223  13.678 -0.0262  0.2785 -0.1256
   11MPD2    H714032   1.876   3.293  13.703  0.5781  0.3301  1.4608
    1MPD1     C14033   0.004   1.208  16.948  0.2119  0.3633 -0.2310
    1MPD1    C114034   4.663   1.167  16.835 -1.0212 -0.6367  0.1389
    1MPD1    C214035   4.608   1.038  16.828  0.3461  0.0292  0.0819
    1MPD1    C314036   4.645   0.945  16.923 -0.0769  0.0842  0.8228
    1MPD1    C414037   4.714   0.986  17.037 -0.4400 -0.5264  0.2025
    1MPD1    C514038   0.024   1.118  17.050  0.1768  0.3066 -0.8513
    1MPD1     H14039   4.550   1.006  16.743  1.5604 -1.3683 -0.2191
    1MPD1    H114040   0.018   0.919  17.113  0.1926 -3.2173 -2.4921
    1MPD1    H214041   0.053   1.304  16.958  0.8518  0.1083 -0.9838
    1MPD1    H314042   0.089   1.147  17.132 -2.9448 -0.4498  1.9096
    1MPD1     N14043   4.601   0.806  16.920  0.0138  0.2832  0.0560
    1MPD1    H514044   4.627   0.743  16.995  0.6054 -1.7142 -1.8423
    1MPD1    N114045   4.674   1.243  16.715  0.3408  0.2248  0.2856
    1MPD1    H614046   4.680   1.342  16.737 -0.3607  0.1289  0.8975
    1MPD1    H714047   4.623   1.226  16.629 -0.8328  1.2458  0.7835
    2MPD1     C14048   0.613   0.516  17.033 -0.2847  0.2742  0.0137
    2MPD1    C114049   0.592   0.583  16.914 -0.3598  0.0442 -0.1113
    2MPD1    C214050   0.466   0.582  16.861  0.3242  0.0940 -0.4907
    2MPD1    C314051   0.368   0.500  16.902  0.2766 -0.9204  0.5321
    2MPD1    C414052   0.398   0.422  17.010  0.8013 -0.1156  1.0522
    2MPD1    C514053   0.517   0.429  17.079  0.1673 -0.3318  0.7570
    2MPD1     H14054   0.447   0.641  16.771 -0.4668  0.0036 -0.3869
    2MPD1    H114055   0.318   0.367  17.056  0.4121  0.4459  1.0504
    2MPD1    H214056   0.707   0.524  17.086 -0.1955 -0.4098 -0.0479
    2MPD1    H314057   0.529   0.366  17.166 -2.1649  0.4577  1.6207
    2MPD1     N14058   0.246   0.487  16.826 -0.0845 -0.0340  0.3531
    2MPD1    H514059   0.224   0.568  16.770  0.4564  0.0015  0.1865
    2MPD1    N114060   0.687   0.675  16.866 -0.8946 -0.0002 -0.5219
    2MPD1    H614061   0.781   0.644  16.892 -1.3998  0.7032  2.1728
    2MPD1    H714062   0.694   0.682  16.765 -2.4769  2.4746 -0.4538
    3TMC3    C114063   0.020   0.443  16.798  0.3932 -0.0577  0.5961
    3TMC3    C214064   4.660   0.356  16.738 -0.0723  0.3988 -0.0521
    3TMC3    C314065   4.532   0.399  16.710 -0.2736  0.1123 -0.3481
    3TMC3    C414066   4.709   0.575  16.819 -0.1469  0.1056  0.4123
    3TMC3    C514067   4.574   0.598  16.808  0.4959 -0.6627 -0.4345
    3TMC3    C614068   4.489   0.518  16.746  1.1147  0.4156  0.0776
    3TMC3     C14069   0.151   0.396  16.852  0.1313  0.2574  0.5674
    3TMC3     O14070   0.149   0.286  16.904  0.3988  0.0316  0.8171
    3TMC3     H14071   4.688   0.254  16.713 -1.4054 -0.3511  1.5461
    3TMC3    H114072   0.034   0.623  16.896  0.7480  1.1486 -0.9386
    3TMC3    H214073   4.385   0.543  16.727  1.1128 -0.1480 -0.7056
    3TMC3    C714074   4.538   0.744  16.804 -0.5537  0.2839  0.3836
    3TMC3    C814075   4.461   0.350  16.599 -0.4906 -0.0280 -0.4794
    3TMC3    O114076   4.464   0.788  16.714 -0.0451  0.4313  0.2628
    3TMC3    O214077   4.339   0.348  16.612 -0.3278 -0.2476 -0.3150
    4MPD1     C14078   4.439   0.177  16.113  0.1945  0.1783 -0.0466
    4MPD1    C114079   4.567   0.182  16.157 -0.0284  0.2458  0.4435
    4MPD1    C214080   4.598   0.232  16.275 -0.4802  0.1315  0.0300
    4MPD1    C314081   4.503   0.256  16.369 -0.4852  0.1280 -0.2194
    4MPD1    C414082   4.372   0.234  16.339 -0.1908  0.5451 -0.3068
    4MPD1    C514083   4.341   0.198  16.208 -0.4220  0.1074  0.2202
    4MPD1     H14084   4.704   0.240  16.293 -0.3880 -0.9791 -0.0645
    4MPD1    H114085   4.290   0.249  16.408 -1.1105 -0.1372 -1.2397
    4MPD1    H214086   4.417   0.140  16.014 -0.4623 -0.0841  0.1927
    4MPD1    H314087   4.237   0.198  16.178 -0.1142 -0.4452 -0.8359
    4MPD1     N14088   4.548   0.307  16.496 -0.1328  0.0804  0.2262
    4MPD1    H514089   4.647   0.321  16.509  0.0467 -0.2027 -0.8639
    4MPD1    N114090   4.668   0.158  16.065 -0.2240 -0.1483  0.5690
    4MPD1    H614091   4.640   0.096  15.989  2.3748  1.1559 -1.4760
    4MPD1    H714092   0.008   0.103  16.107 -1.6792 -1.4693  1.4415
    1TCq1    O114093   0.905   4.068  12.144 -0.0692 -0.1181  0.2129
    1TCq1    C114094   1.009   4.085  12.060  0.3912 -0.4111  0.9586
    1TCq1    O214095   1.097   4.004  12.042  0.1213 -0.2159 -0.3355
    1TCq1    C214096   0.976   4.206  11.989  0.3078 -0.2786 -0.5722
    1TCq1    C314097   0.940   4.317  12.070 -0.4417 -0.5480 -0.2302
    1TCq1    C414098   0.949   4.439  12.004  0.2641  1.1512  0.1776
    1TCq1    C514099   1.012   4.457  11.886  0.6147  0.5981  0.0088
    1TCq1    C614100   1.036   4.339  11.815 -0.1383 -0.1027 -0.0902
    1TCq1    C714101   1.024   4.214  11.869 -0.0400  0.9634  0.1674
    1TCq1    C814102   1.108   4.350  11.691 -0.5667  0.9365  0.8703
    1TCq1    O414103   1.184   4.448  11.679  0.1546  0.1129 -0.2951
    1TCq1    C914104   0.915   4.555  12.074  0.4880  0.9373  0.3939
    1TCq1    O514105   0.897   4.539  12.206  0.5177  0.2308 -0.4948
    1TCq1    O614106   0.918   4.661  12.014 -0.1661  0.1540 -0.3061
    1TCq1    H114107   0.829   4.129  12.129 -0.3190 -0.1559  1.3467
    1TCq1    H214108   0.889   4.311  12.166 -0.1748  0.1779 -0.0440
    1TCq1    H314109   1.029   4.553  11.838 -0.1091  0.1565 -1.1262
    1TCq1    H414110   1.032   4.122  11.813  0.7871 -0.0647  1.9644
    2MPD1     C14111   1.204   4.245  11.195  0.1868 -0.1998 -0.2531
    2MPD1    C114112   1.113   4.152  11.248  0.4539  0.5149  0.0459
    2MPD1    C214113   1.063   4.166  11.373 -0.2929  0.9137 -0.2904
    2MPD1    C314114   1.119   4.258  11.458 -0.5747 -0.6951 -1.0850
    2MPD1    C414115   1.216   4.339  11.409  0.3827 -0.6408 -0.4097
    2MPD1    C514116   1.248   4.338  11.281  0.4981 -0.5715  0.4775
    2MPD1     H14117   0.978   4.107  11.405  0.4018 -0.2763 -0.6543
    2MPD1    H114118   1.263   4.415  11.471 -0.8786 -1.3892  1.4825
    2MPD1    H214119   1.244   4.240  11.095  0.3759 -2.4475 -0.0556
    2MPD1    H314120   1.304   4.424  11.243 -3.8505  2.2455  0.4307
    2MPD1     N14121   1.069   4.261  11.594 -0.6199  0.5155  0.1409
    2MPD1    H514122   0.994   4.199  11.620  1.3679 -2.4247 -1.1887
    2MPD1    N114123   1.046   4.077  11.154  0.0078  0.3360 -0.0393
    2MPD1    H614124   1.107   4.044  11.079  0.0587  0.3561 -0.0071
    2MPD1    H714125   1.000   4.000  11.201 -0.0900  1.2629  1.4106
    1TMC1    C114126   1.431   0.323   9.237 -0.0291  0.2271  0.1921
    1TMC1    C214127   1.432   0.419   9.331 -1.1700 -0.1288 -0.1162
    1TMC1    C314128   1.453   0.544   9.283  0.1858 -0.0589 -1.0924
    1TMC1    C414129   1.449   0.349   9.096 -1.0539  0.0855 -0.2568
    1TMC1    C514130   1.445   0.477   9.056  0.4937 -0.6887  0.7350
    1TMC1    C614131   1.439   0.573   9.149 -0.0162 -0.2716 -0.4826
    1TMC1     C14132   1.428   0.183   9.285 -0.5884  0.1112  0.3249
    1TMC1     O14133   1.406   0.163   9.404 -0.1689 -0.1247 -0.1944
    1TMC1     H14134   1.448   0.391   9.434  1.3078 -2.2746 -1.0999
    1TMC1    H114135   1.462   0.272   9.021 -0.4608 -0.6122  0.5647
    1TMC1    H214136   1.422   0.676   9.117 -1.8394 -0.4338 -0.0297
    1TMC1    C714137   1.464   0.511   8.918 -0.3789 -0.4906  0.3100
    1TMC1    C814138   1.417   0.650   9.383 -0.5493 -0.4787 -0.1992
    1TMC1    O114139   1.423   0.620   8.874  0.4732 -0.0535 -0.2234
    1TMC1    O214140   1.338   0.641   9.475 -0.4311  0.1798 -0.0764
    1TMC1    O314141   1.528   0.412   8.847 -0.1928 -0.0166 -0.0119
    1TMC1    H314142   1.584   0.349   8.898  0.0163 -1.2254 -1.7307
    1TMC1    O514143   1.454   0.765   9.333  0.1291 -0.1261 -0.2210
    1TMC1    H514144   1.525   0.750   9.266 -0.4506  0.4987 -0.9821
    2MPD1     C14145   1.604   4.455   9.238  0.9182 -0.2241 -0.6881
    2MPD1    C114146   1.577   4.497   9.106  0.4591  0.1588  0.3973
    2MPD1    C214147   1.516   4.623   9.096  0.4841 -0.1192  0.1516
    2MPD1    C314148   1.486   4.694   9.204 -0.4466 -0.3579  1.0838
    2MPD1    C414149   1.496   4.643   9.325 -0.1233  0.3055 -0.2267
    2MPD1    C514150   1.551   4.519   9.344 -0.0456 -0.2374 -0.0696
    2MPD1     H14151   1.500   4.671   9.000  2.2429  0.1560 -0.0055
    2MPD1    H114152   1.461   4.690   9.416 -0.6633  0.1321 -0.3476
    2MPD1    H214153   1.674   4.373   9.248  0.8070 -0.1677  0.6520
    2MPD1    H314154   1.574   4.473   9.439  1.5050 -1.8496 -1.2303
    2MPD1     N14155   1.450   0.090   9.187  0.7394 -0.5549 -0.1070
    2MPD1    H514156   1.430   0.120   9.092  1.4870  1.0142  0.2253
    2MPD1    N114157   1.634   4.436   8.993  0.6593  0.6315 -0.3396
    2MPD1    H614158   1.635   4.336   9.009  2.0171  0.6214 -0.5367
    2MPD1    H714159   1.580   4.460   8.910 -0.0752 -1.8458 -0.5484
    1MPD1     C14160   2.183   4.562  12.457  0.2579  0.2818 -0.0734
    1MPD1    C114161   2.083   4.643  12.409 -0.0966 -0.9569  0.0667
    1MPD1    C214162   2.113   0.005  12.314 -0.2265 -0.0380 -0.4221
    1MPD1    C314163   2.227   0.010  12.251  0.8349  0.8646 -0.5160
    1MPD1    C414164   2.323   4.648  12.287 -0.1127  0.7451 -0.4245
    1MPD1    C514165   2.304   4.566  12.400 -0.8130 -0.1430  0.2768
    1MPD1     H14166   2.029   0.068  12.287 -0.8041 -1.2883 -1.5039
    1MPD1    H114167   2.424   4.661  12.249 -0.4754 -0.0823 -1.6785
    1MPD1    H214168   2.164   4.492  12.537  1.6959 -0.2998 -0.2358
    1MPD1    H314169   2.387   4.500  12.423 -0.7587 -0.7911 -1.7043
    1MPD1     N14170   2.254   0.122  12.164 -0.6021  0.5009 -0.4743
    1MPD1    H514171   2.176   0.187  12.172 -0.6554  0.2273  1.3139
    1MPD1    N114172   1.956   4.635  12.462  0.2762  0.0557  0.4083
    1MPD1    H614173   1.879   4.644  12.396 -0.2707  1.1720  1.1994
    1MPD1    H714174   1.953   4.548  12.516  1.4362  0.7396  1.5776
    2MPD1     C14175   1.710   0.644  11.590 -0.1330 -0.1946  0.4154
    2MPD1    C114176   1.646   0.654  11.466  0.4872 -0.4630  0.5683
    2MPD1    C214177   1.714   0.591  11.358 -0.1715  0.3986  0.0829
    2MPD1    C314178   1.821   0.502  11.376 -0.0895  0.2255 -0.2652
    2MPD1    C414179   1.862   0.486  11.505  0.4077  0.4081 -0.1592
    2MPD1    C514180   1.803   0.550  11.613  0.4815 -0.2350 -0.1983
    2MPD1     H14181   1.686   0.615  11.256 -0.5409  1.1795  0.3686
    2MPD1    H114182   1.940   0.415  11.531  0.2516  0.1142 -0.4745
    2MPD1    H214183   1.673   0.699  11.676 -1.9011 -1.6678  0.6150
    2MPD1    H314184   1.839   0.535  11.714  0.2296 -3.6010 -0.6208
    2MPD1     N14185   1.909   0.454  11.281  0.6565  0.1429  0.1772
    2MPD1    H514186   1.973   0.385  11.320 -0.3793 -1.4649 -0.9491
    2MPD1    N114187   1.549   0.749  11.440  0.3010  0.1999  0.3377
    2MPD1    H614188   1.500   0.778  11.525  0.5016 -0.0738  0.5458
    2MPD1    H714189   1.489   0.726  11.361  1.5098  1.8186 -1.0398
    3MPD1     C14190   1.809   0.078  10.330  0.1935  0.5346 -0.5421
    3MPD1    C114191   1.723   0.134  10.423  0.2603 -0.1069 -0.2153
    3MPD1    C214192   1.774   0.204  10.534 -0.1283 -0.3817  0.0229
    3MPD1    C314193   1.906   0.226  10.549 -0.5179  0.2809  0.2098
    3MPD1    C414194   1.991   0.185  10.450 -0.1915  0.3930 -0.5085
    3MPD1    C514195   1.947   0.106  10.348  0.0175 -0.1583  0.1527
    3MPD1     H14196   1.707   0.242  10.611  0.2265 -0.8952  0.5828
    3MPD1    H114197   2.093   0.220  10.440  0.2791 -0.7783  0.2311
    3MPD1    H214198   1.770   0.033  10.239 -0.1846  0.3993 -0.3100
    3MPD1    H314199   2.017   0.078  10.270 -0.2768 -3.1529  0.9844
    3MPD1     N14200   1.942   0.294  10.664 -0.5095  0.3554  0.0163
    3MPD1    H514201   1.874   0.296  10.738  0.2988  0.0667  0.7651
    3MPD1    N114202   1.587   0.097  10.423 -0.2455 -0.2687  0.1108
    3MPD1    H614203   1.525   0.168  10.463 -0.2560 -1.1048  1.5898
    3MPD1    H714204   1.549   0.047  10.343 -0.2868 -0.2740  0.1335
    4MPD2     C14205   2.175   0.583  11.590  0.2509 -0.5204  0.1543
    4MPD2    C114206   2.275   0.623  11.682  0.1632 -0.0185 -0.3810
    4MPD2    C214207   2.380   0.694  11.635  0.2766 -0.4291 -0.0422
    4MPD2    C314208   2.382   0.743  11.505  0.4016  0.2007  0.0785
    4MPD2    C414209   2.273   0.718  11.422  1.5305  0.1229  0.0880
    4MPD2    C514210   2.171   0.634  11.465 -1.0596  0.0550  1.0535
    4MPD2     H14211   2.460   0.722  11.702 -1.5905  3.1595  0.7025
    4MPD2    H114212   2.256   0.764  11.325 -0.8563 -0.7174  0.0873
    4MPD2    H214213   2.092   0.526  11.631 -1.0358  0.5704 -0.9067
    4MPD2    H314214   2.086   0.626  11.398 -0.6532  0.7369  0.4647
    4MPD2     N14215   2.480   0.842  11.466  0.2457  0.4657  0.1637
    4MPD2    H514216   2.485   0.858  11.366 -2.0174  0.3006  0.0075
    4MPD2    N114217   2.278   0.587  11.819  0.5561  0.0696  1.0261
    4MPD2    H714218   2.350   0.634  11.872  1.7435  2.9887 -3.1895
    5TMC3    C114219   2.250   0.488  12.015  0.0819 -0.2986  0.5566
    5TMC3    C214220   2.244   0.349  12.033  0.0202  0.8831 -0.3883
    5TMC3    C314221   2.366   0.277  12.031  0.0925 -0.1776  0.8987
    5TMC3    C414222   2.374   0.549  12.026 -0.2938  0.6541  0.5269
    5TMC3    C514223   2.486   0.468  12.014  0.1865  0.1381 -0.5502
    5TMC3    C614224   2.483   0.335  12.012 -0.2559 -0.7940  0.0042
    5TMC3     C14225   2.187   0.522  11.895 -0.1522 -0.4492  0.3221
    5TMC3     O14226   2.087   0.456  11.857 -0.0187  0.2032 -0.0378
    5TMC3     H14227   2.144   0.316  12.011  0.5228  0.8719 -2.6953
    5TMC3    H114228   2.379   0.657  12.035  0.1098  0.7351 -0.7294
    5TMC3    H214229   2.569   0.271  12.025  0.1552 -0.4303 -0.9454
    5TMC3    C714230   2.587   0.528  11.929 -0.5381 -0.3039 -0.1290
    5TMC3    C814231   2.372   0.157  12.110  0.3733 -0.2529  0.2168
    5TMC3    O114232   2.565   0.648  11.919  0.5752  0.1221  0.4540
    5TMC3    O214233   2.465   0.079  12.099 -0.3773 -0.8649 -0.2105
    6TMC3    C114234   2.011   0.425  11.059 -0.4690 -0.2630  0.3850
    6TMC3    C214235   1.985   0.391  10.927  0.6421 -0.1099  0.2448
    6TMC3    C314236   2.087   0.379  10.841 -0.6638  0.2583 -0.0386
    6TMC3    C414237   2.132   0.447  11.108 -0.7575  0.1649 -0.5746
    6TMC3    C514238   2.233   0.433  11.019  0.1638  0.3421  0.3536
    6TMC3    C614239   2.214   0.404  10.883  0.1722 -0.2264 -0.7592
    6TMC3     C14240   1.891   0.462  11.142 -0.0476  0.7202 -1.2515
    6TMC3     O14241   1.799   0.502  11.073  0.2676  0.6663 -0.1933
    6TMC3     H14242   1.882   0.380  10.895  0.4394  1.0004  0.4878
    6TMC3    H114243   2.147   0.456  11.215  0.7422  1.1135 -0.8697
    6TMC3    H214244   2.297   0.405  10.813  0.2429  1.0642 -0.6615
    6TMC3    C714245   2.350   0.511  11.055  0.1869  0.0859 -0.5397
    6TMC3    C814246   2.072   0.338  10.700  0.3614  0.2713  0.2662
    6TMC3    O114247   2.323   0.622  11.103 -0.2293  0.2672 -0.6524
    6TMC3    O214248   2.172   0.346  10.627  0.3598  0.3522  0.4705
    7MPD2     C14249   2.894   0.495  11.526  0.7231  0.3514  0.0871
    7MPD2    C114250   2.833   0.606  11.589 -1.1084  0.8016  0.5900
    7MPD2    C214251   2.750   0.590  11.699 -0.0070 -0.3117 -0.5142
    7MPD2    C314252   2.719   0.456  11.733 -0.0175  0.2128 -0.2604
    7MPD2    C414253   2.773   0.348  11.668  0.7127 -0.5392  0.9314
    7MPD2    C514254   2.868   0.371  11.570  0.0388 -0.6872 -0.1596
    7MPD2     H14255   2.712   0.678  11.750  0.2264 -0.0422 -0.8002
    7MPD2    H114256   2.764   0.246  11.705 -3.3197 -0.1528  1.0674
    7MPD2    H214257   2.952   0.498  11.435 -0.7396  0.7378 -0.8224
    7MPD2    H314258   2.906   0.287  11.515 -0.4944 -0.1039 -1.4164
    7MPD2     N14259   2.638   0.429  11.844 -0.4589 -0.3291 -0.4128
    7MPD2    H514260   2.624   0.330  11.859 -2.6754 -0.3485 -2.7282
    7MPD2    N114261   2.855   0.741  11.558 -0.1182  0.3893 -0.1977
    7MPD2    H714262   2.797   0.808  11.607  0.7190  2.2457 -1.7380
    8TMC3    C114263   2.883   0.931  11.444 -0.4364 -0.1702  0.6225
    8TMC3    C214264   2.881   0.970  11.317  0.3233  0.5710  0.3153
    8TMC3    C314265   2.758   0.997  11.262  0.0521 -0.4880 -0.4053
    8TMC3    C414266   2.785   0.969  11.527 -0.1812 -0.0274  0.2035
    8TMC3    C514267   2.660   0.994  11.471 -0.4900 -0.2413  0.4101
    8TMC3    C614268   2.639   1.014  11.340 -0.2616 -0.2949  0.0149
    8TMC3     C14269   2.935   0.802  11.466 -0.1257 -0.7031  0.4956
    8TMC3     O14270   2.999   0.747  11.375  0.2178  0.6056 -0.3743
    8TMC3     H14271   2.967   0.947  11.255 -0.3801  1.1906 -0.8857
    8TMC3    H114272   2.798   0.964  11.634 -1.1709  1.3334  0.3922
    8TMC3    H214273   2.540   1.035  11.300  0.4990  0.2853 -1.5321
    8TMC3    C714274   2.564   0.915  11.546  0.4379 -0.3647  0.3628
    8TMC3    C814275   2.712   0.904  11.159  0.4412  0.3289 -0.0820
    8TMC3    O114276   2.582   0.900  11.664 -0.0922  0.4696 -0.1438
    8TMC3    O214277   2.596   0.916  11.123  0.0929  0.0079  0.3780
    9MPD2     C14278   2.854   0.568  11.121  0.7329  0.5409  0.0271
    9MPD2    C114279   2.758   0.669  11.106  0.2628  0.0012  0.2125
    9MPD2    C214280   2.626   0.632  11.062 -0.0295 -0.0483 -0.2972
    9MPD2    C314281   2.601   0.495  11.049 -0.2695 -0.5829 -0.0435
    9MPD2    C414282   2.705   0.400  11.040  0.3916 -0.4195 -0.0782
    9MPD2    C514283   2.831   0.438  11.084  0.0255 -0.4484 -0.1287
    9MPD2     H14284   2.549   0.707  11.050 -0.6716 -0.7979 -0.7770
    9MPD2    H114285   2.682   0.294  11.049  2.0741 -0.6310  1.7995
    9MPD2    H214286   2.950   0.598  11.162  0.3320  0.0174  1.3468
    9MPD2    H314287   2.911   0.368  11.107 -1.1681 -1.9805 -0.6546
    9MPD2     N14288   2.471   0.442  11.040 -0.5386  0.1964 -0.0797
    9MPD2    H514289   2.463   0.343  11.019  0.3535  0.1749 -0.2996
    9MPD2    N114290   2.796   0.796  11.145  0.3886  0.0922  0.5959
    9MPD2    H714291   2.888   0.804  11.188  0.7390  0.0267 -0.1396
    1MPD1     C14292   2.313   3.955  16.640 -0.3681 -0.1280  0.1712
    1MPD1    C114293   2.335   4.086  16.600 -0.0842  0.0614  0.4012
    1MPD1    C214294   2.231   4.179  16.617 -0.4102  0.2637 -0.0669
    1MPD1    C314295   2.131   4.148  16.693  0.6092 -0.7703 -0.3311
    1MPD1    C414296   2.115   4.020  16.744 -0.2485 -0.3222  0.5212
    1MPD1    C514297   2.207   3.926  16.718 -0.0209  0.1310 -0.0306
    1MPD1     H14298   2.247   4.279  16.580  0.5411 -0.0245 -0.4466
    1MPD1    H114299   2.030   3.994  16.805 -0.3566 -0.3097  0.3767
    1MPD1    H214300   2.377   3.871  16.615 -1.0230 -1.0727  1.6892
    1MPD1    H314301   2.201   3.829  16.765 -0.8419  0.0402 -0.3084
    1MPD1     N14302   2.029   4.241  16.733  0.2646  0.3983 -0.2337
    1MPD1    H514303   1.955   4.201  16.790  0.3897  1.0701  0.3990
    1MPD1    N114304   2.439   4.116  16.514  0.4160  0.2240 -0.5098
    1MPD1    H614305   2.476   4.210  16.512  1.7375 -0.2556  1.1587
    1MPD1    H714306   2.518   4.051  16.514 -0.2947 -0.6515  0.9062
    2TMC2    C114307   1.799   4.647  16.769  0.6528  0.1374 -1.0386
    2TMC2    C214308   1.778   4.632  16.905 -0.7438  0.2800 -0.1953
    2TMC2    C314309   1.838   4.529  16.969 -0.1649  0.1824  0.7451
    2TMC2    C414310   1.864   4.551  16.698  0.3586  0.3520 -0.1536
    2TMC2    C514311   1.914   4.440  16.765 -0.6744 -0.5740 -0.6018
    2TMC2    C614312   1.910   4.432  16.902  0.2553 -0.3566 -0.1513
    2TMC2     C14313   1.723   0.010  16.704  1.4788  0.1523 -0.0353
    2TMC2     O14314   1.681   0.102  16.774 -0.6146  0.1766 -0.6269
    2TMC2     H14315   1.719   4.705  16.958 -0.6537 -0.5359  1.0151
    2TMC2    H114316   1.892   4.569  16.595  2.1061  0.3949  0.3121
    2TMC2    H214317   1.954   4.344  16.947  1.2806 -0.2912 -1.0163
    2TMC2    C714318   2.022   4.373  16.695 -0.1714  0.2614 -0.1902
    2TMC2    C814319   1.773   4.486  17.085 -0.0143 -0.0404  0.2486
    2TMC2    O114320   2.093   4.436  16.619 -0.1832  0.4122  0.3598
    2TMC2    O214321   1.748   4.368  17.105  0.1892  0.1599 -0.5909
    2TMC2    O514322   1.765   4.591  17.170 -0.0854  0.5413  0.2965
    2TMC2    H514323   1.818   4.663  17.131 -0.7553  0.7076 -0.3185
    3MPD1     C14324   1.465   0.232  16.309 -0.1529 -0.6964 -0.6346
    3MPD1    C114325   1.486   0.102  16.282 -0.2272 -0.7906 -0.0409
    3MPD1    C214326   1.570   0.031  16.365  0.2606 -0.0547 -0.0957
    3MPD1    C314327   1.614   0.081  16.486  0.1896  0.3737 -0.3028
    3MPD1    C414328   1.568   0.197  16.528  0.0313 -1.0693  0.4273
    3MPD1    C514329   1.503   0.281  16.435 -0.4518  0.0100  0.5775
    3MPD1     H14330   1.598   4.665  16.337 -0.3928 -0.2167 -0.1790
    3MPD1    H114331   1.602   0.240  16.621 -2.2082 -0.5914  1.0201
    3MPD1    H214332   1.421   0.297  16.234 -0.2805  1.6050  1.4229
    3MPD1    H314333   1.480   0.384  16.459  0.5568  0.1424  0.9864
    3MPD1     N14334   1.690   4.731  16.571 -0.1829  0.2926 -0.6957
    3MPD1    H514335   1.722   4.643  16.532  2.2180 -0.1254  2.1804
    3MPD1    N114336   1.436   0.048  16.156  0.0255 -0.0427  0.0847
    3MPD1    H614337   1.358   0.107  16.126 -0.5133 -0.7634  0.0607
    3MPD1    H714338   1.414   4.684  16.150  1.7184 -0.4461  0.5439
    1TMC1    C114339   4.720   3.226  12.233  1.1070 -0.1248  0.7178
    1TMC1    C214340   4.650   3.230  12.351 -0.2241  0.1490 -0.8241
    1TMC1    C314341   4.517   3.213  12.351 -0.4425 -0.6436 -0.5093
    1TMC1    C414342   4.649   3.201  12.118  0.1537 -0.5132  0.2257
    1TMC1    C514343   4.514   3.173  12.121  0.3710 -0.1037  0.2238
    1TMC1    C614344   4.439   3.194  12.233 -0.4295  0.3954  0.6755
    1TMC1     C14345   0.129   3.213  12.215 -0.7371  0.2199  0.0292
    1TMC1     O14346   0.184   3.223  12.104 -0.6540  0.4689 -0.1109
    1TMC1     H14347   4.700   3.269  12.439 -1.3063 -0.1319 -0.0866
    1TMC1    H114348   4.712   3.195  12.030  1.6812 -0.9037  1.3429
    1TMC1    H214349   4.331   3.188  12.230 -0.5358  1.1801  3.3586
    1TMC1    C714350   4.428   3.213  12.003  0.6971  0.2578 -0.0020
    1TMC1    C814351   4.441   3.224  12.473  0.2652  0.4222  0.0466
    1TMC1    O114352   4.316   3.265  12.008 -0.0687 -0.2657  0.5294
    1TMC1    O214353   4.338   3.285  12.494  0.4968 -0.4528  0.5497
    1TMC1    O314354   4.504   3.210  11.890 -0.2457  0.2342  0.4087
    1TMC1    H314355   4.585   3.156  11.905  0.5267  0.9183 -1.3277
    1TMC1    O514356   4.501   3.125  12.549 -0.1000 -0.1956  0.3253
    1TMC1    H514357   4.586   3.102  12.505 -0.9049 -2.3880 -0.0913
    2MPD2     C14358   0.411   3.243  12.273 -1.1914  0.1133  0.4552
    2MPD2    C114359   0.326   3.186  12.363  0.3832  1.0364 -0.0883
    2MPD2    C214360   0.376   3.125  12.479  0.6089 -0.5972  0.3978
    2MPD2    C314361   0.512   3.126  12.508 -0.2489 -0.1667  0.1335
    2MPD2    C414362   0.594   3.204  12.428  0.2054  0.0047 -0.1524
    2MPD2    C514363   0.545   3.254  12.309  0.1235  0.4216  0.5827
    2MPD2     H14364   0.301   3.072  12.538 -0.4532  0.4496 -0.0078
    2MPD2    H114365   0.700   3.218  12.446  0.1788 -0.2270  0.2037
    2MPD2    H214366   0.378   3.301  12.187  0.6742  0.6699  0.1095
    2MPD2    H314367   0.613   3.305  12.240 -1.4360  1.3306 -0.2721
    2MPD2     N14368   0.551   3.067  12.630  0.4660  0.2811 -0.8851
    2MPD2    H514369   0.486   3.010  12.682  0.2696  2.1247  0.9044
    2MPD2    N114370   0.186   3.193  12.339 -0.3797  0.1766 -0.0614
    2MPD2    H714371   0.124   3.173  12.417  2.4453 -2.1930  1.6171
    3TCq1    O114372   0.936   3.120  13.144 -0.8171 -0.1874 -0.0403
    3TCq1    C114373   0.932   3.000  13.082 -0.2562  0.6640  0.4955
    3TCq1    O214374   1.021   2.951  13.019  0.0662 -0.4003 -0.1269
    3TCq1    C214375   0.796   2.999  13.034  0.2834 -0.0436  0.8925
    3TCq1    C314376   0.693   3.036  13.111  0.1697 -0.3956  0.0282
    3TCq1    C414377   0.576   3.060  13.049  0.7029  0.4663 -0.4439
    3TCq1    C514378   0.550   3.043  12.911 -0.2928 -0.2567  0.6076
    3TCq1    C614379   0.664   3.025  12.833  0.1013  0.5234  0.3684
    3TCq1    C714380   0.784   2.995  12.894 -0.1296  0.1719  1.4704
    3TCq1    C814381   0.674   3.070  12.689  0.3763 -0.8204  0.0700
    3TCq1    O414382   0.777   3.128  12.663  0.5210  0.0376 -0.1218
    3TCq1    C914383   0.466   3.100  13.136  0.3154 -0.2026  0.0696
    3TCq1    O514384   0.502   3.099  13.255  0.4987 -0.0879 -0.8669
    3TCq1    O614385   0.369   3.163  13.083 -0.0823  0.1909 -0.1109
    3TCq1    H114386   0.842   3.150  13.142 -0.6712  0.4428  2.8339
    3TCq1    H214387   0.708   3.037  13.219 -0.1605 -0.3598  0.0740
    3TCq1    H314388   0.450   3.054  12.872  0.0870  1.2459  0.0626
    3TCq1    H414389   0.872   2.981  12.831 -0.5921 -1.4048  1.1690
    1MPD2     C14390   0.675   4.413  14.474 -0.5099  0.4104 -0.5329
    1MPD2    C114391   0.714   4.298  14.517 -0.0587  0.3726  0.1621
    1MPD2    C214392   0.850   4.280  14.528  0.2395 -0.3369  0.2369
    1MPD2    C314393   0.937   4.388  14.509 -0.3362 -0.3290 -0.3938
    1MPD2    C414394   0.887   4.504  14.465  0.1256 -0.0916 -0.0681
    1MPD2    C514395   0.758   4.517  14.444 -0.3134  0.2969 -0.4842
    1MPD2     H14396   0.884   4.189  14.576  0.9126 -0.0664  0.2783
    1MPD2    H114397   0.952   4.589  14.448 -2.5709  1.7196 -1.3554
    1MPD2    H214398   0.570   4.431  14.450 -0.9881 -3.1536 -1.1599
    1MPD2    H314399   0.715   4.610  14.409 -0.4163 -0.1270 -1.4743
    1MPD2     N14400   1.073   4.391  14.534  0.2902 -0.0761  0.8072
    1MPD2    H514401   1.126   4.477  14.523  2.4045 -1.6024 -0.9621
    1MPD2    N114402   0.623   4.200  14.558 -0.2874 -0.4069  0.3136
    1MPD2    H714403   0.528   4.229  14.577  0.4426  1.6275  0.9838
    2TMC3    C114404   0.543   3.996  14.645  0.5705  0.1428  0.4241
    2TMC3    C214405   0.601   3.896  14.719 -0.4253 -0.7762  0.0577
    2TMC3    C314406   0.553   3.869  14.846 -0.6785 -0.0602  0.0924
    2TMC3    C414407   0.427   4.058  14.688  0.0061 -0.2003  0.4487
    2TMC3    C514408   0.375   4.020  14.811  0.3948 -0.3324  0.4661
    2TMC3    C614409   0.435   3.923  14.891  0.3121  0.4840 -0.3186
    2TMC3     C14410   0.648   4.067  14.569  0.5558  0.0362  1.1413
    2TMC3     O14411   0.753   4.014  14.545  0.5244 -0.8191 -0.4796
    2TMC3     H14412   0.690   3.843  14.686  1.2091  0.9865  1.6375
    2TMC3    H114413   0.368   4.119  14.621  0.9621  0.8185  0.5303
    2TMC3    H214414   0.399   3.894  14.989 -1.3999 -0.4948 -1.2559
    2TMC3    C714415   0.245   4.071  14.840  0.8202 -0.4554 -0.4211
    2TMC3    C814416   0.658   3.861  14.952 -0.7930  0.5344 -0.5833
    2TMC3    O114417   0.169   4.005  14.907  0.2103  0.2343  0.0957
    2TMC3    O214418   0.630   3.852  15.071  0.2610 -0.1018  0.1589
    3TCq1    O114419   4.533   0.378  15.053 -0.4293  0.5692 -0.3775
    3TCq1    C114420   4.666   0.399  15.078  0.8195 -0.6758 -0.0420
    3TCq1    O214421   4.718   0.495  15.135 -0.0878  0.2790 -0.1887
    3TCq1    C214422   4.735   0.303  14.998 -0.2188  0.5987 -0.9183
    3TCq1    C314423   0.111   0.343  14.931  0.3663  0.0282 -0.0924
    3TCq1    C414424   0.172   0.248  14.848 -0.2296 -0.4956 -0.2325
    3TCq1    C514425   0.109   0.128  14.812  0.3753 -0.4168 -0.0003
    3TCq1    C614426   4.718   0.111  14.866  0.7646  0.5909  0.0465
    3TCq1    C714427   4.665   0.189  14.967 -0.3398 -0.1741 -0.0380
    3TCq1    C814428   4.658   4.717  14.860  0.1226  0.3116  0.1605
    3TCq1    O414429   4.539   4.699  14.889  0.0015 -0.6536 -0.1348
    3TCq1    C914430   0.294   0.285  14.784  0.2789  0.0436  0.3790
    3TCq1    O514431   0.284   0.396  14.726 -0.6340  0.1493 -0.1252
    3TCq1    O614432   0.398   0.214  14.808  0.2161 -0.4303 -0.6033
    3TCq1    H114433   4.517   0.322  14.974  0.6878  0.3913 -0.4793
    3TCq1    H214434   0.156   0.438  14.957  1.1776 -0.5814  0.7346
    3TCq1    H314435   0.160   0.069  14.737 -1.3038 -2.8827  0.8071
    3TCq1    H414436   4.596   0.146  15.039 -1.8675 -0.1374 -1.5010
    4MPD2     C14437   4.628   4.431  14.808 -0.4548  0.0809  0.3872
    4MPD2    C114438   0.016   4.487  14.831 -0.7521 -0.6405  0.5860
    4MPD2    C214439   0.131   4.409  14.826  0.4768 -0.4018  0.0282
    4MPD2    C314440   0.124   4.277  14.805 -0.2244 -0.3344 -0.1878
    4MPD2    C414441   0.002   4.215  14.792  0.0091  0.2088 -0.2967
    4MPD2    C514442   4.623   4.296  14.799 -0.4545 -0.1290 -1.0690
    4MPD2     H14443   0.232   4.444  14.840  0.5783 -0.8433  0.4197
    4MPD2    H114444   4.718   4.109  14.778  2.9884 -0.1361 -1.5877
    4MPD2    H214445   4.533   4.484  14.812  0.3076  1.5501 -0.9039
    4MPD2    H314446   4.525   4.251  14.791 -0.2502 -0.3984 -2.0051
    4MPD2     N14447   0.239   4.203  14.815  0.2355  0.0797 -0.0392
    4MPD2    H514448   0.313   4.266  14.784  0.2940  0.1649  0.2795
    4MPD2    N114449   0.028   4.628  14.838  0.0006 -0.1295  0.0465
    4MPD2    H714450   0.124   4.659  14.828 -0.1218 -0.3372 -1.8739
    5TMC2    C114451   1.384   4.241  14.821 -0.6031  0.5429  0.1584
    5TMC2    C214452   1.411   4.364  14.853  0.5544 -0.5095 -0.0861
    5TMC2    C314453   1.377   4.464  14.770 -0.1576  0.5578  0.4996
    5TMC2    C414454   1.328   4.205  14.698  0.1543 -0.7008 -0.7346
    5TMC2    C514455   1.281   4.312  14.624  0.3802  0.4943 -0.0001
    5TMC2    C614456   1.311   4.444  14.656 -0.1860 -0.3708 -0.4678
    5TMC2     C14457   1.317   4.180  14.933  0.3948 -0.2204 -0.1467
    5TMC2     O14458   1.365   4.198  15.043 -0.2328 -0.0455 -0.0092
    5TMC2     H14459   1.445   4.391  14.953  1.4435  1.8857 -1.0369
    5TMC2    H114460   1.315   4.101  14.671  1.1815 -1.7268  2.7068
    5TMC2    H214461   1.276   4.535  14.609 -1.4159 -0.2853  0.6113
    5TMC2    C714462   1.146   4.282  14.579 -0.1100  0.6824  0.5545
    5TMC2    C814463   1.437   4.588  14.799 -0.0083  0.4767  0.9229
    5TMC2    O114464   1.104   4.172  14.608 -0.4357 -0.7888  0.1389
    5TMC2    O214465   1.384   4.691  14.759 -0.0210  0.5821 -0.4238
    5TMC2    O514466   1.568   4.554  14.781 -0.3830 -0.8321 -0.0765
    5TMC2    H514467   1.592   4.460  14.800  0.4657  0.0013  3.0400
    6MPD2     C14468   0.911   3.925  15.115  0.0692 -0.3247  0.5045
    6MPD2    C114469   0.893   3.948  14.977  0.0361  0.4569  0.3815
    6MPD2    C214470   1.003   4.003  14.909  0.2059 -0.2147 -0.1813
    6MPD2    C314471   1.121   4.042  14.970  0.2386  0.0543 -0.3882
    6MPD2    C414472   1.137   4.017  15.105  0.9541  0.0552  0.5165
    6MPD2    C514473   1.035   3.944  15.169 -1.0899 -0.0203 -0.2017
    6MPD2     H14474   0.991   4.028  14.804 -1.6611  0.6301  0.2354
    6MPD2    H114475   1.229   4.033  15.161  1.0365 -0.8838  0.6451
    6MPD2    H214476   0.835   3.880  15.177  0.0529 -1.6056 -0.4508
    6MPD2    H314477   1.058   3.921  15.272 -0.3354 -1.1100 -0.6156
    6MPD2     N14478   1.214   4.108  14.890  0.4120 -0.1312  0.3751
    6MPD2    H514479   1.185   4.124  14.794 -0.9190 -0.4201  0.7189
    6MPD2    N114480   0.780   3.914  14.906 -0.2631  0.3515  0.5347
    6MPD2    H714481   0.790   3.948  14.810  2.0684 -1.0113  0.3020
  945NH3     N114482   4.277   0.841   0.363 -0.0005  0.4398  0.7235
  945NH3     H214483   4.252   0.792   0.448 -0.4597  0.1630  0.4332
  945NH3     H314484   4.341   0.784   0.310 -2.5628 -3.5760  1.9189
  945NH3     H414485   4.190   0.839   0.310  0.9144 -1.9256 -0.6719
  946SOD     NA14486   1.878   0.876  11.172  0.3690  0.4016 -0.0861
  947SOD     NA14487   0.323   3.786  12.472  0.6280 -0.3755  0.0887
  948SOD     NA14488   2.966   4.458   6.009 -0.5862  0.2461  0.3627
  949SOD     NA14489   2.870   3.872   2.772 -0.1922  0.0817  0.0219
  950SOD     NA14490   3.612   2.036   4.567  0.3141  0.1345 -0.1455
  951SOD     NA14491   4.420   2.192  11.751 -0.3407  0.1034 -0.6255
  952SOD     NA14492   0.308   4.602  14.109  0.0885 -0.1437  0.1065
  953SOD     NA14493   4.616   3.750  15.159 -0.3589 -0.0207  0.7170
  954SOL     OW14494   1.013   0.379   2.882  0.5529 -0.6508 -0.2630
  954SOL    HW114495   0.992   0.459   2.835 -0.2707  0.7003  2.4373
  954SOL    HW214496   0.922   0.351   2.893  0.7004 -1.5306 -1.1832
  955SOL     OW14497   2.175   0.235   8.556 -0.0364  0.1175 -0.2220
  955SOL    HW114498   2.266   0.265   8.553  0.1329 -0.5109 -1.1344
  955SOL    HW214499   2.166   0.224   8.651  0.2985  0.7076 -0.1190
  956SOL     OW14500   3.356   4.323   0.314 -0.1836 -0.2487 -0.5393
  956SOL    HW114501   3.444   4.291   0.334  0.0852  0.2151 -0.9701
  956SOL    HW214502   3.362   4.419   0.320  1.5733 -0.5406  2.3313
  957SOL     OW14503   0.518   2.695   4.639  0.4219  0.2276  0.2521
  957SOL    HW114504   0.489   2.739   4.719  0.1776  0.8774 -0.2026
  957SOL    HW214505   0.598   2.649   4.664 -0.5850 -0.8479  1.4658
  958SOL     OW14506   2.442   2.882   5.328 -0.3515  0.2520  0.2327
  958SOL    HW114507   2.356   2.922   5.313 -0.5013 -0.4238 -0.7250
  958SOL    HW214508   2.501   2.958   5.327 -0.5032  0.3648 -0.0686
  959SOL     OW14509   3.213   3.556   7.100 -0.4346  0.6246 -0.3809
  959SOL    HW114510   3.207   3.631   7.159  1.8032 -0.6963  1.5378
  959SOL    HW214511   3.120   3.549   7.077 -1.0321  3.0030  1.3024
  960SOL     OW14512   3.126   4.718   2.703 -0.5440  0.4028 -0.0979
  960SOL    HW114513   3.145   4.717   2.797  1.0071  0.2961 -0.4088
  960SOL    HW214514   3.209   0.014   2.668  0.5402 -2.5548 -0.1215
  961SOL     OW14515   2.681   0.570   3.401  0.3061  0.5030  0.3726
  961SOL    HW114516   2.598   0.599   3.440  0.0490 -1.9820  1.6626
  961SOL    HW214517   2.712   0.511   3.470 -1.2631 -0.4967  0.2375
  962SOL     OW14518   3.237   3.682   7.894  0.2277 -0.3924  0.0917
  962SOL    HW114519   3.257   3.760   7.946  0.4098 -0.3297 -0.0728
  962SOL    HW214520   3.239   3.719   7.806  2.7617 -1.6888 -0.4249
  963SOL     OW14521   2.538   3.711   9.590  0.0013 -0.1861 -0.0811
  963SOL    HW114522   2.483   3.728   9.514 -2.3125 -1.1801  1.3705
  963SOL    HW214523   2.613   3.659   9.560  0.4249  0.5845 -0.3751
  964SOL     OW14524   0.176   4.438   8.422 -0.1618 -0.5653 -0.6387
  964SOL    HW114525   0.226   4.368   8.381 -0.0319 -1.0583  0.3635
  964SOL    HW214526   0.165   4.386   8.502 -1.5933 -0.1376 -0.5603
  965SOL     OW14527   2.705   4.517  14.944  0.3283 -0.2523 -0.0868
  965SOL    HW114528   2.615   4.527  14.912 -0.0548 -2.1761  0.4232
  965SOL    HW214529   2.728   4.608  14.961 -0.0552 -1.1114  4.9492
  966SOL     OW14530   3.248   2.807   9.927 -0.2173 -0.3584 -0.7543
  966SOL    HW114531   3.219   2.893   9.898  0.1521 -0.2711 -0.8618
  966SOL    HW214532   3.165   2.770   9.957 -1.2847 -0.8323 -4.1935
  967SOL     OW14533   1.622   4.246   4.091  0.6522  0.0020 -0.2729
  967SOL    HW114534   1.579   4.185   4.152  1.0799  1.0231  1.0457
  967SOL    HW214535   1.692   4.190   4.056  2.3709  2.4326 -0.7226
  968SOL     OW14536   4.286   2.530   3.360  0.2801  0.3958 -0.1693
  968SOL    HW114537   4.266   2.520   3.267  0.2066  0.4257 -0.1572
  968SOL    HW214538   4.381   2.540   3.357  0.6205 -2.5731  0.9326
  969SOL     OW14539   0.763   4.529  11.547 -0.5188  0.3048 -0.0738
  969SOL    HW114540   0.802   4.613  11.571 -0.1780 -0.1311  0.9033
  969SOL    HW214541   0.677   4.531  11.588 -0.9127 -0.1865 -0.8708
  970SOL     OW14542   4.536   2.877  13.725  0.3286 -0.0864  0.1612
  970SOL    HW114543   4.618   2.849  13.765  0.4388  1.1790  0.8117
  970SOL    HW214544   4.556   2.864  13.632  0.4868  1.0198  0.0488
  971SOL     OW14545   0.456   4.499  16.771 -0.2889  0.0673  0.6893
  971SOL    HW114546   0.402   4.575  16.790  0.4472  1.0264 -1.0993
  971SOL    HW214547   0.494   4.478  16.857  2.4826 -2.9091 -1.2376
  972SOL     OW14548   2.893   0.648   2.867  0.2636  0.2838 -0.1125
  972SOL    HW114549   2.943   0.723   2.901  0.0667  0.0809  0.6261
  972SOL    HW214550   2.825   0.697   2.820 -0.0961 -0.0755  0.0352
  973SOL     OW14551   0.178   0.367   0.544  0.1944 -0.2455 -0.1782
  973SOL    HW114552   0.261   0.393   0.584  0.5134  1.8261 -2.2027
  973SOL    HW214553   0.207   0.390   0.456 -0.4535 -2.6070 -0.9882
  974SOL     OW14554   1.433   3.175   6.256  0.1126 -0.1371  0.0353
  974SOL    HW114555   1.468   3.263   6.273 -3.2803  0.7807  2.2305
  974SOL    HW214556   1.447   3.143   6.345 -1.6841  1.7579  0.9931
  975SOL     OW14557   0.221   2.643   5.144  0.8268 -0.4278 -0.2867
  975SOL    HW114558   0.302   2.603   5.111  0.5186 -0.2295 -1.3039
  975SOL    HW214559   0.245   2.691   5.223  1.3556  0.0120 -0.7057
  976SOL     OW14560   3.406   2.830   5.623 -0.7002  0.4549  0.6849
  976SOL    HW114561   3.315   2.841   5.651 -1.2235  1.9882 -1.6206
  976SOL    HW214562   3.424   2.738   5.641 -2.9448  0.0143  0.5904
  977SOL     OW14563   1.848   2.513   1.412  0.4838 -0.1445  0.1756
  977SOL    HW114564   1.785   2.442   1.397 -3.0429  2.8113  0.9201
  977SOL    HW214565   1.813   2.543   1.496  0.4485  0.0500  0.0922
  978SOL     OW14566   4.558   0.622   8.215  0.0876 -0.2353 -0.0710
  978SOL    HW114567   4.516   0.591   8.295 -0.7872 -1.5518 -1.0371
  978SOL    HW214568   4.617   0.690   8.248  4.8643 -4.2549 -0.3125
  979SOL     OW14569   0.630   3.062   2.953  0.0333 -0.2427 -0.0336
  979SOL    HW114570   0.658   3.065   3.045  0.4272 -1.4912 -0.1176
  979SOL    HW214571   0.552   3.010   2.972  0.1391 -0.0215  1.0253
  980SOL     OW14572   1.617   0.019   4.066  0.4118 -0.2239  0.1397
  980SOL    HW114573   1.646   4.681   4.121 -1.9466 -0.0582  1.6054
  980SOL    HW214574   1.521   0.024   4.069  0.4246 -1.1618  2.6764
  981SOL     OW14575   1.800   3.017   7.199  0.1977  0.1866  0.1101
  981SOL    HW114576   1.889   3.007   7.165 -0.4771 -2.2889 -0.9029
  981SOL    HW214577   1.807   2.954   7.270  0.7137  1.8376  1.5359
  982SOL     OW14578   1.594   4.565   4.633 -0.4460  0.2086 -0.0061
  982SOL    HW114579   1.635   4.597   4.553 -0.9236  1.1303  0.1085
  982SOL    HW214580   1.601   4.470   4.629  0.7888  0.3492 -1.0010
  983SOL     OW14581   0.028   2.896   5.540 -0.3026 -0.4997 -0.1159
  983SOL    HW114582   0.008   2.951   5.464 -0.2725  1.3224  1.1867
  983SOL    HW214583   4.683   2.844   5.552 -0.8994  0.6128  0.7617
  984SOL     OW14584   4.578   1.539  10.671  0.0929 -0.3125  0.4752
  984SOL    HW114585   4.499   1.586  10.698  0.5058  1.6206 -1.7091
  984SOL    HW214586   4.573   1.554  10.577  1.6746  1.9926  0.7712
  985SOL     OW14587   3.237   1.115   1.774 -0.1428  0.1605  0.1321
  985SOL    HW114588   3.324   1.150   1.752 -0.7226 -1.0670 -4.0216
  985SOL    HW214589   3.268   1.049   1.836  1.2521  0.8039  0.1401
  986SOL     OW14590   2.598   4.508   5.700 -0.2775 -0.1933 -0.7967
  986SOL    HW114591   2.554   4.511   5.615 -1.2032  1.9026 -0.2657
  986SOL    HW214592   2.532   4.507   5.769  1.2412  0.8727  0.6742
  987SOL     OW14593   1.332   4.117   4.540  0.6792  0.6979 -0.1601
  987SOL    HW114594   1.372   4.121   4.626  1.5849 -1.2870 -0.5050
  987SOL    HW214595   1.252   4.169   4.554  1.9186  2.7742 -0.8690
  988SOL     OW14596   3.731   2.340   3.149  0.5100 -0.6436  0.1187
  988SOL    HW114597   3.754   2.268   3.092 -0.8839 -1.8500  1.0644
  988SOL    HW214598   3.794   2.405   3.120 -1.7138  2.7994  2.9689
  989SOL     OW14599   2.688   4.512   6.421 -0.5240  0.4508  0.1046
  989SOL    HW114600   2.777   4.500   6.387 -0.2534  3.1982 -0.1525
  989SOL    HW214601   2.633   4.474   6.352  0.1875  0.0291 -0.2357
  990SOL     OW14602   2.232   3.236   9.031 -0.0662 -0.1265 -0.6093
  990SOL    HW114603   2.288   3.267   8.960  0.0770 -0.8424 -0.8052
  990SOL    HW214604   2.266   3.290   9.102 -1.3172  0.4331 -0.4395
  991SOL     OW14605   1.576   0.609   1.954  0.3495 -0.3780  0.0634
  991SOL    HW114606   1.557   0.541   1.888 -0.5011  0.7277 -0.8225
  991SOL    HW214607   1.496   0.661   1.950  0.6217  0.3118  3.4281
  992SOL     OW14608   0.004   3.938   6.994 -0.2421 -0.4931  0.0202
  992SOL    HW114609   0.062   3.870   6.960 -0.0111 -0.5993  0.6289
  992SOL    HW214610   0.027   4.010   6.934 -0.8091  0.7972  1.3407
  993SOL     OW14611   2.988   3.108   4.662 -0.2996  0.2857  0.3169
  993SOL    HW114612   2.927   3.081   4.593  0.8967  1.4320 -1.2018
  993SOL    HW214613   3.026   3.027   4.696 -0.4478  0.6316  1.2824
  994SOL     OW14614   0.673   3.937   0.783 -0.1109 -0.1732 -0.0151
  994SOL    HW114615   0.708   3.998   0.848 -1.4361 -0.6506  1.1306
  994SOL    HW214616   0.581   3.946   0.806  0.2680 -1.5277  2.0780
  995SOL     OW14617   1.428   2.178   4.441  0.1483  0.0168 -0.0413
  995SOL    HW114618   1.352   2.132   4.475  2.0221 -2.0343  1.3943
  995SOL    HW214619   1.391   2.266   4.447  2.6104  0.9351  1.4901
  996SOL     OW14620   0.544   0.422   5.194 -0.1525 -0.2330  0.3060
  996SOL    HW114621   0.457   0.453   5.218  0.7982  0.9969  2.1327
  996SOL    HW214622   0.555   0.464   5.109 -2.7243  1.4155  0.7999
  997SOL     OW14623   3.846   3.647   1.915 -0.7043  0.5055 -0.2306
  997SOL    HW114624   3.889   3.578   1.864 -3.1536 -1.0408 -0.1921
  997SOL    HW214625   3.903   3.661   1.991 -0.8579  0.3033 -0.0797
  998SOL     OW14626   3.809   0.529   2.410 -0.1519  0.4703  0.0406
  998SOL    HW114627   3.723   0.540   2.370  0.4497 -0.0823 -1.3807
  998SOL    HW214628   3.865   0.512   2.335  0.4304  1.2422  0.3012
  999SOL     OW14629   1.997   3.389   3.294  0.1009  0.1589  0.1213
  999SOL    HW114630   1.939   3.385   3.218 -0.7370 -1.6810  0.8489
  999SOL    HW214631   2.010   3.297   3.318 -2.7548 -0.3685 -0.3389
 1000SOL     OW14632   2.748   2.500   4.390 -0.1047 -0.1536  0.0903
 1000SOL    HW114633   2.704   2.415   4.383 -1.5497  0.6033 -0.1577
 1000SOL    HW214634   2.694   2.540   4.458 -1.5117 -1.3854 -0.2913
 1001SOL     OW14635   3.104   1.730   4.356 -0.4961  0.2215 -0.1202
 1001SOL    HW114636   3.106   1.788   4.280  0.4053  1.9729  1.2419
 1001SOL    HW214637   3.198   1.710   4.358 -0.3010  1.2479  0.6163
 1002SOL     OW14638   2.937   1.973   5.428  0.2763  0.1403  0.4810
 1002SOL    HW114639   2.879   2.010   5.494  0.0895 -2.1725  1.6298
 1002SOL    HW214640   3.007   2.037   5.436 -0.9469  1.6499 -0.9693
 1003SOL     OW14641   0.935   3.750   1.697 -0.0928 -0.1728 -0.1155
 1003SOL    HW114642   1.009   3.739   1.636 -0.6425  2.7679 -1.3216
 1003SOL    HW214643   0.895   3.663   1.687 -1.9232  0.6963 -0.3090
 1004SOL     OW14644   3.642   0.065   6.544  0.3916 -0.4738 -0.4495
 1004SOL    HW114645   3.660   0.012   6.621  1.1633 -0.0875 -0.3599
 1004SOL    HW214646   3.620   0.000   6.477  0.7990 -0.8679 -0.2045
 1005SOL     OW14647   2.351   3.640   4.498 -0.2893  0.0286  0.0373
 1005SOL    HW114648   2.431   3.595   4.473  1.4003  1.0019  3.7184
 1005SOL    HW214649   2.320   3.679   4.415  0.9686  2.4414  0.6878
 1006SOL     OW14650   2.387   2.150   6.337  0.1648 -0.3013 -0.6743
 1006SOL    HW114651   2.303   2.126   6.375  0.1284 -0.0764 -0.6112
 1006SOL    HW214652   2.365   2.184   6.250 -0.9750  3.8380  1.2022
 1007SOL     OW14653   4.046   1.806  14.169 -0.1351 -0.0287 -0.1184
 1007SOL    HW114654   4.071   1.828  14.258 -0.4655 -0.7704  0.1616
 1007SOL    HW214655   4.111   1.737  14.159 -0.8096 -0.6482 -0.2528
 1008SOL     OW14656   0.851   0.808   3.619  0.1675  0.3032  0.1457
 1008SOL    HW114657   0.795   0.838   3.547  0.4915 -0.3385 -0.3760
 1008SOL    HW214658   0.815   0.719   3.613  1.3942 -0.1198 -0.8049
 1009SOL     OW14659   1.163   3.637   8.447  0.0364 -0.0121  0.2570
 1009SOL    HW114660   1.185   3.666   8.359 -2.1524  0.0149 -0.2663
 1009SOL    HW214661   1.086   3.582   8.432 -0.9309  1.0336  1.4319
 1010SOL     OW14662   2.496   0.889   7.622 -0.6212 -0.1275  0.2997
 1010SOL    HW114663   2.519   0.796   7.623 -1.0183 -0.2574 -1.7223
 1010SOL    HW214664   2.486   0.904   7.528  0.8011 -3.9042 -0.4757
 1011SOL     OW14665   4.396   1.823  16.895  0.3627 -0.7727 -0.1991
 1011SOL    HW114666   4.384   1.842  16.988 -0.3503  0.7689 -0.6167
 1011SOL    HW214667   4.376   1.904  16.850 -3.4936 -0.8793  1.3167
 1012SOL     OW14668   2.272   4.079   1.874  0.2257 -0.4770 -0.4030
 1012SOL    HW114669   2.277   4.172   1.851  0.6269 -0.5068 -0.4407
 1012SOL    HW214670   2.321   4.043   1.800 -1.1006  1.6623 -2.3174
 1013SOL     OW14671   1.396   2.616   1.476  0.3948 -0.1980  0.3449
 1013SOL    HW114672   1.433   2.543   1.525 -0.1234 -1.1586 -0.6782
 1013SOL    HW214673   1.328   2.655   1.529  1.9199  1.2528  1.2241
 1014SOL     OW14674   1.026   4.088   2.995  0.0856 -0.1199  0.6570
 1014SOL    HW114675   1.116   4.056   2.989 -0.5864 -1.9123  0.2535
 1014SOL    HW214676   0.990   4.038   3.068 -3.3690 -2.3899 -2.5738
 1015SOL     OW14677   1.893   1.043  17.468  0.3128  0.0766 -0.2398
 1015SOL    HW114678   1.820   1.104  17.473 -1.5123 -2.2483  1.2814
 1015SOL    HW214679   1.959   1.099  17.425 -0.7218  0.8902 -0.7683
 1016SOL     OW14680   0.993   0.290  14.931  0.4375  0.4572 -0.1563
 1016SOL    HW114681   0.933   0.219  14.951 -0.8377  1.7893  0.6852
 1016SOL    HW214682   0.977   0.343  15.009 -0.3951  1.4553 -1.0013
 1017SOL     OW14683   0.650   0.089   1.899  0.1821  0.4029  0.4506
 1017SOL    HW114684   0.679   4.734   1.914 -0.3152  0.2892  0.7324
 1017SOL    HW214685   0.641   0.104   1.805  0.7759 -1.6169  0.0675
 1018SOL     OW14686   1.822   4.255   6.065 -0.4677 -0.2878  0.3101
 1018SOL    HW114687   1.755   4.322   6.053 -1.0056 -0.8082  0.4231
 1018SOL    HW214688   1.826   4.218   5.977 -0.7158  2.8666 -1.0319
 1019SOL     OW14689   2.598   1.343   9.683  0.1685 -0.0589  0.1012
 1019SOL    HW114690   2.679   1.343   9.733  0.1953 -0.3482  0.0569
 1019SOL    HW214691   2.538   1.385   9.745 -0.7068  1.5439 -1.8567
 1020SOL     OW14692   3.209   1.517  10.126 -0.4477  0.5384 -0.4767
 1020SOL    HW114693   3.282   1.509  10.064  0.0542  0.7202  0.0854
 1020SOL    HW214694   3.221   1.605  10.161  1.3705 -0.0845  0.5057
 1021SOL     OW14695   4.360   2.726   0.060 -0.4704  0.5120  0.3754
 1021SOL    HW114696   4.318   2.643   0.041  2.2281 -0.8545  0.3645
 1021SOL    HW214697   4.351   2.747   0.153 -1.7807 -0.9189  0.5802
 1022SOL     OW14698   1.028   1.864  15.369 -0.1195  0.3888 -0.1698
 1022SOL    HW114699   1.067   1.835  15.286 -2.9739 -0.8733 -1.0710
 1022SOL    HW214700   1.091   1.841  15.437 -0.9925  1.5786  1.0246
 1023SOL     OW14701   1.060   1.554   4.491  0.4677  0.0978 -0.0805
 1023SOL    HW114702   1.044   1.606   4.413 -1.8727 -1.2211 -0.4743
 1023SOL    HW214703   0.974   1.527   4.523 -0.6253  1.0428 -2.2507
 1024SOL     OW14704   0.919   0.332  13.881 -0.0267 -0.5870  0.4603
 1024SOL    HW114705   1.001   0.302  13.919 -0.6182 -0.7853  1.6157
 1024SOL    HW214706   0.868   0.335  13.963  0.0841 -0.0505  0.5099
 1025SOL     OW14707   2.878   4.011   3.441 -0.3579  0.8514 -0.3473
 1025SOL    HW114708   2.917   3.930   3.473  0.0495  0.7276 -1.1612
 1025SOL    HW214709   2.914   4.008   3.352 -1.5935 -1.5665 -0.7663
 1026SOL     OW14710   1.279   2.712   9.309 -0.2386  0.6203  0.5360
 1026SOL    HW114711   1.363   2.748   9.337 -0.6975  1.6570  0.5467
 1026SOL    HW214712   1.281   2.726   9.214  2.0663  0.1099  0.4987
 1027SOL     OW14713   3.625   2.922  13.897 -0.3929  0.0636  0.2629
 1027SOL    HW114714   3.547   2.900  13.847 -0.6223  0.3010  0.5170
 1027SOL    HW214715   3.598   2.964  13.979  1.0982  1.2420  0.1416
 1028SOL     OW14716   0.161   4.520   4.114  0.2298  0.3845 -0.2780
 1028SOL    HW114717   0.250   4.487   4.130 -0.1459 -0.4114  0.1480
 1028SOL    HW214718   0.183   4.612   4.130 -0.7600  0.7487 -1.0073
 1029SOL     OW14719   3.450   3.649  12.834  0.1315 -0.3115 -0.3934
 1029SOL    HW114720   3.395   3.687  12.903  2.4085  1.8335  0.2546
 1029SOL    HW214721   3.518   3.716  12.825 -1.6455  1.4431 -0.8466
 1030SOL     OW14722   3.818   2.285  12.372  0.6164  0.0885 -0.2137
 1030SOL    HW114723   3.726   2.264  12.354  0.5597  1.3154 -1.3738
 1030SOL    HW214724   3.857   2.198  12.376 -2.3952 -1.1898  1.5392
 1031SOL     OW14725   1.437   0.641   1.410 -0.0798 -0.2444 -0.3048
 1031SOL    HW114726   1.395   0.666   1.327  0.2364 -1.7511 -0.9202
 1031SOL    HW214727   1.371   0.670   1.473 -0.3348 -2.2087  0.3520
 1032SOL     OW14728   3.887   3.405   0.910 -0.3934  0.2580 -0.0564
 1032SOL    HW114729   3.834   3.401   0.831  0.3157 -0.1156 -0.5144
 1032SOL    HW214730   3.868   3.318   0.946  2.0032  0.4713  1.7665
 1033SOL     OW14731   2.761   3.609  10.480 -0.0268 -0.2511 -0.1862
 1033SOL    HW114732   2.763   3.514  10.492  1.5259 -0.3332 -1.0956
 1033SOL    HW214733   2.755   3.651  10.566 -0.8147 -0.7593  0.0085
 1034SOL     OW14734   1.368   0.915  10.456  0.5596  0.1204 -0.2201
 1034SOL    HW114735   1.296   0.890  10.398 -0.8571  1.1037  1.0919
 1034SOL    HW214736   1.324   0.965  10.526  0.6095  2.5490 -1.9445
 1035SOL     OW14737   3.493   4.322  14.854 -0.0943 -0.4317  0.2100
 1035SOL    HW114738   3.513   4.321  14.948  1.2896 -2.6844 -0.1128
 1035SOL    HW214739   3.407   4.364  14.849  0.8062  1.4356  0.2006
 1036SOL     OW14740   2.837   1.083   9.903 -0.0263 -0.2466 -0.0925
 1036SOL    HW114741   2.870   0.993   9.904  0.2152 -0.1589 -0.5396
 1036SOL    HW214742   2.766   1.066   9.965 -0.3771 -1.7345 -0.8837
 1037SOL     OW14743   3.748   1.238   3.725 -0.2179 -0.0611 -0.3912
 1037SOL    HW114744   3.732   1.200   3.811  0.0502 -1.2057 -0.8499
 1037SOL    HW214745   3.839   1.268   3.733 -0.6403  1.0528  0.3294
 1038SOL     OW14746   3.220   2.470  11.695  0.0191  0.0268  0.6359
 1038SOL    HW114747   3.240   2.413  11.621 -0.5672 -1.7722  1.8800
 1038SOL    HW214748   3.219   2.555  11.650  1.4072 -0.4117 -0.2523
 1039SOL     OW14749   4.542   0.201   0.783 -0.0101 -0.1115  0.2546
 1039SOL    HW114750   4.547   0.160   0.869 -2.8337  0.1763  0.5652
 1039SOL    HW214751   4.629   0.185   0.747 -0.2395 -0.3419 -0.1856
 1040SOL     OW14752   3.952   2.212   5.783  0.8533 -0.3467 -0.4594
 1040SOL    HW114753   4.043   2.180   5.786  0.8416 -0.3064  0.3455
 1040SOL    HW214754   3.905   2.154   5.724 -0.4362 -0.1074  0.3406
 1041SOL     OW14755   2.477   1.514  10.945  0.4942  0.1774 -0.2499
 1041SOL    HW114756   2.407   1.471  10.994  1.1245 -2.8697 -2.0257
 1041SOL    HW214757   2.434   1.578  10.888 -0.0756  0.7662  0.8427
 1042SOL     OW14758   4.082   4.612  12.646 -0.1977 -0.3775  0.2011
 1042SOL    HW114759   4.021   4.586  12.577 -1.9417  0.8185  1.2892
 1042SOL    HW214760   4.160   4.643  12.600  0.3038 -1.0660  0.5831
 1043SOL     OW14761   4.363   2.553   9.028  0.1443 -0.0014  0.6091
 1043SOL    HW114762   4.353   2.600   9.110  0.8455 -0.0980  0.7551
 1043SOL    HW214763   4.335   2.463   9.045  1.4263  0.1915  3.7265
 1044SOL     OW14764   0.617   0.879   3.392 -0.1171 -0.0528 -0.1519
 1044SOL    HW114765   0.582   0.790   3.386  0.0618  0.0972 -3.3313
 1044SOL    HW214766   0.580   0.904   3.476  1.6549 -0.0392  0.6088
 1045SOL     OW14767   2.375   2.816   7.683 -0.4214 -0.1658  0.0300
 1045SOL    HW114768   2.453   2.869   7.668 -0.9586  0.9876  1.3535
 1045SOL    HW214769   2.326   2.872   7.743 -0.6943 -2.0298  1.5923
 1046SOL     OW14770   3.843   0.386   1.755 -0.8975 -0.5059  0.2895
 1046SOL    HW114771   3.921   0.367   1.808 -0.4243  2.4197  0.6100
 1046SOL    HW214772   3.766   0.366   1.809 -1.6565  2.9370  0.4511
 1047SOL     OW14773   0.789   1.270   2.409 -0.2091  0.4858  0.3414
 1047SOL    HW114774   0.825   1.357   2.391  0.8761  0.5249  2.6882
 1047SOL    HW214775   0.740   1.292   2.488 -0.4767  0.0713  0.2905
 1048SOL     OW14776   2.370   2.681   9.583  0.2453  0.6759 -0.1251
 1048SOL    HW114777   2.325   2.728   9.653  1.2806 -3.6188  3.4024
 1048SOL    HW214778   2.432   2.746   9.550  1.3654 -0.9702 -1.2547
 1049SOL     OW14779   3.154   3.256   0.243 -0.5303 -0.4446 -0.1773
 1049SOL    HW114780   3.205   3.191   0.290  0.3610  0.1425 -0.3460
 1049SOL    HW214781   3.075   3.249   0.298 -0.4541 -1.4147 -0.1890
 1050SOL     OW14782   4.041   2.271  15.026 -0.6762 -0.5480  0.0695
 1050SOL    HW114783   4.120   2.291  15.076 -1.0445 -0.7662  0.7479
 1050SOL    HW214784   4.075   2.205  14.966  0.2031 -0.7853  0.8205
 1051SOL     OW14785   4.260   2.281  14.753  0.3291  0.0642 -0.4989
 1051SOL    HW114786   4.268   2.223  14.677  1.1111 -1.0385  0.4324
 1051SOL    HW214787   4.232   2.358  14.704  0.8394  0.5745  0.0121
 1052SOL     OW14788   1.695   2.880   5.962  0.3056  0.7104 -0.4160
 1052SOL    HW114789   1.779   2.923   5.943 -0.1684  2.6372  1.7876
 1052SOL    HW214790   1.684   2.923   6.047  1.4673  0.2559 -0.0416
 1053SOL     OW14791   3.331   3.516   4.578 -0.2294  0.4241  0.5209
 1053SOL    HW114792   3.281   3.534   4.658  0.7032  0.1893  1.1519
 1053SOL    HW214793   3.287   3.448   4.527 -2.0867  1.2989  0.9383
 1054SOL     OW14794   3.819   3.219   2.930  0.3661  0.1349  0.4966
 1054SOL    HW114795   3.817   3.150   2.997 -1.2928  0.0695  0.3709
 1054SOL    HW214796   3.902   3.209   2.884  0.9416 -1.4567  1.9052
 1055SOL     OW14797   2.124   2.314   9.335  0.2626  0.3084 -0.5931
 1055SOL    HW114798   2.054   2.309   9.400  1.7968  1.8522  1.1499
 1055SOL    HW214799   2.151   2.405   9.340  0.0142  0.4281 -1.3995
 1056SOL     OW14800   3.876   1.659   5.072 -0.1630 -0.2243 -0.0091
 1056SOL    HW114801   3.898   1.650   5.165  1.3528  1.7856 -0.1497
 1056SOL    HW214802   3.879   1.565   5.053  1.7566 -0.7854  3.0917
 1057SOL     OW14803   2.848   0.283  14.352 -0.4994 -0.1711 -0.6074
 1057SOL    HW114804   2.764   0.267  14.308  0.0495  0.7766 -1.9836
 1057SOL    HW214805   2.819   0.273  14.443 -0.2608 -0.4246 -0.5609
 1058SOL     OW14806   1.243   1.816   6.250 -0.0281  0.4757 -0.7106
 1058SOL    HW114807   1.206   1.835   6.164  0.0071  1.4253 -0.5080
 1058SOL    HW214808   1.268   1.724   6.241 -1.2079  0.0262  0.4861
 1059SOL     OW14809   3.041   3.762   8.524  0.0632 -0.0391  0.0362
 1059SOL    HW114810   2.994   3.845   8.527 -1.5774 -0.9020 -1.3821
 1059SOL    HW214811   3.065   3.764   8.617  2.0173  2.7727 -0.5237
 1060SOL     OW14812   0.280   3.216   5.364  0.0461  0.4427 -0.2784
 1060SOL    HW114813   0.315   3.294   5.407 -1.9666  1.7316 -0.9700
 1060SOL    HW214814   0.325   3.148   5.415  0.7068  0.5127 -0.7626
 1061SOL     OW14815   3.566   4.081  10.776  0.4545  0.7386 -0.2336
 1061SOL    HW114816   3.592   4.105  10.865 -2.8362 -2.0099  1.4694
 1061SOL    HW214817   3.644   4.100  10.724  2.4894  1.2372  2.9729
 1062SOL     OW14818   3.538   4.587   5.794 -0.3409 -0.4799 -0.1508
 1062SOL    HW114819   3.620   4.593   5.844 -1.6863 -2.1098  2.2339
 1062SOL    HW214820   3.556   4.515   5.734 -0.4354 -0.0479 -0.6946
 1063SOL     OW14821   3.663   0.749   5.718  0.1790 -0.2269  0.1560
 1063SOL    HW114822   3.579   0.784   5.751  0.4207  1.8756 -1.4519
 1063SOL    HW214823   3.647   0.655   5.721  1.8651 -0.4451  1.7992
 1064SOL     OW14824   3.411   3.868   9.693 -0.0530 -0.0381 -0.5357
 1064SOL    HW114825   3.482   3.807   9.670 -0.7882 -0.7694 -0.8947
 1064SOL    HW214826   3.373   3.888   9.607  0.0106 -0.6518 -0.7080
 1065SOL     OW14827   2.169   2.635  17.312  0.1006  0.2243 -0.2845
 1065SOL    HW114828   2.130   2.584  17.241 -2.4323  2.2451 -0.3245
 1065SOL    HW214829   2.263   2.617  17.305  0.1748  0.9243 -1.0992
 1066SOL     OW14830   2.209   0.889   4.814  0.1253  0.2350  0.0498
 1066SOL    HW114831   2.195   0.977   4.778  0.8403  0.5150  0.4688
 1066SOL    HW214832   2.284   0.907   4.871 -0.3359  1.4635  0.2745
 1067SOL     OW14833   3.811   4.304   2.862  0.1644 -0.3815 -0.0343
 1067SOL    HW114834   3.880   4.238   2.872  0.1500 -0.2807  0.7043
 1067SOL    HW214835   3.770   4.272   2.782  1.7700  0.8983 -1.3802
 1068SOL     OW14836   2.343   0.257  15.841  0.3467 -0.3950  0.5603
 1068SOL    HW114837   2.271   0.214  15.887  0.1422 -1.0302 -0.3514
 1068SOL    HW214838   2.306   0.248  15.753 -1.0875 -0.8047  1.1943
 1069SOL     OW14839   2.087   3.527  15.897  0.1696 -0.0540  0.5695
 1069SOL    HW114840   2.096   3.605  15.952  1.4062  0.2833 -0.1120
 1069SOL    HW214841   2.181   3.521  15.879 -0.1532  0.3617 -1.2350
 1070SOL     OW14842   3.989   1.111   1.854  0.0861 -0.2775  0.5374
 1070SOL    HW114843   3.920   1.110   1.787  1.5277 -0.8803 -0.9380
 1070SOL    HW214844   4.025   1.024   1.838  1.6374  0.2892  0.9326
 1071SOL     OW14845   1.587   3.221   4.904  0.5369 -1.0623 -0.1111
 1071SOL    HW114846   1.678   3.235   4.931  0.1875  2.6740 -0.9437
 1071SOL    HW214847   1.551   3.298   4.947  2.3993 -0.9788  1.2702
 1072SOL     OW14848   0.021   2.684   2.048  0.3532 -0.3137 -0.1336
 1072SOL    HW114849   0.052   2.710   2.135  4.7301 -1.0162 -1.4597
 1072SOL    HW214850   4.669   2.645   2.052 -0.0951  0.8850  2.0540
 1073SOL     OW14851   3.751   2.158   4.390  0.4763 -0.5909 -0.2023
 1073SOL    HW114852   3.737   2.177   4.297  1.4254  0.5289 -0.1280
 1073SOL    HW214853   3.826   2.213   4.415  0.5045 -1.0980  0.8171
 1074SOL     OW14854   4.431   2.153   7.191 -0.0227 -0.7558 -0.0005
 1074SOL    HW114855   4.502   2.172   7.251 -1.0057  0.2525  0.8342
 1074SOL    HW214856   4.361   2.210   7.223 -1.1363 -1.6271 -0.8786
 1075SOL     OW14857   0.051   3.998   0.847  0.1442  0.8243  0.4807
 1075SOL    HW114858   4.712   4.043   0.888  2.3873  2.5810  2.5556
 1075SOL    HW214859   0.108   4.073   0.831 -0.7804  1.3459 -0.4023
 1076SOL     OW14860   3.420   0.389   3.207  0.6028 -0.0203  0.2423
 1076SOL    HW114861   3.434   0.306   3.162 -0.0838 -0.1041  0.1906
 1076SOL    HW214862   3.512   0.416   3.212  1.0749 -1.4239 -0.8650
 1077SOL     OW14863   2.968   2.336   4.976  0.3327  0.1749  0.0606
 1077SOL    HW114864   2.939   2.281   4.903  1.4650 -1.4180  0.8119
 1077SOL    HW214865   2.882   2.370   4.999 -0.9794 -2.5768 -0.8147
 1078SOL     OW14866   0.908   2.078   8.276  0.3295 -0.1385 -0.2858
 1078SOL    HW114867   0.831   2.132   8.259 -0.7619 -1.6179 -0.0544
 1078SOL    HW214868   0.916   2.042   8.188 -1.9371 -0.8113 -0.2061
 1079SOL     OW14869   4.582   4.690   3.939  0.7174 -0.4442  0.5606
 1079SOL    HW114870   4.551   0.046   3.933 -1.7319 -1.3341 -0.1296
 1079SOL    HW214871   4.601   4.676   3.846 -0.5393 -0.4259  0.3085
 1080SOL     OW14872   2.962   2.654   8.320  0.3071 -0.5311 -0.3711
 1080SOL    HW114873   3.026   2.652   8.250 -0.4686 -0.6376 -1.0809
 1080SOL    HW214874   2.906   2.728   8.298  1.1788  0.5843  1.1516
 1081SOL     OW14875   4.705   2.334   3.076  0.9641  0.0221  0.0786
 1081SOL    HW114876   4.723   2.392   3.002  1.6513  0.2074  0.3909
 1081SOL    HW214877   4.671   2.396   3.140 -1.0292 -2.1900  1.1944
 1082SOL     OW14878   2.234   4.489  15.714  0.0886  0.6738  0.0351
 1082SOL    HW114879   2.319   4.507  15.755  0.1337 -1.3598  0.8704
 1082SOL    HW214880   2.200   4.577  15.701 -0.7854  0.1978 -0.9490
 1083SOL     OW14881   0.327   3.885   4.373 -0.1499  0.0557 -0.2449
 1083SOL    HW114882   0.330   3.885   4.469  4.5488 -0.6968 -0.4096
 1083SOL    HW214883   0.256   3.825   4.349  0.3665 -1.1078  1.0871
 1084SOL     OW14884   3.850   3.932  15.101  0.3068  0.1516 -0.8422
 1084SOL    HW114885   3.933   3.977  15.088  1.1920 -1.0774  0.5575
 1084SOL    HW214886   3.862   3.848  15.057 -2.1230 -0.6006 -0.0589
 1085SOL     OW14887   1.880   1.575  11.224 -0.1542 -0.8746 -0.2584
 1085SOL    HW114888   1.835   1.492  11.210 -0.4110 -0.8499  0.4624
 1085SOL    HW214889   1.920   1.584  11.137  0.6885 -0.8114  0.1327
 1086SOL     OW14890   4.654   1.668   9.538 -0.2404  0.3003 -0.0388
 1086SOL    HW114891   4.640   1.673   9.633  1.5674  1.8628  0.1663
 1086SOL    HW214892   4.567   1.697   9.509  0.0882  0.4642 -0.8512
 1087SOL     OW14893   3.556   4.142   7.038  0.0164 -0.4196  0.2905
 1087SOL    HW114894   3.536   4.100   7.122 -1.4035 -0.5432 -0.1287
 1087SOL    HW214895   3.472   4.137   6.994  0.6168 -1.2319 -0.7747
 1088SOL     OW14896   3.004   0.462   9.375 -0.1901  0.7612  1.3042
 1088SOL    HW114897   3.014   0.542   9.324 -0.0687  1.4125  2.3563
 1088SOL    HW214898   3.086   0.462   9.425  0.7479  2.1790 -0.2237
 1089SOL     OW14899   2.804   3.894   5.124  0.1225 -0.3745 -0.0486
 1089SOL    HW114900   2.763   3.811   5.147 -1.8441  0.7416  0.5495
 1089SOL    HW214901   2.724   3.946   5.122  0.2275 -0.2504 -0.8361
 1090SOL     OW14902   4.340   4.715   0.071  0.3428 -0.3445  0.2466
 1090SOL    HW114903   4.356   0.053   0.012  1.2246  0.1213  1.0720
 1090SOL    HW214904   4.272   4.674   0.017 -0.7614 -1.2350  2.2949
 1091SOL     OW14905   0.361   3.901  17.316  0.6752 -0.2181  0.7275
 1091SOL    HW114906   0.435   3.851  17.352 -0.6905 -2.3888  0.5431
 1091SOL    HW214907   0.291   3.858  17.365  0.5977  1.3240  1.9509
 1092SOL     OW14908   3.137   2.263   5.409 -0.8337  0.0509 -0.0235
 1092SOL    HW114909   3.051   2.292   5.380 -0.0577  0.3233 -2.1074
 1092SOL    HW214910   3.182   2.286   5.327 -2.6463 -0.5805 -1.1933
 1093SOL     OW14911   2.443   4.205   2.196  0.6854 -0.6028 -0.3905
 1093SOL    HW114912   2.363   4.167   2.232 -0.1706 -0.9772 -2.6685
 1093SOL    HW214913   2.413   4.296   2.185  0.1522 -0.6510  0.6128
 1094SOL     OW14914   3.535   0.397   9.656 -0.5846 -0.1774 -0.4440
 1094SOL    HW114915   3.593   0.468   9.681 -0.5043  0.0467 -1.2584
 1094SOL    HW214916   3.463   0.413   9.718  0.7055 -1.6823  1.4556
 1095SOL     OW14917   4.338   0.769   5.869  0.1814  0.8464 -0.7086
 1095SOL    HW114918   4.317   0.820   5.948 -1.1688 -2.0522  0.7788
 1095SOL    HW214919   4.253   0.727   5.861  0.8571 -0.1259 -2.7746
 1096SOL     OW14920   2.111   3.741   5.358 -0.6506  0.2229  0.4451
 1096SOL    HW114921   2.165   3.819   5.365 -0.1536 -0.0193 -0.6773
 1096SOL    HW214922   2.034   3.766   5.410 -1.3695  0.9928 -0.9884
 1097SOL     OW14923   2.471   1.838   6.719  0.1355 -0.2635  0.0793
 1097SOL    HW114924   2.377   1.847   6.701  0.1265 -1.7043 -0.5962
 1097SOL    HW214925   2.504   1.916   6.675  1.0223  0.4939  2.0784
 1098SOL     OW14926   2.836   0.812  16.597 -0.2529  0.6056 -0.7511
 1098SOL    HW114927   2.846   0.877  16.527 -0.6954  2.0969  0.5651
 1098SOL    HW214928   2.929   0.789  16.602  0.0398  1.7236 -1.0838
 1099SOL     OW14929   0.270   3.151   1.076  0.1007  0.9629  0.0550
 1099SOL    HW114930   0.253   3.241   1.047 -0.7547  0.3395 -1.3777
 1099SOL    HW214931   0.339   3.125   1.015 -1.6437 -0.4787 -1.3066
 1100SOL     OW14932   0.549   0.526   2.429  0.4366  0.5401 -0.2510
 1100SOL    HW114933   0.607   0.508   2.503  0.2033  0.1207 -0.1682
 1100SOL    HW214934   0.473   0.567   2.470 -0.1214  0.3709 -1.1117
 1101SOL     OW14935   3.240   3.218   1.202  0.1582 -0.3118  0.7691
 1101SOL    HW114936   3.303   3.178   1.262  0.1879  0.8886  1.5415
 1101SOL    HW214937   3.166   3.157   1.212  0.7655 -1.1268  0.2183
 1102SOL     OW14938   1.291   4.100   7.593  0.2349 -1.1282  0.0915
 1102SOL    HW114939   1.284   4.040   7.667 -2.6041 -0.5561  0.2744
 1102SOL    HW214940   1.201   4.133   7.589  0.9117  0.9759  1.9415
 1103SOL     OW14941   0.853   1.141   4.137 -0.2427  0.3872  0.5400
 1103SOL    HW114942   0.819   1.231   4.139 -1.1000  0.1318 -3.3956
 1103SOL    HW214943   0.819   1.108   4.220 -0.6107  0.9829  0.6279
 1104SOL     OW14944   4.597   0.072   4.373  0.4100 -0.3519  0.2112
 1104SOL    HW114945   4.601   0.166   4.390 -1.3175 -0.6914  2.5965
 1104SOL    HW214946   4.656   0.078   4.298 -1.8530  1.8042 -1.4354
 1105SOL     OW14947   1.104   3.078  11.737 -0.0594 -0.5594 -0.0910
 1105SOL    HW114948   1.015   3.054  11.711 -0.0760  0.1699 -0.7190
 1105SOL    HW214949   1.112   3.085  11.832 -2.2265 -0.9210  0.1134
 1106SOL     OW14950   1.519   3.879   2.456  0.5508  0.4153  0.6134
 1106SOL    HW114951   1.477   3.820   2.393 -0.1006  0.2137  1.2383
 1106SOL    HW214952   1.597   3.907   2.408 -1.0532  0.9521 -1.6489
 1107SOL     OW14953   2.395   3.481   0.852  0.3384  0.4301 -0.2179
 1107SOL    HW114954   2.407   3.497   0.946  0.3527 -0.4331 -0.0729
 1107SOL    HW214955   2.304   3.450   0.858 -0.1160  1.5340 -1.4332
 1108SOL     OW14956   0.274   4.114   0.697  0.8354 -0.6313  0.1095
 1108SOL    HW114957   0.334   4.072   0.635 -2.0108 -0.8944 -2.4868
 1108SOL    HW214958   0.252   4.191   0.645 -0.2206 -0.7625  0.3604
 1109SOL     OW14959   0.919   4.094  17.126 -0.1727  0.6019 -0.1405
 1109SOL    HW114960   0.887   4.009  17.097  0.2703 -0.0259  1.2005
 1109SOL    HW214961   0.879   4.142  17.055  1.2198  1.1136 -0.5778
 1110SOL     OW14962   4.316   2.162  14.999 -0.2592  0.3116 -0.5209
 1110SOL    HW114963   4.291   2.210  14.920 -2.2974  2.0170  1.1336
 1110SOL    HW214964   4.411   2.160  14.987 -0.4221  0.2098 -1.7675
 1111SOL     OW14965   0.846   0.296   3.788  0.2679 -0.0544 -0.1789
 1111SOL    HW114966   0.905   0.238   3.836  0.3829  0.6312  0.5091
 1111SOL    HW214967   0.783   0.232   3.756 -0.2250  0.4299 -0.1867
 1112SOL     OW14968   2.669   2.381   5.390 -0.0129  0.2769  0.2991
 1112SOL    HW114969   2.630   2.326   5.322  2.2014  1.4193 -1.8914
 1112SOL    HW214970   2.652   2.472   5.364 -0.3779 -0.6104 -2.5569
 1113SOL     OW14971   1.347   0.924   6.887  0.0801  0.1762 -0.2865
 1113SOL    HW114972   1.268   0.920   6.832 -0.2732  0.8901  0.1667
 1113SOL    HW214973   1.353   0.832   6.910 -0.3460  0.0562 -0.6399
 1114SOL     OW14974   4.409   3.735   2.291 -0.0436  0.0853  0.4738
 1114SOL    HW114975   4.368   3.799   2.233  1.4997 -0.5440 -1.2955
 1114SOL    HW214976   4.377   3.655   2.251 -0.5280 -1.0431  3.0989
 1115SOL     OW14977   0.782   2.494   4.675 -0.0593 -0.5543  0.8187
 1115SOL    HW114978   0.834   2.414   4.670 -0.5979 -0.9961  2.4773
 1115SOL    HW214979   0.745   2.487   4.587  0.5871 -0.8291  0.5641
 1116SOL     OW14980   3.697   1.848  12.290 -0.7903 -0.1059 -0.1187
 1116SOL    HW114981   3.654   1.858  12.376 -2.3806 -0.4238 -0.8749
 1116SOL    HW214982   3.747   1.767  12.295  0.5263  0.9454  4.2072
 1117SOL     OW14983   1.585   0.967   9.625  0.1592  0.1741 -0.0831
 1117SOL    HW114984   1.520   0.983   9.556 -0.0614 -0.0475  0.0699
 1117SOL    HW214985   1.554   0.882   9.657  3.3582 -0.3052  1.7244
 1118SOL     OW14986   4.678   3.834   7.592  0.1218  0.1277  0.0968
 1118SOL    HW114987   4.631   3.760   7.552  1.2766  0.3832 -1.7112
 1118SOL    HW214988   4.714   3.874   7.514 -0.8933  1.7222  0.4495
 1119SOL     OW14989   2.464   2.497   9.240 -0.3288 -0.1445 -0.3605
 1119SOL    HW114990   2.488   2.488   9.147 -1.4927 -0.2342 -0.6524
 1119SOL    HW214991   2.522   2.435   9.285  0.4856 -0.2457 -1.5477
 1120SOL     OW14992   2.511   0.135  11.063 -0.5410 -0.7988  0.2299
 1120SOL    HW114993   2.438   0.122  11.002 -0.3485  0.6955 -0.3258
 1120SOL    HW214994   2.546   0.046  11.056 -0.5450 -0.5224 -3.5504
 1121SOL     OW14995   1.926   4.344   5.095  0.6273  0.2474 -0.2924
 1121SOL    HW114996   1.863   4.322   5.026 -1.3428  0.8340  1.3264
 1121SOL    HW214997   1.964   4.257   5.104  1.9468  0.8470 -0.0620
 1122SOL     OW14998   0.135   4.143  16.931  0.1063 -0.1273 -0.0616
 1122SOL    HW114999   0.063   4.206  16.937 -0.3555 -0.3492 -3.0159
 1122SOL    HW215000   0.187   4.178  16.858  2.5918  0.5139  2.0052
 1123SOL     OW15001   0.833   3.559   4.037 -0.5109 -0.4730  0.6041
 1123SOL    HW115002   0.764   3.517   4.089 -0.3453 -0.6987  0.6389
 1123SOL    HW215003   0.812   3.649   4.062  0.2510 -0.4791  1.2684
 1124SOL     OW15004   1.656   0.965   8.717  0.0599 -0.2183  0.0973
 1124SOL    HW115005   1.614   0.907   8.653  0.9639 -2.8064  1.8372
 1124SOL    HW215006   1.743   0.980   8.682 -0.1505  1.2561  0.2218
 1125SOL     OW15007   0.696   0.945  17.165  0.3137  0.0347 -0.1705
 1125SOL    HW115008   0.650   0.896  17.096  0.8412 -1.1332  0.3045
 1125SOL    HW215009   0.621   0.999  17.189  0.6578  0.6675 -0.5410
 1126SOL     OW15010   2.295   4.625   4.934 -0.4392  0.2627  0.5033
 1126SOL    HW115011   2.375   4.620   4.881 -0.7375  2.6518 -0.1767
 1126SOL    HW215012   2.311   4.701   4.989 -1.4056  1.5033 -0.9385
 1127SOL     OW15013   4.053   3.732   7.767  0.3573 -0.1601 -0.0388
 1127SOL    HW115014   4.136   3.697   7.735  1.7715  2.7159  0.4781
 1127SOL    HW215015   4.071   3.822   7.795  0.6609 -0.1081 -0.3981
 1128SOL     OW15016   0.896   0.137   4.590  0.0352 -0.5401  0.6323
 1128SOL    HW115017   0.981   0.131   4.545  0.5752  1.9167  1.3505
 1128SOL    HW215018   0.842   0.068   4.553  1.2090 -0.6458 -0.9044
 1129SOL     OW15019   2.590   3.546   8.329  0.5009 -0.2191 -0.0491
 1129SOL    HW115020   2.681   3.567   8.348  0.0002  1.4574  0.4687
 1129SOL    HW215021   2.575   3.582   8.242  0.7372 -1.4586 -0.5974
 1130SOL     OW15022   1.572   1.033   5.307  0.4207  0.1749 -0.1001
 1130SOL    HW115023   1.591   1.127   5.314  2.7042 -0.3129  0.2237
 1130SOL    HW215024   1.498   1.035   5.246  0.3270  0.9405  0.0333
 1131SOL     OW15025   3.730   2.230   7.575  0.0881  0.2469  0.3854
 1131SOL    HW115026   3.637   2.218   7.591  0.0387  1.5651  1.0283
 1131SOL    HW215027   3.735   2.314   7.531  0.8784 -0.0664 -0.1318
 1132SOL     OW15028   2.714   2.261  12.068 -0.2020 -0.2874 -0.4522
 1132SOL    HW115029   2.762   2.181  12.090  1.0554  0.8736  1.0201
 1132SOL    HW215030   2.786   2.312  12.030 -0.0150 -0.9598 -1.0093
 1133SOL     OW15031   3.044   0.860   6.690 -0.0265  0.4119  0.4619
 1133SOL    HW115032   3.008   0.788   6.741  2.2750 -0.5154  0.7810
 1133SOL    HW215033   3.130   0.824   6.670 -0.6178 -1.0230  0.5148
 1134SOL     OW15034   4.664   4.544  12.415 -0.1897 -0.2308 -0.0692
 1134SOL    HW115035   4.626   4.624  12.379  0.0617  0.0479  0.2758
 1134SOL    HW215036   0.023   4.560  12.424 -0.8431  3.8989 -0.6884
 1135SOL     OW15037   3.551   4.238   6.272 -0.2554 -0.0038  0.0172
 1135SOL    HW115038   3.555   4.211   6.364  2.7308  0.8179  0.1362
 1135SOL    HW215039   3.636   4.212   6.236  0.1749 -1.6170  2.2277
 1136SOL     OW15040   4.383   3.503  17.453 -0.4530  0.3840 -0.1848
 1136SOL    HW115041   4.416   3.457  17.530 -0.5519 -0.9755 -0.9481
 1136SOL    HW215042   4.392   3.428  17.394 -0.9132  1.8662 -2.1376
 1137SOL     OW15043   0.003   4.357  10.342 -0.6878 -0.0441  0.5456
 1137SOL    HW115044   0.045   4.434  10.380  0.8864  1.1490 -3.5642
 1137SOL    HW215045   0.071   4.335  10.278 -1.4347 -2.5140  0.6159
 1138SOL     OW15046   4.071   1.965  14.458 -0.1173  0.1558  0.2904
 1138SOL    HW115047   4.082   1.942  14.550  0.2003  1.9933  0.7123
 1138SOL    HW215048   4.132   2.038  14.452  0.1667  0.0182  1.5709
 1139SOL     OW15049   4.213   3.264   1.365  0.4799  0.0527  0.1421
 1139SOL    HW115050   4.197   3.208   1.290  2.0593 -0.3236  0.0727
 1139SOL    HW215051   4.294   3.232   1.406  0.6942  0.7307  0.2517
 1140SOL     OW15052   4.633   4.306   8.456  0.3053  0.2798  0.1131
 1140SOL    HW115053   4.620   4.331   8.547 -0.8855  0.1664 -0.0288
 1140SOL    HW215054   4.565   4.239   8.452 -0.7566  1.3180  0.8667
 1141SOL     OW15055   0.370   0.334   6.054 -0.2002  0.6470 -0.2348
 1141SOL    HW115056   0.311   0.383   5.996 -0.6510 -1.1163 -1.2792
 1141SOL    HW215057   0.456   0.356   6.018 -0.1733  1.4284  0.3135
 1142SOL     OW15058   2.235   1.918   8.897 -0.5616 -0.3247  0.3229
 1142SOL    HW115059   2.326   1.891   8.890 -1.6204 -3.3562 -1.6974
 1142SOL    HW215060   2.220   1.922   8.991  1.0524 -0.0831  0.5670
 1143SOL     OW15061   4.251   0.231  10.579 -0.2262 -0.4129  0.0246
 1143SOL    HW115062   4.303   0.311  10.581 -3.7836  1.9060 -0.5986
 1143SOL    HW215063   4.159   0.256  10.573  0.0227  1.1000  2.8210
 1144SOL     OW15064   2.531   1.857  14.583  0.2077  0.1113 -0.1315
 1144SOL    HW115065   2.616   1.813  14.579  0.2944  0.4004 -1.1847
 1144SOL    HW215066   2.545   1.940  14.539  1.0329 -0.7709 -1.5106
 1145SOL     OW15067   2.723   1.686   5.113 -0.0077 -0.3112 -0.4630
 1145SOL    HW115068   2.757   1.672   5.025  0.5922 -0.4665 -0.2044
 1145SOL    HW215069   2.802   1.725   5.150  0.2003  0.3313 -1.5584
 1146SOL     OW15070   0.127   4.147   9.683 -0.3346 -0.2017  0.1042
 1146SOL    HW115071   0.185   4.072   9.669 -3.0317 -2.0382 -1.2737
 1146SOL    HW215072   0.154   4.208   9.615 -0.0615  0.1782  0.5610
 1147SOL     OW15073   4.178   2.419  16.289 -0.4851  0.4336 -0.6242
 1147SOL    HW115074   4.160   2.443  16.198 -1.0724 -1.9823 -1.1569
 1147SOL    HW215075   4.096   2.388  16.327 -0.6861  0.3821 -1.0954
 1148SOL     OW15076   4.416   4.734   6.103 -0.0763 -0.4571 -0.7377
 1148SOL    HW115077   4.476   0.012   6.030 -0.1565  0.0984 -0.7084
 1148SOL    HW215078   4.391   0.092   6.112 -1.4505 -0.8570 -0.3349
 1149SOL     OW15079   4.163   1.487   4.437 -0.1195 -0.6613  0.2603
 1149SOL    HW115080   4.239   1.510   4.491  0.1430 -0.8796 -0.0184
 1149SOL    HW215081   4.125   1.420   4.495  2.7121 -2.0085  0.5660
 1150SOL     OW15082   1.295   2.499  12.013 -0.2372 -0.4495  0.1694
 1150SOL    HW115083   1.204   2.470  12.021 -0.2038 -0.8145 -0.8031
 1150SOL    HW215084   1.287   2.594  12.010  1.3659 -0.3089  0.2956
 1151SOL     OW15085   4.733   0.215   8.419  0.2021 -0.3204 -0.2843
 1151SOL    HW115086   4.666   0.171   8.470 -0.2425  1.8409  0.9787
 1151SOL    HW215087   4.730   0.303   8.455 -0.7008 -1.3182  2.0245
 1152SOL     OW15088   2.928   4.615   5.665 -0.0172  0.7039  0.5758
 1152SOL    HW115089   2.865   4.557   5.706  0.8143  0.1039  1.0050
 1152SOL    HW215090   3.008   4.565   5.679 -0.0151  0.2059 -1.2471
 1153SOL     OW15091   3.757   0.934  13.318 -0.8791  0.0817 -0.1610
 1153SOL    HW115092   3.794   0.875  13.253 -2.3527  2.2011 -2.8946
 1153SOL    HW215093   3.837   0.979  13.345 -1.0975  0.3988 -0.0436
 1154SOL     OW15094   4.719   1.074   0.618 -0.0603  0.8154 -0.3919
 1154SOL    HW115095   4.708   1.169   0.619 -1.4440  0.6636 -0.4635
 1154SOL    HW215096   0.059   1.064   0.676 -0.3316  0.8202 -0.0418
 1155SOL     OW15097   1.269   4.481   8.571 -0.1677  0.4343 -0.3749
 1155SOL    HW115098   1.204   4.531   8.521 -1.8175 -1.9428 -0.5950
 1155SOL    HW215099   1.330   4.465   8.499  0.9966 -0.6983  0.8694
 1156SOL     OW15100   4.572   3.155   9.709 -0.2010 -0.1406  0.4190
 1156SOL    HW115101   4.535   3.106   9.783 -0.9972 -1.4579 -0.8395
 1156SOL    HW215102   4.626   3.086   9.670 -1.0538 -1.0293  0.7906
 1157SOL     OW15103   0.640   1.390   6.519  0.2336 -0.5859 -0.0651
 1157SOL    HW115104   0.562   1.397   6.464 -0.8391 -0.1141  1.5192
 1157SOL    HW215105   0.692   1.459   6.476 -0.3813 -0.5530 -0.7659
 1158SOL     OW15106   2.512   1.055   9.704  0.2954 -0.7330 -0.2046
 1158SOL    HW115107   2.426   1.082   9.671  0.1109  0.9862  1.6751
 1158SOL    HW215108   2.571   1.103   9.645  0.8211 -0.3371  0.6543
 1159SOL     OW15109   4.097   3.488   6.070 -0.2290  0.0203 -0.5721
 1159SOL    HW115110   4.129   3.402   6.096 -0.0901  0.4875  0.7901
 1159SOL    HW215111   4.064   3.483   5.980  0.1219 -1.0924 -0.6406
 1160SOL     OW15112   1.171   4.017   7.309 -0.0806 -0.3463 -0.4837
 1160SOL    HW115113   1.103   4.079   7.283  0.2308 -0.8738 -2.5864
 1160SOL    HW215114   1.226   4.081   7.354 -0.3328  0.1702 -0.9068
 1161SOL     OW15115   3.808   3.161   0.572  0.0070 -0.3374  0.1791
 1161SOL    HW115116   3.902   3.153   0.553  0.1769  0.8928  0.5361
 1161SOL    HW215117   3.770   3.149   0.485  0.8542 -1.0243 -0.0955
 1162SOL     OW15118   2.111   0.844   5.235  0.0731 -0.0437 -0.2774
 1162SOL    HW115119   2.040   0.803   5.284 -1.7362 -0.4700 -3.2062
 1162SOL    HW215120   2.178   0.781   5.211  0.2878 -0.4518  1.4495
 1163SOL     OW15121   2.165   2.674   6.179  0.4862  0.2428 -0.3805
 1163SOL    HW115122   2.105   2.683   6.253  0.0139 -0.0837 -0.7285
 1163SOL    HW215123   2.130   2.597   6.134  1.0277  1.0840 -2.2118
 1164SOL     OW15124   4.242   4.230   5.342 -0.2518 -0.3795  0.7337
 1164SOL    HW115125   4.282   4.304   5.388  0.1570  0.4161 -0.9190
 1164SOL    HW215126   4.299   4.219   5.266 -0.6984  0.2224  0.3187
 1165SOL     OW15127   4.002   4.343   4.838 -0.0123 -0.5202 -0.4584
 1165SOL    HW115128   3.909   4.344   4.862  0.3605  1.2663  0.8668
 1165SOL    HW215129   3.993   4.333   4.743  0.9896  0.2151 -0.6249
 1166SOL     OW15130   1.118   0.665   0.993 -1.0351 -0.2453  0.1128
 1166SOL    HW115131   1.182   0.673   0.923  1.2021 -1.4875  2.0076
 1166SOL    HW215132   1.060   0.737   0.969  0.5631  0.3431 -2.0127
 1167SOL     OW15133   1.060   1.275   8.881  0.1167 -0.3033 -0.7516
 1167SOL    HW115134   1.103   1.245   8.801  0.5203 -3.6112  0.6751
 1167SOL    HW215135   1.138   1.299   8.931 -0.8147  0.8060  0.1921
 1168SOL     OW15136   0.853   1.806   4.695 -0.5629  0.4249 -0.0243
 1168SOL    HW115137   0.795   1.881   4.712 -1.7803 -0.5537  0.1145
 1168SOL    HW215138   0.797   1.751   4.640  0.7731 -0.7132 -0.2510
 1169SOL     OW15139   1.174   0.529  15.285  0.2618 -0.2429  0.7722
 1169SOL    HW115140   1.204   0.547  15.196  2.0586  0.9482  1.6175
 1169SOL    HW215141   1.218   0.600  15.331 -0.4557  1.6022 -1.3749
 1170SOL     OW15142   2.414   2.671  12.584  0.5130  0.0162 -0.3810
 1170SOL    HW115143   2.328   2.630  12.596 -0.2489  1.1402 -2.0391
 1170SOL    HW215144   2.430   2.696  12.675 -0.0622  1.6098 -0.7260
 1171SOL     OW15145   1.669   1.440  11.454 -0.3584  0.1569  0.4949
 1171SOL    HW115146   1.686   1.412  11.364  0.1370  1.9832  0.0190
 1171SOL    HW215147   1.758   1.469  11.474  0.9285 -2.2047 -1.7721
 1172SOL     OW15148   3.149   1.822   8.295  0.2286 -0.1966  0.3811
 1172SOL    HW115149   3.108   1.741   8.326 -1.2641 -0.5321 -2.4254
 1172SOL    HW215150   3.218   1.799   8.232  1.4965  2.1208  0.9139
 1173SOL     OW15151   2.862   0.654   3.696 -0.0327 -0.4436 -0.4009
 1173SOL    HW115152   2.920   0.660   3.772  1.2947 -3.4411 -1.1589
 1173SOL    HW215153   2.919   0.625   3.624 -0.8353  2.3995 -2.1496
 1174SOL     OW15154   1.347   2.428   5.966 -0.3638  0.4000  0.4098
 1174SOL    HW115155   1.387   2.400   5.883 -0.8291 -0.1672  0.3809
 1174SOL    HW215156   1.421   2.478   6.001 -1.1564  1.3845  0.6820
 1175SOL     OW15157   3.620   3.029   4.109  0.0829 -0.5113  0.0726
 1175SOL    HW115158   3.606   3.111   4.063 -2.4386 -0.8587  0.1980
 1175SOL    HW215159   3.554   2.963   4.085 -1.3277  0.9171  0.0588
 1176SOL     OW15160   0.914   4.206   4.202 -0.1410 -0.2039  0.0861
 1176SOL    HW115161   1.010   4.214   4.202  0.0484 -2.5111 -1.4946
 1176SOL    HW215162   0.896   4.191   4.110  1.5046 -0.8804 -0.1379
 1177SOL     OW15163   0.204   0.880   2.778  0.0016 -0.2522  0.2295
 1177SOL    HW115164   0.254   0.850   2.853 -1.2310 -1.5653  0.5348
 1177SOL    HW215165   0.123   0.827   2.778 -0.4639  0.4585  1.7749
 1178SOL     OW15166   0.675   0.540   7.082  0.1420 -0.4136  0.2566
 1178SOL    HW115167   0.748   0.536   7.020  0.4563 -3.8331  0.8267
 1178SOL    HW215168   0.696   0.487   7.159  1.3783 -2.1540 -1.2847
 1179SOL     OW15169   1.885   3.921   2.444  0.1660  0.1910  0.5234
 1179SOL    HW115170   1.876   3.830   2.470  4.2009 -0.1573  0.8278
 1179SOL    HW215171   1.939   3.961   2.513 -0.3372  1.4996  0.1603
 1180SOL     OW15172   0.150   1.107  13.426  0.0386  0.2601 -0.8421
 1180SOL    HW115173   0.196   1.172  13.373  1.1034 -0.7075 -1.0842
 1180SOL    HW215174   0.112   1.058  13.353 -1.8546  1.8518 -0.9454
 1181SOL     OW15175   0.760   4.401   3.180 -0.2759  0.0973 -0.8708
 1181SOL    HW115176   0.818   4.440   3.115  1.1434 -2.7183 -1.2748
 1181SOL    HW215177   0.717   4.347   3.114 -0.5499  0.6573 -1.1568
 1182SOL     OW15178   3.989   3.340   5.818  0.1061 -0.5649 -0.8462
 1182SOL    HW115179   4.011   3.248   5.834  0.1430 -0.5358 -0.7304
 1182SOL    HW215180   3.902   3.341   5.777  0.9010  0.9934 -2.5304
 1183SOL     OW15181   0.323   2.943   7.582 -0.7665  0.3070 -0.3202
 1183SOL    HW115182   0.268   2.968   7.657  2.4852  2.1306  1.4530
 1183SOL    HW215183   0.262   2.927   7.510  0.4371 -1.7107 -0.8674
 1184SOL     OW15184   0.327   4.663   1.270 -0.5458 -0.4035  0.2765
 1184SOL    HW115185   0.252   4.686   1.216  0.1726 -0.5835 -0.7867
 1184SOL    HW215186   0.289   4.676   1.357  0.1653  0.5546  0.4528
 1185SOL     OW15187   3.426   1.601  17.249 -0.1825 -0.4658 -0.3939
 1185SOL    HW115188   3.478   1.524  17.271 -0.1270 -1.0739 -2.6849
 1185SOL    HW215189   3.368   1.617  17.323 -2.2435 -1.6030 -1.7594
 1186SOL     OW15190   3.333   4.630   5.381 -0.0589  0.0418 -0.2034
 1186SOL    HW115191   3.359   4.583   5.302 -0.2919  2.2059 -1.5729
 1186SOL    HW215192   3.406   4.691   5.395  0.7445 -0.9892  0.0441
 1187SOL     OW15193   0.886   2.729   4.737 -0.0800 -0.0794  0.0389
 1187SOL    HW115194   0.918   2.761   4.652 -0.1587  0.5143  0.2311
 1187SOL    HW215195   0.846   2.646   4.711 -1.2891  0.3963  0.3906
 1188SOL     OW15196   3.285   1.518   2.337 -0.4377  0.1999 -0.0626
 1188SOL    HW115197   3.361   1.539   2.284 -0.2204 -1.2052 -0.3182
 1188SOL    HW215198   3.322   1.536   2.423  0.6418  2.7711 -1.0663
 1189SOL     OW15199   1.277   0.483   4.583  0.4885 -0.0694  0.1508
 1189SOL    HW115200   1.309   0.431   4.656  0.5982  0.8502  0.7652
 1189SOL    HW215201   1.205   0.526   4.630  1.7113  2.9158 -0.6655
 1190SOL     OW15202   0.133   1.824   9.815 -0.2657 -0.4400  0.5971
 1190SOL    HW115203   0.042   1.799   9.801 -0.7953  1.8341 -0.0940
 1190SOL    HW215204   0.138   1.794   9.905  0.8504 -1.3909  0.2246
 1191SOL     OW15205   1.898   4.187   4.311  0.0450 -0.0553 -0.0959
 1191SOL    HW115206   1.822   4.168   4.366  0.9328  0.0659  1.1895
 1191SOL    HW215207   1.916   4.268   4.359 -1.7733  0.7004 -0.6905
 1192SOL     OW15208   0.089   0.528  12.538 -0.6003  0.1340  0.7620
 1192SOL    HW115209   0.089   0.597  12.604  1.9708  0.4833  0.3761
 1192SOL    HW215210   0.046   0.568  12.462 -1.2749 -0.5645  0.7805
 1193SOL     OW15211   3.218   1.560   3.133  0.9617  0.1039 -0.5448
 1193SOL    HW115212   3.130   1.598   3.138  0.6996 -0.6605  0.7727
 1193SOL    HW215213   3.221   1.509   3.214 -1.0394  0.6275 -0.1382
 1194SOL     OW15214   2.117   4.700   2.522  0.3550  0.4071 -0.8827
 1194SOL    HW115215   2.066   0.044   2.503 -0.4465 -0.3479 -1.8902
 1194SOL    HW215216   2.074   4.633   2.468 -1.7383 -1.0356  2.5432
 1195SOL     OW15217   2.387   1.715  16.060  0.8316  0.3437 -0.2639
 1195SOL    HW115218   2.355   1.630  16.093  0.7164  0.6645  0.4568
 1195SOL    HW215219   2.473   1.706  16.100  0.5747 -2.0163 -0.2475
 1196SOL     OW15220   4.068   0.578   1.771  0.4956 -0.1828 -0.2509
 1196SOL    HW115221   4.057   0.486   1.750 -1.0397 -0.1705  0.5184
 1196SOL    HW215222   4.127   0.578   1.847 -0.5757  2.2111  0.5982
 1197SOL     OW15223   1.489   0.355   6.184  0.1011  0.3304  0.2792
 1197SOL    HW115224   1.454   0.347   6.095  0.6624 -2.6430  0.3541
 1197SOL    HW215225   1.435   0.288   6.226 -0.9073  1.3027  0.5631
 1198SOL     OW15226   2.389   1.825   3.751  0.7645  0.0161 -0.0974
 1198SOL    HW115227   2.375   1.868   3.836  1.4840 -2.7909  1.4497
 1198SOL    HW215228   2.299   1.794   3.740  0.4083  0.4700  1.5104
 1199SOL     OW15229   3.286   3.956   4.393  0.0961  0.9813  0.0627
 1199SOL    HW115230   3.336   3.909   4.459 -2.7534 -2.0570  0.0860
 1199SOL    HW215231   3.281   4.044   4.429  1.3906  0.0059  2.6157
 1200SOL     OW15232   0.708   0.891  12.555  0.3491 -0.4651  0.5009
 1200SOL    HW115233   0.719   0.799  12.579 -0.2968 -0.7870 -0.4452
 1200SOL    HW215234   0.693   0.879  12.461  1.1766 -3.4849  0.7435
 1201SOL     OW15235   4.348   2.828  16.965 -0.0365 -0.3623 -0.0162
 1201SOL    HW115236   4.295   2.811  17.043 -1.6357 -2.4792 -1.5555
 1201SOL    HW215237   4.275   2.817  16.905 -0.5660 -2.0208  0.9423
 1202SOL     OW15238   1.300   1.734  10.829  0.4327 -0.0189  0.1490
 1202SOL    HW115239   1.386   1.698  10.805 -1.2087 -2.3293 -2.1451
 1202SOL    HW215240   1.327   1.824  10.813  0.4161  0.1172  0.8951
 1203SOL     OW15241   0.996   3.716   0.481  0.4069 -0.3439 -0.0006
 1203SOL    HW115242   0.991   3.700   0.575 -0.6314 -0.0755 -0.0112
 1203SOL    HW215243   0.965   3.807   0.477 -0.7588 -0.6601  2.1878
 1204SOL     OW15244   2.211   4.637   7.177  0.1242 -0.2820 -0.5229
 1204SOL    HW115245   2.226   4.611   7.086  2.1021  0.7561 -0.4960
 1204SOL    HW215246   2.286   4.694   7.193 -1.6628  1.2119  2.5201
 1205SOL     OW15247   1.443   2.449   1.718 -0.0232 -0.5960  0.0571
 1205SOL    HW115248   1.440   2.381   1.785  1.4771 -0.0918  0.6317
 1205SOL    HW215249   1.413   2.399   1.643  2.3297 -1.3981 -0.3513
 1206SOL     OW15250   1.554   0.245  12.989  0.1715  0.0439 -0.4025
 1206SOL    HW115251   1.518   0.307  12.926 -3.0079  0.4913  1.8337
 1206SOL    HW215252   1.585   0.173  12.933 -0.3651 -0.8152  0.3961
 1207SOL     OW15253   1.838   3.220  14.279 -0.3173 -0.2484 -0.1178
 1207SOL    HW115254   1.927   3.189  14.264 -0.4881 -0.5689 -0.4530
 1207SOL    HW215255   1.858   3.224  14.373 -0.6101 -1.6548 -0.0060
 1208SOL     OW15256   1.594   0.539   2.356 -0.1400  1.1331 -0.0622
 1208SOL    HW115257   1.654   0.562   2.286 -1.3293 -0.0752 -1.4719
 1208SOL    HW215258   1.645   0.505   2.430 -1.4900 -0.1690  0.2817
 1209SOL     OW15259   2.199   4.564   9.897 -0.1550  0.0324 -0.7838
 1209SOL    HW115260   2.264   4.519   9.844 -0.3367 -0.2981 -0.7281
 1209SOL    HW215261   2.178   4.500   9.965 -0.0790  1.9700  1.0513
 1210SOL     OW15262   1.905   0.997   9.379 -0.2532 -0.2868  0.3568
 1210SOL    HW115263   1.921   1.076   9.430  2.3937  1.1413 -2.7031
 1210SOL    HW215264   1.857   1.038   9.307  0.1045 -1.5697 -0.6010
 1211SOL     OW15265   0.621   2.023   8.604 -0.1337 -0.3637  0.0569
 1211SOL    HW115266   0.698   1.967   8.612 -0.7378 -1.4848 -1.8790
 1211SOL    HW215267   0.563   1.960   8.649  0.8875 -0.1863  1.6179
 1212SOL     OW15268   3.166   0.013   8.603 -0.3454  0.1567  0.4531
 1212SOL    HW115269   3.219   0.082   8.564  1.2313 -0.2334  1.8637
 1212SOL    HW215270   3.083   0.024   8.557 -0.6435 -0.3961  0.8533
 1213SOL     OW15271   2.431   1.305   5.698 -0.1527 -0.2779 -0.4254
 1213SOL    HW115272   2.434   1.209   5.700  0.9907 -0.2242  0.2238
 1213SOL    HW215273   2.449   1.319   5.605  1.3837 -0.2722 -0.1278
 1214SOL     OW15274   2.035   1.267   6.121 -0.0434  0.0962 -0.4024
 1214SOL    HW115275   1.967   1.246   6.057  2.0779  1.6185 -3.1446
 1214SOL    HW215276   1.986   1.313   6.189  1.4507  0.9966  0.0652
 1215SOL     OW15277   2.155   1.293   4.188  0.2244  0.3075  0.2982
 1215SOL    HW115278   2.196   1.340   4.115  1.5623  1.1615  1.5984
 1215SOL    HW215279   2.128   1.212   4.146 -1.9552  0.6978  0.9576
 1216SOL     OW15280   2.838   4.625   8.544  0.1079 -0.1994 -0.3438
 1216SOL    HW115281   2.783   4.556   8.581  0.6723 -1.0499 -1.0934
 1216SOL    HW215282   2.888   4.570   8.484 -0.0677 -0.6230 -0.0960
 1217SOL     OW15283   0.343   4.667   1.932 -0.8986  0.5164  0.3538
 1217SOL    HW115284   0.288   4.704   2.001 -0.4325 -0.8109  1.4433
 1217SOL    HW215285   0.426   4.651   1.977  0.4031  0.0878 -2.2187
 1218SOL     OW15286   3.700   3.634   4.073  0.2689  0.1159  0.1364
 1218SOL    HW115287   3.637   3.688   4.025  0.0609  0.6415  1.0023
 1218SOL    HW215288   3.745   3.696   4.130  0.2899 -0.1199  0.3802
 1219SOL     OW15289   0.159   2.135   4.123 -0.1862 -0.4649  0.0001
 1219SOL    HW115290   0.225   2.075   4.088  2.5813  1.4748  1.9542
 1219SOL    HW215291   0.180   2.118   4.215 -2.4357  0.4930  0.6908
 1220SOL     OW15292   3.914   2.438   1.273 -0.6149 -0.2667 -0.4529
 1220SOL    HW115293   3.980   2.399   1.330 -1.2130 -0.9561 -0.2346
 1220SOL    HW215294   3.908   2.528   1.306 -3.9927 -1.2924  1.7615
 1221SOL     OW15295   2.625   2.706   2.369 -0.0652 -0.1106 -0.4953
 1221SOL    HW115296   2.614   2.801   2.367 -0.4290 -0.1846 -2.4592
 1221SOL    HW215297   2.714   2.700   2.332  1.3016  1.9219  2.4737
 1222SOL     OW15298   3.881   1.943   4.045  0.3971  0.0043 -0.6254
 1222SOL    HW115299   3.818   1.962   3.976 -1.5080 -1.1974  0.7932
 1222SOL    HW215300   3.960   1.919   3.997 -0.8503  0.2510 -2.7544
 1223SOL     OW15301   0.426   0.395  11.336 -0.2707  0.4399 -0.3430
 1223SOL    HW115302   0.475   0.332  11.389  0.1453 -0.2830 -1.5773
 1223SOL    HW215303   0.384   0.333  11.276 -1.8641  1.7029 -0.5410
 1224SOL     OW15304   2.215   2.671  11.088  0.6533 -0.2484 -0.5826
 1224SOL    HW115305   2.256   2.615  11.022  0.5347 -2.1379  0.9236
 1224SOL    HW215306   2.250   2.759  11.077  1.1500 -0.1289  1.7485
 1225SOL     OW15307   4.464   2.430   1.475 -0.1572  0.4260  0.2171
 1225SOL    HW115308   4.398   2.465   1.535  0.4440  0.7822  0.6686
 1225SOL    HW215309   4.435   2.468   1.392  0.1856  0.7255  0.2359
 1226SOL     OW15310   3.040   3.154   9.148  0.1715  0.0321  0.4388
 1226SOL    HW115311   3.000   3.074   9.183 -1.8806  0.8557 -0.0172
 1226SOL    HW215312   2.984   3.168   9.072  1.8610  0.8722 -0.6374
 1227SOL     OW15313   4.313   3.952   3.028 -0.3577 -0.3776 -0.2657
 1227SOL    HW115314   4.395   3.985   3.065 -1.5447  1.2234  0.9762
 1227SOL    HW215315   4.274   3.909   3.105  0.3403 -3.2719 -1.5395
 1228SOL     OW15316   2.240   1.802  13.296  0.7139 -0.0367 -0.6445
 1228SOL    HW115317   2.243   1.858  13.219 -2.0596  1.4739  0.3682
 1228SOL    HW215318   2.329   1.818  13.327  0.1312 -1.4349  1.8016
 1229SOL     OW15319   2.846   4.240  13.767 -0.2887  0.3703  0.1646
 1229SOL    HW115320   2.757   4.208  13.754  0.4515 -1.5506 -0.1508
 1229SOL    HW215321   2.850   4.207  13.857  0.1209  2.0498  0.7603
 1230SOL     OW15322   1.247   0.562   0.562  0.1746 -0.0123  0.0473
 1230SOL    HW115323   1.214   0.553   0.472  0.5193  1.0625 -0.1857
 1230SOL    HW215324   1.328   0.514   0.545 -1.3861 -2.4490 -0.5177
 1231SOL     OW15325   4.289   2.229   1.178 -0.0366 -0.5427  0.1869
 1231SOL    HW115326   4.236   2.156   1.145 -2.5675  0.9762  0.8680
 1231SOL    HW215327   4.238   2.308   1.159  1.5418  0.2122 -0.9051
 1232SOL     OW15328   2.248   3.780   1.829 -0.3627  0.4971  0.4564
 1232SOL    HW115329   2.283   3.861   1.791  1.1891  0.1873  1.1943
 1232SOL    HW215330   2.168   3.818   1.866  0.8922  0.0895  3.6134
 1233SOL     OW15331   3.236   1.506  12.075 -0.2260 -0.0798  0.1393
 1233SOL    HW115332   3.182   1.580  12.046  0.1261  0.5715  1.1376
 1233SOL    HW215333   3.174   1.435  12.089 -0.4312  0.1000  0.1429
 1234SOL     OW15334   2.219   2.990   3.501 -0.2845  0.7035 -0.1163
 1234SOL    HW115335   2.181   3.027   3.421  1.4626  0.6882 -0.9481
 1234SOL    HW215336   2.199   3.063   3.560  0.7623  0.7477  0.1737
 1235SOL     OW15337   4.108   1.445   1.788 -0.2842 -0.1205  0.3885
 1235SOL    HW115338   4.050   1.521   1.791  0.1727  0.1580  2.6200
 1235SOL    HW215339   4.071   1.391   1.719  2.6732  0.4585 -1.6487
 1236SOL     OW15340   4.074   2.522   4.249 -0.8351 -0.0792  0.7111
 1236SOL    HW115341   4.045   2.529   4.340 -0.8852 -0.0104  0.6899
 1236SOL    HW215342   4.054   2.429   4.247 -1.0067 -0.0705  1.9344
 1237SOL     OW15343   2.607   2.003   6.119 -0.6781 -0.5550 -0.5695
 1237SOL    HW115344   2.526   2.015   6.168  0.1219  0.2670  0.5372
 1237SOL    HW215345   2.593   1.936   6.052  0.7997 -3.3451  1.9243
 1238SOL     OW15346   3.642   0.701   3.147 -0.1184 -0.2812 -0.1962
 1238SOL    HW115347   3.658   0.631   3.211 -3.6662 -0.6377  0.2874
 1238SOL    HW215348   3.578   0.762   3.184  2.3828  2.2134  0.0437
 1239SOL     OW15349   1.893   3.453   6.017  0.3292 -0.0381  0.0458
 1239SOL    HW115350   1.821   3.411   5.970 -0.2929  0.7903  0.2669
 1239SOL    HW215351   1.900   3.409   6.101 -0.6651  0.3403  0.3274
 1240SOL     OW15352   3.086   2.094  10.669 -0.4027 -0.8236  0.2423
 1240SOL    HW115353   3.017   2.042  10.627 -1.2630  0.0014  0.6363
 1240SOL    HW215354   3.084   2.156  10.596 -0.8383 -0.5791  0.4641
 1241SOL     OW15355   2.200   2.204  13.927 -0.7761  0.2768  0.0839
 1241SOL    HW115356   2.238   2.282  13.966  0.3289  0.1506 -0.7513
 1241SOL    HW215357   2.275   2.163  13.885  1.4083  0.0379  4.1491
 1242SOL     OW15358   3.683   1.123   6.603 -0.4035 -0.0029 -0.2972
 1242SOL    HW115359   3.603   1.151   6.558 -1.4470 -2.5434 -0.0396
 1242SOL    HW215360   3.750   1.132   6.536 -0.2162 -0.4355 -0.1671
 1243SOL     OW15361   2.608   0.653  16.531  0.0987  0.2134 -0.7968
 1243SOL    HW115362   2.605   0.676  16.438  1.0038  0.7922 -0.6806
 1243SOL    HW215363   2.679   0.709  16.560  0.0264  0.9574 -2.0548
 1244SOL     OW15364   4.458   2.259   9.532  0.5539  0.3128 -0.2356
 1244SOL    HW115365   4.458   2.347   9.569  0.4948  1.1207 -2.1717
 1244SOL    HW215366   4.550   2.239   9.545  1.2121  1.2827 -3.3329
 1245SOL     OW15367   1.633   1.923   9.194  0.0575  0.0692 -0.4421
 1245SOL    HW115368   1.553   1.943   9.146  0.6324 -1.9741 -2.2353
 1245SOL    HW215369   1.650   1.832   9.171 -1.3216 -0.3921  0.3286
 1246SOL     OW15370   0.340   4.290   3.252 -0.6141 -0.1095  0.3971
 1246SOL    HW115371   0.426   4.257   3.225 -0.8762 -1.1172  0.7885
 1246SOL    HW215372   0.335   4.272   3.346 -0.2387 -0.1954  0.4019
 1247SOL     OW15373   3.706   2.299   5.817 -0.4083  0.0463  0.2141
 1247SOL    HW115374   3.698   2.346   5.734 -0.6882 -0.1069  0.1542
 1247SOL    HW215375   3.796   2.266   5.813 -1.0980 -1.6181 -1.4554
 1248SOL     OW15376   1.594   3.335   3.663 -0.3625  0.1382 -0.0825
 1248SOL    HW115377   1.614   3.404   3.726  0.4637 -0.7681  0.6481
 1248SOL    HW215378   1.582   3.401   3.594  0.0099 -0.9931 -1.2405
 1249SOL     OW15379   2.603   2.976   7.631 -0.3609 -0.4848  0.0181
 1249SOL    HW115380   2.689   2.978   7.674 -0.8808 -1.8312  1.1212
 1249SOL    HW215381   2.622   2.983   7.538 -1.4982 -0.1847 -0.1960
 1250SOL     OW15382   2.491   0.446  11.416 -0.0985 -0.1850 -0.0820
 1250SOL    HW115383   2.502   0.523  11.361 -1.1651 -0.7304 -1.0634
 1250SOL    HW215384   2.489   0.493  11.499 -0.5061 -0.3044 -0.0256
 1251SOL     OW15385   4.090   1.306  10.059 -0.0726 -0.0692  0.1227
 1251SOL    HW115386   4.180   1.294  10.028 -0.3775 -0.7054 -0.5246
 1251SOL    HW215387   4.051   1.270   9.979  1.7060 -0.4994 -0.5422
 1252SOL     OW15388   4.605   4.324   5.324  0.1181  0.4250  0.3250
 1252SOL    HW115389   4.591   4.237   5.288 -0.6454  0.6488  0.0738
 1252SOL    HW215390   4.520   4.357   5.354 -1.2841 -2.0972 -0.8920
 1253SOL     OW15391   3.236   0.774   4.725 -0.2216 -0.0534 -0.4573
 1253SOL    HW115392   3.271   0.837   4.788  0.3969  0.0492 -0.9041
 1253SOL    HW215393   3.278   0.819   4.652  1.1133  1.4410  1.2216
 1254SOL     OW15394   3.335   4.442   5.143  0.3018 -0.3400 -0.1548
 1254SOL    HW115395   3.382   4.358   5.146  2.5073  0.8808 -0.4515
 1254SOL    HW215396   3.248   4.415   5.113 -0.4362  0.1297  1.5968
 1255SOL     OW15397   2.815   2.183   6.090  0.4123  0.4624  0.2464
 1255SOL    HW115398   2.857   2.168   6.005 -0.9594 -0.4440 -0.2697
 1255SOL    HW215399   2.752   2.111   6.090  0.3898  0.4829  0.4100
 1256SOL     OW15400   2.566   3.709   0.852  0.0028 -0.4943  0.3580
 1256SOL    HW115401   2.487   3.659   0.832 -0.4908  0.5273 -0.2750
 1256SOL    HW215402   2.569   3.713   0.948  0.2807 -0.0600  0.3322
 1257SOL     OW15403   4.443   2.667   0.768 -0.2179 -0.3422 -0.1930
 1257SOL    HW115404   4.368   2.619   0.732 -1.3108  2.1897 -1.2539
 1257SOL    HW215405   4.483   2.588   0.806  1.5523  0.9349  0.5780
 1258SOL     OW15406   1.248   3.424   3.200 -0.1660 -0.3933  0.4799
 1258SOL    HW115407   1.196   3.438   3.121  2.1548  2.8027 -0.4948
 1258SOL    HW215408   1.200   3.479   3.263 -0.1849  2.1355 -1.7063
 1259SOL     OW15409   1.001   1.626   4.853 -0.1262 -0.0916 -0.2873
 1259SOL    HW115410   0.969   1.710   4.821 -2.9319 -0.5447  1.3544
 1259SOL    HW215411   1.094   1.647   4.848 -1.0238  4.3458  1.3231
 1260SOL     OW15412   1.070   0.423   1.792 -0.0542  0.0454  0.0240
 1260SOL    HW115413   1.008   0.420   1.865  0.5551  0.2245  0.5501
 1260SOL    HW215414   1.150   0.411   1.842 -0.2602 -1.0435  0.0859
 1261SOL     OW15415   2.333   0.875  11.064 -0.2543  0.4155  0.0804
 1261SOL    HW115416   2.336   0.780  11.074  0.0882  0.8223  3.9342
 1261SOL    HW215417   2.424   0.900  11.083 -0.4100  1.1996 -0.2391
 1262SOL     OW15418   4.437   1.228   8.633  0.3109 -0.0501  0.2056
 1262SOL    HW115419   4.508   1.292   8.621  0.6928 -0.5477 -0.1521
 1262SOL    HW215420   4.422   1.242   8.726 -1.5779  2.2642 -0.4407
 1263SOL     OW15421   2.775   0.510   8.392 -0.2423  0.1083  0.3394
 1263SOL    HW115422   2.753   0.591   8.438  0.0002 -0.8631  2.1564
 1263SOL    HW215423   2.724   0.437   8.428  1.6574 -2.6673 -2.5730
 1264SOL     OW15424   0.765   3.430   5.090 -0.8010  0.4212 -0.0935
 1264SOL    HW115425   0.825   3.379   5.036 -1.0840  0.4524 -0.4332
 1264SOL    HW215426   0.813   3.511   5.111  2.4947 -1.7719  0.8664
 1265SOL     OW15427   3.192   1.175  10.807  0.0998 -0.6895  0.6367
 1265SOL    HW115428   3.254   1.142  10.872  0.2823  2.7956  2.2091
 1265SOL    HW215429   3.149   1.252  10.843  1.2720  0.2581  0.0180
 1266SOL     OW15430   2.240   4.035  10.856  0.1643 -1.1106 -0.5444
 1266SOL    HW115431   2.297   4.045  10.932 -0.2195 -1.5158 -0.2078
 1266SOL    HW215432   2.193   4.118  10.864  2.2317 -0.1509  1.7624
 1267SOL     OW15433   2.261   4.455  11.911 -0.1919 -0.0443 -0.2128
 1267SOL    HW115434   2.327   4.525  11.917  0.5430 -0.7504 -0.0845
 1267SOL    HW215435   2.283   4.395  11.982 -0.2313 -0.9092 -0.9400
 1268SOL     OW15436   2.908   4.256   8.677  0.7009  0.1011  0.6137
 1268SOL    HW115437   2.839   4.304   8.631 -1.2348 -1.1889  2.1942
 1268SOL    HW215438   2.909   4.315   8.752 -1.2900  0.0277  0.6837
 1269SOL     OW15439   0.987   2.740  10.729 -0.2995 -0.5805 -0.1450
 1269SOL    HW115440   0.940   2.682  10.788  1.6189 -1.2928  0.6902
 1269SOL    HW215441   1.056   2.679  10.703 -0.6561 -0.9022 -0.3484
 1270SOL     OW15442   1.060   1.694   8.286 -0.1405 -0.0415 -0.1713
 1270SOL    HW115443   1.025   1.703   8.375 -0.3734 -0.4352 -0.2215
 1270SOL    HW215444   1.124   1.765   8.282 -1.1223  0.9188  0.8288
 1271SOL     OW15445   3.606   1.692   1.354 -0.0578  0.0508  0.8010
 1271SOL    HW115446   3.678   1.629   1.350 -0.0234  0.0645  1.1995
 1271SOL    HW215447   3.547   1.654   1.289 -1.3582 -1.2830  2.7858
 1272SOL     OW15448   2.515   4.624  10.209  0.5238  0.3802  0.5887
 1272SOL    HW115449   2.595   4.652  10.164 -0.3541 -0.4825 -1.5009
 1272SOL    HW215450   2.521   4.686  10.282 -0.3632  0.8387  0.2706
 1273SOL     OW15451   2.897   4.516   9.171 -0.3931 -0.2913 -0.2108
 1273SOL    HW115452   2.885   4.568   9.251 -0.7316 -0.9876  0.1902
 1273SOL    HW215453   2.856   4.437   9.206 -0.3938 -0.0226  0.3998
 1274SOL     OW15454   3.069   2.637   3.660  0.0992 -0.0016  0.2028
 1274SOL    HW115455   3.164   2.641   3.652 -0.1354  0.9878 -2.2364
 1274SOL    HW215456   3.051   2.685   3.579 -0.4285 -0.5789 -0.0221
 1275SOL     OW15457   0.155   0.971   1.746  0.2847  0.1755 -0.2243
 1275SOL    HW115458   0.080   0.936   1.698  0.2084  1.8813 -1.3558
 1275SOL    HW215459   0.129   0.978   1.838 -0.0863  1.4015 -0.4165
 1276SOL     OW15460   0.002   0.699   2.851  0.5106  0.1038  0.4336
 1276SOL    HW115461   4.728   0.611   2.812 -0.5989  0.2881  0.2592
 1276SOL    HW215462   0.019   0.667   2.940  3.9691  1.8379  0.3687
 1277SOL     OW15463   0.520   3.259   5.993  0.0750  0.4687 -0.3533
 1277SOL    HW115464   0.498   3.325   5.927 -1.9041  0.1559 -0.0100
 1277SOL    HW215465   0.438   3.211   6.002  1.3718 -1.5250  0.6931
 1278SOL     OW15466   0.461   0.198   1.564  0.0837  0.5998 -0.4349
 1278SOL    HW115467   0.390   0.241   1.611 -0.0030  0.5318 -0.5039
 1278SOL    HW215468   0.484   0.267   1.501 -0.3219  1.3733  0.2619
 1279SOL     OW15469   1.251   1.289  16.557 -0.6707  0.5244 -0.2245
 1279SOL    HW115470   1.225   1.379  16.574  1.4596  1.5859 -2.5724
 1279SOL    HW215471   1.209   1.244  16.630 -2.0715  1.1102 -0.6621
 1280SOL     OW15472   3.780   0.582   6.993 -0.1677  0.1758  0.6413
 1280SOL    HW115473   3.860   0.539   6.963 -1.5189 -2.1903  0.4022
 1280SOL    HW215474   3.788   0.551   7.084  2.0624  0.6574  0.6133
 1281SOL     OW15475   1.073   3.629   1.399  0.0281  0.7516  0.4739
 1281SOL    HW115476   1.134   3.628   1.325 -0.5629 -0.7811 -0.0108
 1281SOL    HW215477   1.115   3.559   1.450 -0.1426  0.2247 -0.0999
 1282SOL     OW15478   4.009   2.348  10.641  0.2306 -0.6331  0.4259
 1282SOL    HW115479   3.959   2.401  10.579  1.6445 -1.3795 -1.3285
 1282SOL    HW215480   3.942   2.300  10.690 -2.1076  0.4227 -1.6964
 1283SOL     OW15481   0.500   1.357   2.206 -0.0285 -0.3782  0.3572
 1283SOL    HW115482   0.528   1.398   2.288 -1.3730  1.8435 -0.2747
 1283SOL    HW215483   0.407   1.349   2.228 -0.0956  2.0739  0.9359
 1284SOL     OW15484   0.390   3.740   6.771  0.1908 -0.2328  0.4889
 1284SOL    HW115485   0.439   3.822   6.761  1.0215 -0.8696 -0.7658
 1284SOL    HW215486   0.428   3.684   6.704 -1.1017 -1.6692  0.9772
 1285SOL     OW15487   0.780   4.596   5.612 -0.1875  0.2603 -0.1104
 1285SOL    HW115488   0.857   4.616   5.666 -0.0164  0.4132 -0.4076
 1285SOL    HW215489   0.772   4.678   5.563 -1.3254  0.6038  0.6656
 1286SOL     OW15490   4.081   2.936   5.061  0.6703 -0.0144  0.3428
 1286SOL    HW115491   3.986   2.935   5.072  0.7853 -1.2992  1.1896
 1286SOL    HW215492   4.098   2.851   5.021 -0.9176 -0.3131  0.3015
 1287SOL     OW15493   4.090   4.064   7.292  0.4803 -0.0778 -0.2204
 1287SOL    HW115494   4.018   4.030   7.344  2.6491  0.5323  3.1724
 1287SOL    HW215495   4.081   4.158   7.302 -2.6681 -0.4005 -0.0191
 1288SOL     OW15496   0.753   4.629   2.223 -0.2182 -0.0870 -0.4994
 1288SOL    HW115497   0.829   4.684   2.206 -0.6633  0.9848  1.0023
 1288SOL    HW215498   0.746   4.581   2.141 -0.0398  2.6041 -2.0800
 1289SOL     OW15499   4.302   0.384   4.395 -0.1048 -0.0459 -0.7969
 1289SOL    HW115500   4.395   0.404   4.406 -0.7838  2.0590  1.3408
 1289SOL    HW215501   4.276   0.336   4.475 -1.4934  0.1151 -1.1438
 1290SOL     OW15502   4.722   1.472   8.036  0.5607  0.1919  0.0262
 1290SOL    HW115503   0.083   1.470   8.035  0.5639  0.8547 -0.8449
 1290SOL    HW215504   4.706   1.542   8.100  2.5688  0.7869 -0.1181
 1291SOL     OW15505   1.364   2.302  13.118  0.2079  0.3650 -0.7022
 1291SOL    HW115506   1.425   2.331  13.050 -0.9433  0.3553 -1.7299
 1291SOL    HW215507   1.387   2.369  13.183 -0.5777  0.3078 -0.3693
 1292SOL     OW15508   2.580   0.786   2.078 -0.0282  0.6611  0.2391
 1292SOL    HW115509   2.507   0.724   2.076 -0.0985  0.7839 -1.3083
 1292SOL    HW215510   2.551   0.846   2.009  0.8874  2.0523  1.0622
 1293SOL     OW15511   3.554   0.108   5.346  0.1151 -0.3641 -0.5999
 1293SOL    HW115512   3.639   0.071   5.323  1.1044  0.1096  2.1887
 1293SOL    HW215513   3.556   0.193   5.303  1.7266  1.1881  2.5123
 1294SOL     OW15514   3.104   2.943   4.887  0.1251 -0.4249  0.2396
 1294SOL    HW115515   3.095   2.850   4.905  5.1598 -1.0223 -0.1799
 1294SOL    HW215516   3.081   2.976   4.974  3.4077  2.7452 -0.0721
 1295SOL     OW15517   3.738   1.944   1.378  0.1017  0.5213 -0.1473
 1295SOL    HW115518   3.816   1.945   1.322 -0.1735  1.8623 -0.5107
 1295SOL    HW215519   3.697   1.861   1.353  0.8666  0.1466 -0.1574
 1296SOL     OW15520   2.126   4.686   6.448  0.3554  0.0395  0.6154
 1296SOL    HW115521   2.104   4.678   6.356 -0.6815 -0.7337  0.9324
 1296SOL    HW215522   2.052   4.645   6.494  0.8029 -2.0196 -0.4649
 1297SOL     OW15523   0.086   3.717   5.417 -0.1336 -0.0098  0.0004
 1297SOL    HW115524   0.086   3.622   5.417  1.0672 -0.0197  1.1586
 1297SOL    HW215525   0.011   3.744   5.364  0.5544  2.1602  0.0962
 1298SOL     OW15526   2.115   1.251   2.972 -0.2941  0.5580  0.4634
 1298SOL    HW115527   2.124   1.334   3.019  0.9755  0.8840 -0.3373
 1298SOL    HW215528   2.184   1.200   3.015 -0.2069 -0.3679 -0.7680
 1299SOL     OW15529   0.776   2.628   6.518  0.3587  0.1133  0.4990
 1299SOL    HW115530   0.788   2.721   6.500  2.3023 -0.1354  0.5031
 1299SOL    HW215531   0.688   2.631   6.556 -0.1296 -0.5779 -0.5362
 1300SOL     OW15532   2.226   1.491   5.469  0.1945  0.6799  0.3254
 1300SOL    HW115533   2.265   1.569   5.507 -0.1957  0.2599  1.6037
 1300SOL    HW215534   2.307   1.443   5.454 -1.8051 -2.4656 -0.4518
 1301SOL     OW15535   4.664   1.746  12.829  0.2644 -0.4881  0.2471
 1301SOL    HW115536   4.687   1.838  12.843 -0.5310 -0.7179  3.1725
 1301SOL    HW215537   4.605   1.751  12.905 -2.2379  0.7470 -1.7360
 1302SOL     OW15538   0.118   0.817   6.561  0.2815 -0.2023  0.1230
 1302SOL    HW115539   0.098   0.892   6.617 -1.0171 -0.1536 -0.4021
 1302SOL    HW215540   0.035   0.814   6.514 -0.1294  1.2405  0.7614
 1303SOL     OW15541   3.545   2.025  13.862  0.3847  0.8213 -0.2931
 1303SOL    HW115542   3.559   1.931  13.850 -0.3102  0.6323  0.3475
 1303SOL    HW215543   3.623   2.072  13.832  1.7143 -0.3788  1.3125
 1304SOL     OW15544   0.328   2.428   9.894  0.4043  0.2668 -0.1538
 1304SOL    HW115545   0.375   2.393   9.970  0.1924  0.1597 -0.0739
 1304SOL    HW215546   0.241   2.433   9.933 -0.6031  2.9338 -2.8021
 1305SOL     OW15547   3.934   2.606  13.762 -0.4724  0.3693 -0.0612
 1305SOL    HW115548   3.850   2.561  13.769 -0.6750  0.6301 -0.8668
 1305SOL    HW215549   3.967   2.556  13.688  1.0916  1.2552  0.0507
 1306SOL     OW15550   0.882   4.019   3.966  0.1230 -0.6259  0.0229
 1306SOL    HW115551   0.877   4.113   3.948  2.9121 -0.1610  1.6848
 1306SOL    HW215552   0.806   3.986   3.917 -0.4606  0.0716  0.4416
 1307SOL     OW15553   2.593   3.972   7.710  0.3254 -0.1363 -0.3238
 1307SOL    HW115554   2.643   3.913   7.767 -0.6981  1.4183  2.2073
 1307SOL    HW215555   2.594   4.055   7.758  2.0723 -1.0122  1.1457
 1308SOL     OW15556   1.438   3.235   3.199  0.2236  0.2865 -0.2241
 1308SOL    HW115557   1.443   3.240   3.295 -0.9362 -0.4173 -0.1292
 1308SOL    HW215558   1.376   3.306   3.180 -0.2446  0.3495  1.5356
 1309SOL     OW15559   1.769   2.427   2.675  0.2499  0.2994  0.4301
 1309SOL    HW115560   1.682   2.463   2.657  0.1182  0.1102  0.6955
 1309SOL    HW215561   1.754   2.426   2.770 -0.2568 -1.9981  0.3171
 1310SOL     OW15562   4.636   1.056  12.990  0.1124  0.8046  0.3986
 1310SOL    HW115563   4.546   1.023  12.990  1.3858 -2.7174  0.4217
 1310SOL    HW215564   4.650   1.027  13.080  3.0815 -0.5781 -0.4997
 1311SOL     OW15565   4.469   0.470   0.546  0.3745  0.1259 -0.2761
 1311SOL    HW115566   4.377   0.497   0.541 -0.1696 -0.9106  3.7012
 1311SOL    HW215567   4.473   0.448   0.639  1.7526 -1.3009 -0.6719
 1312SOL     OW15568   0.960   3.916   6.518 -0.0267 -0.1935  0.3988
 1312SOL    HW115569   0.947   3.968   6.597 -0.2198  1.4826 -0.7405
 1312SOL    HW215570   0.951   3.983   6.451 -0.7028 -1.7891 -1.1321
 1313SOL     OW15571   1.341   4.371   2.228  0.3872 -0.0454 -0.0378
 1313SOL    HW115572   1.375   4.379   2.317  1.0979 -1.3064 -0.2078
 1313SOL    HW215573   1.411   4.312   2.201  0.2639 -0.6210  0.8691
 1314SOL     OW15574   3.877   2.189   0.804 -0.3279 -0.3847  0.0555
 1314SOL    HW115575   3.867   2.275   0.845  1.3518  0.0203 -0.3741
 1314SOL    HW215576   3.816   2.187   0.730 -0.5228  0.6646  0.1870
 1315SOL     OW15577   1.226   4.135  13.821 -0.2952 -0.2320  0.4495
 1315SOL    HW115578   1.216   4.227  13.795 -0.4439 -0.5536 -0.6176
 1315SOL    HW215579   1.229   4.086  13.739  0.2493  0.2709  0.1694
 1316SOL     OW15580   0.227   3.793   0.928 -0.3447 -0.7039  0.4241
 1316SOL    HW115581   0.196   3.875   0.888  1.3696 -0.5813 -0.6255
 1316SOL    HW215582   0.176   3.728   0.880 -1.7838  1.2536 -0.7064
 1317SOL     OW15583   3.084   2.040   0.418  0.4636 -0.6699 -0.3575
 1317SOL    HW115584   3.139   2.021   0.494  1.4292  1.0711 -0.6138
 1317SOL    HW215585   2.996   2.024   0.451  0.9441 -0.5051  0.9911
 1318SOL     OW15586   4.324   0.430   5.284  0.1798  0.0607 -0.0621
 1318SOL    HW115587   4.418   0.431   5.302  0.3708  0.7896 -1.0572
 1318SOL    HW215588   4.326   0.425   5.188  1.3131 -1.4793  0.0553
 1319SOL     OW15589   1.399   2.193  14.623 -0.1105  0.3452 -0.4462
 1319SOL    HW115590   1.351   2.126  14.671  1.9213 -1.4940 -0.9850
 1319SOL    HW215591   1.324   2.237  14.582 -0.8291 -0.8749 -0.4252
 1320SOL     OW15592   0.504   3.084   0.573  0.0721 -0.2392  0.1574
 1320SOL    HW115593   0.600   3.083   0.578  0.1442  2.9044 -0.3866
 1320SOL    HW215594   0.480   3.132   0.494  0.1136  0.8399  0.7948
 1321SOL     OW15595   3.872   1.607   5.880  0.1120 -0.0184 -0.1277
 1321SOL    HW115596   3.843   1.698   5.876 -1.4572 -0.5034  0.2660
 1321SOL    HW215597   3.815   1.575   5.950 -1.1191  0.3872 -0.9528
 1322SOL     OW15598   3.385   4.215  13.224 -0.3960  0.5119  0.0857
 1322SOL    HW115599   3.328   4.272  13.172  1.0027 -0.0265 -2.0175
 1322SOL    HW215600   3.468   4.223  13.178  0.6552 -2.1253  1.5414
 1323SOL     OW15601   2.843   2.321   8.066 -0.0482  0.5483 -0.6134
 1323SOL    HW115602   2.766   2.286   8.111  1.1860 -1.0154  0.2687
 1323SOL    HW215603   2.850   2.250   8.003 -3.0190 -2.8431  2.8951
 1324SOL     OW15604   3.241   3.307   7.994  0.1488 -0.6439  0.0135
 1324SOL    HW115605   3.210   3.381   7.941  2.0148 -0.7595 -1.2488
 1324SOL    HW215606   3.239   3.240   7.926 -0.0933 -0.3272 -0.2937
 1325SOL     OW15607   4.726   2.378   5.562  0.5520  0.2347  0.0793
 1325SOL    HW115608   4.731   2.330   5.645 -2.5598  0.7624  0.5796
 1325SOL    HW215609   0.028   2.462   5.587 -1.0103  0.7079  0.7877
 1326SOL     OW15610   3.204   0.604   7.250  0.3383  0.1443  0.3752
 1326SOL    HW115611   3.220   0.619   7.157  0.1357 -3.1353 -0.2192
 1326SOL    HW215612   3.108   0.606   7.253  0.2485 -0.8021 -2.2972
 1327SOL     OW15613   1.189   4.663   5.209  0.2596  0.4303 -0.0014
 1327SOL    HW115614   1.184   4.727   5.138 -2.1248  1.1391  0.8109
 1327SOL    HW215615   1.273   4.620   5.189  0.1495  0.1250  0.1948
 1328SOL     OW15616   2.341   3.030   9.287 -0.0292 -0.3257  0.2163
 1328SOL    HW115617   2.316   3.007   9.197  1.7083 -1.5313  0.0396
 1328SOL    HW215618   2.264   3.007   9.339  1.0559 -1.6332  1.2218
 1329SOL     OW15619   4.521   4.346   6.752 -0.3873  0.2850 -0.0234
 1329SOL    HW115620   4.493   4.391   6.672  2.1905  1.0342 -0.4862
 1329SOL    HW215621   4.593   4.401   6.781 -0.2941  0.1366  0.0258
 1330SOL     OW15622   4.410   0.506   4.109 -0.3666 -0.1214  0.1019
 1330SOL    HW115623   4.500   0.476   4.095 -0.4573 -0.2516 -0.1950
 1330SOL    HW215624   4.424   0.595   4.141 -1.7068 -0.8274  2.6169
 1331SOL     OW15625   2.007   1.926   2.571  0.4993  0.2972 -0.0051
 1331SOL    HW115626   2.061   2.002   2.593 -0.1226  0.1340  2.1433
 1331SOL    HW215627   2.075   1.867   2.538  1.4635  0.1371  2.2458
 1332SOL     OW15628   2.265   1.220   1.587  0.2025  0.3912  0.2415
 1332SOL    HW115629   2.330   1.157   1.619 -0.5938 -0.6950 -0.2808
 1332SOL    HW215630   2.224   1.168   1.518  0.1069  0.6463  0.1100
 1333SOL     OW15631   4.691   0.579  17.147  0.4668  0.3579 -0.0790
 1333SOL    HW115632   4.732   0.643  17.206  0.0972 -1.5510  2.2595
 1333SOL    HW215633   4.693   0.502  17.203  1.2833  0.9723  0.7383
 1334SOL     OW15634   4.694   0.444   7.048  0.0481  0.0184  0.2444
 1334SOL    HW115635   0.016   0.516   7.076  1.4443 -1.7085  1.8760
 1334SOL    HW215636   0.013   0.418   6.974  0.7557 -0.2489  0.8492
 1335SOL     OW15637   3.189   0.789   1.557  0.0531  0.2489  0.1772
 1335SOL    HW115638   3.275   0.826   1.576 -0.3259  1.6625 -0.7839
 1335SOL    HW215639   3.212   0.725   1.490  1.9044  0.4426  0.6511
 1336SOL     OW15640   1.360   2.946  10.233  0.1716  0.1535  0.0967
 1336SOL    HW115641   1.394   2.879  10.292  1.4758 -0.9094 -1.8453
 1336SOL    HW215642   1.297   2.983  10.294  0.3913  0.1749  0.3123
 1337SOL     OW15643   1.171   2.396   5.361 -0.0764 -0.6084  0.2067
 1337SOL    HW115644   1.115   2.358   5.293  0.0729  1.4597 -1.0674
 1337SOL    HW215645   1.222   2.452   5.302  0.9208  1.1391  2.6935
 1338SOL     OW15646   3.448   4.239   8.406  0.0911 -0.0763  0.0680
 1338SOL    HW115647   3.505   4.274   8.474 -0.2868 -0.8216  0.7618
 1338SOL    HW215648   3.512   4.207   8.342 -2.2809 -2.9518 -0.8677
 1339SOL     OW15649   1.721   3.471   5.109  0.3299  0.0148  0.1835
 1339SOL    HW115650   1.682   3.528   5.175 -1.6648 -1.4377  0.2459
 1339SOL    HW215651   1.725   3.390   5.160  1.0549 -0.9057 -1.3573
 1340SOL     OW15652   0.989   0.892   0.431  0.5646 -0.1107 -0.3123
 1340SOL    HW115653   1.036   0.871   0.350  2.4796  0.7699  0.5723
 1340SOL    HW215654   0.936   0.961   0.391  1.3319 -0.9165 -2.7140
 1341SOL     OW15655   2.681   0.057  11.841  0.0172 -0.0866  0.0671
 1341SOL    HW115656   2.623   4.720  11.818 -1.3754  1.6491 -1.8215
 1341SOL    HW215657   2.744   0.016  11.901 -0.8124 -0.0324  0.9674
 1342SOL     OW15658   1.171   1.067  14.542  0.3042  0.0605  0.0984
 1342SOL    HW115659   1.231   1.141  14.533  0.9609 -0.4783  0.0881
 1342SOL    HW215660   1.186   1.036  14.453  3.9169 -1.7167  1.3557
 1343SOL     OW15661   1.916   4.098  13.991  0.1960  0.9033  0.5684
 1343SOL    HW115662   1.895   4.016  13.947  0.5139  0.7512  0.6984
 1343SOL    HW215663   2.002   4.078  14.029 -0.4795  0.5386  1.8764
 1344SOL     OW15664   4.144   2.712  16.480  0.3952  0.7800 -0.0829
 1344SOL    HW115665   4.185   2.655  16.415  0.7794 -0.9931  1.7104
 1344SOL    HW215666   4.226   2.746  16.517  1.6785 -3.6628  1.1230
 1345SOL     OW15667   3.792   4.218   5.613  0.1167  0.1718 -0.6163
 1345SOL    HW115668   3.847   4.140   5.601  2.0249  1.0944  2.0543
 1345SOL    HW215669   3.865   4.280   5.611 -0.9778  1.4923  0.4597
 1346SOL     OW15670   2.685   1.462   1.710  0.3706 -0.2402 -0.5884
 1346SOL    HW115671   2.645   1.410   1.640 -0.6807 -0.5408  0.2282
 1346SOL    HW215672   2.610   1.518   1.733  0.6493  0.8518 -2.3214
 1347SOL     OW15673   1.816   2.982   0.925 -0.0395  0.1631 -0.4810
 1347SOL    HW115674   1.881   2.932   0.974 -0.0113  1.1504  0.4952
 1347SOL    HW215675   1.856   3.017   0.846 -0.8221 -0.4638 -1.1605
 1348SOL     OW15676   0.919   4.404   2.207  0.2128  0.1677  0.2308
 1348SOL    HW115677   0.950   4.474   2.264  0.7103 -0.2155  0.4337
 1348SOL    HW215678   0.978   4.388   2.134 -2.6107 -0.8687 -1.8361
 1349SOL     OW15679   1.233   1.316   8.106  0.3982  0.7309  0.1181
 1349SOL    HW115680   1.201   1.270   8.183  2.4827 -1.5378 -0.3698
 1349SOL    HW215681   1.219   1.247   8.040  3.2798 -1.3799  1.7074
 1350SOL     OW15682   2.921   2.843  11.581  0.4009  0.4106  0.3854
 1350SOL    HW115683   2.854   2.777  11.598  2.0941 -1.6922 -1.0979
 1350SOL    HW215684   2.870   2.923  11.571  0.2337  0.3394  0.6662
 1351SOL     OW15685   4.059   3.230   6.713 -0.3007  0.1757 -0.0468
 1351SOL    HW115686   3.979   3.203   6.759  0.6740  0.6355  1.8942
 1351SOL    HW215687   4.115   3.156   6.738 -4.0222 -3.3472 -2.0352
 1352SOL     OW15688   3.752   2.132  15.021 -0.4663 -0.4915  0.0785
 1352SOL    HW115689   3.823   2.161  14.964  1.5011 -3.0589  1.2841
 1352SOL    HW215690   3.686   2.177  14.967  1.7413  0.3236 -1.9276
 1353SOL     OW15691   1.296   2.911   9.600  0.4684  0.2678  0.9304
 1353SOL    HW115692   1.264   2.910   9.510  0.1283  2.0640  1.0321
 1353SOL    HW215693   1.271   2.995   9.639  0.9266 -0.0889  1.9971
 1354SOL     OW15694   3.217   0.645   5.984  0.0798  0.5513  0.2261
 1354SOL    HW115695   3.135   0.637   6.032  1.2577 -1.6633  1.8608
 1354SOL    HW215696   3.181   0.657   5.896 -0.4057 -1.1048  0.2007
 1355SOL     OW15697   2.168   1.485   3.332  0.0239 -0.0054 -0.6823
 1355SOL    HW115698   2.197   1.569   3.367 -2.6558 -0.1705  1.9186
 1355SOL    HW215699   2.185   1.435   3.413  1.3153  2.9171  0.8472
 1356SOL     OW15700   4.394   3.878   8.356 -0.1187 -0.7529 -0.3337
 1356SOL    HW115701   4.460   3.809   8.353 -0.6356 -1.2641 -0.1313
 1356SOL    HW215702   4.310   3.835   8.374  0.2779 -0.9581  1.0121
 1357SOL     OW15703   0.243   2.476   1.159 -0.0803 -0.2362 -0.2680
 1357SOL    HW115704   0.179   2.538   1.192  0.6400 -1.1564  2.8265
 1357SOL    HW215705   0.323   2.522   1.183 -1.1780  1.0986  0.8141
 1358SOL     OW15706   3.543   3.752   4.313  0.7934 -0.0731  0.0405
 1358SOL    HW115707   3.557   3.714   4.399 -2.4274 -2.6508 -0.5713
 1358SOL    HW215708   3.447   3.753   4.312  0.8099  0.6887 -1.4484
 1359SOL     OW15709   2.567   3.553   7.598 -0.4259  0.4273  0.1274
 1359SOL    HW115710   2.544   3.575   7.507 -1.3762  0.3908  0.3650
 1359SOL    HW215711   2.600   3.465   7.583 -0.6259  0.4797 -0.6286
 1360SOL     OW15712   1.540   1.531  12.513  0.6818 -0.3061  0.5477
 1360SOL    HW115713   1.445   1.535  12.527  0.2664 -1.4779 -1.8951
 1360SOL    HW215714   1.556   1.441  12.541 -1.0022 -0.6456  0.4176
 1361SOL     OW15715   0.974   2.223  14.421 -0.2020  0.1864 -0.4963
 1361SOL    HW115716   0.997   2.133  14.399  0.0018  0.1522 -0.1417
 1361SOL    HW215717   0.889   2.244  14.382 -0.7328  0.1427  0.6494
 1362SOL     OW15718   1.428   3.679   4.236 -0.6245 -0.2568 -0.0452
 1362SOL    HW115719   1.412   3.607   4.175  1.7768 -0.2900 -0.6451
 1362SOL    HW215720   1.417   3.623   4.313 -1.9663 -2.6267 -1.9945
 1363SOL     OW15721   2.145   2.694   9.111 -0.0375 -0.3201 -0.0835
 1363SOL    HW115722   2.148   2.639   9.189  0.1841 -0.7148 -0.3771
 1363SOL    HW215723   2.238   2.717   9.109 -0.4605  1.5068  0.4402
 1364SOL     OW15724   2.200   2.904   6.668  0.4117 -0.4338 -0.2791
 1364SOL    HW115725   2.165   2.939   6.750  0.6437 -2.1197  0.5386
 1364SOL    HW215726   2.126   2.928   6.612  0.9396 -0.1106 -0.8461
 1365SOL     OW15727   4.477   4.642  16.356  0.0747  0.2778  0.0368
 1365SOL    HW115728   4.399   4.621  16.408  1.2240 -1.5606  1.0102
 1365SOL    HW215729   4.472   0.002  16.370  0.7176  0.0939  1.5237
 1366SOL     OW15730   3.463   0.162   0.238  0.2143  0.2982 -0.1600
 1366SOL    HW115731   3.518   0.126   0.167  1.7053 -2.3055  2.3293
 1366SOL    HW215732   3.382   0.153   0.188 -0.2353 -0.7316  0.7738
 1367SOL     OW15733   3.559   0.502  14.828  0.3620  0.1424 -0.0882
 1367SOL    HW115734   3.612   0.425  14.848  0.2046  0.3386  1.0830
 1367SOL    HW215735   3.488   0.467  14.774 -0.5949 -0.7290  1.7387
 1368SOL     OW15736   2.107   3.693  16.112  0.0760  0.4704  0.2486
 1368SOL    HW115737   2.119   3.644  16.194  1.3568 -2.4851 -1.7146
 1368SOL    HW215738   2.144   3.780  16.130 -0.3674  0.4777  1.1736
 1369SOL     OW15739   2.202   1.456   1.448  0.4471  0.5449 -0.2166
 1369SOL    HW115740   2.213   1.392   1.519  2.6281  1.2544  0.0780
 1369SOL    HW215741   2.137   1.415   1.392 -1.8008  1.7036  1.5146
 1370SOL     OW15742   3.563   2.453   4.172 -0.2214 -0.2255  0.5460
 1370SOL    HW115743   3.562   2.436   4.266 -0.0506  1.2363  0.8047
 1370SOL    HW215744   3.476   2.488   4.156  0.1482  0.2671 -0.4307
 1371SOL     OW15745   1.794   0.520   9.942 -0.2053  0.0358 -0.5328
 1371SOL    HW115746   1.704   0.530   9.974  0.3499 -1.0415  1.3587
 1371SOL    HW215747   1.823   0.434   9.971  1.0830  1.8476  3.7037
 1372SOL     OW15748   1.458   2.320   7.277 -0.1824 -0.4274  0.3235
 1372SOL    HW115749   1.445   2.408   7.311 -1.1422 -0.5321  0.2140
 1372SOL    HW215750   1.372   2.284   7.297 -0.0040 -1.0874 -0.0868
 1373SOL     OW15751   2.318   0.011   7.642  0.7829 -0.8350  0.2539
 1373SOL    HW115752   2.362   0.094   7.626 -0.5390  0.0505  1.2206
 1373SOL    HW215753   2.226   0.036   7.629  0.4273 -2.5191 -0.4604
 1374SOL     OW15754   4.532   4.636  17.054 -0.5360 -0.1479 -0.0297
 1374SOL    HW115755   4.584   4.671  16.981  0.3122  1.6122  1.4281
 1374SOL    HW215756   4.542   4.544  17.029  1.1053  0.6229 -2.2526
 1375SOL     OW15757   3.181   0.569  11.290 -0.0282 -0.0479 -0.4427
 1375SOL    HW115758   3.113   0.618  11.336  0.5612  0.0814  0.2863
 1375SOL    HW215759   3.161   0.479  11.316  0.8795 -0.6414 -1.8282
 1376SOL     OW15760   0.828   0.316   1.944  0.0820  0.0201 -0.4448
 1376SOL    HW115761   0.757   0.359   1.896  0.5019 -0.0081 -1.0851
 1376SOL    HW215762   0.787   0.230   1.934  2.3777 -1.1491  0.3615
 1377SOL     OW15763   4.084   3.547   4.270  0.4797 -0.1699  0.2276
 1377SOL    HW115764   4.132   3.543   4.353  0.2936 -0.9450  0.2953
 1377SOL    HW215765   4.068   3.640   4.254 -1.7642 -0.1191  2.7288
 1378SOL     OW15766   3.094   4.392  17.736 -1.0641  0.1148 -0.1904
 1378SOL    HW115767   3.068   4.301  17.721 -1.8231  0.2781  0.1606
 1378SOL    HW215768   3.137   4.376   0.081 -0.5330  0.9057 -0.3123
 1379SOL     OW15769   1.453   2.054   9.510  0.1758 -0.0047  0.8715
 1379SOL    HW115770   1.397   2.120   9.468  1.4067 -0.8811 -2.0667
 1379SOL    HW215771   1.421   1.970   9.478 -0.0271  0.8382 -1.1501
 1380SOL     OW15772   4.389   2.427  13.445  0.0331  0.0858  0.1737
 1380SOL    HW115773   4.389   2.384  13.530 -0.8286  0.0664  0.1610
 1380SOL    HW215774   4.338   2.364  13.394 -1.0144 -0.6642  2.1639
 1381SOL     OW15775   1.706   3.197   5.169  0.5714 -0.3768  0.5961
 1381SOL    HW115776   1.759   3.166   5.242  2.1573 -0.0452 -0.4034
 1381SOL    HW215777   1.637   3.130   5.176 -0.0945  0.4631  1.9428
 1382SOL     OW15778   0.181   3.905  17.007 -0.5094 -0.0471 -0.2599
 1382SOL    HW115779   0.160   3.997  16.992  2.1758  0.9416  2.1798
 1382SOL    HW215780   0.218   3.885  16.921  0.3430 -0.3262  0.1750
 1383SOL     OW15781   3.698   2.092  13.598 -0.4736  0.2319 -0.2807
 1383SOL    HW115782   3.721   2.184  13.581 -0.2992  0.7350  2.6927
 1383SOL    HW215783   3.741   2.076  13.682 -0.5458 -0.4596 -0.3772
 1384SOL     OW15784   2.804   2.408   3.969 -0.1399  0.7820  0.0350
 1384SOL    HW115785   2.818   2.335   3.908  0.6041 -0.6460  1.9362
 1384SOL    HW215786   2.710   2.419   3.959 -0.1811  0.7463  0.3772
 1385SOL     OW15787   0.497   0.050   5.617  0.4189 -0.3961  0.4199
 1385SOL    HW115788   0.414   0.095   5.633 -0.2155 -0.8352 -1.6384
 1385SOL    HW215789   0.505   0.009   5.703 -2.3817 -1.1733  0.3149
 1386SOL     OW15790   1.650   0.159  16.017 -0.8112  0.0336  0.0016
 1386SOL    HW115791   1.669   0.091  15.953  1.5712  0.6556  0.0518
 1386SOL    HW215792   1.574   0.124  16.063 -1.5954 -0.8175 -1.9438
 1387SOL     OW15793   1.078   4.690   1.101 -0.2206  0.4641  0.7354
 1387SOL    HW115794   0.997   4.705   1.149  0.7277 -0.9745  2.7827
 1387SOL    HW215795   1.075   0.025   1.036 -0.9149 -0.2176  0.0195
 1388SOL     OW15796   4.071   3.094   5.862 -0.1200  0.1062  0.2120
 1388SOL    HW115797   4.053   3.016   5.914  0.3624 -1.4610 -1.9730
 1388SOL    HW215798   4.167   3.087   5.860 -0.3195 -1.7317 -2.7957
 1389SOL     OW15799   1.057   3.353   0.821  0.6255 -0.2806 -0.2519
 1389SOL    HW115800   0.975   3.308   0.799  2.1892 -2.8564 -0.8335
 1389SOL    HW215801   1.086   3.313   0.902 -0.0523 -1.6789 -0.7005
 1390SOL     OW15802   2.147   2.103  10.691 -0.3466  1.1890  0.7195
 1390SOL    HW115803   2.211   2.045  10.650  0.7770  2.3753  0.7955
 1390SOL    HW215804   2.184   2.126  10.777 -0.3211  0.5143  0.8917
 1391SOL     OW15805   2.106   0.370   7.707  0.4119 -0.6048 -0.0501
 1391SOL    HW115806   2.166   0.414   7.768  0.6031  1.5635 -1.7756
 1391SOL    HW215807   2.030   0.417   7.741  0.6533 -0.5164  0.3689
 1392SOL     OW15808   0.499   1.250   3.672 -0.2849 -0.7405  0.3235
 1392SOL    HW115809   0.424   1.207   3.631  0.5343 -0.9967 -0.9104
 1392SOL    HW215810   0.472   1.341   3.670  2.1908 -0.0812 -2.2466
 1393SOL     OW15811   3.578   2.947  10.862 -0.1708  0.0065 -0.3056
 1393SOL    HW115812   3.619   2.928  10.946  0.8081 -0.1659 -0.8245
 1393SOL    HW215813   3.596   3.040  10.847 -1.1856  0.3652  0.7432
 1394SOL     OW15814   3.879   3.242   8.750  0.1420  0.3003  0.1906
 1394SOL    HW115815   3.905   3.192   8.672 -0.6630 -0.3422  0.3238
 1394SOL    HW215816   3.793   3.276   8.724  0.5205  1.8427  0.9712
 1395SOL     OW15817   3.451   1.715   7.638 -0.2801 -0.1788  0.3030
 1395SOL    HW115818   3.510   1.782   7.603 -1.5840  1.4023  1.1893
 1395SOL    HW215819   3.503   1.684   7.712  0.7936 -0.9599 -0.7660
 1396SOL     OW15820   1.619   0.543   6.721 -0.2532 -0.0052  0.3301
 1396SOL    HW115821   1.607   0.559   6.627 -0.8392 -0.0923  0.3895
 1396SOL    HW215822   1.600   0.635   6.741 -2.7408 -0.3009 -0.6558
 1397SOL     OW15823   2.341   4.321   7.285  0.0521  0.3280  1.1365
 1397SOL    HW115824   2.397   4.391   7.251 -1.0671  1.1247  0.9183
 1397SOL    HW215825   2.307   4.284   7.204 -1.6931 -0.3030  2.1458
 1398SOL     OW15826   2.154   2.454   8.360 -0.2466  0.3010 -0.2997
 1398SOL    HW115827   2.181   2.534   8.406 -0.8125  1.5685 -2.1896
 1398SOL    HW215828   2.147   2.485   8.270  2.1629  0.0667 -0.5807
 1399SOL     OW15829   0.009   3.803   8.649 -0.5411 -0.1267 -0.1957
 1399SOL    HW115830   4.665   3.754   8.672  0.1343 -0.9345  0.4544
 1399SOL    HW215831   0.030   3.845   8.733  0.5234  0.5426 -0.8010
 1400SOL     OW15832   0.770   2.077   5.071  0.5354 -0.1308 -0.2209
 1400SOL    HW115833   0.841   2.013   5.076  1.2372  0.5263 -1.7042
 1400SOL    HW215834   0.737   2.070   5.160 -0.2048 -0.5966 -0.5398
 1401SOL     OW15835   0.191   1.252   5.574 -0.4600 -0.1826  0.2919
 1401SOL    HW115836   0.257   1.306   5.616 -0.1571 -0.1362 -0.2502
 1401SOL    HW215837   0.111   1.272   5.623 -1.3312 -1.1179 -0.7379
 1402SOL     OW15838   2.412   3.384   9.766 -0.0700 -0.3822 -0.0226
 1402SOL    HW115839   2.408   3.301   9.721 -0.6694 -0.6070  0.4485
 1402SOL    HW215840   2.381   3.455   9.710 -0.8039 -1.6119 -1.1527
 1403SOL     OW15841   4.528   3.443   1.749 -0.2352  0.0955 -0.7104
 1403SOL    HW115842   4.498   3.372   1.692 -1.2537 -2.1493  2.6250
 1403SOL    HW215843   4.575   3.396   1.819 -1.8465 -1.2402 -0.5116
 1404SOL     OW15844   3.614   3.055   1.585 -0.0217 -0.2379 -0.0971
 1404SOL    HW115845   3.645   3.102   1.662 -0.4640 -0.0004 -0.0617
 1404SOL    HW215846   3.586   2.972   1.623 -1.1927  0.5103  0.6871
 1405SOL     OW15847   4.564   0.866  15.740 -0.2714 -0.0067  0.3744
 1405SOL    HW115848   4.603   0.836  15.658  0.3148 -2.6214  1.5966
 1405SOL    HW215849   4.620   0.943  15.747  2.3235 -1.9901  1.3146
 1406SOL     OW15850   3.271   3.368   1.884 -0.3997  0.2604  0.0817
 1406SOL    HW115851   3.192   3.418   1.905 -1.8001 -2.1908  0.6536
 1406SOL    HW215852   3.317   3.431   1.829 -0.0802  1.1454  1.3514
 1407SOL     OW15853   1.948   4.112   1.969 -0.1944 -0.1474 -0.5180
 1407SOL    HW115854   1.959   4.194   2.019  0.2391 -0.3176 -0.3342
 1407SOL    HW215855   1.934   4.144   1.880 -1.0228  2.8706  0.6716
 1408SOL     OW15856   4.044   2.588   9.737 -0.1357 -0.1177  0.5697
 1408SOL    HW115857   4.016   2.655   9.800 -0.6030 -0.6371  0.9131
 1408SOL    HW215858   4.133   2.624   9.728 -0.6744  1.5658  1.8846
 1409SOL     OW15859   2.747   0.125   9.844  0.4903 -0.1357  0.1919
 1409SOL    HW115860   2.770   0.217   9.829  0.1128 -0.5143 -2.6246
 1409SOL    HW215861   2.725   0.095   9.757  0.3583  0.0513  0.1604
 1410SOL     OW15862   2.601   0.680   8.535  0.6218  0.0188 -0.3131
 1410SOL    HW115863   2.643   0.765   8.551  2.9417 -1.2412  0.3033
 1410SOL    HW215864   2.507   0.695   8.536  0.4246 -1.0746 -1.8838
 1411SOL     OW15865   0.171   2.125   1.849 -0.3558 -0.4441 -0.4224
 1411SOL    HW115866   0.078   2.146   1.842 -0.1083  0.1712 -1.8940
 1411SOL    HW215867   0.206   2.194   1.793  0.7932  0.9190  1.9917
 1412SOL     OW15868   0.484   0.822   5.112  0.3584  0.2707  0.4110
 1412SOL    HW115869   0.452   0.870   5.189  0.0819  2.4276 -1.0667
 1412SOL    HW215870   0.426   0.837   5.038  0.4316  0.3028  0.3603
 1413SOL     OW15871   4.327   4.503   8.394  0.5707  0.6146 -0.5083
 1413SOL    HW115872   4.417   4.486   8.366  0.9805  0.8006  0.7078
 1413SOL    HW215873   4.295   4.413   8.395  1.9112  0.1295 -1.0604
 1414SOL     OW15874   4.641   3.558   2.364  0.0437  0.3856 -0.0204
 1414SOL    HW115875   4.617   3.466   2.356 -1.6576  0.8311 -0.0592
 1414SOL    HW215876   4.566   3.598   2.321 -1.0375 -1.7362 -0.0956
 1415SOL     OW15877   3.715   2.045  15.624 -0.6906 -0.0615 -0.0922
 1415SOL    HW115878   3.780   2.036  15.555 -0.6531  1.9453 -0.3357
 1415SOL    HW215879   3.644   2.054  15.560 -2.0443  2.6698  1.8052
 1416SOL     OW15880   1.867   1.429   3.065 -1.3146  0.4215 -0.3973
 1416SOL    HW115881   1.845   1.346   3.021  0.0391 -1.0586  1.7230
 1416SOL    HW215882   1.782   1.461   3.096 -1.5537 -1.5581  1.0083
 1417SOL     OW15883   4.572   4.047   5.910  0.0629 -0.0020 -0.6451
 1417SOL    HW115884   4.496   4.052   5.852  2.2093 -0.0817 -3.4455
 1417SOL    HW215885   4.555   4.133   5.948 -0.4570  0.4682 -1.9264
 1418SOL     OW15886   4.493   3.140  11.630 -0.1034  0.0076  0.3193
 1418SOL    HW115887   4.398   3.134  11.617  0.3881 -0.8533 -2.9837
 1418SOL    HW215888   4.501   3.168  11.721 -0.6608  0.4349  0.2375
 1419SOL     OW15889   3.558   3.108  17.011 -0.2412  0.0143  0.5253
 1419SOL    HW115890   3.494   3.088  17.079  0.1464  1.3182  1.2551
 1419SOL    HW215891   3.517   3.067  16.934  0.5168 -0.0322  0.1397
 1420SOL     OW15892   2.967   2.725   1.415  0.3656  0.6372  0.2210
 1420SOL    HW115893   2.914   2.754   1.340  1.5176  0.4380 -0.6697
 1420SOL    HW215894   3.053   2.766   1.411  1.0400 -1.0895 -2.5033
 1421SOL     OW15895   4.465   0.263   5.584  0.4328  0.3950 -0.6867
 1421SOL    HW115896   4.480   0.357   5.591  0.9549  0.2712 -0.0409
 1421SOL    HW215897   4.404   0.256   5.512  0.2862 -1.1066 -0.4127
 1422SOL     OW15898   4.575   3.116   3.061  0.3985 -0.4838 -0.0689
 1422SOL    HW115899   4.564   3.197   3.112  0.9117 -1.5270  1.6813
 1422SOL    HW215900   4.505   3.060   3.094 -1.4036  1.4679 -0.5463
 1423SOL     OW15901   1.418   4.481  16.194 -0.1116 -0.5997 -0.0446
 1423SOL    HW115902   1.493   4.464  16.137 -0.2521 -0.3372 -0.3046
 1423SOL    HW215903   1.351   4.436  16.143  2.1047  0.3183 -3.7816
 1424SOL     OW15904   4.440   1.544   7.202  0.0089  0.5234  0.0555
 1424SOL    HW115905   4.528   1.508   7.198 -1.2096 -1.9491 -4.0304
 1424SOL    HW215906   4.394   1.500   7.275  0.0850  1.5169  0.6961
 1425SOL     OW15907   1.005   4.296   3.276  0.7426  0.1540 -0.3419
 1425SOL    HW115908   1.048   4.309   3.192  0.2688 -0.2975 -0.6528
 1425SOL    HW215909   0.919   4.331   3.251 -0.3444 -1.7854  0.7209
 1426SOL     OW15910   4.558   4.412   3.981  0.2582  0.6191  0.1028
 1426SOL    HW115911   4.592   4.500   3.998  1.3943  0.2016  0.0294
 1426SOL    HW215912   4.471   4.432   3.947 -0.0019 -0.1629  0.2917
 1427SOL     OW15913   2.835   0.100  12.561  0.1429  0.4209  0.2744
 1427SOL    HW115914   2.783   0.025  12.589 -0.1448  1.0037  1.3166
 1427SOL    HW215915   2.900   0.109  12.631  1.9903 -0.0849 -1.3782
 1428SOL     OW15916   1.502   3.375   2.685  0.4508 -0.1135 -0.0951
 1428SOL    HW115917   1.474   3.332   2.604  0.0797  0.7345 -0.4210
 1428SOL    HW215918   1.474   3.467   2.675 -1.7734 -0.8312 -0.5606
 1429SOL     OW15919   2.393   2.305   3.326  0.1996  0.4915 -0.6294
 1429SOL    HW115920   2.387   2.389   3.371  0.4338  0.3785 -0.3834
 1429SOL    HW215921   2.481   2.298   3.290  0.4346  0.8629 -0.1354
 1430SOL     OW15922   0.835   1.491   5.060  0.3420  0.0983  0.0214
 1430SOL    HW115923   0.899   1.547   5.016 -1.1098  0.3759 -1.7565
 1430SOL    HW215924   0.871   1.406   5.035  1.6183  1.1894 -1.9203
 1431SOL     OW15925   0.787   3.837  17.322  0.2746 -0.2409 -0.3210
 1431SOL    HW115926   0.756   3.838  17.232 -1.6809 -1.0669  0.3559
 1431SOL    HW215927   0.873   3.878  17.313  0.0766  0.2023 -0.2059
 1432SOL     OW15928   3.439   0.610  13.537  0.2412 -0.1678  0.3132
 1432SOL    HW115929   3.508   0.564  13.490  1.6358  0.5225  1.6633
 1432SOL    HW215930   3.478   0.695  13.559 -0.8396 -0.2823  2.7489
 1433SOL     OW15931   4.565   3.816   7.164 -0.1832  0.3285 -0.5147
 1433SOL    HW115932   4.477   3.852   7.155 -0.2283  0.3254 -0.0819
 1433SOL    HW215933   4.608   3.871   7.099  0.5540 -1.3597 -1.4602
 1434SOL     OW15934   3.515   2.966   9.251  0.4271 -0.3781 -0.3324
 1434SOL    HW115935   3.575   2.927   9.314  2.5824  1.3573 -1.3155
 1434SOL    HW215936   3.543   2.909   9.178  0.1831  0.8049 -1.3427
 1435SOL     OW15937   2.552   2.100  14.424  0.5973 -0.3188  0.0198
 1435SOL    HW115938   2.541   2.149  14.505 -1.1678  1.0494 -1.0365
 1435SOL    HW215939   2.539   2.163  14.352  1.1177  0.7313  0.8456
 1436SOL     OW15940   1.486   0.115   8.149  0.5932 -0.1616  0.3030
 1436SOL    HW115941   1.414   0.107   8.086  1.7404  0.9794 -1.1561
 1436SOL    HW215942   1.493   0.210   8.159  1.8052 -0.3247  0.9303
 1437SOL     OW15943   2.067   1.225  17.390  0.2672  0.5681 -0.5140
 1437SOL    HW115944   2.056   1.241  17.296  0.6693 -4.0316 -1.3642
 1437SOL    HW215945   2.155   1.258  17.408  1.0582 -1.5953 -0.3741
 1438SOL     OW15946   0.718   0.980   2.356 -0.6072  0.1122  0.1827
 1438SOL    HW115947   0.663   0.963   2.279 -1.6869 -0.8119  1.1606
 1438SOL    HW215948   0.745   1.071   2.347 -0.6301  0.4790  4.0589
 1439SOL     OW15949   1.478   1.225   6.191 -0.1618 -0.2906  0.4476
 1439SOL    HW115950   1.398   1.189   6.229  0.3796  0.6943  2.5228
 1439SOL    HW215951   1.467   1.178   6.108  0.4641  0.9264 -0.3281
 1440SOL     OW15952   2.409   0.542   2.131  0.7516 -0.8908 -0.0833
 1440SOL    HW115953   2.352   0.487   2.185  0.7109 -0.8486 -0.0835
 1440SOL    HW215954   2.353   0.551   2.054  0.4092  1.5383  0.4569
 1441SOL     OW15955   1.790   4.633   7.467 -0.4090  0.2427  0.0637
 1441SOL    HW115956   1.732   4.562   7.496 -1.7304  1.5840  0.6744
 1441SOL    HW215957   1.869   4.579   7.458 -0.2014  0.3575  1.2657
 1442SOL     OW15958   1.716   3.209   4.329 -0.6060 -0.3394  0.3351
 1442SOL    HW115959   1.791   3.151   4.317 -1.1589 -0.6971 -1.4107
 1442SOL    HW215960   1.754   3.291   4.359 -1.8822 -0.0504  1.1930
 1443SOL     OW15961   2.993   4.659   4.059  0.1678 -0.1630 -0.2142
 1443SOL    HW115962   3.036   4.689   3.978 -0.6122  1.0975 -0.1612
 1443SOL    HW215963   2.910   4.627   4.023  0.5118 -2.5007  1.0848
 1444SOL     OW15964   3.027   0.360   8.330  0.2437  0.0399 -0.2832
 1444SOL    HW115965   2.956   0.425   8.333  0.2029  0.0851 -2.3445
 1444SOL    HW215966   2.999   0.299   8.397  0.5924  0.2604  0.0634
 1445SOL     OW15967   3.666   1.161   2.186 -0.1028 -0.2681 -0.4428
 1445SOL    HW115968   3.637   1.232   2.128 -0.9766 -0.2570  0.0032
 1445SOL    HW215969   3.602   1.174   2.257  1.6852 -1.6209  1.4118
 1446SOL     OW15970   0.354   1.772   5.883  0.2367 -0.2227 -0.5072
 1446SOL    HW115971   0.426   1.835   5.886 -1.6853  2.1063 -2.4378
 1446SOL    HW215972   0.319   1.779   5.794 -0.6694 -2.3562 -0.3291
 1447SOL     OW15973   2.397   3.282   4.356  0.5120  0.4037  0.2815
 1447SOL    HW115974   2.450   3.203   4.348  1.3541  0.8544  1.4605
 1447SOL    HW215975   2.342   3.264   4.432 -2.2451 -1.7433 -2.2221
 1448SOL     OW15976   4.624   1.980  14.381 -0.0641  0.0793  0.0789
 1448SOL    HW115977   4.644   1.963  14.474 -1.5036 -0.2052  0.3263
 1448SOL    HW215978   4.590   2.069  14.395  2.2387  0.8950  0.6981
 1449SOL     OW15979   4.651   0.261  12.304 -0.2966 -0.5564 -0.2285
 1449SOL    HW115980   4.593   0.186  12.291  0.9584 -1.2915 -1.7231
 1449SOL    HW215981   4.652   0.257  12.400 -1.6085 -2.0139 -0.2706
 1450SOL     OW15982   3.203   2.591   8.617  0.3461  0.1276  0.1080
 1450SOL    HW115983   3.151   2.528   8.568  1.1809 -0.8606  0.4979
 1450SOL    HW215984   3.282   2.582   8.564 -1.5687  0.2623 -2.8172
 1451SOL     OW15985   4.373   4.555  10.284  0.3466 -0.4574  0.5523
 1451SOL    HW115986   4.291   4.529  10.327  0.3764  0.2480  1.0297
 1451SOL    HW215987   4.378   4.648  10.305 -1.6076 -0.2545  0.1538
 1452SOL     OW15988   0.087   0.388   3.569  0.2077 -0.5765  0.1280
 1452SOL    HW115989   0.022   0.332   3.610  0.0138 -0.0185  0.5880
 1452SOL    HW215990   0.079   0.354   3.480 -1.1095  1.1551 -0.4109
 1453SOL     OW15991   0.574   0.866   2.563  0.4579 -0.6948 -0.3272
 1453SOL    HW115992   0.611   0.908   2.486  2.5384 -0.6487  0.6890
 1453SOL    HW215993   0.550   0.933   2.627 -0.0115 -1.9329  0.8242
 1454SOL     OW15994   1.878   0.302   1.309  0.2333  0.1546  0.0785
 1454SOL    HW115995   1.821   0.365   1.265  0.6140  1.1208  0.9772
 1454SOL    HW215996   1.962   0.347   1.317  0.2313  0.0482  0.6638
 1455SOL     OW15997   3.680   3.138  14.822  0.1738  0.4819 -0.1867
 1455SOL    HW115998   3.685   3.182  14.737  1.6196 -1.6824 -1.2291
 1455SOL    HW215999   3.721   3.210  14.870  0.4603  1.0121 -1.2413
 1456SOL     OW16000   3.584   0.155   2.390 -0.3348  0.4386 -0.3451
 1456SOL    HW116001   3.658   0.198   2.432 -2.1121  1.9274  1.2773
 1456SOL    HW216002   3.571   0.223   2.324 -0.8901  0.8063  0.1337
 1457SOL     OW16003   1.023   0.182   1.661 -0.2551  0.2279 -0.5836
 1457SOL    HW116004   1.008   0.272   1.690  1.5912  0.4642 -0.4093
 1457SOL    HW216005   0.937   0.139   1.657  0.2192 -0.7815  0.0457
 1458SOL     OW16006   0.508   3.616   6.202  0.0891  0.3402  0.0905
 1458SOL    HW116007   0.547   3.529   6.211 -1.1412 -0.3161 -0.9988
 1458SOL    HW216008   0.465   3.608   6.117 -1.4329 -0.6974  0.9593
 1459SOL     OW16009   4.722   0.667   4.626 -0.0611 -0.2491  0.4977
 1459SOL    HW116010   0.006   0.754   4.660  0.9972 -0.1443 -0.3847
 1459SOL    HW216011   0.023   0.604   4.689  0.6023 -0.8928 -0.5361
 1460SOL     OW16012   3.521   3.734  16.883  0.1755 -0.6725 -0.4232
 1460SOL    HW116013   3.466   3.659  16.904 -0.0528 -0.5911 -0.7387
 1460SOL    HW216014   3.568   3.707  16.804 -1.3586 -3.4422 -0.3686
 1461SOL     OW16015   0.186   1.883   8.316 -0.3792 -0.2246 -0.0415
 1461SOL    HW116016   0.245   1.863   8.244  2.1381  0.1661  1.8884
 1461SOL    HW216017   0.107   1.903   8.266  0.0809  0.1655 -0.6115
 1462SOL     OW16018   2.327   3.869  13.957  0.5925 -0.8235 -0.3008
 1462SOL    HW116019   2.321   3.859  13.862  1.6051  1.5560 -0.6020
 1462SOL    HW216020   2.402   3.812  13.974  2.7350  1.6972 -1.3876
 1463SOL     OW16021   4.659   3.039   2.364 -0.2151  0.1226 -0.4720
 1463SOL    HW116022   4.705   3.020   2.446  1.1322  3.0932 -0.5447
 1463SOL    HW216023   4.710   2.984   2.305 -0.5868  0.5851 -1.2306
 1464SOL     OW16024   4.095   2.505   1.726  0.2672  0.4924  0.8415
 1464SOL    HW116025   4.155   2.431   1.730 -0.1664  0.1536  1.0995
 1464SOL    HW216026   4.013   2.455   1.722 -0.0649  1.1737 -0.7610
 1465SOL     OW16027   4.057   3.879   8.777 -0.0721 -0.5657 -0.5018
 1465SOL    HW116028   4.121   3.821   8.818 -0.4596  1.1975  2.6244
 1465SOL    HW216029   4.007   3.807   8.739  0.8284 -0.1021 -2.5236
 1466SOL     OW16030   3.299   0.256   4.782 -0.0450  0.6700 -0.1445
 1466SOL    HW116031   3.299   0.191   4.711  0.7194 -0.8908  1.2761
 1466SOL    HW216032   3.393   0.273   4.785 -0.2557  1.6365  0.7574
 1467SOL     OW16033   2.398   1.256   4.829 -0.0932  0.0719  0.0472
 1467SOL    HW116034   2.439   1.285   4.910 -0.1071 -0.5267  0.2694
 1467SOL    HW216035   2.330   1.324   4.823 -0.7803 -0.7083 -1.0710
 1468SOL     OW16036   2.552   3.692   1.868 -0.3491  0.0964  0.3790
 1468SOL    HW116037   2.508   3.666   1.787  2.5134  0.9414 -1.4466
 1468SOL    HW216038   2.515   3.780   1.879  0.4212  0.4861 -0.2206
 1469SOL     OW16039   2.173   2.868   8.199 -0.1239  0.2051 -0.1593
 1469SOL    HW116040   2.091   2.820   8.209  0.4126 -0.5439  0.6497
 1469SOL    HW216041   2.137   2.956   8.212  0.9044  0.7785 -1.2026
 1470SOL     OW16042   3.364   2.914  12.476 -0.0556 -0.7835 -0.1433
 1470SOL    HW116043   3.433   2.958  12.428 -0.7152 -0.6158 -0.9393
 1470SOL    HW216044   3.293   2.978  12.475  0.4374 -0.2129  1.4523
 1471SOL     OW16045   1.390   0.925   7.627  0.5423  0.1223  0.1451
 1471SOL    HW116046   1.467   0.875   7.599  1.0752  0.1033  1.6328
 1471SOL    HW216047   1.344   0.929   7.543  4.0772 -0.2488 -1.8107
 1472SOL     OW16048   3.578   3.501  16.315 -0.7333 -0.0696 -0.3594
 1472SOL    HW116049   3.550   3.483  16.225 -0.1493  1.1000 -0.7754
 1472SOL    HW216050   3.617   3.585  16.291  0.4510 -0.4305  0.3139
 1473SOL     OW16051   4.358   4.209   6.941  0.3875 -0.5984 -0.0470
 1473SOL    HW116052   4.415   4.210   6.865  0.7187 -0.2052  0.2064
 1473SOL    HW216053   4.427   4.228   7.004 -0.3324  2.3653 -0.1765
 1474SOL     OW16054   4.265   3.713   8.667  0.0508 -0.1342 -0.2824
 1474SOL    HW116055   4.246   3.621   8.648  0.9749 -0.7043  1.5505
 1474SOL    HW216056   4.359   3.711   8.687 -0.2075  1.3675  1.0851
 1475SOL     OW16057   0.658   2.499   9.617 -0.1653  0.5109  0.1140
 1475SOL    HW116058   0.618   2.515   9.703 -3.8289 -0.5717 -1.4032
 1475SOL    HW216059   0.750   2.507   9.644 -1.4393  2.1568  3.9522
 1476SOL     OW16060   0.216   0.077  13.987 -0.0288 -0.1544  0.1147
 1476SOL    HW116061   0.178   0.129  13.916  2.3863  0.3309 -0.8202
 1476SOL    HW216062   0.287   0.137  14.011  1.8565 -2.5083  0.4393
 1477SOL     OW16063   4.180   1.656  12.742 -0.4403  0.6169  0.2155
 1477SOL    HW116064   4.180   1.567  12.706  0.0539  0.2423  1.1171
 1477SOL    HW216065   4.274   1.675  12.742  0.2002 -2.4395  1.1617
 1478SOL     OW16066   0.269   2.528  10.347  0.3598  0.2489  0.3953
 1478SOL    HW116067   0.223   2.609  10.365  1.2482  0.4081  1.8824
 1478SOL    HW216068   0.288   2.533  10.253  0.3313 -2.3098  0.2562
 1479SOL     OW16069   1.925   2.137   5.732  0.5792 -0.1028  0.5303
 1479SOL    HW116070   1.896   2.071   5.795 -0.7384  1.4630  1.5729
 1479SOL    HW216071   1.916   2.090   5.649  0.5501  0.6259  0.1208
 1480SOL     OW16072   3.077   3.686   8.158 -0.4080 -0.6532  0.4627
 1480SOL    HW116073   3.164   3.666   8.194 -1.0108 -4.2839 -0.1267
 1480SOL    HW216074   3.056   3.613   8.101 -0.9085 -0.4362  0.3654
 1481SOL     OW16075   4.697   0.471   5.767 -0.0019  0.3204 -0.6570
 1481SOL    HW116076   4.724   0.426   5.687  0.3289 -0.2471 -0.2264
 1481SOL    HW216077   4.687   0.560   5.733 -0.7834  0.4179 -0.1612
 1482SOL     OW16078   3.647   2.149   2.755  0.1887 -0.4190  0.3797
 1482SOL    HW116079   3.585   2.141   2.828 -0.1268  1.6649  0.3437
 1482SOL    HW216080   3.738   2.151   2.784  0.8302 -2.0338 -1.6069
 1483SOL     OW16081   1.397   2.307   5.734  0.3988 -0.1173 -0.0525
 1483SOL    HW116082   1.304   2.297   5.717 -0.1741  3.4723  0.9569
 1483SOL    HW216083   1.427   2.309   5.643 -0.6561 -1.1104 -0.4233
 1484SOL     OW16084   3.427   1.395   8.961  0.2371 -0.2833  0.2666
 1484SOL    HW116085   3.502   1.367   8.908  0.3143  0.0446  0.1997
 1484SOL    HW216086   3.429   1.491   8.970 -0.8557 -0.0808 -1.6698
 1485SOL     OW16087   2.390   1.442   6.581 -0.0571  0.2758 -0.0361
 1485SOL    HW116088   2.373   1.389   6.659 -0.3187  0.9769  0.3865
 1485SOL    HW216089   2.478   1.468   6.606  0.0230 -0.5916  0.5960
 1486SOL     OW16090   1.825   2.612  16.773  0.2488 -0.1201  0.2128
 1486SOL    HW116091   1.784   2.568  16.848 -2.2851  0.8475 -0.6210
 1486SOL    HW216092   1.752   2.665  16.742  0.0946 -1.0670 -1.0197
 1487SOL     OW16093   4.134   1.145   1.106 -0.4137  0.0798 -0.1799
 1487SOL    HW116094   4.097   1.221   1.151 -0.6163  0.8645 -1.6752
 1487SOL    HW216095   4.065   1.092   1.065 -1.2301  1.1837 -0.2400
 1488SOL     OW16096   2.018   1.610   2.183 -0.2505 -0.0893  0.5387
 1488SOL    HW116097   2.053   1.539   2.130  1.0188  0.8810  0.0738
 1488SOL    HW216098   1.931   1.621   2.146 -0.8854 -0.0968  2.0359
 1489SOL     OW16099   0.705   4.563   4.205  0.3985  0.1597  0.5002
 1489SOL    HW116100   0.652   4.516   4.269  1.0263  0.5458  1.2909
 1489SOL    HW216101   0.722   4.647   4.247 -1.2583  1.6155 -1.7087
 1490SOL     OW16102   1.276   3.738   4.870  0.0088  0.3242 -0.1907
 1490SOL    HW116103   1.328   3.818   4.858  2.0447 -0.9833 -0.1293
 1490SOL    HW216104   1.268   3.721   4.776 -1.3473  0.9649 -0.1832
 1491SOL     OW16105   4.594   2.860  17.636 -0.3288 -0.0092  0.0680
 1491SOL    HW116106   4.514   2.839  17.683  0.1167 -0.9374  0.4115
 1491SOL    HW216107   4.576   2.952  17.615 -0.2382  0.2739  1.2248
 1492SOL     OW16108   4.112   1.826  16.376 -0.0815 -0.3970 -0.2001
 1492SOL    HW116109   4.198   1.784  16.381 -1.2734 -2.6251  1.8416
 1492SOL    HW216110   4.071   1.768  16.441  0.0779 -0.7341 -0.3964
 1493SOL     OW16111   3.859   0.943  10.436 -0.0618  0.0254  0.0188
 1493SOL    HW116112   3.875   0.914  10.526 -1.2700 -0.0717  0.2013
 1493SOL    HW216113   3.769   0.976  10.443 -0.0831  0.0540 -0.3833
 1494SOL     OW16114   0.181   1.536   7.721 -0.3663  0.1997 -0.3393
 1494SOL    HW116115   0.111   1.471   7.725 -1.8388  1.8632  0.6639
 1494SOL    HW216116   0.255   1.486   7.689  2.0469  2.7055  1.3012
 1495SOL     OW16117   3.595   1.388   6.821  0.2163 -0.2345 -0.2767
 1495SOL    HW116118   3.632   1.409   6.907 -0.0058 -0.5320 -0.1106
 1495SOL    HW216119   3.664   1.411   6.759  1.7208 -0.5284  1.2766
 1496SOL     OW16120   3.637   2.636   6.079 -0.0281  0.1164 -0.3702
 1496SOL    HW116121   3.588   2.571   6.128 -0.2870  1.3638  1.0227
 1496SOL    HW216122   3.577   2.710   6.077 -2.0308 -1.4855 -0.0990
 1497SOL     OW16123   1.024   0.254   3.411  0.0457 -0.0333  0.5622
 1497SOL    HW116124   0.968   0.330   3.426  0.8235  0.6727 -0.1002
 1497SOL    HW216125   0.969   0.185   3.375  0.3877  0.2016 -0.4014
 1498SOL     OW16126   2.877   1.281   3.045  0.2696 -0.4407 -0.2976
 1498SOL    HW116127   2.936   1.261   2.972  1.7481  1.5850  0.3178
 1498SOL    HW216128   2.919   1.223   3.109  0.6602  1.3320  1.0624
 1499SOL     OW16129   1.234   4.604   3.159  0.6505 -0.3872 -0.0373
 1499SOL    HW116130   1.270   4.647   3.081 -3.0190 -0.6971 -1.8982
 1499SOL    HW216131   1.209   4.520   3.121  1.9824 -0.7486 -0.1027
 1500SOL     OW16132   3.201   3.228  16.872 -0.5784  0.5034 -0.7256
 1500SOL    HW116133   3.276   3.211  16.814  2.0416  0.7798  2.5754
 1500SOL    HW216134   3.175   3.311  16.831  0.7638  0.9522 -0.6884
 1501SOL     OW16135   0.174   0.218   5.257  0.0731  0.6678  0.1649
 1501SOL    HW116136   0.168   0.301   5.209  1.1081  0.6195 -0.0557
 1501SOL    HW216137   0.269   0.218   5.270  0.3040  0.4458 -1.6056
 1502SOL     OW16138   2.730   2.629   4.871 -0.0023  0.1919  0.3900
 1502SOL    HW116139   2.744   2.660   4.961  0.2573  0.7332  0.1637
 1502SOL    HW216140   2.708   2.538   4.890  1.3556  0.2313  2.1749
 1503SOL     OW16141   1.821   4.145   5.825  0.0471 -0.0300  0.1756
 1503SOL    HW116142   1.765   4.098   5.763 -0.4106  2.6343 -1.4332
 1503SOL    HW216143   1.873   4.198   5.765 -0.9506  1.7995  0.9083
 1504SOL     OW16144   3.262   4.589   8.351 -0.5118 -0.5438 -0.4420
 1504SOL    HW116145   3.294   4.679   8.338 -1.3190 -0.2720 -0.5182
 1504SOL    HW216146   3.320   4.547   8.287  2.2137 -0.4266  1.9204
 1505SOL     OW16147   2.770   3.638   5.286 -0.2074 -0.2314  0.1121
 1505SOL    HW116148   2.865   3.650   5.284 -0.0822 -1.3327 -0.3197
 1505SOL    HW216149   2.760   3.543   5.280 -2.1886 -0.0268  0.2387
 1506SOL     OW16150   2.047   3.518   2.570 -0.0060  0.0106  0.5126
 1506SOL    HW116151   2.069   3.483   2.483 -0.2829 -0.1523  0.5112
 1506SOL    HW216152   2.113   3.470   2.620  0.7195  1.2544  0.7776
 1507SOL     OW16153   2.144   4.729  15.749  0.2130 -0.0036  0.0474
 1507SOL    HW116154   2.161   0.069  15.693 -0.1252 -0.1984 -0.3160
 1507SOL    HW216155   2.123   0.038  15.831 -0.9463  0.0857 -0.2868
 1508SOL     OW16156   3.894   3.812   3.316  0.3399 -0.2813  0.5446
 1508SOL    HW116157   3.823   3.862   3.357  0.4033  0.4880 -0.2932
 1508SOL    HW216158   3.843   3.771   3.246  1.7813  0.9478 -1.2238
 1509SOL     OW16159   0.953   2.801   8.503 -0.0084 -0.6065  0.2075
 1509SOL    HW116160   0.925   2.852   8.579 -2.0412 -0.9990 -0.2725
 1509SOL    HW216161   1.039   2.841   8.488  1.2768 -3.2747  0.4964
 1510SOL     OW16162   2.806   1.695   4.340  0.0162 -0.5997 -1.0124
 1510SOL    HW116163   2.783   1.740   4.259  0.5097  2.4768  0.5714
 1510SOL    HW216164   2.901   1.683   4.333  0.4969  2.0148  1.2547
 1511SOL     OW16165   4.672   3.967  11.004  0.6563  0.7647  0.0688
 1511SOL    HW116166   4.697   3.902  11.070 -0.7447  0.7985  0.6210
 1511SOL    HW216167   0.024   3.976  10.965 -0.6914  0.5853 -2.9899
 1512SOL     OW16168   0.446   2.466   5.044  0.1152  0.2326  0.1681
 1512SOL    HW116169   0.521   2.417   5.011  0.5624  1.6896 -1.0123
 1512SOL    HW216170   0.389   2.397   5.078  2.1211 -0.5868  1.9169
 1513SOL     OW16171   1.230   1.956   9.147  0.8437 -0.2518  0.1431
 1513SOL    HW116172   1.159   1.952   9.211  1.3056  0.7475  0.7013
 1513SOL    HW216173   1.177   1.944   9.068 -1.6277 -0.4947  1.8323
 1514SOL     OW16174   4.396   0.808   2.617  0.4022 -0.2473  0.0276
 1514SOL    HW116175   4.414   0.799   2.710  2.9145  1.3734 -0.2689
 1514SOL    HW216176   4.313   0.763   2.605  0.9930 -1.0532 -1.0709
 1515SOL     OW16177   3.190   0.387   9.050  0.2422 -0.0484 -0.6261
 1515SOL    HW116178   3.232   0.444   9.114 -0.7213 -1.0626  0.8881
 1515SOL    HW216179   3.255   0.318   9.060 -0.6002 -0.7809 -0.2262
 1516SOL     OW16180   2.307   2.109   9.158  0.6312 -0.3754 -0.4466
 1516SOL    HW116181   2.334   2.169   9.227 -0.2889 -2.3267  1.6049
 1516SOL    HW216182   2.384   2.117   9.102  0.5074  0.0393 -0.5557
 1517SOL     OW16183   0.049   4.464   4.356  0.4819 -0.2074  0.5343
 1517SOL    HW116184   0.117   4.478   4.290 -0.1497 -2.9800 -0.7167
 1517SOL    HW216185   4.729   4.390   4.330  0.0823  0.8941 -1.7004
 1518SOL     OW16186   0.320   0.794   3.541 -0.2207  0.1585  0.4777
 1518SOL    HW116187   0.343   0.716   3.591  0.1333 -0.5560 -0.7788
 1518SOL    HW216188   0.320   0.754   3.454  2.5519 -1.3400  1.1606
 1519SOL     OW16189   3.668   2.484   6.603 -0.7095  0.0874  0.5030
 1519SOL    HW116190   3.683   2.421   6.533 -0.8217 -0.9781  1.4257
 1519SOL    HW216191   3.577   2.467   6.624 -0.5706 -0.4556  0.6892
 1520SOL     OW16192   0.912   3.473   1.801  0.0914 -0.5198 -0.2982
 1520SOL    HW116193   0.982   3.482   1.866 -0.6510  0.2884  0.3998
 1520SOL    HW216194   0.837   3.489   1.859  0.1491  0.5695 -0.5357
 1521SOL     OW16195   3.559   4.602   3.385 -0.2366 -0.4314 -0.0824
 1521SOL    HW116196   3.582   4.641   3.301  0.5758 -3.0316 -1.0794
 1521SOL    HW216197   3.513   4.521   3.363 -1.9026  0.7456 -0.9550
 1522SOL     OW16198   0.177   1.784   0.661 -0.2705 -0.1125  0.8149
 1522SOL    HW116199   0.244   1.778   0.729  0.6679 -0.2416 -0.1100
 1522SOL    HW216200   0.137   1.868   0.681 -0.6915 -0.5043  1.6281
 1523SOL     OW16201   3.521   1.669   0.000  0.3445 -0.0852 -0.1898
 1523SOL    HW116202   3.554   1.696   0.086  0.4395 -2.8677  0.6761
 1523SOL    HW216203   3.427   1.677   0.014  0.6798 -0.0646  2.0583
 1524SOL     OW16204   2.639   2.363   9.388 -0.3378 -0.2194  0.1022
 1524SOL    HW116205   2.583   2.287   9.406  1.5367 -1.6280  0.0008
 1524SOL    HW216206   2.645   2.401   9.476  0.1539 -3.2329  1.3734
 1525SOL     OW16207   3.303   4.355  11.639  0.3802 -0.3068  0.0692
 1525SOL    HW116208   3.259   4.346  11.554 -1.6930  2.0348  0.9093
 1525SOL    HW216209   3.377   4.413  11.618 -1.7112  2.3634  0.0865
 1526SOL     OW16210   2.287   1.149   8.837  0.2370 -0.4562  0.0317
 1526SOL    HW116211   2.322   1.238   8.827  1.2649 -0.4340  3.8206
 1526SOL    HW216212   2.233   1.156   8.758 -0.3340  2.1209  0.6539
 1527SOL     OW16213   0.347   4.372  13.741  0.5364  0.9811  0.1212
 1527SOL    HW116214   0.439   4.350  13.754  0.3529  0.9685  1.4050
 1527SOL    HW216215   0.343   4.448  13.799  1.2361  0.5010  0.8007
 1528SOL     OW16216   4.530   0.934   0.357 -0.1228 -0.2632 -0.0265
 1528SOL    HW116217   4.441   0.908   0.384 -1.0036  0.9554 -1.7595
 1528SOL    HW216218   4.571   0.849   0.373 -2.0212 -0.7307  2.4591
 1529SOL     OW16219   1.605   3.390   9.423 -0.5921  0.4373  0.5403
 1529SOL    HW116220   1.673   3.432   9.475  0.7355 -0.0223 -0.8054
 1529SOL    HW216221   1.650   3.338   9.355 -1.0240 -0.5668  1.0148
 1530SOL     OW16222   3.463   0.897   2.182  0.4250 -0.0843 -0.1993
 1530SOL    HW116223   3.400   0.953   2.228  1.2462 -0.0054  0.8106
 1530SOL    HW216224   3.549   0.932   2.205  0.2683  0.7570 -0.8838
 1531SOL     OW16225   3.625   0.881   9.761  0.1767 -0.4959  0.0199
 1531SOL    HW116226   3.551   0.903   9.817  1.4899  0.2483  1.4585
 1531SOL    HW216227   3.698   0.930   9.799 -0.0412 -1.3258  1.5317
 1532SOL     OW16228   0.796   1.589  16.715  0.2748  0.6423  0.5941
 1532SOL    HW116229   0.759   1.616  16.799  1.6050 -2.6080  2.2527
 1532SOL    HW216230   0.723   1.611  16.657  0.4919  2.1894  0.9124
 1533SOL     OW16231   1.091   3.387   5.749 -0.3729 -0.4054  0.2152
 1533SOL    HW116232   1.099   3.482   5.759 -0.6760 -0.3263 -0.3219
 1533SOL    HW216233   1.181   3.359   5.768 -0.3197 -1.7706 -1.9850
 1534SOL     OW16234   0.261   2.927   2.811  0.2532  0.4363  0.4081
 1534SOL    HW116235   0.314   2.937   2.890  1.0879 -0.1972 -0.0814
 1534SOL    HW216236   0.175   2.923   2.854  0.3729 -0.5810  0.5391
 1535SOL     OW16237   1.650   4.363   5.324 -0.4456 -0.1666 -0.2275
 1535SOL    HW116238   1.676   4.386   5.235  1.5573  0.9910  0.6534
 1535SOL    HW216239   1.707   4.289   5.341  1.9249  1.7156  0.0280
 1536SOL     OW16240   3.361   2.637   2.118 -0.2835  0.4830 -0.5245
 1536SOL    HW116241   3.338   2.700   2.050 -0.2647 -0.6344 -1.5589
 1536SOL    HW216242   3.425   2.687   2.170 -0.6583  0.6510 -0.2266
 1537SOL     OW16243   1.239   2.815   1.632  0.1363  0.0823  0.0281
 1537SOL    HW116244   1.163   2.868   1.610  0.3325  0.5769  0.5359
 1537SOL    HW216245   1.225   2.798   1.725  0.0063  1.4434  0.2526
 1538SOL     OW16246   0.224   4.446   6.094 -0.3396 -0.3194  0.0724
 1538SOL    HW116247   0.298   4.422   6.150 -0.2613 -1.8762 -0.6783
 1538SOL    HW216248   0.265   4.513   6.040 -0.7716 -0.6584 -0.6865
 1539SOL     OW16249   1.758   0.555   4.301 -0.8728  0.6132 -0.3492
 1539SOL    HW116250   1.826   0.487   4.306 -0.4125  0.9376 -2.2090
 1539SOL    HW216251   1.806   0.624   4.347 -0.9428  1.0898 -0.9849
 1540SOL     OW16252   0.583   4.316   8.564  0.1646 -0.0779 -0.6480
 1540SOL    HW116253   0.605   4.231   8.603  0.6651  1.3247  2.0617
 1540SOL    HW216254   0.519   4.289   8.498  1.9871 -2.9727 -1.2553
 1541SOL     OW16255   2.392   3.168   7.112  0.0129 -0.7473 -0.8523
 1541SOL    HW116256   2.369   3.081   7.145 -0.3692 -0.4878 -0.4398
 1541SOL    HW216257   2.390   3.215   7.195 -1.7760 -0.1456 -1.2616
 1542SOL     OW16258   4.167   2.258   9.743  0.2771 -0.4485  0.1016
 1542SOL    HW116259   4.164   2.332   9.803 -3.9175  1.7562 -2.8278
 1542SOL    HW216260   4.259   2.235   9.756 -0.1965 -2.6123 -0.3121
 1543SOL     OW16261   2.397   2.942  13.678 -0.3097 -0.1242  0.0339
 1543SOL    HW116262   2.370   3.028  13.648 -0.5803 -0.1861  0.1039
 1543SOL    HW216263   2.376   2.935  13.772  4.1721  1.4531  1.1684
 1544SOL     OW16264   2.910   3.291  13.793  0.4767 -0.3564 -0.4803
 1544SOL    HW116265   2.862   3.268  13.872  1.3679  1.5386  0.6121
 1544SOL    HW216266   2.950   3.373  13.824 -0.3390 -0.5439  1.0333
 1545SOL     OW16267   3.365   1.719   7.078  0.4645 -0.2918  0.2354
 1545SOL    HW116268   3.450   1.751   7.049  0.3484 -0.1699  0.0342
 1545SOL    HW216269   3.385   1.707   7.171  1.4343 -0.1695  0.0449
 1546SOL     OW16270   1.134   4.282  12.964 -0.0285 -0.1711  0.2338
 1546SOL    HW116271   1.180   4.365  12.948  0.8248 -0.2796  2.1367
 1546SOL    HW216272   1.181   4.222  12.906 -1.5689 -0.9190 -0.2506
 1547SOL     OW16273   1.049   0.116   8.601  0.2075 -0.1626 -0.0681
 1547SOL    HW116274   0.971   0.110   8.657 -1.1065  3.0193 -1.5202
 1547SOL    HW216275   1.024   0.049   8.538 -1.5011  1.5072 -1.1709
 1548SOL     OW16276   3.565   2.083  10.683 -0.0392  0.3374 -0.2206
 1548SOL    HW116277   3.611   2.017  10.735 -0.3006  0.8284  0.6431
 1548SOL    HW216278   3.475   2.057  10.707 -0.6214  1.5077 -1.1476
 1549SOL     OW16279   4.113   3.293   9.686  0.0858  0.0330 -0.5396
 1549SOL    HW116280   4.175   3.229   9.721  0.2103 -0.4083 -1.5486
 1549SOL    HW216281   4.050   3.281   9.757 -0.0925  1.2324 -0.4989
 1550SOL     OW16282   4.195   0.121   2.776 -0.0220 -0.3259  0.0463
 1550SOL    HW116283   4.159   0.196   2.823 -0.6907  0.2571 -1.3810
 1550SOL    HW216284   4.254   0.174   2.723 -2.5865  2.4028 -0.0792
 1551SOL     OW16285   0.467   0.777  12.805  0.2685  0.2604 -0.8420
 1551SOL    HW116286   0.453   0.688  12.836 -1.3265  1.1460  0.9528
 1551SOL    HW216287   0.537   0.800  12.866 -1.2114  0.9045  0.6002
 1552SOL     OW16288   0.839   0.000   8.322  0.2912  0.0868 -0.0695
 1552SOL    HW116289   0.808   0.074   8.269  0.4458 -1.0979 -1.7876
 1552SOL    HW216290   0.781   4.670   8.282  2.0858 -1.4278 -0.1780
 1553SOL     OW16291   1.021   3.574   8.203 -0.3088 -0.3805  0.4767
 1553SOL    HW116292   0.958   3.533   8.263 -2.6396  1.5154 -0.7061
 1553SOL    HW216293   1.093   3.510   8.203  0.9167  1.0042 -0.7138
 1554SOL     OW16294   3.980   1.796   4.646  0.2335  0.2153  0.3820
 1554SOL    HW116295   4.028   1.771   4.725  0.3504 -1.4389 -0.2051
 1554SOL    HW216296   4.050   1.808   4.582  1.8520 -1.1891  1.8702
 1555SOL     OW16297   1.722   1.525   3.680  0.2623  0.2364  0.8030
 1555SOL    HW116298   1.652   1.467   3.712  0.0012  0.8269  1.2928
 1555SOL    HW216299   1.680   1.581   3.615  0.6130 -0.6348 -0.1583
 1556SOL     OW16300   2.336   0.948  16.300 -0.0502 -0.3714  0.6937
 1556SOL    HW116301   2.357   0.855  16.292  1.8062 -0.0270  1.5283
 1556SOL    HW216302   2.331   0.962  16.395 -0.4200  1.4226  0.3990
 1557SOL     OW16303   2.277   2.196   2.218  0.0469 -0.3980  0.4478
 1557SOL    HW116304   2.298   2.103   2.227  0.8079 -0.5578 -2.9721
 1557SOL    HW216305   2.182   2.194   2.233  0.0785  2.1923  1.0431
 1558SOL     OW16306   4.516   2.803  16.772  0.0595 -0.0296  0.3350
 1558SOL    HW116307   4.455   2.821  16.844 -2.1046 -0.2789 -1.4446
 1558SOL    HW216308   4.582   2.872  16.781  1.0768 -0.9667  0.0215
 1559SOL     OW16309   4.328   4.151   3.987 -0.2408  0.5532 -0.3473
 1559SOL    HW116310   4.353   4.104   3.908 -0.2067 -0.2147  0.1151
 1559SOL    HW216311   4.325   4.238   3.947 -0.8727  0.6776 -0.0157
 1560SOL     OW16312   2.099   1.062   4.051 -0.4089 -0.2716 -0.3159
 1560SOL    HW116313   2.136   1.103   3.974  0.4865 -1.2878 -0.4290
 1560SOL    HW216314   2.076   0.971   4.031 -0.4702 -0.0894 -1.0619
 1561SOL     OW16315   0.873   1.527  12.703  0.0001  0.4918 -0.0767
 1561SOL    HW116316   0.790   1.478  12.696 -0.4049  1.2396 -0.4734
 1561SOL    HW216317   0.938   1.456  12.708 -0.4444  0.1566  0.9953
 1562SOL     OW16318   2.101   1.989   7.237 -0.0629  0.6658 -0.0491
 1562SOL    HW116319   2.094   2.075   7.280 -0.8223  1.0580 -0.9433
 1562SOL    HW216320   2.134   2.021   7.152 -0.8799 -1.2669 -1.0809
 1563SOL     OW16321   1.334   2.211   5.457 -0.2639 -0.5012 -0.7434
 1563SOL    HW116322   1.275   2.262   5.402  2.6222  2.8365 -0.6861
 1563SOL    HW216323   1.276   2.152   5.505 -1.5789  0.5907 -1.0125
 1564SOL     OW16324   1.361   2.777   3.383  0.1496  0.6183  0.2419
 1564SOL    HW116325   1.404   2.691   3.389 -0.1548  0.3934 -0.9137
 1564SOL    HW216326   1.290   2.755   3.322  0.6670 -0.4436  0.0225
 1565SOL     OW16327   0.811   3.847  17.056 -0.3370 -0.2403  0.2086
 1565SOL    HW116328   0.855   3.762  17.065 -0.2824 -0.3684 -1.3493
 1565SOL    HW216329   0.731   3.825  17.008 -0.0692 -1.7530  0.4602
 1566SOL     OW16330   4.733   3.128  17.416  0.5314 -0.2855  0.2341
 1566SOL    HW116331   4.673   3.190  17.458 -0.4071  0.2034 -1.8441
 1566SOL    HW216332   0.075   3.144  17.471  0.0484  1.0027  0.5489
 1567SOL     OW16333   0.836   2.988   2.625  0.3505  0.0419 -0.4577
 1567SOL    HW116334   0.754   3.015   2.585  1.1229  2.0407 -0.6779
 1567SOL    HW216335   0.872   3.076   2.632 -0.1039  0.4393 -3.1671
 1568SOL     OW16336   2.228   2.558   9.362 -0.0152  0.1746  0.3706
 1568SOL    HW116337   2.308   2.527   9.321 -1.1711 -0.9041 -1.1027
 1568SOL    HW216338   2.265   2.604   9.437  0.4500  0.8641 -0.2932
 1569SOL     OW16339   4.363   0.876   3.225  0.0577  0.3657 -0.3284
 1569SOL    HW116340   4.317   0.866   3.142  0.0846 -4.5864  0.2162
 1569SOL    HW216341   4.403   0.962   3.222 -1.1507  0.8805 -1.3584
 1570SOL     OW16342   1.629   3.865  11.856 -0.1657 -0.5424 -0.2934
 1570SOL    HW116343   1.585   3.836  11.776 -0.3534 -1.1597  0.0254
 1570SOL    HW216344   1.552   3.890  11.907 -0.8954 -0.0104 -1.6497
 1571SOL     OW16345   4.004   3.986   5.563  0.1570  0.3481 -0.2385
 1571SOL    HW116346   3.923   3.935   5.566 -1.9517  3.7320  0.3469
 1571SOL    HW216347   4.027   4.005   5.654 -0.7119 -0.2603  0.1001
 1572SOL     OW16348   3.616   2.856   6.325 -0.4332  0.2090  0.8818
 1572SOL    HW116349   3.681   2.899   6.269 -1.4757  2.3104  1.2738
 1572SOL    HW216350   3.660   2.773   6.342  0.1035 -0.0877 -1.8613
 1573SOL     OW16351   1.980   2.259   7.740  0.1549 -0.2263 -0.6358
 1573SOL    HW116352   2.024   2.324   7.685  1.6025 -0.2428  0.4836
 1573SOL    HW216353   1.938   2.215   7.666  0.7271  0.0251 -1.1069
 1574SOL     OW16354   1.656   1.852   7.397  0.3048 -0.0411 -0.1652
 1574SOL    HW116355   1.634   1.926   7.341  0.2460 -0.4115 -0.6361
 1574SOL    HW216356   1.728   1.891   7.445  0.2667 -1.2754  0.9030
 1575SOL     OW16357   3.088   2.194   3.764 -0.1793  0.0916  0.6599
 1575SOL    HW116358   3.097   2.149   3.681  0.8028  1.5098 -0.0132
 1575SOL    HW216359   3.155   2.262   3.758 -2.6447  2.5676  0.7553
 1576SOL     OW16360   4.196   3.951   2.193 -0.0516 -0.3154  0.3981
 1576SOL    HW116361   4.227   3.880   2.137 -0.7086 -0.4404  0.1935
 1576SOL    HW216362   4.161   4.004   2.122 -0.0350  0.9509  1.3212
 1577SOL     OW16363   1.348   1.955   3.813 -0.3354 -0.4985 -0.1017
 1577SOL    HW116364   1.415   2.022   3.801 -2.1839  1.5437  1.2372
 1577SOL    HW216365   1.293   1.987   3.742  0.5492 -1.6223 -1.3070
 1578SOL     OW16366   2.405   3.736   2.756  0.0899  0.2923  0.2900
 1578SOL    HW116367   2.319   3.763   2.724  1.2971  1.3348 -2.0810
 1578SOL    HW216368   2.380   3.660   2.808  1.6952 -1.0993 -0.9893
 1579SOL     OW16369   3.596   2.023   9.900 -0.3353  0.0492  0.0583
 1579SOL    HW116370   3.536   1.985   9.836 -0.5026 -1.7083  1.2300
 1579SOL    HW216371   3.570   1.991   9.987 -0.9166 -2.7877 -1.1722
 1580SOL     OW16372   3.132   2.301  17.371 -0.2528 -0.1994 -0.0318
 1580SOL    HW116373   3.191   2.282  17.299  0.3668 -1.7375  0.8914
 1580SOL    HW216374   3.169   2.379  17.414  1.1963 -1.4561  0.9800
 1581SOL     OW16375   1.668   0.358   9.672  0.0357 -0.2443 -0.3847
 1581SOL    HW116376   1.646   0.364   9.765 -0.3002  0.0287 -0.4815
 1581SOL    HW216377   1.764   0.360   9.667  0.0305 -1.5763 -0.8065
 1582SOL     OW16378   2.030   0.024   9.742  0.4696  0.0160 -0.5392
 1582SOL    HW116379   2.039   4.667   9.766  0.1659 -0.0515 -0.6834
 1582SOL    HW216380   2.113   0.068   9.761 -0.5207  1.8995 -0.5194
 1583SOL     OW16381   1.745   0.943  11.344  0.4264 -0.1546  0.2066
 1583SOL    HW116382   1.690   0.876  11.385  1.2085  0.2562  1.9558
 1583SOL    HW216383   1.762   0.999  11.420 -0.8437  0.0876  0.3182
 1584SOL     OW16384   2.089   0.084   4.215  0.1414  0.2155  0.5154
 1584SOL    HW116385   2.004   0.083   4.171 -0.2118  1.4258  1.1722
 1584SOL    HW216386   2.071   0.066   4.307 -2.3147 -1.3506 -0.2863
 1585SOL     OW16387   0.761   0.440   6.354  0.2414 -0.0712 -0.1997
 1585SOL    HW116388   0.732   0.469   6.440  0.1256 -0.2077 -0.1921
 1585SOL    HW216389   0.688   0.476   6.303  0.0154  1.5457  1.2940
 1586SOL     OW16390   1.364   1.543  12.855  0.2805  0.0819 -0.0208
 1586SOL    HW116391   1.310   1.539  12.777  0.1025 -0.3338  0.1278
 1586SOL    HW216392   1.427   1.614  12.839  0.1349  0.4554  1.0214
 1587SOL     OW16393   0.059   1.846   7.545  0.4486  0.3913  1.1099
 1587SOL    HW116394   0.101   1.760   7.551  0.6190  0.2631 -1.8616
 1587SOL    HW216395   0.137   1.892   7.514  0.3504  1.0659  1.8670
 1588SOL     OW16396   1.812   3.877   3.157  0.0804  0.1781 -0.0424
 1588SOL    HW116397   1.750   3.906   3.224  0.1861 -1.4338  0.7516
 1588SOL    HW216398   1.872   3.952   3.160 -1.0748  0.9509  4.1780
 1589SOL     OW16399   3.110   0.619  14.372  0.2059 -0.1398  0.0131
 1589SOL    HW116400   3.077   0.537  14.334 -0.2114  0.4258 -0.8499
 1589SOL    HW216401   3.103   0.676  14.295  1.3312  2.2604  1.6987
 1590SOL     OW16402   3.279   0.759   7.987 -0.3001  0.2147 -0.0981
 1590SOL    HW116403   3.206   0.802   8.031 -0.5390 -1.2089  0.8935
 1590SOL    HW216404   3.324   0.713   8.058  3.5780  0.6725 -2.2126
 1591SOL     OW16405   1.865   2.022   6.956  0.3390 -0.4391  0.4055
 1591SOL    HW116406   1.961   2.028   6.957  0.3491 -0.4708 -0.8870
 1591SOL    HW216407   1.846   1.942   7.004 -0.0118 -0.2894  0.5135
 1592SOL     OW16408   1.650   2.941   0.398 -0.4124  0.1138  0.1044
 1592SOL    HW116409   1.720   3.003   0.420  0.2678 -1.1350  1.4137
 1592SOL    HW216410   1.705   2.863   0.389 -2.6340 -1.2206 -1.7266
 1593SOL     OW16411   0.963   0.092   4.233 -0.5237 -0.3101  0.7928
 1593SOL    HW116412   1.016   0.137   4.298  0.7701 -2.2331  1.0514
 1593SOL    HW216413   0.996   0.002   4.239 -1.0325 -0.7402 -2.5454
 1594SOL     OW16414   1.763   3.290  11.311 -0.4841  0.3881 -0.3992
 1594SOL    HW116415   1.685   3.336  11.341 -1.9884 -0.8720 -2.4082
 1594SOL    HW216416   1.805   3.365  11.270  1.5458 -1.4966 -1.7559
 1595SOL     OW16417   1.662   4.393   1.472 -0.0175  0.3997  0.2652
 1595SOL    HW116418   1.594   4.326   1.471  1.8679 -1.4980 -0.5811
 1595SOL    HW216419   1.740   4.337   1.474 -1.7179 -2.0337 -2.5566
 1596SOL     OW16420   2.400   2.523   4.739  0.6011  0.0586  0.2495
 1596SOL    HW116421   2.433   2.434   4.747 -2.1205 -0.9366  0.5705
 1596SOL    HW216422   2.377   2.543   4.830 -4.7074  1.2888 -1.3262
 1597SOL     OW16423   0.748   0.736   5.941 -0.2222  0.3422 -0.7072
 1597SOL    HW116424   0.734   0.828   5.963  4.5340  0.7261  0.7423
 1597SOL    HW216425   0.733   0.690   6.024 -0.4609  1.1996 -0.2807
 1598SOL     OW16426   4.078   3.155  14.191 -0.1219 -0.3223  0.3300
 1598SOL    HW116427   4.083   3.246  14.161  1.4967 -1.0610 -1.5928
 1598SOL    HW216428   4.001   3.122  14.145 -0.2505  0.6606 -0.1566
 1599SOL     OW16429   0.461   2.257   8.589  0.4222  0.0647 -0.1467
 1599SOL    HW116430   0.410   2.256   8.508 -1.3576  0.3829  0.9753
 1599SOL    HW216431   0.470   2.163   8.604  1.1552  0.3423  1.0788
 1600SOL     OW16432   3.700   1.575   6.368 -0.2549 -0.3652  0.0662
 1600SOL    HW116433   3.663   1.532   6.291 -0.4241 -0.4899  0.2177
 1600SOL    HW216434   3.651   1.658   6.364  2.6578  1.3366 -0.2990
 1601SOL     OW16435   3.791   2.330   8.323  0.2017 -0.7640 -0.1189
 1601SOL    HW116436   3.872   2.280   8.314  0.7776 -0.0031  0.7795
 1601SOL    HW216437   3.724   2.262   8.325  0.4503 -0.9852  0.5929
 1602SOL     OW16438   0.448   1.130   8.669 -0.3871  0.1028  0.0972
 1602SOL    HW116439   0.393   1.181   8.729  1.1164  1.2918  0.4510
 1602SOL    HW216440   0.461   1.051   8.721 -0.6744 -0.0627 -0.0807
 1603SOL     OW16441   2.803   1.859  16.511 -0.5802 -0.1967 -0.3105
 1603SOL    HW116442   2.781   1.805  16.587  1.5220  0.4336  0.7628
 1603SOL    HW216443   2.729   1.918  16.497 -0.5635  0.6304  3.0306
 1604SOL     OW16444   4.583   4.111   7.497 -0.4531  0.0951 -0.4151
 1604SOL    HW116445   4.585   4.200   7.532  1.8885  0.3224 -1.1107
 1604SOL    HW216446   4.569   4.064   7.579  1.4787 -0.9223 -0.6568
 1605SOL     OW16447   0.922   0.426  12.223 -0.4598 -0.7754 -0.1843
 1605SOL    HW116448   0.947   0.335  12.240  0.0802 -0.9877 -2.1817
 1605SOL    HW216449   0.992   0.455  12.165  1.5306 -0.7841  2.1723
 1606SOL     OW16450   3.500   2.809   9.031  0.4377  0.0945 -0.0643
 1606SOL    HW116451   3.549   2.763   8.963 -0.0189  0.5973 -0.7235
 1606SOL    HW216452   3.436   2.741   9.052 -1.0276  2.1626  2.2063
 1607SOL     OW16453   3.060   0.096   3.343  0.1228 -0.1214 -0.3868
 1607SOL    HW116454   3.080   0.003   3.358  4.1501  0.7255 -0.4386
 1607SOL    HW216455   3.063   0.130   3.432  0.7712 -0.3812 -0.3074
 1608SOL     OW16456   4.470   0.175   9.127 -0.1796  0.2082  0.3331
 1608SOL    HW116457   4.421   0.119   9.068  0.7387 -2.0729  1.7414
 1608SOL    HW216458   4.556   0.133   9.124 -0.9500 -1.4638  1.2775
 1609SOL     OW16459   3.373   0.915   4.543  0.1756  0.1513  0.3982
 1609SOL    HW116460   3.339   1.004   4.539  0.3752  0.2338  0.5802
 1609SOL    HW216461   3.437   0.909   4.473  0.4934 -0.0300  0.7054
 1610SOL     OW16462   1.272   3.887   8.495 -0.6476  0.3772  0.0151
 1610SOL    HW116463   1.268   3.923   8.584  0.1260 -0.2375  0.2918
 1610SOL    HW216464   1.231   3.801   8.502  0.9739 -0.5349 -1.7279
 1611SOL     OW16465   4.116   1.384   7.876 -0.2558  0.4307 -0.1833
 1611SOL    HW116466   4.178   1.456   7.886  0.5236 -0.1764 -0.7013
 1611SOL    HW216467   4.183   1.322   7.849  0.5605  1.0232  0.4916
 1612SOL     OW16468   2.036   0.589   8.208 -0.3737 -1.0541 -0.0799
 1612SOL    HW116469   1.999   0.539   8.280  1.6435  0.8777  2.2670
 1612SOL    HW216470   1.958   0.600   8.153 -0.3128 -1.4247 -0.2401
 1613SOL     OW16471   4.244   2.392   2.768 -0.0743  0.0479  0.0122
 1613SOL    HW116472   4.175   2.457   2.770 -1.7456 -1.7175 -0.6698
 1613SOL    HW216473   4.245   2.373   2.674 -1.5867  1.6352 -0.3085
 1614SOL     OW16474   0.430   1.979   2.639 -0.2852 -0.2177  0.0681
 1614SOL    HW116475   0.367   1.936   2.696  1.7095  0.3965  2.7091
 1614SOL    HW216476   0.463   2.053   2.690 -1.5228  1.1289 -1.0680
 1615SOL     OW16477   3.360   0.349  13.708 -0.0604 -0.6050 -0.1536
 1615SOL    HW116478   3.401   0.418  13.656  0.2978 -1.1211 -0.5437
 1615SOL    HW216479   3.294   0.403  13.753  2.5694  1.8430  0.8025
 1616SOL     OW16480   2.222   2.860   9.746  0.3028 -0.3110 -0.0643
 1616SOL    HW116481   2.173   2.834   9.824  1.5997 -2.1035  0.1619
 1616SOL    HW216482   2.289   2.905   9.798  0.3228 -1.4490  0.8817
 1617SOL     OW16483   0.289   3.871   4.639  0.4049 -0.1345  0.5609
 1617SOL    HW116484   0.246   3.797   4.682 -2.0953  1.1022  0.1844
 1617SOL    HW216485   0.377   3.866   4.678  0.6065 -0.8202  0.0289
 1618SOL     OW16486   1.372   2.745  10.804  0.0416 -0.2014 -0.2032
 1618SOL    HW116487   1.457   2.780  10.831  0.1903 -1.2858  0.7331
 1618SOL    HW216488   1.328   2.828  10.788  0.9381  0.3533  0.2197
 1619SOL     OW16489   2.858   4.219   6.399 -0.2812  0.0471  0.3593
 1619SOL    HW116490   2.937   4.169   6.418  0.8005  0.5413 -2.8517
 1619SOL    HW216491   2.802   4.149   6.365  2.4400 -2.2388  0.6018
 1620SOL     OW16492   1.588   0.304  11.073  0.2152  0.2671 -0.6817
 1620SOL    HW116493   1.635   0.384  11.097  0.6643  0.5868 -2.6833
 1620SOL    HW216494   1.557   0.274  11.159 -1.8571  2.5897 -0.6276
 1621SOL     OW16495   0.455   3.989   0.545 -0.1386  0.2524  0.0009
 1621SOL    HW116496   0.497   4.074   0.541 -1.2171  0.8057  0.3847
 1621SOL    HW216497   0.471   3.957   0.456 -0.5006  0.4679 -0.1443
 1622SOL     OW16498   2.674   0.070   3.044  0.1650  0.2829  0.3281
 1622SOL    HW116499   2.588   0.099   3.014 -1.1748  0.1363  4.0626
 1622SOL    HW216500   2.737   0.141   3.031 -0.4116  0.4951 -1.2521
 1623SOL     OW16501   2.796   2.581   3.211  0.4346  0.6861 -0.0438
 1623SOL    HW116502   2.757   2.629   3.138 -0.6819  0.0994  0.1654
 1623SOL    HW216503   2.741   2.611   3.283  0.2247  1.0152 -0.3395
 1624SOL     OW16504   0.547   0.940  17.440 -0.3389 -0.2870 -0.5373
 1624SOL    HW116505   0.481   0.995  17.481  0.4112 -0.4072  0.8316
 1624SOL    HW216506   0.629   0.990  17.446  0.0901 -1.1174  0.5521
 1625SOL     OW16507   3.419   4.350  11.037  0.1135 -0.8869  0.5196
 1625SOL    HW116508   3.351   4.371  10.973  1.1278  1.3470  0.1692
 1625SOL    HW216509   3.400   4.259  11.058  0.9993 -0.9553  1.0541
 1626SOL     OW16510   3.450   4.131   7.858 -0.4483 -0.0428  0.4742
 1626SOL    HW116511   3.394   4.163   7.787  0.4110  1.2462  0.3836
 1626SOL    HW216512   3.416   4.043   7.874 -0.3914  0.0347  1.0313
 1627SOL     OW16513   4.165   3.681  11.115  0.0842  0.0490  0.5213
 1627SOL    HW116514   4.189   3.598  11.156  2.7214  0.7840  0.4462
 1627SOL    HW216515   4.188   3.664  11.024 -0.3928  0.1247  0.3870
 1628SOL     OW16516   0.685   0.642   2.678 -0.8879 -0.1182 -0.1983
 1628SOL    HW116517   0.647   0.723   2.642 -0.9772 -0.2110 -0.3114
 1628SOL    HW216518   0.774   0.676   2.690 -1.7848  1.7269  1.3261
 1629SOL     OW16519   1.082   2.761   4.524  0.4197 -0.0897  0.1245
 1629SOL    HW116520   1.102   2.836   4.467  2.9080 -1.6099 -1.0103
 1629SOL    HW216521   1.170   2.733   4.548  0.3704 -1.4708 -1.3081
 1630SOL     OW16522   1.265   0.513   2.904 -0.3077 -0.0660 -0.3069
 1630SOL    HW116523   1.192   0.451   2.903 -1.5930  1.3963  2.4783
 1630SOL    HW216524   1.230   0.589   2.859 -0.3419 -0.9519 -1.7812
 1631SOL     OW16525   4.570   0.216   6.419  0.5319 -0.0944 -0.7876
 1631SOL    HW116526   4.634   0.160   6.375  0.5759  1.4821 -2.6990
 1631SOL    HW216527   4.572   0.293   6.362  0.3416  1.1522  0.8855
 1632SOL     OW16528   3.559   3.352  16.541  0.2780 -0.5512  0.1770
 1632SOL    HW116529   3.615   3.292  16.492 -1.6295 -0.3423 -2.2215
 1632SOL    HW216530   3.544   3.415  16.471  1.8642 -0.4267 -0.0409
 1633SOL     OW16531   3.939   1.701   0.695 -0.1689  0.5484 -0.2343
 1633SOL    HW116532   3.887   1.715   0.616  0.9205  1.3691 -0.8024
 1633SOL    HW216533   3.994   1.628   0.668  1.5266  1.5331  0.5478
 1634SOL     OW16534   3.632   2.977   4.985  0.3533  0.6768 -0.2703
 1634SOL    HW116535   3.582   2.958   5.064  0.3760 -0.2478 -0.4796
 1634SOL    HW216536   3.714   3.000   5.029  0.8089 -0.0563 -0.7444
 1635SOL     OW16537   3.264   2.150   9.546  0.2531  0.0866 -0.4880
 1635SOL    HW116538   3.259   2.246   9.547  1.7452  0.1615  0.1779
 1635SOL    HW216539   3.178   2.136   9.508 -0.2218  0.0922  0.5904
 1636SOL     OW16540   1.334   3.403  16.600 -0.6272 -0.3951  0.3976
 1636SOL    HW116541   1.360   3.329  16.544  0.5990 -0.1252  0.5969
 1636SOL    HW216542   1.303   3.469  16.537 -0.9603 -0.8485  0.0897
 1637SOL     OW16543   2.323   2.352  15.579  0.2821  0.4061  0.0633
 1637SOL    HW116544   2.366   2.267  15.589  1.1578  0.8127 -0.2802
 1637SOL    HW216545   2.236   2.334  15.617 -0.5162  0.8327 -1.5620
 1638SOL     OW16546   1.488   4.241   7.470 -0.2200  0.0708  0.2662
 1638SOL    HW116547   1.464   4.334   7.467  1.4025  0.4378 -1.6877
 1638SOL    HW216548   1.407   4.198   7.499  1.1309 -2.1714  0.6463
 1639SOL     OW16549   1.689   2.958   9.268 -0.5325  0.3951  0.0304
 1639SOL    HW116550   1.716   3.049   9.262  0.7592  0.0119 -0.0818
 1639SOL    HW216551   1.772   2.915   9.244 -0.5921  1.6038 -2.3386
 1640SOL     OW16552   0.027   2.487  11.740  0.0136 -0.2981 -0.3833
 1640SOL    HW116553   0.111   2.492  11.785 -1.2574  0.0314  1.9780
 1640SOL    HW216554   4.703   2.521  11.807 -0.2035 -3.0092  0.7706
 1641SOL     OW16555   4.666   2.250   9.977  0.1599 -0.1887  0.1680
 1641SOL    HW116556   4.673   2.186  10.048 -1.4518 -1.2077 -0.5860
 1641SOL    HW216557   4.573   2.264   9.961  0.0386 -1.0968  0.1110
 1642SOL     OW16558   2.493   2.471  16.345 -0.3836  0.4232  0.3058
 1642SOL    HW116559   2.481   2.562  16.371  0.2270  0.9158 -1.1259
 1642SOL    HW216560   2.513   2.437  16.433 -1.6595 -1.6512 -0.1999
 1643SOL     OW16561   3.462   0.811   6.406  0.1212  0.1791  0.3785
 1643SOL    HW116562   3.384   0.764   6.377  0.9672  0.1484 -1.8258
 1643SOL    HW216563   3.460   0.790   6.500 -2.1682 -3.3802 -0.4378
 1644SOL     OW16564   1.012   2.393   2.765 -0.3748  0.1917  0.4999
 1644SOL    HW116565   0.984   2.306   2.736 -1.4406  0.5488  0.4364
 1644SOL    HW216566   1.061   2.407   2.685 -2.2421  1.7207 -0.3984
 1645SOL     OW16567   4.508   0.125  10.120  0.4518 -0.1390 -0.0080
 1645SOL    HW116568   4.571   0.069  10.166  1.2720  0.7957  0.0106
 1645SOL    HW216569   4.435   0.113  10.180 -0.2977  1.2417 -0.6502
 1646SOL     OW16570   2.210   1.882  15.224 -0.2229  0.3375 -0.3819
 1646SOL    HW116571   2.205   1.801  15.173  0.3691 -1.8437  2.9490
 1646SOL    HW216572   2.265   1.938  15.171 -0.3471  1.7388  0.9788
 1647SOL     OW16573   2.150   0.117  16.011 -0.1706  0.0453 -0.2480
 1647SOL    HW116574   2.097   0.156  16.081 -0.1082  0.4434 -0.4263
 1647SOL    HW216575   2.209   0.071  16.071 -0.6440  0.0436  0.2119
 1648SOL     OW16576   0.338   3.391  13.585 -0.5433  0.3784 -0.1292
 1648SOL    HW116577   0.289   3.391  13.668  0.2291 -0.4938  0.3313
 1648SOL    HW216578   0.307   3.308  13.549 -0.1788  0.3342 -0.3363
 1649SOL     OW16579   3.299   0.956  15.960  0.3839  0.2394  1.4666
 1649SOL    HW116580   3.370   1.019  15.972  1.3811 -1.3779  3.9579
 1649SOL    HW216581   3.226   1.011  15.931 -0.1282 -0.6740  0.9942
 1650SOL     OW16582   3.311   4.199   6.479 -0.5358  0.4367 -0.1143
 1650SOL    HW116583   3.393   4.247   6.484  0.1936 -0.6718 -1.3267
 1650SOL    HW216584   3.251   4.268   6.504  1.1751  2.4062 -1.4604
 1651SOL     OW16585   0.790   1.606   5.506  0.0236 -0.1453  0.1359
 1651SOL    HW116586   0.883   1.607   5.483  0.3008 -2.0178  1.1474
 1651SOL    HW216587   0.757   1.521   5.476  0.0588 -0.5974  1.3974
 1652SOL     OW16588   3.000   4.500  16.715 -0.1439 -0.0976  0.0739
 1652SOL    HW116589   3.053   4.449  16.655 -0.8453  0.5709 -1.1043
 1652SOL    HW216590   3.027   4.442  16.787  1.2307 -0.6255 -0.8894
 1653SOL     OW16591   4.302   3.806   5.804 -0.3868 -0.3582 -0.4522
 1653SOL    HW116592   4.328   3.874   5.866  0.3132  0.1129 -1.2604
 1653SOL    HW216593   4.245   3.747   5.852  0.2146 -0.0583  0.6378
 1654SOL     OW16594   1.492   1.575   6.576  0.2193 -0.4935 -0.5326
 1654SOL    HW116595   1.437   1.650   6.551  0.3600 -0.9417 -2.1676
 1654SOL    HW216596   1.492   1.594   6.670 -0.6588  1.3836 -0.9056
 1655SOL     OW16597   1.598   1.188   1.551 -0.6197  0.1614  0.2857
 1655SOL    HW116598   1.518   1.136   1.546 -0.3785 -0.2850  0.9477
 1655SOL    HW216599   1.615   1.182   1.645 -0.1577 -1.4218  0.0972
 1656SOL     OW16600   0.049   2.639   4.268 -0.0079  0.2730  0.1895
 1656SOL    HW116601   4.722   2.679   4.330  2.4855  3.1996  0.7782
 1656SOL    HW216602   0.125   2.626   4.324  0.5439  1.7543 -0.1989
 1657SOL     OW16603   4.262   4.423   3.873  0.5312  0.0312 -0.4006
 1657SOL    HW116604   4.232   4.353   3.814  1.5746 -2.4996  2.0589
 1657SOL    HW216605   4.200   4.493   3.853 -1.1210 -1.3049  0.0515
 1658SOL     OW16606   0.085   2.332   7.249 -0.0142  0.0452  0.0457
 1658SOL    HW116607   0.014   2.364   7.193 -1.5702 -1.7498  0.9972
 1658SOL    HW216608   0.057   2.371   7.331  0.2433  1.5509 -0.5702
 1659SOL     OW16609   1.462   1.309  12.758  0.0981  0.9040 -0.4013
 1659SOL    HW116610   1.448   1.398  12.791 -3.0911 -0.5150  2.0531
 1659SOL    HW216611   1.486   1.270  12.842 -1.0099  1.0536 -0.0201
 1660SOL     OW16612   0.092   2.691   7.081 -0.3616  0.1660 -0.8260
 1660SOL    HW116613   0.187   2.695   7.071 -0.2387  1.2294  0.6944
 1660SOL    HW216614   0.068   2.623   7.018  0.2262 -0.4993 -0.3276
 1661SOL     OW16615   2.245   2.416  12.984 -0.4048 -0.7989 -0.3062
 1661SOL    HW116616   2.311   2.378  13.042 -0.5771  1.1972  1.2363
 1661SOL    HW216617   2.288   2.410  12.899 -2.1012  1.8225 -1.3414
 1662SOL     OW16618   3.189   3.348   5.854  0.2066 -0.2726 -0.0425
 1662SOL    HW116619   3.154   3.357   5.943 -0.7912  2.7037 -0.7519
 1662SOL    HW216620   3.210   3.440   5.839 -0.1526 -0.3158 -0.7664
 1663SOL     OW16621   1.705   2.586   7.353  0.4252  0.2900  0.2933
 1663SOL    HW116622   1.687   2.539   7.271  2.5844 -0.1740  0.0685
 1663SOL    HW216623   1.623   2.577   7.401 -0.1876  0.0241 -0.8122
 1664SOL     OW16624   4.720   4.385   2.339 -0.0313 -0.0156 -0.6305
 1664SOL    HW116625   0.012   4.352   2.424 -0.3721  1.0505 -0.1044
 1664SOL    HW216626   4.730   4.306   2.286 -3.3518 -2.3345  2.1511
 1665SOL     OW16627   0.790   4.319   0.699  0.3310  0.4603 -0.5564
 1665SOL    HW116628   0.777   4.259   0.773 -1.8148 -0.0028 -1.3362
 1665SOL    HW216629   0.859   4.376   0.735 -0.8022  1.3965  0.1176
 1666SOL     OW16630   3.994   0.631   1.004 -0.1106 -0.4714  0.3269
 1666SOL    HW116631   3.934   0.578   0.951 -0.5279  0.8664 -0.5566
 1666SOL    HW216632   4.081   0.609   0.968  0.4578 -0.4316  1.6905
 1667SOL     OW16633   2.596   0.140   3.702  0.1883 -0.4469  0.8221
 1667SOL    HW116634   2.585   0.219   3.755 -0.9086  0.1229 -0.2458
 1667SOL    HW216635   2.673   0.096   3.738  0.8413  1.7664  2.1539
 1668SOL     OW16636   2.163   4.261  15.564 -0.2299 -0.3433 -0.4889
 1668SOL    HW116637   2.206   4.208  15.630 -1.6634 -1.9196 -0.8345
 1668SOL    HW216638   2.175   4.351  15.597 -2.2629 -0.9393  1.8413
 1669SOL     OW16639   4.007   0.975   0.574  0.3341  0.5119  0.7530
 1669SOL    HW116640   3.920   0.977   0.534  0.3233  0.5441  0.7779
 1669SOL    HW216641   4.047   1.040   0.517  0.4372 -0.8001 -0.6654
 1670SOL     OW16642   3.218   1.067   6.499  0.5715 -0.4137  0.3777
 1670SOL    HW116643   3.144   1.067   6.560 -1.5560 -1.9456 -2.2117
 1670SOL    HW216644   3.189   1.010   6.428  1.3127 -2.6470  1.8487
 1671SOL     OW16645   1.673   1.266   9.032  0.1180 -0.1989 -0.6696
 1671SOL    HW116646   1.613   1.261   9.106 -0.0956 -1.2024 -0.9209
 1671SOL    HW216647   1.701   1.358   9.024  2.7291 -0.9017  0.2012
 1672SOL     OW16648   4.381   2.328   8.769  0.5238  0.1789 -0.0741
 1672SOL    HW116649   4.328   2.291   8.698  0.4643 -0.3155  0.2230
 1672SOL    HW216650   4.358   2.420   8.758  0.4277 -0.1243 -2.3867
 1673SOL     OW16651   0.956   4.380   6.244  0.1848  0.5009 -0.4645
 1673SOL    HW116652   1.020   4.374   6.173 -0.7263  0.4656 -1.2876
 1673SOL    HW216653   0.949   4.467   6.283  0.6795  0.1040  0.5295
 1674SOL     OW16654   0.838   0.344  11.758  0.1999 -0.4532  0.2064
 1674SOL    HW116655   0.856   0.439  11.760 -2.6050  0.0357  1.5065
 1674SOL    HW216656   0.928   0.310  11.763  0.9326  1.2603 -1.1137
 1675SOL     OW16657   0.262   3.207   8.450  0.6130  0.4801 -0.7716
 1675SOL    HW116658   0.167   3.199   8.449  0.7680 -1.3005 -1.1259
 1675SOL    HW216659   0.277   3.113   8.454  1.1845  0.6163  0.1868
 1676SOL     OW16660   0.421   0.982   6.726 -0.2214  0.4750 -0.2440
 1676SOL    HW116661   0.421   0.913   6.792  1.5567  0.6540 -0.0626
 1676SOL    HW216662   0.434   0.930   6.646  0.0581 -0.9495  0.7379
 1677SOL     OW16663   1.153   0.437  16.770 -0.4302 -0.0692 -0.8456
 1677SOL    HW116664   1.151   0.402  16.681 -2.8689 -0.3460 -0.7018
 1677SOL    HW216665   1.170   0.357  16.819  1.8875  0.3492 -0.9691
 1678SOL     OW16666   1.341   3.785   6.188 -0.7737 -1.0455 -0.0040
 1678SOL    HW116667   1.352   3.833   6.269  0.6070 -2.0243  0.3848
 1678SOL    HW216668   1.394   3.840   6.130 -1.1514 -0.1798  0.4766
 1679SOL     OW16669   3.699   1.713   3.857 -0.5750 -0.0904  0.1986
 1679SOL    HW116670   3.791   1.708   3.829 -0.2903  0.3383  1.0750
 1679SOL    HW216671   3.660   1.691   3.772 -4.1372  1.5261  1.4187
 1680SOL     OW16672   3.769   3.844   5.609  0.3206  0.0612  0.3719
 1680SOL    HW116673   3.678   3.850   5.580  0.7619  2.4570 -0.4831
 1680SOL    HW216674   3.793   3.752   5.601  0.9624  0.4242 -1.7447
 1681SOL     OW16675   0.366   3.622   4.785 -0.2254 -0.5879  0.3888
 1681SOL    HW116676   0.443   3.591   4.832 -0.5815 -1.7615  0.1999
 1681SOL    HW216677   0.341   3.555   4.721  0.0193 -1.1122  0.8411
 1682SOL     OW16678   2.573   1.223   3.521 -0.0817 -0.3717 -0.2961
 1682SOL    HW116679   2.642   1.187   3.465 -0.9270 -0.0789 -1.5208
 1682SOL    HW216680   2.533   1.142   3.552 -0.3127  0.3988  1.3888
 1683SOL     OW16681   0.683   2.321   4.980 -0.1472 -0.1956 -0.2144
 1683SOL    HW116682   0.699   2.229   4.997  0.3838 -0.3153 -1.3399
 1683SOL    HW216683   0.750   2.344   4.915 -0.5817 -0.5487 -0.7840
 1684SOL     OW16684   3.301   0.607  10.015  0.2205  0.5034 -0.1629
 1684SOL    HW116685   3.234   0.638  10.076 -1.8626 -1.1440 -1.5978
 1684SOL    HW216686   3.331   0.523  10.050  0.8504  0.7064 -0.2190
 1685SOL     OW16687   0.152   3.425  11.825  0.1074 -0.7868  0.1029
 1685SOL    HW116688   0.092   3.462  11.890  0.8391 -2.2091  1.5771
 1685SOL    HW216689   0.098   3.403  11.748  0.2893  1.7294 -0.7623
 1686SOL     OW16690   3.485   2.863   5.190 -0.0409 -0.0830  0.1118
 1686SOL    HW116691   3.497   2.914   5.270 -1.2644  0.0056  0.2484
 1686SOL    HW216692   3.515   2.776   5.214 -1.7910 -0.6127  0.3954
 1687SOL     OW16693   4.623   1.040   3.913  0.2708  0.0817  0.0446
 1687SOL    HW116694   4.643   1.130   3.888  1.8148 -0.7015 -1.5288
 1687SOL    HW216695   4.687   1.031   3.984 -1.0535  0.8474  1.3323
 1688SOL     OW16696   0.849   3.361   6.721 -0.5735  0.3166  0.1791
 1688SOL    HW116697   0.766   3.345   6.675  0.2107  2.7149 -2.0910
 1688SOL    HW216698   0.820   3.347   6.811  1.6235  0.2218  0.8740
 1689SOL     OW16699   0.466   1.539   1.670  0.7599  0.0850  0.0093
 1689SOL    HW116700   0.522   1.591   1.728  2.0146  0.7208 -1.7921
 1689SOL    HW216701   0.376   1.554   1.700  0.6889 -1.0642  0.3794
 1690SOL     OW16702   4.355   2.229  10.290  0.0991 -0.2554 -0.1082
 1690SOL    HW116703   4.365   2.316  10.250 -0.0044 -0.1998 -0.0139
 1690SOL    HW216704   4.324   2.248  10.379  2.3944  1.8077  0.2599
 1691SOL     OW16705   3.043   0.608   4.846 -0.2682  0.9775 -0.7225
 1691SOL    HW116706   3.118   0.651   4.805  0.0053  1.7927  0.6371
 1691SOL    HW216707   3.093   0.543   4.897 -1.0559  1.0041  0.0878
 1692SOL     OW16708   1.822   1.989   6.659 -0.4600  0.0602  0.0079
 1692SOL    HW116709   1.833   1.966   6.751 -1.0436  3.4310  0.8849
 1692SOL    HW216710   1.742   2.041   6.658  0.0156  0.7803 -0.2535
 1693SOL     OW16711   1.209   2.875  11.574 -0.2673  0.1632  0.2730
 1693SOL    HW116712   1.152   2.928  11.628 -2.1326 -0.9943 -0.5744
 1693SOL    HW216713   1.289   2.900  11.620 -0.4668 -0.9711  1.2281
 1694SOL     OW16714   2.882   1.198   7.521  0.2015 -0.0378  0.3729
 1694SOL    HW116715   2.832   1.165   7.596  1.8239  0.3066  1.5933
 1694SOL    HW216716   2.966   1.160   7.546  0.0594 -0.7827 -0.2936
 1695SOL     OW16717   4.179   1.163   2.087 -0.5923 -0.2094  0.1272
 1695SOL    HW116718   4.097   1.181   2.132 -0.2481  1.6941  0.0283
 1695SOL    HW216719   4.146   1.126   2.005 -1.9552 -0.3769  0.7602
 1696SOL     OW16720   3.309   4.192  12.175  0.3783 -0.2810 -0.2575
 1696SOL    HW116721   3.316   4.104  12.137 -2.5657  0.3704 -2.3025
 1696SOL    HW216722   3.325   4.248  12.099  0.1842 -1.5059 -1.1993
 1697SOL     OW16723   1.502   1.920   5.435  0.1862  0.4525  0.3984
 1697SOL    HW116724   1.507   1.937   5.530  2.1603 -1.5345  0.6532
 1697SOL    HW216725   1.424   1.864   5.442  1.3315 -1.0332  1.2835
 1698SOL     OW16726   0.091   1.949   7.054  0.2836  0.1094 -0.4699
 1698SOL    HW116727   0.086   2.031   7.004 -0.0351 -0.5448 -1.5295
 1698SOL    HW216728   0.016   1.905   7.013 -0.9533  1.9300 -0.1403
 1699SOL     OW16729   0.612   0.623   1.630  0.6781  0.2641 -0.1318
 1699SOL    HW116730   0.673   0.593   1.563 -1.4485 -1.0329 -1.4461
 1699SOL    HW216731   0.655   0.707   1.649  0.4934 -0.0277  1.5777
 1700SOL     OW16732   0.511   0.439  13.810  0.3355 -0.6182  0.4586
 1700SOL    HW116733   0.575   0.451  13.739 -1.1225 -1.7742 -1.0607
 1700SOL    HW216734   0.499   0.529  13.839  2.5948 -0.6703  1.5564
 1701SOL     OW16735   4.163   0.476   8.726 -0.3319 -0.1777  0.2211
 1701SOL    HW116736   4.082   0.470   8.776  0.5694 -3.2404  1.3102
 1701SOL    HW216737   4.193   0.564   8.748 -1.7635  0.1023  1.0554
 1702SOL     OW16738   4.007   1.313   6.687  0.6968  0.3708 -0.7858
 1702SOL    HW116739   3.925   1.351   6.656  0.7112  0.2446 -0.9763
 1702SOL    HW216740   3.986   1.305   6.780  2.8554  0.6374 -0.2658
 1703SOL     OW16741   1.920   3.192   2.413  0.3368 -0.3005  0.0482
 1703SOL    HW116742   1.886   3.156   2.495  1.2856 -2.2310 -0.4157
 1703SOL    HW216743   2.005   3.147   2.418  0.1907 -0.5724  0.0317
 1704SOL     OW16744   4.206   0.090   8.634 -0.1063  0.0492  0.1244
 1704SOL    HW116745   4.142   0.071   8.702  0.7448  0.6357  1.1062
 1704SOL    HW216746   4.274   0.030   8.667 -0.3180 -0.3835 -0.2367
 1705SOL     OW16747   0.043   0.433  11.448  0.2586 -0.5564 -0.1773
 1705SOL    HW116748   0.083   0.455  11.532  0.3613  1.8660 -0.8733
 1705SOL    HW216749   0.074   0.343  11.439  1.0389 -0.4599  1.5004
 1706SOL     OW16750   3.594   3.972   1.283 -0.1836 -0.0000 -0.3019
 1706SOL    HW116751   3.584   4.015   1.198 -2.3346 -3.1866 -1.6498
 1706SOL    HW216752   3.604   4.052   1.335 -0.5556 -2.0177  2.8885
 1707SOL     OW16753   3.962   4.315  14.195 -0.1325  0.1644 -0.2320
 1707SOL    HW116754   3.936   4.252  14.127 -0.4312  0.7197 -0.6346
 1707SOL    HW216755   4.046   4.279  14.221 -0.7474 -1.7004 -0.7990
 1708SOL     OW16756   3.754   4.251  14.344  0.6190  0.0483 -0.4768
 1708SOL    HW116757   3.833   4.281  14.298  1.5141 -0.9799  0.4001
 1708SOL    HW216758   3.760   4.312  14.417  0.3513 -0.6035  0.0888
 1709SOL     OW16759   0.790   0.562   7.351 -0.2781  0.2367  0.0580
 1709SOL    HW116760   0.885   0.565   7.346 -0.2633  1.2067  0.9484
 1709SOL    HW216761   0.774   0.656   7.350  0.7603  0.4229  0.6588
 1710SOL     OW16762   1.025   1.598  11.853 -0.2679  0.6968 -0.0902
 1710SOL    HW116763   1.028   1.509  11.888  1.1290  0.6547 -0.3002
 1710SOL    HW216764   1.025   1.641  11.938 -1.4502 -1.8818  1.2022
 1711SOL     OW16765   3.999   4.534  12.369 -0.0931 -0.0676  0.3103
 1711SOL    HW116766   4.068   4.584  12.414  0.1209 -1.8122  1.9382
 1711SOL    HW216767   3.983   4.596  12.298  1.3240 -0.6869 -0.5333
 1712SOL     OW16768   0.599   3.438   4.132 -0.0483 -0.2985  0.2245
 1712SOL    HW116769   0.556   3.510   4.180 -0.4242 -0.8084  0.6578
 1712SOL    HW216770   0.593   3.373   4.201 -0.6829 -1.4760 -0.9459
 1713SOL     OW16771   0.479   3.720   6.448 -0.1169  0.2226 -0.0458
 1713SOL    HW116772   0.483   3.679   6.362  0.9801  0.1271  0.0519
 1713SOL    HW216773   0.505   3.809   6.425  0.9010 -0.4301 -1.4230
 1714SOL     OW16774   2.822   2.746   5.870 -0.8265  0.1898 -0.2432
 1714SOL    HW116775   2.799   2.836   5.848  1.2892  0.9259  0.5620
 1714SOL    HW216776   2.918   2.746   5.881 -0.7528  0.1235 -0.8583
 1715SOL     OW16777   2.596   1.124   3.085 -0.7540 -0.9430  0.0641
 1715SOL    HW116778   2.617   1.163   3.001  2.0874 -1.9854  0.3022
 1715SOL    HW216779   2.573   1.032   3.068 -0.3571 -0.5825 -2.4031
 1716SOL     OW16780   3.393   3.219   7.463 -0.2997 -0.1495 -0.1322
 1716SOL    HW116781   3.353   3.302   7.436  0.4794  0.2054 -0.2010
 1716SOL    HW216782   3.479   3.248   7.492  0.0624 -0.6132 -0.7328
 1717SOL     OW16783   4.486   0.836   8.496  0.1608 -0.1424 -0.7122
 1717SOL    HW116784   4.568   0.819   8.544 -0.6401  0.4650  0.8791
 1717SOL    HW216785   4.448   0.748   8.497 -1.9691  0.8011  1.8331
 1718SOL     OW16786   2.728   1.228   9.068 -0.2876 -0.7308 -0.5150
 1718SOL    HW116787   2.666   1.283   9.115  0.3186 -0.9093  0.4905
 1718SOL    HW216788   2.690   1.141   9.077 -1.4731 -0.2029 -0.4122
 1719SOL     OW16789   1.559   4.166   7.196  0.0291 -0.2040  0.0604
 1719SOL    HW116790   1.498   4.187   7.266 -2.4603 -0.0584 -2.1374
 1719SOL    HW216791   1.495   4.126   7.137 -0.2294  1.0107 -0.5017
 1720SOL     OW16792   2.586   1.666  17.459  0.4160 -0.3640  0.0706
 1720SOL    HW116793   2.559   1.621  17.378 -1.2845  1.9512 -0.6800
 1720SOL    HW216794   2.506   1.712  17.486  0.4767  0.3306 -0.9032
 1721SOL     OW16795   3.999   1.637   9.370 -0.4679  0.5261  0.1383
 1721SOL    HW116796   4.021   1.693   9.444  0.4576  1.1416 -0.6060
 1721SOL    HW216797   4.065   1.573   9.396 -0.5575  1.3837  2.4360
 1722SOL     OW16798   3.824   3.920   5.306 -0.5287  0.0393  0.0331
 1722SOL    HW116799   3.875   3.839   5.310 -1.5071 -0.6436 -1.3489
 1722SOL    HW216800   3.880   3.996   5.319 -0.5951  0.1144 -0.1277
 1723SOL     OW16801   3.771   3.373   4.017  0.1224  0.2729  0.0236
 1723SOL    HW116802   3.747   3.457   4.056  0.9126  1.1323 -1.3670
 1723SOL    HW216803   3.837   3.336   4.076  0.3455  0.3137 -0.2013
 1724SOL     OW16804   4.730   2.436   7.490  0.1509  0.0213  0.7417
 1724SOL    HW116805   4.652   2.487   7.513  0.0831  1.0736 -1.7750
 1724SOL    HW216806   0.032   2.457   7.576 -0.1369  0.7400  0.6986
 1725SOL     OW16807   3.177   1.703  17.127  0.0880  0.1179  0.5679
 1725SOL    HW116808   3.264   1.690  17.164  0.0801 -1.4314  0.0617
 1725SOL    HW216809   3.200   1.749  17.046  2.4693  0.7967  1.6443
 1726SOL     OW16810   2.544   3.473   6.296 -0.1664  0.0906  0.3671
 1726SOL    HW116811   2.534   3.494   6.389 -1.4428 -2.5630  0.8406
 1726SOL    HW216812   2.569   3.558   6.262 -2.8360  1.0677  0.8383
 1727SOL     OW16813   2.479   0.642   2.894 -0.5389 -0.9635 -0.3314
 1727SOL    HW116814   2.439   0.577   2.952  1.2198 -1.0413  0.8002
 1727SOL    HW216815   2.410   0.649   2.828 -1.3263 -4.1024  0.1650
 1728SOL     OW16816   4.459   1.029   7.121  0.0228 -0.6486 -0.6519
 1728SOL    HW116817   4.526   1.010   7.186  2.2993 -1.3803 -3.1938
 1728SOL    HW216818   4.435   1.119   7.142  2.9798 -0.2585  0.9333
 1729SOL     OW16819   1.000   4.261  15.773  0.8215  0.9629  0.4237
 1729SOL    HW116820   0.926   4.223  15.725  2.3650  1.0025 -1.9970
 1729SOL    HW216821   1.046   4.309  15.705  1.4910  0.3530  0.4452
 1730SOL     OW16822   2.252   2.299   7.875  0.0666 -0.0246 -0.3844
 1730SOL    HW116823   2.170   2.335   7.843 -0.2627 -1.0515 -0.6822
 1730SOL    HW216824   2.312   2.338   7.812  0.7841  2.0612  1.5766
 1731SOL     OW16825   1.605   1.894  13.985  0.0717  0.1807  0.2452
 1731SOL    HW116826   1.587   1.915  13.894 -0.5291 -1.5987 -0.0448
 1731SOL    HW216827   1.623   1.981  14.021  0.0815 -0.1161  0.9677
 1732SOL     OW16828   4.692   1.248   6.451 -0.0553  0.1537 -0.2441
 1732SOL    HW116829   4.604   1.282   6.439  0.4138  0.5992 -2.2820
 1732SOL    HW216830   4.684   1.173   6.511  1.0364  0.0864 -0.1820
 1733SOL     OW16831   2.117   1.499   6.793  0.0105  0.1155  0.0911
 1733SOL    HW116832   2.030   1.509   6.831 -1.1676 -0.5203 -2.4250
 1733SOL    HW216833   2.107   1.546   6.710 -0.2951 -1.1648 -0.5841
 1734SOL     OW16834   1.424   2.230   1.534  0.1111  0.2345 -0.0920
 1734SOL    HW116835   1.335   2.234   1.500  0.0186  1.6826  0.2975
 1734SOL    HW216836   1.441   2.138   1.555 -0.6375 -0.1315 -1.1285
 1735SOL     OW16837   0.403   0.006   3.176  0.0507 -0.4240  0.2582
 1735SOL    HW116838   0.489   4.733   3.135  1.5542 -2.1056  3.6532
 1735SOL    HW216839   0.360   4.658   3.156 -1.2256 -0.2530  2.3073
 1736SOL     OW16840   1.107   2.382  14.850  0.0148  0.8870 -0.1475
 1736SOL    HW116841   1.080   2.453  14.792  2.1796  1.9687  0.1619
 1736SOL    HW216842   1.025   2.334  14.854  0.4578  0.0356 -1.2648
 1737SOL     OW16843   2.353   2.439  11.738  0.6926 -0.5680  0.0003
 1737SOL    HW116844   2.299   2.511  11.705  1.3600 -0.5461 -1.0474
 1737SOL    HW216845   2.294   2.363  11.736 -0.5065  0.3402  1.2442
 1738SOL     OW16846   3.538   1.825  16.847 -0.7561  0.0226  0.0105
 1738SOL    HW116847   3.610   1.876  16.811 -0.7611  0.1354  0.1629
 1738SOL    HW216848   3.533   1.842  16.941 -2.5370  4.0533 -0.8214
 1739SOL     OW16849   3.201   3.362   7.300 -0.0058 -0.2907  0.8274
 1739SOL    HW116850   3.237   3.379   7.213  3.0392 -1.1115  1.9362
 1739SOL    HW216851   3.198   3.453   7.332  1.1881 -1.1718  3.4929
 1740SOL     OW16852   1.440   4.054   7.892 -0.2193  0.2892  0.1852
 1740SOL    HW116853   1.427   3.960   7.904 -0.8173  0.5576  1.6585
 1740SOL    HW216854   1.510   4.055   7.828  1.1776 -1.0247  1.6809
 1741SOL     OW16855   4.448   2.841   2.562  0.6338 -0.9153 -0.1708
 1741SOL    HW116856   4.449   2.746   2.579 -3.7594 -0.8147  0.4203
 1741SOL    HW216857   4.500   2.874   2.635 -2.5816 -0.4228  1.8811
 1742SOL     OW16858   4.157   4.497   4.573  0.0470  0.3550  0.1863
 1742SOL    HW116859   4.234   4.468   4.524  0.2058 -0.6088  1.0029
 1742SOL    HW216860   4.084   4.458   4.526  1.3839 -0.3205 -1.3382
 1743SOL     OW16861   2.019   3.526   7.403 -0.0250 -0.2651  0.3018
 1743SOL    HW116862   1.942   3.507   7.348  0.8398  0.3141 -1.0873
 1743SOL    HW216863   2.092   3.490   7.352 -0.6239 -3.1701  1.4553
 1744SOL     OW16864   0.065   2.308   8.339  0.0251  0.3393 -0.1521
 1744SOL    HW116865   0.082   2.390   8.293 -0.8796  1.2052  1.0545
 1744SOL    HW216866   4.711   2.286   8.312 -0.3971  1.2883  0.4627
 1745SOL     OW16867   1.480   4.686   4.878 -0.1143 -0.2023  0.0483
 1745SOL    HW116868   1.509   0.036   4.844  0.2587 -1.0246 -1.6778
 1745SOL    HW216869   1.526   4.632   4.814  1.6569  0.4313  0.7714
 1746SOL     OW16870   3.202   2.315   6.037 -0.5383  0.3308  0.4733
 1746SOL    HW116871   3.295   2.324   6.060 -0.8392 -0.2535  1.9219
 1746SOL    HW216872   3.173   2.240   6.090  0.8064 -1.2843 -1.0654
 1747SOL     OW16873   0.377   1.344   8.816  0.2546 -0.3817  0.5698
 1747SOL    HW116874   0.426   1.406   8.870  2.3588 -2.2106  0.7919
 1747SOL    HW216875   0.302   1.340   8.876  1.6945  1.4519  2.4904
 1748SOL     OW16876   2.167   2.159   3.202 -0.1490 -0.1733 -0.1933
 1748SOL    HW116877   2.239   2.207   3.245 -1.0668 -1.2937  2.6043
 1748SOL    HW216878   2.217   2.146   3.121  1.5139  0.0918  0.7744
 1749SOL     OW16879   4.121   0.040   5.718 -0.2499 -0.5945 -0.1938
 1749SOL    HW116880   4.171   4.734   5.789 -1.4516 -1.6483  0.0410
 1749SOL    HW216881   4.079   0.105   5.773 -0.2303  0.2002 -1.1145
 1750SOL     OW16882   1.979   0.285  12.227  0.1539  0.5327 -0.2728
 1750SOL    HW116883   1.980   0.334  12.310 -1.2771 -1.6004  1.0004
 1750SOL    HW216884   1.928   0.338  12.165 -0.4811 -1.1637 -1.1860
 1751SOL     OW16885   3.009   2.774   2.724 -0.0959  0.2799  0.3177
 1751SOL    HW116886   2.963   2.694   2.748 -1.2649  0.4495 -1.3251
 1751SOL    HW216887   3.078   2.742   2.665  1.1707 -0.1135  2.0068
 1752SOL     OW16888   4.339   0.437   4.986 -0.1291 -0.0553 -0.6974
 1752SOL    HW116889   4.384   0.485   4.916 -0.1679  1.4000  0.2776
 1752SOL    HW216890   4.252   0.476   4.984 -0.0364  0.1272 -1.1046
 1753SOL     OW16891   2.013   2.133   8.010  0.1889 -0.6031 -0.1902
 1753SOL    HW116892   2.080   2.186   7.968 -1.9481  1.4013 -1.0663
 1753SOL    HW216893   1.932   2.155   7.963 -0.3081 -1.5033  0.2458
 1754SOL     OW16894   4.445   1.305   5.033 -0.1434  1.1865  0.1973
 1754SOL    HW116895   4.498   1.324   4.955 -0.1061  0.6722  0.0999
 1754SOL    HW216896   4.364   1.349   5.008 -0.8229  0.6343  1.4439
 1755SOL     OW16897   2.109   0.388   2.227 -0.3001  0.1726  0.2245
 1755SOL    HW116898   2.133   0.296   2.215 -0.1067  0.3545 -0.7573
 1755SOL    HW216899   2.045   0.405   2.157 -1.8677 -1.8091  1.1757
 1756SOL     OW16900   0.958   1.387   2.729 -0.6690  0.4752 -0.0101
 1756SOL    HW116901   1.045   1.393   2.690 -1.3196 -0.6806 -1.6186
 1756SOL    HW216902   0.980   1.432   2.811  0.6526  1.5123 -0.9255
 1757SOL     OW16903   0.242   3.000   3.549  0.0455  0.0746 -0.2688
 1757SOL    HW116904   0.271   3.057   3.620 -0.4512 -0.9166  0.7326
 1757SOL    HW216905   0.159   2.982   3.593 -0.7682  1.7855 -1.1205
 1758SOL     OW16906   3.736   0.992   0.983  0.3921  0.1694 -0.2804
 1758SOL    HW116907   3.814   1.047   0.991 -0.2878  1.0780  0.0348
 1758SOL    HW216908   3.768   0.934   0.913  0.8437 -0.0382  0.1024
 1759SOL     OW16909   2.565   3.203   9.165  0.5395 -0.7451 -0.1928
 1759SOL    HW116910   2.483   3.219   9.212  0.2568 -1.7875 -0.3344
 1759SOL    HW216911   2.532   3.125   9.120 -1.2304  0.7225 -1.4678
 1760SOL     OW16912   1.867   2.236   9.729  0.4368  0.6873 -0.1434
 1760SOL    HW116913   1.786   2.186   9.732  1.3167 -0.6783  0.9496
 1760SOL    HW216914   1.874   2.257   9.823  0.2331 -0.3392  0.1028
 1761SOL     OW16915   2.182   0.635  14.315 -0.3326 -0.9834  0.0101
 1761SOL    HW116916   2.187   0.543  14.290  2.6414  0.3574 -4.3413
 1761SOL    HW216917   2.119   0.665  14.249 -0.6706  0.6287  1.0527
 1762SOL     OW16918   1.101   0.528  11.981 -0.3986 -0.0520 -0.4954
 1762SOL    HW116919   1.183   0.546  11.937  0.4967  0.1950  1.2583
 1762SOL    HW216920   1.093   0.437  11.954 -1.7918 -0.6092  1.7916
 1763SOL     OW16921   0.259   3.882  17.681 -0.3324  0.3949  0.2028
 1763SOL    HW116922   0.205   3.910   0.016 -0.4242 -1.4337  0.8272
 1763SOL    HW216923   0.202   3.859  17.607 -1.7177  0.2026  1.3363
 1764SOL     OW16924   3.175   1.223  10.073  0.0655 -0.4152 -0.1524
 1764SOL    HW116925   3.214   1.308  10.090  0.0567 -0.8474  1.9925
 1764SOL    HW216926   3.128   1.210  10.156  1.0689 -0.7288  0.3662
 1765SOL     OW16927   2.599   3.423   5.438  1.1015 -0.3872  0.2940
 1765SOL    HW116928   2.531   3.362   5.463  0.1296  0.3699 -0.4783
 1765SOL    HW216929   2.606   3.414   5.343  0.3815 -0.6728  0.2664
 1766SOL     OW16930   0.147   3.211   3.198 -0.4625  0.1798 -0.2763
 1766SOL    HW116931   0.066   3.165   3.220 -0.5473  0.2382 -0.4717
 1766SOL    HW216932   0.213   3.141   3.197 -2.8847 -2.1683  1.6008
 1767SOL     OW16933   2.001   4.644   8.299 -0.6076 -0.0377  0.2634
 1767SOL    HW116934   1.917   4.686   8.321 -1.9232 -0.7496 -3.4755
 1767SOL    HW216935   1.986   4.623   8.207  1.3119 -2.5777  0.5337
 1768SOL     OW16936   2.309   2.027   8.202  0.2194  0.3247 -0.5345
 1768SOL    HW116937   2.243   2.031   8.270  2.4903  1.3823  1.6062
 1768SOL    HW216938   2.353   1.942   8.212 -0.9101 -0.1223  0.5223
 1769SOL     OW16939   2.613   4.724   4.999  0.1995  0.0410  0.4430
 1769SOL    HW116940   2.708   4.717   4.990  0.2486  0.6597  0.4909
 1769SOL    HW216941   2.591   4.662   4.929  1.5603  1.8216 -1.5825
 1770SOL     OW16942   0.922   4.059  13.661 -0.5203 -0.6054  0.3708
 1770SOL    HW116943   0.846   4.004  13.679  0.6817 -2.0334  1.0739
 1770SOL    HW216944   0.940   4.054  13.567 -1.4560  0.0332  0.1673
 1771SOL     OW16945   4.393   0.620   6.131 -0.5299  0.1538 -0.3405
 1771SOL    HW116946   4.316   0.647   6.180 -0.0008  0.2964  0.4182
 1771SOL    HW216947   4.422   0.705   6.097  1.0033 -1.0286 -2.0010
 1772SOL     OW16948   4.062   3.590  12.181  0.1255 -0.0848 -0.7809
 1772SOL    HW116949   4.067   3.525  12.110  2.1136  1.8903 -2.4421
 1772SOL    HW216950   4.096   3.542  12.257  0.2567  2.3600  0.6974
 1773SOL     OW16951   2.806   2.318   1.901 -0.0477  0.0351 -0.1657
 1773SOL    HW116952   2.796   2.409   1.875 -1.0004  0.0058  0.0891
 1773SOL    HW216953   2.738   2.309   1.968 -1.3752  2.1338 -1.2419
 1774SOL     OW16954   4.596   1.594  16.490  0.5861  0.2680  0.0944
 1774SOL    HW116955   4.556   1.609  16.576  1.9526  2.6222  0.3188
 1774SOL    HW216956   4.683   1.565  16.516  1.2317 -0.1056 -2.5415
 1775SOL     OW16957   4.630   3.035  15.289  0.3840  0.0478  0.1248
 1775SOL    HW116958   4.706   3.059  15.235 -0.3033  3.5326  0.7057
 1775SOL    HW216959   4.665   3.030  15.378  0.5615 -3.8817 -0.1644
 1776SOL     OW16960   1.601   1.925   8.035 -0.2860  0.1183  0.1767
 1776SOL    HW116961   1.647   1.893   7.957 -0.5085  1.4882 -0.5171
 1776SOL    HW216962   1.534   1.857   8.037 -0.4828  0.2700 -1.2835
 1777SOL     OW16963   1.298   0.778   1.602  0.1051  0.0312 -0.2214
 1777SOL    HW116964   1.287   0.872   1.614  1.1686  0.0591  0.6734
 1777SOL    HW216965   1.346   0.768   1.685  0.6924  2.2000 -0.2994
 1778SOL     OW16966   1.787   2.444  14.777  0.4108  0.1611  0.0021
 1778SOL    HW116967   1.844   2.395  14.717  0.1936 -3.0718  2.4662
 1778SOL    HW216968   1.720   2.376  14.778 -0.3499  0.9275  0.6826
 1779SOL     OW16969   4.588   1.092  16.069 -0.6026 -0.2666  0.1229
 1779SOL    HW116970   4.602   1.169  16.125  0.4607  0.9016 -1.7335
 1779SOL    HW216971   4.558   1.120  15.983 -1.3869  1.8834  1.0998
 1780SOL     OW16972   4.536   1.595   4.024  0.0441  0.1559  0.0450
 1780SOL    HW116973   4.506   1.673   4.071 -0.6307 -0.4967  0.7086
 1780SOL    HW216974   4.556   1.648   3.947  1.4331  0.5496  0.6769
 1781SOL     OW16975   0.083   0.195   0.749  0.0252  0.2833 -0.0793
 1781SOL    HW116976   0.150   0.217   0.815 -1.2857 -0.0463  1.3567
 1781SOL    HW216977   0.120   0.237   0.672 -0.3162  0.8200  0.0506
 1782SOL     OW16978   0.240   1.183   2.744  0.0518 -0.2424  0.4050
 1782SOL    HW116979   0.307   1.180   2.676 -0.2095  2.5852  0.0029
 1782SOL    HW216980   0.226   1.092   2.767 -1.9180  0.2321  1.0625
 1783SOL     OW16981   2.903   0.308  12.422 -0.7178  0.0423  0.3789
 1783SOL    HW116982   2.872   0.232  12.472  2.6938 -2.0140 -0.6722
 1783SOL    HW216983   2.890   0.378  12.487  2.6744 -0.4561  1.6041
 1784SOL     OW16984   2.250   0.075   5.192  0.2780 -0.4301 -0.3438
 1784SOL    HW116985   2.174   0.117   5.233  1.4580  1.1396  0.2575
 1784SOL    HW216986   2.266   0.136   5.120  0.4640 -2.2034 -1.7788
 1785SOL     OW16987   0.605   1.375  13.005 -0.5962  0.2283 -0.0816
 1785SOL    HW116988   0.584   1.408  13.092  0.0658  1.4739 -0.3861
 1785SOL    HW216989   0.612   1.459  12.960  3.4227  0.5860  1.1948
 1786SOL     OW16990   3.932   3.646   8.741 -0.4367 -0.0907  0.1650
 1786SOL    HW116991   3.865   3.602   8.689 -0.4697  0.3108 -0.1341
 1786SOL    HW216992   3.953   3.583   8.810  0.8717  0.7638  0.5363
 1787SOL     OW16993   2.048   1.994   3.921  0.0621  0.1428  0.0612
 1787SOL    HW116994   2.131   2.036   3.942 -0.3612  1.2461 -0.4963
 1787SOL    HW216995   2.024   2.058   3.854  0.6444  1.7213  1.3717
 1788SOL     OW16996   4.237   2.466   4.890  0.2767 -0.2384  0.4529
 1788SOL    HW116997   4.253   2.473   4.984 -3.6235  2.8081  0.9009
 1788SOL    HW216998   4.286   2.388   4.863 -1.7755 -0.9806 -1.0656
 1789SOL     OW16999   3.467   3.168   3.893  0.6654 -0.0780 -0.2379
 1789SOL    HW117000   3.466   3.261   3.871  2.3908 -0.1278 -0.5534
 1789SOL    HW217001   3.376   3.162   3.924  0.9536 -2.1528  0.1746
 1790SOL     OW17002   4.296   0.136  13.881 -0.2485 -0.1017  0.5633
 1790SOL    HW117003   4.204   0.142  13.856 -0.0693  2.6637  0.5834
 1790SOL    HW217004   4.331   0.099  13.800  1.6029 -0.6990  1.6262
 1791SOL     OW17005   2.161   1.913   7.664  0.4678 -0.7276 -0.1401
 1791SOL    HW117006   2.178   1.832   7.712  2.4426 -0.2992 -0.0829
 1791SOL    HW217007   2.247   1.951   7.644  0.3541 -0.5397 -0.2622
 1792SOL     OW17008   2.410   0.971   3.590  0.0657  0.0879  1.1059
 1792SOL    HW117009   2.498   0.932   3.594  0.0522 -0.1433 -1.0239
 1792SOL    HW217010   2.348   0.898   3.588 -0.0020  0.2158 -1.6891
 1793SOL     OW17011   4.280   4.165  14.713  0.2386  0.4850 -0.1142
 1793SOL    HW117012   4.294   4.127  14.626  2.5304  0.0093  0.4526
 1793SOL    HW217013   4.282   4.089  14.772 -1.6174  0.2091 -0.4091
 1794SOL     OW17014   0.567   0.953   3.650  0.1815 -0.0977 -0.0670
 1794SOL    HW117015   0.478   0.951   3.686 -0.9963 -1.4968 -2.9934
 1794SOL    HW217016   0.618   0.956   3.730  1.5231  3.1645 -1.0447
 1795SOL     OW17017   4.308   3.248   5.996  0.2139 -0.5535 -0.4214
 1795SOL    HW117018   4.360   3.179   5.956 -0.0409 -0.3310 -1.1307
 1795SOL    HW217019   4.237   3.196   6.033  0.6299 -1.6742 -1.2096
 1796SOL     OW17020   0.496   2.873   9.701 -0.0463  0.3749  0.1745
 1796SOL    HW117021   0.428   2.893   9.636 -0.6271  0.8125  0.9122
 1796SOL    HW217022   0.445   2.896   9.779  0.3732 -1.0749  0.8816
 1797SOL     OW17023   2.508   4.299  15.629  0.7504 -0.5526 -0.2426
 1797SOL    HW117024   2.476   4.338  15.711 -0.5174 -2.2168  0.0593
 1797SOL    HW217025   2.514   4.378  15.575  1.1007 -0.9669 -0.8044
 1798SOL     OW17026   0.954   3.297   4.911  0.7532  0.5111  0.3499
 1798SOL    HW117027   0.965   3.287   4.817 -0.1765  1.7706  0.1056
 1798SOL    HW217028   0.938   3.205   4.934  1.1754  0.7414  1.5821
 1799SOL     OW17029   2.966   0.361   0.836  0.3046  0.7118 -0.6330
 1799SOL    HW117030   3.041   0.323   0.789  0.5049 -2.2905  2.1311
 1799SOL    HW217031   2.909   0.289   0.864 -1.0025  1.3797 -1.5822
 1800SOL     OW17032   0.777   4.609   1.466  0.4159  0.4759  0.7948
 1800SOL    HW117033   0.699   4.554   1.467  0.4043  0.4879 -0.5420
 1800SOL    HW217034   0.839   4.541   1.443 -1.2462 -0.1984 -1.6435
 1801SOL     OW17035   4.669   2.223   5.088  0.0973  0.1066 -0.0409
 1801SOL    HW117036   4.580   2.243   5.114  0.5588  0.0542  1.5995
 1801SOL    HW217037   4.677   2.135   5.126  0.5108 -0.3587 -1.2062
 1802SOL     OW17038   3.874   3.618   9.558 -0.3139  0.4141  0.4212
 1802SOL    HW117039   3.961   3.633   9.593  0.3785 -1.9038 -0.3421
 1802SOL    HW217040   3.865   3.678   9.484  1.4209  1.9197  1.4417
 1803SOL     OW17041   2.146   2.296   0.652 -0.2928  0.4616  0.2685
 1803SOL    HW117042   2.195   2.310   0.570 -0.3998 -0.1277  0.1022
 1803SOL    HW217043   2.212   2.258   0.711  0.9850 -0.0218 -1.4520
 1804SOL     OW17044   4.320   3.439   4.076 -0.2151  0.2035  0.0039
 1804SOL    HW117045   4.266   3.400   4.007 -0.1309 -1.2201  0.7364
 1804SOL    HW217046   4.349   3.518   4.030  0.9471  0.2219  0.7745
 1805SOL     OW17047   2.839   1.566   8.701  0.0249 -0.1841  0.0574
 1805SOL    HW117048   2.895   1.586   8.626 -0.7097  1.3319 -0.0937
 1805SOL    HW217049   2.864   1.478   8.728  0.8682  0.2957  0.8195
 1806SOL     OW17050   0.211   3.844   4.984  0.0130  0.1780 -0.2132
 1806SOL    HW117051   0.289   3.877   5.028 -0.0932 -0.5512  0.5171
 1806SOL    HW217052   0.212   3.754   5.016  2.2154  0.6873  1.0843
 1807SOL     OW17053   0.203   2.191  16.209 -0.2816 -0.9237  0.0691
 1807SOL    HW117054   0.230   2.255  16.144  1.2073  0.4579  2.0704
 1807SOL    HW217055   0.152   2.129  16.157 -1.8414  1.3499 -1.0662
 1808SOL     OW17056   4.246   2.093  16.920 -0.4341 -0.0839 -0.0381
 1808SOL    HW117057   4.258   2.186  16.939  0.6549 -0.2020 -0.1286
 1808SOL    HW217058   4.158   2.084  16.884 -0.1922  2.6867 -1.3035
 1809SOL     OW17059   2.716   0.099   5.934  0.1016 -0.1149 -0.0085
 1809SOL    HW117060   2.635   0.071   5.891  0.2084 -0.7553  0.2004
 1809SOL    HW217061   2.679   0.135   6.014 -2.3140 -0.8157 -0.7992
 1810SOL     OW17062   4.022   1.117   0.060 -0.0604  0.1493  0.0479
 1810SOL    HW117063   4.097   1.106   0.001 -0.6665  1.9928 -1.0816
 1810SOL    HW217064   4.034   1.210   0.077 -0.5100  0.3841 -0.8996
 1811SOL     OW17065   4.510   1.022   3.038 -0.3269 -0.1424 -0.3902
 1811SOL    HW117066   4.553   1.005   2.954  1.9535  0.0908  0.7343
 1811SOL    HW217067   4.552   1.107   3.049 -0.2873 -0.3031  0.6824
 1812SOL     OW17068   2.244   2.153   4.147  0.5591 -0.3786  0.0053
 1812SOL    HW117069   2.276   2.216   4.212  2.0606 -0.3616 -0.7426
 1812SOL    HW217070   2.327   2.117   4.116  1.0352  0.5858  0.1449
 1813SOL     OW17071   0.886   1.760   1.542  0.2558  0.8330 -0.0413
 1813SOL    HW117072   0.969   1.807   1.539  0.1247  1.1653  1.4814
 1813SOL    HW217073   0.840   1.807   1.612  2.3736  1.3184  1.0137
 1814SOL     OW17074   1.071   3.039   3.544 -0.4392 -0.4875 -0.1808
 1814SOL    HW117075   1.150   3.066   3.591 -2.2339  1.7716  1.5282
 1814SOL    HW217076   1.026   3.122   3.529 -0.5874 -0.2876  1.4754
 1815SOL     OW17077   3.785   3.841   4.220  0.3032 -0.4928  0.7513
 1815SOL    HW117078   3.702   3.802   4.245  0.9290 -1.4308  1.3630
 1815SOL    HW217079   3.807   3.880   4.305 -0.7129 -0.1330  0.8449
 1816SOL     OW17080   3.865   1.459   2.368  0.3619 -0.1253  0.1255
 1816SOL    HW117081   3.913   1.376   2.365  0.8277  0.1817 -0.7745
 1816SOL    HW217082   3.785   1.435   2.415 -0.4873 -0.8538 -1.6660
 1817SOL     OW17083   2.023   1.734   1.815  0.1334 -0.3800  0.8727
 1817SOL    HW117084   1.991   1.779   1.737 -0.2521  2.7376  2.8174
 1817SOL    HW217085   1.960   1.757   1.883  0.4266 -1.0326  1.3632
 1818SOL     OW17086   0.858   1.136   5.250  0.7384 -0.0968 -0.1196
 1818SOL    HW117087   0.824   1.116   5.163 -1.1245 -0.7289  0.7679
 1818SOL    HW217088   0.925   1.199   5.222  0.6596 -0.1092 -0.3354
 1819SOL     OW17089   3.497   4.531  17.261 -0.1469  0.1716  0.1311
 1819SOL    HW117090   3.505   4.458  17.199  3.6078  0.3651  0.3803
 1819SOL    HW217091   3.447   4.490  17.332  1.3517 -2.0270 -0.0568
 1820SOL     OW17092   2.508   2.793  10.047 -0.1699 -0.2219 -0.0021
 1820SOL    HW117093   2.516   2.703  10.015 -1.5617  0.0101 -0.9699
 1820SOL    HW217094   2.510   2.779  10.142  0.2977 -1.0165 -0.1212
 1821SOL     OW17095   4.535   0.144   8.591  0.7172 -0.1927 -0.1003
 1821SOL    HW117096   4.477   0.071   8.611  1.2504 -0.0133  2.0724
 1821SOL    HW217097   4.560   0.174   8.678  0.2685  0.0983 -0.0699
 1822SOL     OW17098   2.156   0.741   4.303 -0.6743  0.0150 -0.4928
 1822SOL    HW117099   2.132   0.833   4.313 -0.4936  0.0372 -0.2395
 1822SOL    HW217100   2.137   0.728   4.210  0.5041 -1.8914 -0.4856
 1823SOL     OW17101   0.999   2.257   4.907  0.2020  0.1019 -0.6919
 1823SOL    HW117102   1.081   2.302   4.888  0.7475 -0.2000  0.9657
 1823SOL    HW217103   1.009   2.250   5.002  0.1396  2.2984 -0.5248
 1824SOL     OW17104   1.579   3.810   5.952  0.9327 -0.3663  0.2628
 1824SOL    HW117105   1.659   3.786   5.999  1.0934 -2.2794 -0.9967
 1824SOL    HW217106   1.557   3.892   5.996  1.2540  0.2928 -0.7902
 1825SOL     OW17107   0.525   0.926   8.859 -0.6627  0.0658 -0.6625
 1825SOL    HW117108   0.591   0.896   8.798  0.9143  2.3783 -0.0762
 1825SOL    HW217109   0.457   0.858   8.853 -1.0584  0.3401  0.7082
 1826SOL     OW17110   0.185   1.433  17.559 -0.4873  0.6394  0.2028
 1826SOL    HW117111   0.098   1.394  17.569 -0.3144  0.5614  1.4238
 1826SOL    HW217112   0.223   1.375  17.493  2.0584  0.1349  2.1345
 1827SOL     OW17113   2.864   1.272   3.820  0.6826 -0.1151  0.6107
 1827SOL    HW117114   2.926   1.284   3.892 -0.7040  1.5968  1.5025
 1827SOL    HW217115   2.855   1.359   3.783  2.5504 -0.9481 -1.8670
 1828SOL     OW17116   1.324   1.399   5.241 -0.2181 -0.1367 -0.0950
 1828SOL    HW117117   1.300   1.399   5.334 -0.1827 -0.0090 -0.0851
 1828SOL    HW217118   1.418   1.381   5.236  0.3529  2.5103  1.1126
 1829SOL     OW17119   1.998   3.647   5.121  0.0031 -0.7532 -0.0861
 1829SOL    HW117120   1.911   3.646   5.161 -1.5616  1.6375 -3.3530
 1829SOL    HW217121   2.050   3.646   5.201 -3.6201  1.2734  2.3086
 1830SOL     OW17122   1.847   1.627   6.807  0.2220 -0.1809 -0.1652
 1830SOL    HW117123   1.848   1.674   6.891 -1.4496 -0.7370  0.1763
 1830SOL    HW217124   1.904   1.668   6.742  1.9441 -0.5088  1.1466
 1831SOL     OW17125   1.857   2.619   8.720 -0.3474  0.0070 -0.1673
 1831SOL    HW117126   1.787   2.620   8.785 -0.2107 -1.6238 -0.0019
 1831SOL    HW217127   1.934   2.663   8.754 -0.0700 -0.2130 -0.5066
 1832SOL     OW17128   1.720   1.369  14.218 -0.1216  0.0195  0.1155
 1832SOL    HW117129   1.804   1.411  14.240  0.7658 -1.4262 -0.5005
 1832SOL    HW217130   1.671   1.445  14.187 -0.1189  0.4567  1.1943
 1833SOL     OW17131   2.034   0.002   3.478 -0.1067  0.2639 -0.0604
 1833SOL    HW117132   2.103   0.050   3.432  1.8913 -1.0471  1.5731
 1833SOL    HW217133   1.951   0.035   3.443  0.9544  1.5740 -1.2988
 1834SOL     OW17134   1.620   1.976   6.247 -0.2267  0.6227  0.0217
 1834SOL    HW117135   1.561   1.946   6.178 -1.9574  1.3381  1.1783
 1834SOL    HW217136   1.624   1.893   6.295  2.0828  0.5760 -0.2601
 1835SOL     OW17137   3.647   4.249   2.041 -0.1426  0.6787  0.0361
 1835SOL    HW117138   3.565   4.209   2.011 -0.3687  1.3732 -0.2854
 1835SOL    HW217139   3.613   4.306   2.109  2.5599  1.4168  0.7511
 1836SOL     OW17140   1.467   4.634   5.142 -0.0574  0.1251 -0.0262
 1836SOL    HW117141   1.496   4.643   5.051  0.6916 -1.8848  0.0279
 1836SOL    HW217142   1.555   4.643   5.179  0.2041  0.9802 -0.8467
 1837SOL     OW17143   2.989   3.299   3.303 -0.0275  0.2611 -0.2487
 1837SOL    HW117144   2.896   3.312   3.290 -0.3403 -1.7550 -0.0244
 1837SOL    HW217145   2.988   3.334   3.392 -0.3771  0.5625 -0.3713
 1838SOL     OW17146   4.374   1.761   9.488  0.0734  0.1320  0.0728
 1838SOL    HW117147   4.314   1.692   9.517  0.2226  0.2397  0.6234
 1838SOL    HW217148   4.327   1.840   9.516 -0.6517 -1.1799  2.5674
 1839SOL     OW17149   0.571   3.381   8.313 -0.1597 -0.2603  0.0001
 1839SOL    HW117150   0.532   3.315   8.371  1.4523 -0.4408  0.8766
 1839SOL    HW217151   0.606   3.447   8.374  2.6528  0.0289 -1.9372
 1840SOL     OW17152   4.409   4.101   8.493  0.4956  0.3008 -0.0736
 1840SOL    HW117153   4.389   4.066   8.579 -0.1494  0.5485 -0.1252
 1840SOL    HW217154   4.409   4.019   8.444  1.4510  1.1595 -1.5199
 1841SOL     OW17155   1.728   0.618  10.439 -0.1800 -0.0281 -0.5959
 1841SOL    HW117156   1.778   0.685  10.485 -0.2777 -0.6600  0.4348
 1841SOL    HW217157   1.792   0.553  10.411 -0.8455 -1.2914  0.7606
 1842SOL     OW17158   1.720   4.056  14.809 -0.0413 -0.4007  0.6654
 1842SOL    HW117159   1.765   4.038  14.892  0.6652 -0.1096  0.3433
 1842SOL    HW217160   1.633   4.016  14.816 -0.4780  0.5068  0.3833
 1843SOL     OW17161   1.351   1.451   7.878  0.2750  0.6324 -0.3662
 1843SOL    HW117162   1.413   1.382   7.901 -1.0473 -0.3807  0.1184
 1843SOL    HW217163   1.308   1.465   7.963 -0.8027 -1.5177 -0.5505
 1844SOL     OW17164   2.660   4.235   0.834  0.2267 -0.3952 -1.1571
 1844SOL    HW117165   2.697   4.235   0.922  0.6888 -1.0616 -1.3603
 1844SOL    HW217166   2.587   4.175   0.847  0.4327  0.2078  2.7912
 1845SOL     OW17167   1.449   1.706   7.424 -0.4810  0.1784  0.1250
 1845SOL    HW117168   1.452   1.737   7.514  1.0871  1.4645 -0.3856
 1845SOL    HW217169   1.530   1.744   7.392 -0.6137  1.0709  0.8731
 1846SOL     OW17170   3.811   3.185  10.137  0.7901 -0.2518 -0.3470
 1846SOL    HW117171   3.740   3.175  10.201 -0.2897 -1.2536 -1.6955
 1846SOL    HW217172   3.874   3.229  10.194  1.2464  0.9866 -1.8129
 1847SOL     OW17173   4.365   0.381   6.495  0.2851  0.2022  0.3638
 1847SOL    HW117174   4.299   0.315   6.473  0.8907 -0.7520  1.4052
 1847SOL    HW217175   4.440   0.335   6.459  0.9821  2.3844 -0.9655
 1848SOL     OW17176   1.038   2.288   2.158 -0.1723 -0.3827  0.3695
 1848SOL    HW117177   1.006   2.213   2.109  2.6048 -0.7964 -0.7974
 1848SOL    HW217178   1.131   2.270   2.170  0.1031 -0.1921 -1.5966
 1849SOL     OW17179   1.717   2.485  10.058 -0.3839  0.3759 -0.0653
 1849SOL    HW117180   1.694   2.399  10.023  0.5876 -0.1371  0.5968
 1849SOL    HW217181   1.685   2.536   9.983 -1.7745 -0.1309  0.1803
 1850SOL     OW17182   4.615   0.984  10.764  0.1789  0.0577  0.0442
 1850SOL    HW117183   4.661   0.955  10.843 -0.2530 -0.7423 -0.0021
 1850SOL    HW217184   4.618   1.080  10.762  2.3778 -0.0684 -4.0303
 1851SOL     OW17185   3.338   4.159  16.923  0.1104  0.3122 -0.0799
 1851SOL    HW117186   3.252   4.200  16.935  0.2426  0.3121  0.8436
 1851SOL    HW217187   3.337   4.121  16.835  2.5343 -3.7928  1.6652
 1852SOL     OW17188   2.950   1.537   5.944 -0.2979  0.7227  0.2705
 1852SOL    HW117189   3.037   1.557   5.978  0.1360 -2.2770  0.9181
 1852SOL    HW217190   2.923   1.628   5.932  1.3825  1.1467 -0.2697
 1853SOL     OW17191   3.819   3.766   9.313  0.2830 -0.3278 -0.3071
 1853SOL    HW117192   3.809   3.758   9.218  2.9168 -0.1772 -0.6153
 1853SOL    HW217193   3.788   3.855   9.329 -1.2566 -0.6223 -1.6391
 1854SOL     OW17194   2.202   2.727  15.336 -0.4497 -0.1987 -0.2099
 1854SOL    HW117195   2.187   2.662  15.268  1.7540 -1.2765  0.3287
 1854SOL    HW217196   2.113   2.754  15.359 -0.0067  0.0165  1.2822
 1855SOL     OW17197   0.214   2.484  10.755  0.4754  0.3172  0.1426
 1855SOL    HW117198   0.141   2.451  10.702 -0.3485 -0.1688  1.5990
 1855SOL    HW217199   0.226   2.576  10.730  0.3666 -0.3198 -2.2927
 1856SOL     OW17200   0.112   3.943   0.178  0.3166  0.6520 -0.2329
 1856SOL    HW117201   0.133   4.036   0.190 -0.2297  0.6378  0.8838
 1856SOL    HW217202   0.023   3.945   0.214 -0.3484 -0.4778 -1.8609
 1857SOL     OW17203   0.211   2.093   6.031  0.1320  0.4221  0.5387
 1857SOL    HW117204   0.158   2.045   5.968 -0.5998 -0.8809  2.1317
 1857SOL    HW217205   0.295   2.098   5.985  0.2205  1.5107  0.8253
 1858SOL     OW17206   3.948   1.469   6.961 -0.2172 -0.4386  0.5001
 1858SOL    HW117207   4.009   1.465   7.034  0.7148 -1.4489 -0.3362
 1858SOL    HW217208   3.881   1.401   6.968  0.8599 -1.5701 -0.4615
 1859SOL     OW17209   4.207   3.374   6.487 -0.3486  0.5165 -0.2673
 1859SOL    HW117210   4.119   3.378   6.524 -0.7185  2.7539 -1.3720
 1859SOL    HW217211   4.228   3.281   6.486  2.4255  1.1536 -1.4707
 1860SOL     OW17212   1.164   3.250   2.494 -0.1375 -0.5934  0.1496
 1860SOL    HW117213   1.140   3.340   2.476 -0.6547 -0.4513  1.5352
 1860SOL    HW217214   1.087   3.194   2.481  0.1396 -1.0203  0.3264
 1861SOL     OW17215   3.411   4.526   4.057  0.2580 -0.1917 -0.0951
 1861SOL    HW117216   3.338   4.486   4.105  0.5368  0.9544  1.2408
 1861SOL    HW217217   3.479   4.535   4.124  1.3169 -1.1774 -1.0263
 1862SOL     OW17218   3.618   3.224   2.546  0.1018  0.1087 -0.3250
 1862SOL    HW117219   3.528   3.197   2.531  1.4094 -4.2406 -0.2909
 1862SOL    HW217220   3.664   3.155   2.594  2.4185  0.9287 -1.3586
 1863SOL     OW17221   0.907   1.293   1.524  0.0649 -0.1574  0.1611
 1863SOL    HW117222   0.959   1.297   1.605  0.7036  2.3483 -0.3732
 1863SOL    HW217223   0.941   1.369   1.477 -1.2121 -0.0372 -0.5717
 1864SOL     OW17224   0.752   0.787   0.542 -1.1247 -0.0895  0.1043
 1864SOL    HW117225   0.688   0.858   0.539  0.3039  1.3123  2.9300
 1864SOL    HW217226   0.836   0.824   0.516  1.0553 -2.3352  4.0659
 1865SOL     OW17227   0.696   2.379   3.508 -0.2310  0.0271 -0.0820
 1865SOL    HW117228   0.693   2.357   3.601  3.2168  0.5132  0.1519
 1865SOL    HW217229   0.785   2.415   3.499  0.1815 -1.0497 -0.2946
 1866SOL     OW17230   1.731   1.850   5.250  0.3142  0.1547 -0.6018
 1866SOL    HW117231   1.735   1.799   5.331  1.5624  2.0294  0.5078
 1866SOL    HW217232   1.636   1.843   5.243  0.1692  2.3958 -1.0167
 1867SOL     OW17233   3.486   0.634  15.596 -0.4463 -0.1816 -0.4574
 1867SOL    HW117234   3.424   0.673  15.658 -0.7395 -0.1807 -0.7459
 1867SOL    HW217235   3.435   0.561  15.561 -1.0501  1.1536 -2.3966
 1868SOL     OW17236   3.371   4.620   6.694 -0.3355  0.0658  0.1190
 1868SOL    HW117237   3.460   4.587   6.676  0.0931  2.1196 -1.5266
 1868SOL    HW217238   3.318   4.542   6.681 -0.8522  0.3410  0.5896
 1869SOL     OW17239   4.470   1.550  14.284  0.1388 -0.2698 -0.3076
 1869SOL    HW117240   4.403   1.496  14.243  0.9051  0.9474 -3.1242
 1869SOL    HW217241   4.422   1.629  14.308 -2.1735 -2.3963  2.0152
 1870SOL     OW17242   4.470   3.468   2.793  0.5664  0.3927 -0.1917
 1870SOL    HW117243   4.519   3.403   2.843  0.1645 -0.1694 -0.5362
 1870SOL    HW217244   4.533   3.515   2.739  0.7590 -1.0177 -1.1805
 1871SOL     OW17245   2.814   3.561   6.338  0.1259 -1.3459 -0.0375
 1871SOL    HW117246   2.775   3.495   6.396 -1.3587 -1.3086 -0.9999
 1871SOL    HW217247   2.816   3.522   6.250 -0.5136  0.2534 -0.7574
 1872SOL     OW17248   3.422   2.663   3.362 -0.0253 -0.3197  0.1334
 1872SOL    HW117249   3.506   2.684   3.403 -0.0851 -0.3022  0.2473
 1872SOL    HW217250   3.430   2.705   3.277 -1.6640 -1.1401 -0.4335
 1873SOL     OW17251   1.361   1.060   4.447  0.1395 -0.1533 -0.2190
 1873SOL    HW117252   1.289   1.080   4.507 -0.2668 -0.4102 -0.6205
 1873SOL    HW217253   1.352   0.966   4.435  1.4018 -0.6209  2.4968
 1874SOL     OW17254   2.736   2.847   6.384  0.1067 -0.1571  0.2558
 1874SOL    HW117255   2.798   2.865   6.455  1.1446 -0.7096 -0.5146
 1874SOL    HW217256   2.791   2.812   6.314 -0.9861  1.6389 -1.5122
 1875SOL     OW17257   1.300   3.514   3.841  0.2512  0.4577 -0.3279
 1875SOL    HW117258   1.360   3.495   3.913 -0.1942 -0.7163 -0.2619
 1875SOL    HW217259   1.238   3.567   3.892 -0.3230  0.7516 -1.3220
 1876SOL     OW17260   0.366   2.514   1.463  0.6727 -0.5237  0.7922
 1876SOL    HW117261   0.361   2.537   1.370  1.5474  0.8785  1.0819
 1876SOL    HW217262   0.280   2.551   1.484  1.3125  1.1514  0.4717
 1877SOL     OW17263   1.953   4.652   7.752 -0.0737  0.0706  0.2369
 1877SOL    HW117264   1.962   4.566   7.711  2.8575 -0.0332  1.0717
 1877SOL    HW217265   2.011   4.701   7.694 -0.8633  0.6256 -0.0833
 1878SOL     OW17266   3.355   3.903   7.692 -0.1536 -0.4072  0.2709
 1878SOL    HW117267   3.325   3.817   7.661 -0.9824 -0.5149  1.3577
 1878SOL    HW217268   3.321   3.973   7.636  0.0903  1.8882  3.0591
 1879SOL     OW17269   1.079   4.128   1.006  0.5006  0.0298  0.9729
 1879SOL    HW117270   1.080   4.060   0.939  0.6085  1.2333 -0.2519
 1879SOL    HW217271   1.082   4.207   0.952  0.5877 -1.4751 -1.1939
 1880SOL     OW17272   3.991   1.700  13.147 -0.2632  0.2560  0.0703
 1880SOL    HW117273   3.909   1.745  13.126 -0.9879 -0.9358  0.3219
 1880SOL    HW217274   3.994   1.636  13.076  1.6504  0.2934  0.1284
 1881SOL     OW17275   3.958   3.517   8.126 -0.3983  0.5385 -0.3326
 1881SOL    HW117276   3.980   3.557   8.041  0.2036  2.0401  0.5301
 1881SOL    HW217277   4.038   3.475   8.159 -1.1132  0.2037  0.9522
 1882SOL     OW17278   3.978   1.685   8.519  0.4627 -0.5630  0.0928
 1882SOL    HW117279   4.059   1.724   8.552  0.3165  2.1823 -2.8410
 1882SOL    HW217280   4.008   1.626   8.450 -1.6431  0.3142 -1.5423
 1883SOL     OW17281   3.299   3.238   9.216  0.0252 -0.7195 -0.1548
 1883SOL    HW117282   3.214   3.197   9.205 -0.3994  0.8318 -2.7633
 1883SOL    HW217283   3.292   3.312   9.154 -1.5017 -0.6776  0.0671
 1884SOL     OW17284   3.985   1.948   1.262  0.8443  0.0771 -0.3371
 1884SOL    HW117285   4.010   1.988   1.179 -1.5189  2.1727 -0.0266
 1884SOL    HW217286   4.041   1.995   1.324 -0.4429 -1.0985  1.6956
 1885SOL     OW17287   3.456   1.198   2.902  0.1545 -0.1024 -0.3912
 1885SOL    HW117288   3.479   1.199   2.809 -0.4705  0.5310 -0.5410
 1885SOL    HW217289   3.527   1.242   2.948 -2.4974  3.4712  0.3031
 1886SOL     OW17290   3.285   3.624   5.910  0.2225 -0.2149 -0.5015
 1886SOL    HW117291   3.204   3.656   5.949 -0.5098 -3.0491  0.2857
 1886SOL    HW217292   3.351   3.646   5.976 -0.5003 -1.4204  0.6164
 1887SOL     OW17293   0.139   1.173   9.739 -0.6121  0.2070  0.9705
 1887SOL    HW117294   0.111   1.082   9.734  0.1590  0.2467 -3.9584
 1887SOL    HW217295   0.177   1.158   9.825 -1.3837 -0.7611  1.1405
 1888SOL     OW17296   4.078   1.095   3.731  0.1353  0.3762  0.0742
 1888SOL    HW117297   4.061   1.189   3.739  0.1447  0.3645  0.2529
 1888SOL    HW217298   4.123   1.093   3.647 -1.4111 -2.5963 -0.6825
 1889SOL     OW17299   4.012   3.073   2.810  0.1634  0.6307  0.0297
 1889SOL    HW117300   4.038   2.993   2.856  1.1330  0.7073 -0.3894
 1889SOL    HW217301   4.090   3.105   2.764 -1.9038  2.2978 -2.3108
 1890SOL     OW17302   2.539   3.076   2.092  0.3471  0.0760 -0.3203
 1890SOL    HW117303   2.546   3.171   2.082  2.3477  0.1318  1.6022
 1890SOL    HW217304   2.472   3.051   2.028 -1.0938  2.6236  0.2163
 1891SOL     OW17305   2.669   2.338  14.862  0.4321 -0.1235  0.1170
 1891SOL    HW117306   2.725   2.406  14.898  0.4569 -0.5820  0.9513
 1891SOL    HW217307   2.740   2.287  14.821  0.4114  0.4387 -0.5993
 1892SOL     OW17308   0.434   0.664   3.289  0.3462  0.2046 -0.4803
 1892SOL    HW117309   0.472   0.577   3.306 -1.3250 -0.3883  0.2037
 1892SOL    HW217310   0.435   0.674   3.194  1.8852  1.4444 -0.3248
 1893SOL     OW17311   2.848   4.587  11.995  0.2315  0.0363 -0.2624
 1893SOL    HW117312   2.841   4.670  12.042  0.5674  0.3707 -0.7917
 1893SOL    HW217313   2.754   4.572  11.989 -0.3117  2.8299  1.0757
 1894SOL     OW17314   2.331   0.371  14.224 -0.1744 -0.6368 -0.1334
 1894SOL    HW117315   2.245   0.351  14.260 -0.7699 -0.8828 -1.7351
 1894SOL    HW217316   2.309   0.388  14.132 -1.2539  0.0945  0.2525
 1895SOL     OW17317   3.819   4.723   4.252 -0.3132  0.1828  0.1754
 1895SOL    HW117318   3.736   4.712   4.206 -1.4077  3.7953  1.2641
 1895SOL    HW217319   3.884   4.714   4.183  0.3249 -0.6371  0.8805
 1896SOL     OW17320   1.726   1.632   8.150  0.0959 -0.1889  0.1818
 1896SOL    HW117321   1.679   1.685   8.215  0.3051  0.3611 -0.1177
 1896SOL    HW217322   1.800   1.694   8.152 -0.0727  0.0003  0.5952
 1897SOL     OW17323   1.702   3.716  17.115 -0.1896 -0.1434 -0.4838
 1897SOL    HW117324   1.777   3.748  17.064 -2.0565  0.4624 -2.8887
 1897SOL    HW217325   1.713   3.623  17.132 -0.9179  0.4766  3.4789
 1898SOL     OW17326   1.225   4.293   7.345  0.0215  0.1416 -0.8045
 1898SOL    HW117327   1.283   4.350   7.395 -0.5453  1.8840 -2.1441
 1898SOL    HW217328   1.143   4.295   7.394  0.8449  2.3344  0.4648
 1899SOL     OW17329   3.789   4.534   7.786  0.2872 -0.2593 -0.2236
 1899SOL    HW117330   3.733   4.526   7.863 -1.3409 -2.1508 -1.5885
 1899SOL    HW217331   3.780   4.629   7.779  0.3966 -0.1577  1.0462
 1900SOL     OW17332   2.104   3.875   4.903  0.5055  0.2993  0.1337
 1900SOL    HW117333   2.183   3.870   4.849 -0.1726 -0.5189 -0.8050
 1900SOL    HW217334   2.059   3.940   4.850  0.1398 -0.7287 -0.8268
 1901SOL     OW17335   1.079   0.354   7.998  0.9027  0.2841 -0.3986
 1901SOL    HW117336   1.025   0.308   7.934  2.0497 -0.4465 -0.8422
 1901SOL    HW217337   1.022   0.407   8.054  0.8693 -0.1441 -0.0312
 1902SOL     OW17338   4.328   2.884  12.035 -0.0744  0.0636  0.6654
 1902SOL    HW117339   4.388   2.855  12.103  1.0844  1.9152  0.4275
 1902SOL    HW217340   4.252   2.929  12.072  0.2479  1.0166  0.1739
 1903SOL     OW17341   0.977   3.512   0.170  0.7202 -0.2971 -0.0721
 1903SOL    HW117342   0.965   3.466   0.087  0.8236  0.6420 -0.6058
 1903SOL    HW217343   0.907   3.469   0.218  0.1463 -2.7696 -3.1982
 1904SOL     OW17344   3.753   3.015   2.314 -0.1901 -0.4190  0.0401
 1904SOL    HW117345   3.752   3.024   2.410 -1.8731 -0.3461  0.0130
 1904SOL    HW217346   3.734   3.105   2.291 -2.5867 -0.6926  0.9447
 1905SOL     OW17347   1.761   3.707   5.313 -0.1958  0.0581  0.6616
 1905SOL    HW117348   1.775   3.723   5.406  0.8081 -2.1018  0.8828
 1905SOL    HW217349   1.681   3.655   5.311  0.1230 -0.4314  0.6963
 1906SOL     OW17350   4.647   1.477   9.153 -0.5537 -0.1666  0.4478
 1906SOL    HW117351   0.004   1.486   9.180 -0.1774 -1.0143 -0.5721
 1906SOL    HW217352   4.642   1.388   9.120 -0.7276 -0.3017  0.8299
 1907SOL     OW17353   2.993   1.418   9.647  0.9738  0.2164  0.2295
 1907SOL    HW117354   3.038   1.338   9.675  0.3552 -0.5420 -0.9355
 1907SOL    HW217355   2.939   1.436   9.724 -1.9604  2.9940 -2.4699
 1908SOL     OW17356   3.834   3.988  11.358  0.3250  0.6439 -0.8925
 1908SOL    HW117357   3.922   4.014  11.329  0.7570  0.0689 -0.0922
 1908SOL    HW217358   3.798   4.074  11.377 -2.4993 -1.4300  2.9851
 1909SOL     OW17359   4.480   3.387   7.403 -0.2301  0.0067 -0.0552
 1909SOL    HW117360   4.464   3.299   7.436 -1.1446  0.3752  0.4946
 1909SOL    HW217361   4.570   3.373   7.375 -0.5047  1.7284 -1.8680
 1910SOL     OW17362   1.805   2.140   6.177  0.3107  0.3216  0.1541
 1910SOL    HW117363   1.732   2.087   6.208  0.1947 -0.1265 -0.9167
 1910SOL    HW217364   1.873   2.104   6.234  0.2188 -0.4424 -0.2294
 1911SOL     OW17365   3.980   4.654   4.747 -0.2782  0.0853  0.0602
 1911SOL    HW117366   3.928   4.637   4.826  0.2727 -0.9095  0.1971
 1911SOL    HW217367   4.038   4.578   4.742  2.4011  2.0456  1.5484
 1912SOL     OW17368   4.555   2.374  13.694 -0.2828  0.0699 -0.0832
 1912SOL    HW117369   4.532   2.333  13.777  0.7295  2.0828  1.2008
 1912SOL    HW217370   4.502   2.453  13.704 -1.8451 -1.2765  2.2156
 1913SOL     OW17371   2.928   1.016   6.873  0.2222 -0.5018  0.3566
 1913SOL    HW117372   2.992   1.051   6.935  0.1454 -1.3072  0.8905
 1913SOL    HW217373   2.987   0.968   6.815 -1.1056 -3.7817  1.6957
 1914SOL     OW17374   0.844   3.310   3.980  0.1208 -0.1658 -0.0221
 1914SOL    HW117375   0.841   3.405   3.993  1.5865 -0.3229  1.5518
 1914SOL    HW217376   0.862   3.276   4.068  0.5796  1.3229  0.4657
 1915SOL     OW17377   1.877   2.442   7.513  0.1456  0.5289 -0.2614
 1915SOL    HW117378   1.878   2.487   7.598  0.9234 -0.8181  0.4449
 1915SOL    HW217379   1.819   2.500   7.464  0.1825  1.4697  0.8136
 1916SOL     OW17380   0.616   0.290  11.973 -0.3154  0.5519 -0.4113
 1916SOL    HW117381   0.698   0.333  11.947 -1.4848  1.3219 -2.8238
 1916SOL    HW217382   0.663   0.220  12.019  0.5368 -0.3468 -2.6908
 1917SOL     OW17383   4.402   2.188   5.236 -0.2127 -0.5689  0.3097
 1917SOL    HW117384   4.440   2.268   5.271 -0.0465 -0.8373  0.7359
 1917SOL    HW217385   4.449   2.113   5.270  0.6555  0.2155  0.8150
 1918SOL     OW17386   4.548   4.128   3.100  0.0934 -0.0804  0.6427
 1918SOL    HW117387   4.580   4.186   3.169  1.6023  1.1032 -1.0745
 1918SOL    HW217388   4.500   4.189   3.045  1.2774  1.3890  1.2560
 1919SOL     OW17389   4.143   2.368  13.318  0.1075 -0.0820 -0.2098
 1919SOL    HW117390   4.130   2.319  13.237 -0.0846 -0.8242  0.2794
 1919SOL    HW217391   4.129   2.458  13.288 -0.2636 -0.3024 -0.6959
 1920SOL     OW17392   2.606   2.524  11.765 -0.0386  0.0558  0.1201
 1920SOL    HW117393   2.632   2.552  11.853  1.3038  0.6929 -0.4784
 1920SOL    HW217394   2.524   2.474  11.769 -1.1988  1.9143 -0.2468
 1921SOL     OW17395   3.797   4.625  12.990 -0.1000 -0.2991  0.2256
 1921SOL    HW117396   3.879   4.605  12.945 -0.4113  0.9560 -0.8916
 1921SOL    HW217397   3.835   4.657  13.072 -0.7799  0.9439  0.0516
 1922SOL     OW17398   2.916   2.844   8.901  0.0570 -0.0195 -0.1778
 1922SOL    HW117399   2.958   2.858   8.986 -0.8435 -1.5870  0.5184
 1922SOL    HW217400   2.843   2.792   8.933  0.8222 -0.8057  0.2935
 1923SOL     OW17401   2.708   1.237   4.045  0.0947  0.4119 -0.8332
 1923SOL    HW117402   2.707   1.142   4.063  1.9507  0.3479 -1.1083
 1923SOL    HW217403   2.743   1.231   3.956  1.5620  1.0272 -0.2926
 1924SOL     OW17404   2.211   4.380   8.429  0.5008 -0.1020 -0.0913
 1924SOL    HW117405   2.213   4.339   8.342 -1.3553 -0.8978  0.2452
 1924SOL    HW217406   2.119   4.403   8.439  0.4237 -0.1099 -0.7927
 1925SOL     OW17407   1.250   3.913   4.187 -0.0169 -0.3629 -0.2012
 1925SOL    HW117408   1.308   3.955   4.124  1.7217 -2.3182  0.0880
 1925SOL    HW217409   1.305   3.845   4.226 -0.8568 -0.5907  0.5721
 1926SOL     OW17410   3.995   0.594   5.644  0.2472 -0.1726 -0.6453
 1926SOL    HW117411   3.972   0.509   5.604  1.7921 -0.3916 -1.0661
 1926SOL    HW217412   3.972   0.570   5.733  1.1656  0.1198 -0.3345
 1927SOL     OW17413   2.328   2.623   7.470 -0.1573  1.0519 -0.1601
 1927SOL    HW117414   2.355   2.703   7.514 -0.4603  1.3675 -0.5504
 1927SOL    HW217415   2.412   2.577   7.465  0.5586  2.2291  1.1558
 1928SOL     OW17416   2.405   2.517  10.933  0.0843  0.0562 -0.2050
 1928SOL    HW117417   2.446   2.540  10.850  1.0191 -0.4458  0.1261
 1928SOL    HW217418   2.488   2.513  10.980 -0.3299 -2.8178  0.2902
 1929SOL     OW17419   4.216   2.296   0.780  0.1499 -0.3797 -0.1423
 1929SOL    HW117420   4.298   2.248   0.790  1.0368  0.6472 -2.5791
 1929SOL    HW217421   4.161   2.224   0.750  0.1935  0.2533 -1.7361
 1930SOL     OW17422   0.458   4.394  14.801 -0.2571 -0.5158  0.6293
 1930SOL    HW117423   0.517   4.465  14.775 -1.8417  0.0195 -1.4621
 1930SOL    HW217424   0.512   4.340  14.859 -1.5943 -2.7496 -0.2012
 1931SOL     OW17425   2.666   2.718   6.657 -0.9438 -0.7043 -0.3121
 1931SOL    HW117426   2.574   2.719   6.631 -1.2270 -0.6601  0.7014
 1931SOL    HW217427   2.708   2.720   6.571 -1.0918 -2.8560 -0.4218
 1932SOL     OW17428   2.502   2.502   6.817  0.5640 -0.3453  0.5089
 1932SOL    HW117429   2.524   2.450   6.740  0.1434 -0.3863  0.4175
 1932SOL    HW217430   2.458   2.572   6.769  1.7801 -0.3190 -0.5627
 1933SOL     OW17431   0.425   3.092   5.607  0.1254 -0.0514 -0.1105
 1933SOL    HW117432   0.498   3.154   5.605 -0.8818  1.0855 -1.3792
 1933SOL    HW217433   0.483   3.022   5.578 -1.1753 -1.4158  0.5684
 1934SOL     OW17434   2.705   3.700  12.174  0.4024  0.5978  0.3495
 1934SOL    HW117435   2.758   3.754  12.116  0.5190  0.3368  0.2146
 1934SOL    HW217436   2.714   3.755  12.252 -1.6443  0.6114  0.5581
 1935SOL     OW17437   1.255   3.540   0.223  0.3016 -0.1800  0.0132
 1935SOL    HW117438   1.164   3.545   0.251  0.0260 -3.1757 -0.3139
 1935SOL    HW217439   1.233   3.551   0.130 -1.2733 -2.5065  0.1087
 1936SOL     OW17440   4.295   1.150   4.288  0.0371  0.5197 -0.2656
 1936SOL    HW117441   4.219   1.208   4.281 -0.7196 -0.2688  1.3551
 1936SOL    HW217442   4.340   1.169   4.205  1.8360  1.2734  0.8725
 1937SOL     OW17443   4.675   0.292   3.060  0.4865 -0.1240 -0.0791
 1937SOL    HW117444   4.637   0.204   3.049 -1.0481  0.4519  0.6630
 1937SOL    HW217445   4.631   0.325   2.982  2.5537  0.0683 -1.1812
 1938SOL     OW17446   1.929   2.172   4.973  0.4056 -0.1641  0.6625
 1938SOL    HW117447   1.965   2.219   4.898  1.9471 -1.4887  0.5787
 1938SOL    HW217448   1.956   2.242   5.033 -1.8051  1.1151  0.1630
 1939SOL     OW17449   3.474   1.701  12.740 -0.3328 -1.4457 -0.3563
 1939SOL    HW117450   3.401   1.762  12.740  2.3133  1.7070 -0.4236
 1939SOL    HW217451   3.542   1.763  12.765 -1.3897 -0.6580  0.5353
 1940SOL     OW17452   3.313   2.032  10.777 -0.3087 -0.2308 -0.1563
 1940SOL    HW117453   3.233   2.044  10.726 -0.5167  0.9743  0.4612
 1940SOL    HW217454   3.293   2.080  10.858 -1.9876  0.9611 -1.2865
 1941SOL     OW17455   1.957   4.566   8.030  0.5103  0.1578  0.5647
 1941SOL    HW117456   1.966   4.586   7.937  0.4809 -0.4155  0.4370
 1941SOL    HW217457   1.910   4.483   8.031 -0.7886  0.8748 -1.8464
 1942SOL     OW17458   0.886   3.283   2.563  0.5578  0.2167  0.8360
 1942SOL    HW117459   0.917   3.324   2.644 -0.2475  1.0935  0.7072
 1942SOL    HW217460   0.870   3.358   2.505 -0.3377 -1.2578 -0.8473
 1943SOL     OW17461   2.321   4.171   5.989  0.0889 -0.0675  0.1416
 1943SOL    HW117462   2.375   4.157   5.912 -2.4089 -3.6228 -0.9463
 1943SOL    HW217463   2.351   4.101   6.047  1.7280 -0.2989 -0.9850
 1944SOL     OW17464   2.757   0.015   7.990  0.6087  0.0828 -0.8487
 1944SOL    HW117465   2.767   4.667   7.945 -1.8675 -1.5064  1.5441
 1944SOL    HW217466   2.830   0.015   8.052  0.2665  1.7768 -0.4250
 1945SOL     OW17467   0.288   3.144  14.089 -0.2375 -0.1505 -0.0809
 1945SOL    HW117468   0.358   3.183  14.142 -0.1350 -0.7550  0.2249
 1945SOL    HW217469   0.334   3.130  14.006  0.4958  1.8322 -0.0351
 1946SOL     OW17470   2.996   2.702   9.458 -0.2223  0.5661 -0.2344
 1946SOL    HW117471   3.062   2.758   9.417  0.5550 -0.6998 -0.6929
 1946SOL    HW217472   2.981   2.635   9.393  2.0208 -0.1876  0.0197
 1947SOL     OW17473   3.596   2.698   6.886 -0.0700  0.2127  0.2357
 1947SOL    HW117474   3.559   2.786   6.894 -0.1779  0.2068 -0.1713
 1947SOL    HW217475   3.685   2.716   6.855  0.5801 -2.1460  0.7666
 1948SOL     OW17476   0.584   4.640  12.542 -0.1996 -0.3252 -0.5617
 1948SOL    HW117477   0.529   4.580  12.592 -0.6333  0.7615  0.2621
 1948SOL    HW217478   0.628   4.581  12.480 -0.0578  0.6163 -1.3621
 1949SOL     OW17479   0.155   4.660  12.447  0.7322 -0.1791 -0.7757
 1949SOL    HW117480   0.172   0.010  12.408 -1.3048  1.2809  1.5418
 1949SOL    HW217481   0.236   4.615  12.423  0.5620 -0.0096 -1.6702
 1950SOL     OW17482   1.508   1.534   4.989 -0.1154 -0.0196 -0.6209
 1950SOL    HW117483   1.568   1.481   5.041 -1.0113  0.4750  0.9379
 1950SOL    HW217484   1.541   1.516   4.902  1.1421 -1.2505  0.1145
 1951SOL     OW17485   1.305   0.300   1.322 -0.6884  0.2169  0.2384
 1951SOL    HW117486   1.236   0.280   1.258 -0.0009  1.7158 -0.9670
 1951SOL    HW217487   1.290   0.240   1.395  2.6234 -1.1813 -0.2479
 1952SOL     OW17488   2.301   3.818  13.673  0.5789 -0.2419  0.2835
 1952SOL    HW117489   2.392   3.836  13.650  0.0179 -1.9646 -3.1949
 1952SOL    HW217490   2.257   3.902  13.657 -1.7060 -1.5477 -0.3081
 1953SOL     OW17491   2.107   1.610   2.817 -0.5623  0.1060 -0.1189
 1953SOL    HW117492   2.092   1.604   2.911  0.3129 -0.2354  0.0055
 1953SOL    HW217493   2.024   1.653   2.800  0.6803  3.5144  2.5242
 1954SOL     OW17494   3.539   1.136   3.245  0.3968 -0.6237  0.1485
 1954SOL    HW117495   3.460   1.138   3.191 -0.6703 -1.6957  1.6654
 1954SOL    HW217496   3.602   1.179   3.187  0.2898 -0.0913  0.4284
 1955SOL     OW17497   3.857   2.953   4.577  0.1399 -0.1160 -0.4559
 1955SOL    HW117498   3.780   3.010   4.566 -0.0185 -0.2656 -0.1333
 1955SOL    HW217499   3.861   2.941   4.672  1.0697 -0.9592 -0.6064
 1956SOL     OW17500   0.497   4.547   6.345  0.7653  0.5503 -0.4886
 1956SOL    HW117501   0.562   4.600   6.297 -0.7068  0.1918 -2.8713
 1956SOL    HW217502   0.500   4.463   6.300  0.0068 -0.4254  1.3054
 1957SOL     OW17503   3.000   0.970  10.768  0.3235  0.0252  0.0930
 1957SOL    HW117504   3.065   1.037  10.743  1.7620 -0.8314  1.5740
 1957SOL    HW217505   2.945   0.980  10.691  1.3742  0.0292 -0.6595
 1958SOL     OW17506   3.189   3.210   3.968 -0.3898  0.1782  0.1509
 1958SOL    HW117507   3.175   3.130   4.019  0.9309  0.1727  0.5128
 1958SOL    HW217508   3.156   3.190   3.881  1.4515 -0.9084 -0.2956
 1959SOL     OW17509   0.204   3.622   2.989  0.0377  0.0726  0.0063
 1959SOL    HW117510   0.220   3.577   3.072 -1.6848  1.8751  1.3519
 1959SOL    HW217511   0.112   3.648   3.001 -0.0680 -0.8052  1.0809
 1960SOL     OW17512   0.916   2.626   1.012  0.2881  0.1635  0.1440
 1960SOL    HW117513   0.984   2.648   0.948 -0.9622  1.0282 -0.8717
 1960SOL    HW217514   0.952   2.553   1.064  0.0049  0.0356  0.1598
 1961SOL     OW17515   1.635   2.841  17.704  0.2687 -0.3497  0.2692
 1961SOL    HW117516   1.690   2.840   0.043  3.1978 -0.3416 -1.8112
 1961SOL    HW217517   1.688   2.802  17.634  2.2789  0.8428  1.1540
 1962SOL     OW17518   2.671   2.409   6.116 -0.7102  0.4346 -0.4671
 1962SOL    HW117519   2.649   2.422   6.208 -1.4341 -3.1095 -0.1305
 1962SOL    HW217520   2.725   2.330   6.122  1.2155  1.8723  0.6524
 1963SOL     OW17521   0.439   3.248   2.757  0.2470 -0.1193 -0.3802
 1963SOL    HW117522   0.483   3.169   2.726 -0.7092 -1.2733  1.2325
 1963SOL    HW217523   0.497   3.314   2.718  2.3810 -0.7706  1.7229
 1964SOL     OW17524   0.802   0.594   3.926 -0.1946  0.7351 -0.0287
 1964SOL    HW117525   0.880   0.625   3.973  0.5544 -0.2884 -0.5795
 1964SOL    HW217526   0.833   0.592   3.835 -1.6951  0.3177 -0.5360
 1965SOL     OW17527   4.149   4.369   6.894 -0.2948  0.0015 -0.1555
 1965SOL    HW117528   4.155   4.431   6.966  2.1174 -0.3911  0.0040
 1965SOL    HW217529   4.213   4.303   6.922 -0.5921  0.5880  1.8692
 1966SOL     OW17530   2.015   2.570  14.875  0.1468 -0.2008 -0.1029
 1966SOL    HW117531   1.926   2.565  14.839  0.7914 -0.3771 -1.6446
 1966SOL    HW217532   2.042   2.478  14.869  2.6546  0.6129 -0.9506
 1967SOL     OW17533   0.493   1.335  15.767 -0.3873  0.2899 -0.0789
 1967SOL    HW117534   0.545   1.255  15.763 -0.3283  0.3132  0.2196
 1967SOL    HW217535   0.470   1.357  15.677 -2.3304 -0.1119  0.3231
 1968SOL     OW17536   4.018   3.528   4.743  0.1603 -1.0011  0.0440
 1968SOL    HW117537   3.969   3.598   4.786  0.5600  0.3783 -1.7548
 1968SOL    HW217538   3.954   3.509   4.674 -0.7502  0.4849  0.4734
 1969SOL     OW17539   2.413   0.782   9.271  0.2014  0.0887  0.3211
 1969SOL    HW117540   2.334   0.836   9.269  0.9145  1.0929 -0.4005
 1969SOL    HW217541   2.432   0.779   9.365 -2.3172 -0.1702  0.8091
 1970SOL     OW17542   3.875   0.683   4.473  0.6473  0.4821  0.0858
 1970SOL    HW117543   3.965   0.704   4.500  1.4685 -0.6809 -1.7687
 1970SOL    HW217544   3.870   0.595   4.511  1.7168  0.1509 -0.5180
 1971SOL     OW17545   2.016   2.670   2.057 -0.1507 -0.3223 -0.0144
 1971SOL    HW117546   1.951   2.609   2.092 -2.1069  1.4798 -0.5045
 1971SOL    HW217547   2.047   2.650   1.969  0.1960 -1.4573  0.3729
 1972SOL     OW17548   1.243   0.901   4.813 -0.3468 -0.0078  0.1900
 1972SOL    HW117549   1.226   0.932   4.724 -1.0988 -3.0593 -0.7333
 1972SOL    HW217550   1.191   0.970   4.856 -0.1222 -0.4316  1.1301
 1973SOL     OW17551   0.918   2.034   2.028 -0.2199 -0.0535  0.5073
 1973SOL    HW117552   0.940   1.993   2.112  1.1112  2.5132  1.4487
 1973SOL    HW217553   0.985   1.992   1.976  0.1858 -1.4892  2.1811
 1974SOL     OW17554   2.350   1.830   6.235 -1.1893 -0.6281  0.4069
 1974SOL    HW117555   2.410   1.765   6.198 -0.1519  0.7894 -0.3732
 1974SOL    HW217556   2.310   1.779   6.306  0.0785 -2.0641  0.1083
 1975SOL     OW17557   3.632   0.665  14.035 -0.1754  0.3909 -0.2292
 1975SOL    HW117558   3.610   0.754  14.062  0.2323  0.0682  1.1646
 1975SOL    HW217559   3.558   0.614  14.068  0.8300 -0.0506  1.3675
 1976SOL     OW17560   0.716   3.155  17.562  0.3416  0.1316  0.2960
 1976SOL    HW117561   0.627   3.189  17.574  0.5532  0.7885  0.0061
 1976SOL    HW217562   0.705   3.062  17.539  0.6776 -0.0152  0.7349
 1977SOL     OW17563   2.753   0.857  15.234  0.1144 -0.5751  0.3255
 1977SOL    HW117564   2.718   0.944  15.217 -0.0504 -0.7226 -0.0922
 1977SOL    HW217565   2.728   0.802  15.160  1.3632  0.5447 -0.9245
 1978SOL     OW17566   0.905   4.263  15.436  0.3365  0.1264 -0.0127
 1978SOL    HW117567   0.900   4.175  15.474  0.7727  0.7176  1.4010
 1978SOL    HW217568   0.827   4.296  15.479  0.4671  2.1327 -1.3472
 1979SOL     OW17569   2.903   2.152  14.510 -0.8691 -0.4500 -0.5349
 1979SOL    HW117570   2.829   2.125  14.456  1.9712 -0.7180 -4.2739
 1979SOL    HW217571   2.943   2.065  14.514  2.8788  1.3282  0.0609
 1980SOL     OW17572   2.696   3.485   2.974  0.9225  0.0477  0.3808
 1980SOL    HW117573   2.735   3.425   2.910 -0.1151 -1.0245  0.7424
 1980SOL    HW217574   2.649   3.543   2.914  0.2011 -0.3361  0.5693
 1981SOL     OW17575   3.458   0.640   3.595 -0.4449 -0.4000  0.3751
 1981SOL    HW117576   3.485   0.549   3.609 -3.1763 -1.4150 -0.8709
 1981SOL    HW217577   3.458   0.647   3.499 -1.0501 -0.8316  0.3458
 1982SOL     OW17578   1.696   3.481   7.509  0.5737  0.1752  0.2499
 1982SOL    HW117579   1.743   3.536   7.447 -0.8418  0.1407 -0.8429
 1982SOL    HW217580   1.703   3.530   7.591  1.2211 -0.2636  0.4562
 1983SOL     OW17581   1.666   3.482   2.288  0.1186  0.1676 -0.3394
 1983SOL    HW117582   1.710   3.558   2.326  1.7716 -1.1029  0.3280
 1983SOL    HW217583   1.580   3.485   2.330  0.2335 -2.3073  0.1134
 1984SOL     OW17584   1.617   2.548  12.459 -0.6813  0.1789 -0.2766
 1984SOL    HW117585   1.542   2.543  12.400 -3.0680  1.4607  2.6532
 1984SOL    HW217586   1.688   2.546  12.395  0.2111 -1.0431  0.7384
 1985SOL     OW17587   2.252   3.570   6.137 -0.1112  0.2798  0.2120
 1985SOL    HW117588   2.340   3.567   6.174 -0.0205 -1.9580 -0.1720
 1985SOL    HW217589   2.218   3.650   6.177  0.0578  0.0862  0.7407
 1986SOL     OW17590   2.159   3.699  14.768  0.2491 -0.3117  0.1212
 1986SOL    HW117591   2.104   3.625  14.741 -1.2095  0.6711  0.4059
 1986SOL    HW217592   2.236   3.697  14.711  0.0121  2.1115 -0.2776
 1987SOL     OW17593   3.300   1.457  12.707 -0.0769  0.2012  0.5445
 1987SOL    HW117594   3.253   1.453  12.624  0.8978  2.9249 -0.1442
 1987SOL    HW217595   3.343   1.543  12.700  0.4160  0.1875  3.1819
 1988SOL     OW17596   4.111   1.330  13.652 -0.0941  0.1978  0.1953
 1988SOL    HW117597   4.051   1.400  13.628 -0.2125 -0.2989 -0.9812
 1988SOL    HW217598   4.108   1.325  13.747 -0.7027 -0.9872  0.1139
 1989SOL     OW17599   3.784   3.560   5.618 -0.2429  0.7358  0.0330
 1989SOL    HW117600   3.757   3.469   5.624  0.7855  0.3691 -0.7509
 1989SOL    HW217601   3.876   3.546   5.595 -1.0544 -1.2139 -2.0257
 1990SOL     OW17602   2.977   1.655  17.284 -0.5286  0.1947  0.1513
 1990SOL    HW117603   3.039   1.693  17.222 -0.8994 -0.0545 -0.3805
 1990SOL    HW217604   3.022   1.572  17.300 -0.6109  0.4542  1.7254
 1991SOL     OW17605   3.924   1.780   6.233  1.0928  0.0483  0.4473
 1991SOL    HW117606   3.850   1.739   6.278  1.7621 -2.8948 -1.1318
 1991SOL    HW217607   4.005   1.744   6.270  2.1181  3.2159  1.2217
 1992SOL     OW17608   2.432   3.540   4.778  0.2116  0.5382  0.2983
 1992SOL    HW117609   2.373   3.555   4.705  1.0405  3.2416  0.2044
 1992SOL    HW217610   2.397   3.610   4.833 -0.7382  1.7610 -1.8917
 1993SOL     OW17611   2.871   2.400   7.785  0.1405 -0.2033  0.7754
 1993SOL    HW117612   2.926   2.384   7.861 -0.2600 -1.5901  0.7852
 1993SOL    HW217613   2.835   2.488   7.799  0.8203  0.1338  0.3846
 1994SOL     OW17614   1.001   1.956  14.354  0.0649 -0.6053 -0.3752
 1994SOL    HW117615   1.080   1.979  14.306 -0.1363 -0.4038 -0.6044
 1994SOL    HW217616   0.976   1.877  14.306  0.0089 -1.1912  0.6107
 1995SOL     OW17617   3.131   0.766  12.728 -0.0236  0.5820  0.2099
 1995SOL    HW117618   3.156   0.694  12.786 -2.9517  0.8045  1.7177
 1995SOL    HW217619   3.039   0.780  12.746  0.1113  2.6329 -0.7403
 1996SOL     OW17620   2.325   0.120  16.236 -0.3362 -0.5792  0.1267
 1996SOL    HW117621   2.303   0.125  16.329  1.3327  2.7574  0.3198
 1996SOL    HW217622   2.384   0.193  16.220  0.4583 -1.1050  0.6327
 1997SOL     OW17623   1.955   1.982   6.415 -0.6904 -0.6765  0.4242
 1997SOL    HW117624   1.894   1.993   6.488 -1.4167 -1.2012 -0.1085
 1997SOL    HW217625   1.941   1.891   6.391 -1.0859 -0.4854 -0.0633
 1998SOL     OW17626   4.716   1.809   6.538 -0.1695  0.4414 -0.2051
 1998SOL    HW117627   4.666   1.739   6.582  0.5832  1.5562  2.4481
 1998SOL    HW217628   0.018   1.762   6.463  2.5179  2.0016  0.1468
 1999SOL     OW17629   2.806   2.859  14.972  0.9603 -0.5248  0.6512
 1999SOL    HW117630   2.743   2.931  14.966 -0.0051 -1.5086 -1.1231
 1999SOL    HW217631   2.746   2.785  14.967  0.7017 -0.1841 -1.3609
 2000SOL     OW17632   3.471   3.979   5.139 -0.1451  0.0589 -0.0087
 2000SOL    HW117633   3.528   3.914   5.097  1.9202  0.5551  2.0407
 2000SOL    HW217634   3.479   3.939   5.226  2.7090 -1.5896 -1.0404
 2001SOL     OW17635   4.718   2.361   4.806 -0.5372  0.1190 -0.1296
 2001SOL    HW117636   0.023   2.447   4.817 -0.6404 -0.1928  2.6585
 2001SOL    HW217637   4.704   2.337   4.897 -1.0084  0.8864  0.0016
 2002SOL     OW17638   3.408   1.998   6.062  0.1455 -0.8458  0.4165
 2002SOL    HW117639   3.324   2.003   6.107 -0.6042  3.1797 -1.3763
 2002SOL    HW217640   3.424   2.089   6.036  2.4878 -1.8442 -1.6481
 2003SOL     OW17641   4.381   1.515  10.424 -0.0955 -0.0913 -0.1175
 2003SOL    HW117642   4.343   1.430  10.401 -0.4235 -0.1772  0.7655
 2003SOL    HW217643   4.308   1.575  10.436  0.3998  0.5901 -0.5321
 2004SOL     OW17644   4.523   2.778   6.781 -0.7760  0.2910 -0.0716
 2004SOL    HW117645   4.520   2.737   6.868 -0.9416 -1.4145 -0.8658
 2004SOL    HW217646   4.504   2.870   6.799 -0.1080  0.5033 -0.4637
 2005SOL     OW17647   3.615   2.294  16.494 -0.3364  0.3760  0.1625
 2005SOL    HW117648   3.544   2.236  16.522  0.2160 -0.2826  0.2098
 2005SOL    HW217649   3.585   2.378  16.527 -2.5750 -0.4011  0.1391
 2006SOL     OW17650   3.905   0.241  13.002  0.1739  0.6257  0.2758
 2006SOL    HW117651   3.838   0.227  12.935  1.4663 -1.7076 -0.5394
 2006SOL    HW217652   3.898   0.336  13.003  0.8489  0.6654  0.9138
 2007SOL     OW17653   3.297   0.863   2.987  0.1475 -0.7131  0.1570
 2007SOL    HW117654   3.316   0.775   3.018 -0.7268 -1.1327 -0.4902
 2007SOL    HW217655   3.332   0.857   2.898  0.0020  0.0188  0.0500
 2008SOL     OW17656   4.204   2.457   5.801  0.0035 -0.2943  0.1558
 2008SOL    HW117657   4.126   2.511   5.814 -2.2357 -3.3677 -0.6377
 2008SOL    HW217658   4.219   2.406   5.881 -0.4468  0.7691  0.9310
 2009SOL     OW17659   0.148   0.164   6.575 -0.0513  0.2495 -1.3223
 2009SOL    HW117660   0.153   0.125   6.488 -0.2018  2.3820 -2.2827
 2009SOL    HW217661   0.236   0.155   6.612 -0.4747  1.0602 -0.1203
 2010SOL     OW17662   4.192   4.572   3.450 -0.0630 -0.2373  0.1070
 2010SOL    HW117663   4.127   4.586   3.381  1.1131 -0.1486 -0.9854
 2010SOL    HW217664   4.188   4.477   3.453 -0.5498 -0.2660 -1.1913
 2011SOL     OW17665   3.719   2.413   7.788 -0.1941 -0.3748 -0.6545
 2011SOL    HW117666   3.657   2.417   7.861  0.7008 -0.2819  0.1066
 2011SOL    HW217667   3.654   2.386   7.723 -2.1534  0.3335  1.0042
 2012SOL     OW17668   0.926   3.434   3.180  0.1621 -0.2840  0.0660
 2012SOL    HW117669   0.839   3.468   3.202 -0.2917  0.8138 -3.3988
 2012SOL    HW217670   0.978   3.468   3.252  1.3566 -2.3809  0.1972
 2013SOL     OW17671   0.509   3.699   9.010 -0.4061 -0.0647  0.1952
 2013SOL    HW117672   0.512   3.779   8.957  0.5081  2.1125  3.5449
 2013SOL    HW217673   0.435   3.724   9.066  1.0671  1.7145  1.3472
 2014SOL     OW17674   3.557   4.399   5.608  0.4215 -0.3708 -0.0207
 2014SOL    HW117675   3.501   4.358   5.542 -0.5504 -1.3598  1.3878
 2014SOL    HW217676   3.629   4.336   5.613  1.1608  0.3959 -1.3614
 2015SOL     OW17677   2.971   1.387   9.070  0.1198  0.5687 -0.0391
 2015SOL    HW117678   2.882   1.353   9.065  0.0353  0.8965 -0.8071
 2015SOL    HW217679   2.965   1.473   9.028  1.1256  1.0547  0.7985
 2016SOL     OW17680   3.689   3.531   8.235 -0.1080 -0.3446  0.1267
 2016SOL    HW117681   3.776   3.504   8.205 -1.0235 -0.4744 -2.4656
 2016SOL    HW217682   3.683   3.497   8.324  2.5487 -1.9864 -0.3214
 2017SOL     OW17683   3.545   1.402  14.835  0.5606  0.5758  0.1266
 2017SOL    HW117684   3.491   1.454  14.776  0.0348 -1.3827 -1.1274
 2017SOL    HW217685   3.506   1.317  14.817  0.2348  0.8269 -0.3549
 2018SOL     OW17686   3.177   4.243   2.171  0.2863  0.1310 -0.2975
 2018SOL    HW117687   3.220   4.265   2.253 -2.1985  1.1233  0.7566
 2018SOL    HW217688   3.130   4.164   2.194  1.3369  0.3111  2.3772
 2019SOL     OW17689   4.209   4.161   7.919  0.4226  0.4125  0.0928
 2019SOL    HW117690   4.171   4.082   7.957 -0.0974  0.9764  0.7490
 2019SOL    HW217691   4.141   4.224   7.940  1.8705  1.4388  1.6365
 2020SOL     OW17692   0.756   2.605   4.189  0.1209 -0.2818 -0.3607
 2020SOL    HW117693   0.821   2.586   4.122  1.8463  2.2690  0.5987
 2020SOL    HW217694   0.810   2.596   4.268  0.9285 -0.2050 -0.9012
 2021SOL     OW17695   3.178   1.232   6.782  0.2729 -0.1656  0.1088
 2021SOL    HW117696   3.227   1.314   6.780  1.7759 -1.1308 -2.6292
 2021SOL    HW217697   3.251   1.185   6.742  2.3398  2.1205  1.2063
 2022SOL     OW17698   0.980   2.660  11.043 -0.0743 -0.1296 -0.1985
 2022SOL    HW117699   1.057   2.689  10.994 -0.7721 -1.1339 -1.9062
 2022SOL    HW217700   0.985   2.565  11.031 -0.8253 -0.3053  0.8925
 2023SOL     OW17701   0.439   3.927   4.081  0.2786 -0.1914 -0.6324
 2023SOL    HW117702   0.353   3.962   4.106  0.4339 -0.1839 -0.1195
 2023SOL    HW217703   0.417   3.851   4.028  0.8448 -0.7896 -0.0108
 2024SOL     OW17704   2.329   3.662  12.378 -0.1935 -0.7074  0.1167
 2024SOL    HW117705   2.411   3.676  12.330 -1.1781  0.3887 -1.2422
 2024SOL    HW217706   2.352   3.572  12.403  0.5479 -0.6740 -0.4450
 2025SOL     OW17707   1.636   3.202  15.050 -0.0429  0.9626  0.5647
 2025SOL    HW117708   1.619   3.179  14.959  0.0087  0.9905  0.5475
 2025SOL    HW217709   1.576   3.142  15.092  0.8012  1.1106  1.9812
 2026SOL     OW17710   0.132   4.410   6.425 -0.0022  0.0379 -0.3217
 2026SOL    HW117711   0.155   4.434   6.335  1.5747 -0.1552  0.0332
 2026SOL    HW217712   0.088   4.494   6.441 -1.0697 -0.0945 -2.6296
 2027SOL     OW17713   1.637   0.392   3.407 -0.0259  0.4257  0.3545
 2027SOL    HW117714   1.647   0.337   3.485  2.4615  1.8543  1.0403
 2027SOL    HW217715   1.690   0.468   3.427 -0.6166  0.6219  1.1971
 2028SOL     OW17716   3.266   0.359   3.442 -0.2048  0.2213  0.1752
 2028SOL    HW117717   3.335   0.374   3.506  1.2386 -0.2229 -1.2977
 2028SOL    HW217718   3.318   0.369   3.362  1.7516 -0.9745  1.3047
 2029SOL     OW17719   2.436   4.716   4.402  0.3914 -0.0112 -0.0461
 2029SOL    HW117720   2.457   0.047   4.467  0.2534 -1.1685  1.1754
 2029SOL    HW217721   2.510   4.723   4.342 -1.4358  0.9978 -2.1667
 2030SOL     OW17722   0.282   0.571  14.005  0.0288 -0.0509  0.1590
 2030SOL    HW117723   0.262   0.654  13.962  0.3663 -0.4832 -0.8205
 2030SOL    HW217724   0.200   0.521  14.009  0.5553 -0.9346  0.0061
 2031SOL     OW17725   2.783   1.478   0.903  0.3283 -0.0658  0.0177
 2031SOL    HW117726   2.863   1.426   0.914  0.6199  0.4834  0.4602
 2031SOL    HW217727   2.767   1.509   0.992  0.7333 -3.2253  1.1889
 2032SOL     OW17728   1.991   3.852  10.821 -0.4569  0.0740  0.2358
 2032SOL    HW117729   1.953   3.868  10.908 -1.5689 -2.9444  0.2942
 2032SOL    HW217730   2.075   3.898  10.811 -0.1121 -0.8593 -1.0778
 2033SOL     OW17731   3.825   0.870   8.200  0.1935  0.4301 -0.1068
 2033SOL    HW117732   3.823   0.965   8.211  0.7055  0.3970  0.2427
 2033SOL    HW217733   3.736   0.845   8.226  0.1355 -0.7931 -1.4557
 2034SOL     OW17734   1.984   0.347  13.566  0.5502  0.4741 -0.1952
 2034SOL    HW117735   2.061   0.305  13.526  1.1923 -0.0896  1.6308
 2034SOL    HW217736   2.007   0.438  13.551 -0.7078  0.8238  0.0262
 2035SOL     OW17737   2.302   3.745   7.647 -0.0360  0.4172  0.1118
 2035SOL    HW117738   2.394   3.725   7.631 -0.0633 -0.8615  1.5761
 2035SOL    HW217739   2.278   3.680   7.713  0.0157 -1.4235 -1.6987
 2036SOL     OW17740   0.323   0.300   0.863  0.0973 -0.7860  0.2089
 2036SOL    HW117741   0.348   0.233   0.800 -1.5775 -2.8231  1.6978
 2036SOL    HW217742   0.321   0.373   0.801  1.0687 -1.0336 -0.1092
 2037SOL     OW17743   0.692   4.302   5.255  0.7950 -0.1654  0.0056
 2037SOL    HW117744   0.650   4.357   5.322 -0.4128  1.7834 -2.3652
 2037SOL    HW217745   0.701   4.218   5.300 -0.6413  0.2738  1.1223
 2038SOL     OW17746   2.342   0.101   2.622 -0.2610  1.1900  0.7177
 2038SOL    HW117747   2.272   0.048   2.583  0.1076  0.0275  1.6295
 2038SOL    HW217748   2.407   0.035   2.646 -0.1606  1.7503  2.0108
 2039SOL     OW17749   3.256   2.288   1.582 -0.3903  0.1681 -0.2006
 2039SOL    HW117750   3.322   2.321   1.520 -1.1406  0.2198 -0.9716
 2039SOL    HW217751   3.178   2.329   1.547  1.6523  2.4400 -2.1130
 2040SOL     OW17752   2.940   0.914   9.189  0.1391 -0.2167 -0.2012
 2040SOL    HW117753   2.959   0.998   9.230 -2.0823 -0.4261  1.2543
 2040SOL    HW217754   2.858   0.889   9.231  0.6208 -0.0652  0.8339
 2041SOL     OW17755   4.729   2.539   8.137 -0.3224  0.3836  0.4277
 2041SOL    HW117756   0.033   2.603   8.076  1.1554  0.8405  1.8579
 2041SOL    HW217757   4.681   2.482   8.077  2.1056 -0.0361 -1.1106
 2042SOL     OW17758   3.666   1.781   5.445 -0.0008  0.1712 -0.4365
 2042SOL    HW117759   3.748   1.818   5.477 -0.1153  0.3904 -0.3977
 2042SOL    HW217760   3.597   1.841   5.474  0.2606 -1.0106  2.5831
 2043SOL     OW17761   2.350   4.468   2.839 -0.0093 -0.1636  1.0267
 2043SOL    HW117762   2.367   4.460   2.933  2.8555  1.9908  0.6594
 2043SOL    HW217763   2.406   4.536   2.802  0.3577 -0.1531  1.5969
 2044SOL     OW17764   0.737   1.168   3.474 -0.0499 -0.2697  0.1396
 2044SOL    HW117765   0.822   1.191   3.513  0.0906 -1.6277  0.6430
 2044SOL    HW217766   0.675   1.167   3.546  0.4687  1.1113  0.6070
 2045SOL     OW17767   2.544   1.898   5.393 -0.7988  0.1459  0.3428
 2045SOL    HW117768   2.540   1.972   5.454 -0.2980  0.0072  0.5477
 2045SOL    HW217769   2.594   1.935   5.320  1.3476 -0.3804  1.5380
 2046SOL     OW17770   1.218   3.046  16.284  0.2378  0.3568  0.6251
 2046SOL    HW117771   1.143   3.102  16.307 -0.6398  0.4005 -2.2046
 2046SOL    HW217772   1.287   3.084  16.338  1.5822  3.0067 -2.8904
 2047SOL     OW17773   4.094   0.966   3.961  0.1413 -0.2170  0.3236
 2047SOL    HW117774   4.177   0.919   3.967  0.2738 -0.0399 -0.0871
 2047SOL    HW217775   4.106   1.011   3.877  0.4019 -2.2479 -0.7153
 2048SOL     OW17776   2.578   1.969  14.843  0.4591 -0.7882 -0.5353
 2048SOL    HW117777   2.569   2.030  14.770  1.2208 -2.2320 -1.8154
 2048SOL    HW217778   2.602   1.891  14.793  0.1697 -1.2105 -0.0158
 2049SOL     OW17779   1.064   0.571  14.941 -0.2485  0.2802 -0.1375
 2049SOL    HW117780   1.047   0.507  14.873 -0.6578  0.7696 -0.4873
 2049SOL    HW217781   0.977   0.591  14.975 -0.4150 -0.8892  0.1015
 2050SOL     OW17782   3.559   4.649  12.870  0.2560 -0.6960 -0.2726
 2050SOL    HW117783   3.640   4.625  12.914 -0.2315 -0.9013  0.5102
 2050SOL    HW217784   3.582   0.006  12.878 -0.0782 -0.5444 -0.9847
 2051SOL     OW17785   2.454   0.073   7.245 -0.1052  0.7293 -0.2513
 2051SOL    HW117786   2.536   0.099   7.204  0.7959  0.3133  1.2868
 2051SOL    HW217787   2.455   0.140   7.314  1.5589 -0.6722  1.0942
 2052SOL     OW17788   3.775   4.085   3.256  0.0081 -0.0950  0.0930
 2052SOL    HW117789   3.829   4.142   3.311 -1.8522  1.9003 -0.1511
 2052SOL    HW217790   3.729   4.157   3.212 -1.0242 -0.7494  0.1003
 2053SOL     OW17791   2.756   2.839   8.698  0.3609 -0.0294  0.0252
 2053SOL    HW117792   2.826   2.839   8.763  1.5281  1.3474 -1.2593
 2053SOL    HW217793   2.689   2.895   8.738  1.7090  1.6610 -0.1038
 2054SOL     OW17794   3.086   2.574   9.008  0.4143 -0.2255 -0.5209
 2054SOL    HW117795   3.040   2.510   8.954  0.3715 -1.2480  0.7521
 2054SOL    HW217796   3.156   2.519   9.044  1.5509  2.1881  0.9787
 2055SOL     OW17797   2.717   0.050  10.117 -0.3685  0.0090 -0.5122
 2055SOL    HW117798   2.803   0.032  10.155 -1.4788 -3.0652  0.5754
 2055SOL    HW217799   2.744   0.093  10.036  0.1992  1.0459  0.2326
 2056SOL     OW17800   2.747   4.708   2.390 -0.1121 -0.3000  0.0260
 2056SOL    HW117801   2.731   0.046   2.329 -1.3124  0.0084  0.7081
 2056SOL    HW217802   2.838   4.692   2.366 -0.4075 -2.1997  0.1764
 2057SOL     OW17803   4.261   3.702   6.803 -0.1658 -0.1095 -0.2052
 2057SOL    HW117804   4.319   3.748   6.743  0.9220  1.5370  2.1121
 2057SOL    HW217805   4.176   3.744   6.790  0.1049  0.9705  1.4233
 2058SOL     OW17806   2.204   3.273   2.144 -0.4409  0.2746 -0.1874
 2058SOL    HW117807   2.280   3.326   2.120 -0.4023  0.7952  1.1280
 2058SOL    HW217808   2.192   3.248   2.052 -0.5787  0.4780 -0.2241
 2059SOL     OW17809   0.395   0.556   6.908  0.0194  0.2669  0.1770
 2059SOL    HW117810   0.395   0.508   6.825 -1.2717 -0.1217  0.4127
 2059SOL    HW217811   0.475   0.523   6.949  0.3028 -0.0076 -0.5856
 2060SOL     OW17812   2.236   1.169   9.687  0.2367 -0.3538 -0.3806
 2060SOL    HW117813   2.158   1.157   9.742  0.0313  1.8662 -0.2053
 2060SOL    HW217814   2.210   1.233   9.620 -0.9569 -0.4758 -0.0335
 2061SOL     OW17815   0.860   4.431   7.369  0.2317 -0.1308  0.4205
 2061SOL    HW117816   0.913   4.492   7.421  1.4487 -0.2507 -0.6970
 2061SOL    HW217817   0.779   4.425   7.419 -0.2111  0.8026 -0.1917
 2062SOL     OW17818   2.561   3.173   5.153  0.0038  0.1559  0.4684
 2062SOL    HW117819   2.595   3.262   5.155  1.3280 -0.3353 -0.4168
 2062SOL    HW217820   2.638   3.121   5.133 -0.7810 -0.7485 -0.2092
 2063SOL     OW17821   1.709   3.198   7.547 -0.3883 -0.2417 -0.1611
 2063SOL    HW117822   1.705   3.288   7.515 -0.1310 -1.0010 -2.3428
 2063SOL    HW217823   1.661   3.161   7.472  1.0294  0.4963 -1.4287
 2064SOL     OW17824   0.917   1.882  14.009  0.3346  0.1614  0.1001
 2064SOL    HW117825   0.906   1.886  13.914  0.3882 -0.6553  0.0604
 2064SOL    HW217826   0.916   1.788  14.025  0.8700 -0.0778 -1.2888
 2065SOL     OW17827   0.674   0.518   0.945  0.1768  0.2138 -0.4312
 2065SOL    HW117828   0.630   0.453   0.999  1.8937  0.1226  0.8821
 2065SOL    HW217829   0.746   0.463   0.915 -0.2534 -1.1627  1.0668
 2066SOL     OW17830   2.544   3.121   8.376 -0.0742  0.2294 -0.5433
 2066SOL    HW117831   2.628   3.142   8.417 -0.6332 -0.7382  1.1014
 2066SOL    HW217832   2.578   3.085   8.295 -1.7325  1.5633 -1.8354
 2067SOL     OW17833   4.647   1.791   7.821  0.3253  0.6630 -0.0758
 2067SOL    HW117834   4.673   1.810   7.731  0.9722  2.9082  0.5824
 2067SOL    HW217835   4.554   1.812   7.819  0.4196  0.9512 -1.2315
 2068SOL     OW17836   2.828   0.408  16.178  0.1120 -0.0410  0.0825
 2068SOL    HW117837   2.775   0.450  16.110  0.2534 -0.4812 -0.3040
 2068SOL    HW217838   2.773   0.428  16.254 -0.0789 -1.8145  0.4067
 2069SOL     OW17839   2.411   1.496   9.850  0.6441 -0.2048  0.3136
 2069SOL    HW117840   2.326   1.536   9.830  1.3988  2.2201  1.8745
 2069SOL    HW217841   2.447   1.555   9.916 -0.3207 -0.4745  1.0680
 2070SOL     OW17842   3.343   2.646  12.585  0.3767  0.3033 -0.2578
 2070SOL    HW117843   3.355   2.713  12.517  0.9618  0.0200 -0.4322
 2070SOL    HW217844   3.251   2.625  12.567  0.1989  0.2466  0.7445
 2071SOL     OW17845   1.790   1.965  17.500 -0.3442  0.0601 -0.6609
 2071SOL    HW117846   1.807   1.874  17.475  0.2716  0.2421 -0.8996
 2071SOL    HW217847   1.880   1.998  17.503 -0.9761  1.7639 -0.2206
 2072SOL     OW17848   2.136   3.370   8.231  0.1984 -0.9212  0.1619
 2072SOL    HW117849   2.226   3.363   8.263  1.0460 -0.5250 -2.1483
 2072SOL    HW217850   2.116   3.457   8.266 -3.4175 -0.6347 -2.5663
 2073SOL     OW17851   0.707   2.275   8.300 -0.0029 -0.4567 -0.4930
 2073SOL    HW117852   0.647   2.274   8.225  0.8051 -0.9381 -1.1257
 2073SOL    HW217853   0.746   2.362   8.290  1.6904 -1.2673 -0.8483
 2074SOL     OW17854   1.317   1.624   2.820 -0.2651 -0.0333 -0.2714
 2074SOL    HW117855   1.316   1.568   2.742 -1.0115 -0.3917 -0.0076
 2074SOL    HW217856   1.262   1.692   2.779 -0.2335  0.4869  0.5489
 2075SOL     OW17857   3.804   0.590  16.559  0.6096  0.8895  0.2868
 2075SOL    HW117858   3.746   0.665  16.574  0.1444  0.7521 -0.8364
 2075SOL    HW217859   3.780   0.538  16.635 -1.1592 -2.4118 -2.5794
 2076SOL     OW17860   1.225   4.131   3.794  0.0468  0.0839 -0.5561
 2076SOL    HW117861   1.282   4.174   3.858 -1.7552  0.8209  0.5516
 2076SOL    HW217862   1.195   4.208   3.747  2.5995  1.3609 -0.0888
 2077SOL     OW17863   0.394   0.301  14.000 -0.1685 -0.3463 -0.0177
 2077SOL    HW117864   0.379   0.394  14.016  0.9292 -0.2531  0.5075
 2077SOL    HW217865   0.454   0.318  13.927  0.2299  1.2446  0.6808
 2078SOL     OW17866   1.863   0.045   6.348  0.0530  0.0575  0.0672
 2078SOL    HW117867   1.805   4.708   6.376 -1.5487  1.7096  1.0157
 2078SOL    HW217868   1.814   0.084   6.276  1.4867 -0.2055 -1.0586
 2079SOL     OW17869   2.299   1.478   2.695 -0.0822  0.1098  0.1315
 2079SOL    HW117870   2.329   1.554   2.646 -1.7652  0.4653 -0.3426
 2079SOL    HW217871   2.230   1.511   2.753  1.1226  1.8702  0.5622
 2080SOL     OW17872   2.479   1.479   5.919  0.3740  0.2568 -0.7418
 2080SOL    HW117873   2.486   1.409   5.984 -0.4434  0.0279 -0.9003
 2080SOL    HW217874   2.466   1.433   5.836 -1.4450  0.7896 -0.7497
 2081SOL     OW17875   0.218   0.386   2.886 -0.5282 -0.2585 -0.2180
 2081SOL    HW117876   0.284   0.358   2.823  0.6715 -0.0134  0.9208
 2081SOL    HW217877   0.141   0.393   2.830 -1.2210  0.8348  0.8574
 2082SOL     OW17878   0.809   0.712   5.561  0.2872 -0.1139 -0.2745
 2082SOL    HW117879   0.765   0.796   5.570  0.6917  0.1617 -0.9100
 2082SOL    HW217880   0.868   0.733   5.489 -0.6110  0.4306 -0.8421
 2083SOL     OW17881   1.559   0.494  14.977 -0.1709  0.4259 -0.1091
 2083SOL    HW117882   1.479   0.538  15.008  0.4889  1.4903  0.1135
 2083SOL    HW217883   1.597   0.508  15.064 -1.1331 -1.1257  0.5558
 2084SOL     OW17884   0.579   2.503   1.643  0.5322  0.6550 -0.2110
 2084SOL    HW117885   0.641   2.508   1.571  0.7650  0.5956 -0.0145
 2084SOL    HW217886   0.500   2.495   1.589  1.2208 -1.2858 -0.9211
 2085SOL     OW17887   0.525   3.740   0.406  0.3856  0.3932  0.3046
 2085SOL    HW117888   0.617   3.713   0.400  0.5594  0.9233  0.5957
 2085SOL    HW217889   0.482   3.655   0.405  1.4355 -0.1318 -1.2331
 2086SOL     OW17890   4.707   2.771   9.690  0.3888 -0.4376 -0.0627
 2086SOL    HW117891   4.726   2.677   9.681 -4.1302 -1.4552  0.8918
 2086SOL    HW217892   4.622   2.771   9.733  0.5576 -1.6543  0.2782
 2087SOL     OW17893   4.366   2.264   9.028 -0.5297  0.0307 -0.0158
 2087SOL    HW117894   4.393   2.173   9.040 -0.3868  0.0068 -0.5242
 2087SOL    HW217895   4.392   2.276   8.936  0.0775 -3.7090 -0.3418
 2088SOL     OW17896   1.497   3.093   4.452 -0.4360  0.3177  0.3694
 2088SOL    HW117897   1.508   3.072   4.545  0.5373 -0.8911 -0.0168
 2088SOL    HW217898   1.569   3.156   4.444 -0.9042  0.8536  0.3250
 2089SOL     OW17899   3.297   0.748  10.655 -0.3148  0.6355  0.2784
 2089SOL    HW117900   3.299   0.689  10.580 -0.2495  0.8150  0.1411
 2089SOL    HW217901   3.338   0.827  10.622  0.9654 -0.4062 -0.6137
 2090SOL     OW17902   2.961   4.108   9.928  0.0734 -0.2151 -0.6395
 2090SOL    HW117903   2.886   4.136   9.875 -0.3193 -0.8237 -0.4072
 2090SOL    HW217904   2.919   4.093  10.012  1.2794 -1.9984 -0.3447
 2091SOL     OW17905   2.641   2.386   6.618  0.7953  0.4732  0.1232
 2091SOL    HW117906   2.730   2.352   6.627  0.3826 -1.3292 -2.4925
 2091SOL    HW217907   2.632   2.379   6.523  0.1316 -2.1758  0.3986
 2092SOL     OW17908   2.842   1.720  17.526 -0.2318  0.0986  0.1834
 2092SOL    HW117909   2.892   1.696  17.448 -1.3385 -0.0917 -0.4624
 2092SOL    HW217910   2.755   1.692  17.497 -0.3201 -0.8440  1.3433
 2093SOL     OW17911   2.563   2.980   2.362 -1.0517 -0.9561 -0.1751
 2093SOL    HW117912   2.507   3.013   2.432 -2.4896 -1.5437 -1.0373
 2093SOL    HW217913   2.526   3.029   2.288 -0.4797 -0.8808 -0.4093
 2094SOL     OW17914   3.515   2.738  11.913 -0.3592  0.4059  0.9130
 2094SOL    HW117915   3.578   2.690  11.859 -1.2624 -1.5790  1.6387
 2094SOL    HW217916   3.561   2.820  11.934  0.0180  0.2285  0.7864
 2095SOL     OW17917   0.123   1.610   4.854  0.1315 -0.4263 -0.1030
 2095SOL    HW117918   0.171   1.594   4.773  2.4771 -0.6282  1.3198
 2095SOL    HW217919   0.124   1.706   4.855  1.9134 -0.5016  5.1090
 2096SOL     OW17920   3.824   3.735   4.630 -0.6107  0.5315  0.0062
 2096SOL    HW117921   3.806   3.645   4.602  1.1581 -0.8298  3.2918
 2096SOL    HW217922   3.849   3.777   4.547  1.1128 -1.9892 -0.7341
 2097SOL     OW17923   2.681   2.393  13.068  0.1876 -0.1740 -0.0449
 2097SOL    HW117924   2.705   2.460  13.004  2.5459 -1.7672 -0.8251
 2097SOL    HW217925   2.765   2.349  13.082 -0.0552 -0.2226  1.2914
 2098SOL     OW17926   0.444   2.697  11.767 -0.1138  0.1217  0.0551
 2098SOL    HW117927   0.428   2.708  11.861  2.1230 -1.3591  0.5964
 2098SOL    HW217928   0.379   2.630  11.748  1.3212 -1.3292  0.2489
 2099SOL     OW17929   0.577   0.748   3.977 -0.4794 -0.2702 -0.0303
 2099SOL    HW117930   0.631   0.678   3.940 -1.8244 -0.7798 -1.0214
 2099SOL    HW217931   0.490   0.711   3.966 -1.0749  1.0592  0.2622
 2100SOL     OW17932   2.199   3.811   6.940 -0.9206 -0.2985 -0.0941
 2100SOL    HW117933   2.168   3.808   7.031 -0.0840  0.9660  0.2348
 2100SOL    HW217934   2.113   3.830   6.903 -1.6132 -0.8461  1.2284
 2101SOL     OW17935   3.162   2.521   6.943 -0.1642 -0.1950 -0.5762
 2101SOL    HW117936   3.126   2.609   6.957  0.2078 -0.5202  2.3897
 2101SOL    HW217937   3.249   2.524   6.983 -0.1710  2.5731 -0.7917
 2102SOL     OW17938   0.826   4.405   3.664  0.4929 -0.0276  0.9169
 2102SOL    HW117939   0.894   4.454   3.618 -2.0295  2.3532 -0.3159
 2102SOL    HW217940   0.814   4.331   3.605  1.4974  2.0385 -1.9259
 2103SOL     OW17941   1.527   1.574   3.464 -0.5620  0.3186 -0.4409
 2103SOL    HW117942   1.530   1.479   3.473 -0.3779  0.5160  1.6640
 2103SOL    HW217943   1.438   1.594   3.493  0.3838  2.0695  1.3013
 2104SOL     OW17944   2.977   2.885   7.669  0.0128  0.1337 -0.1652
 2104SOL    HW117945   2.945   2.972   7.693  2.3792  0.6051  1.3100
 2104SOL    HW217946   3.021   2.852   7.748 -0.0626  1.2551  0.3386
 2105SOL     OW17947   0.192   4.696  11.682  0.3127 -0.0665 -0.1409
 2105SOL    HW117948   0.145   4.627  11.636 -1.2082  1.6938 -1.2191
 2105SOL    HW217949   0.276   4.691  11.636  2.4046 -1.6680  3.8054
 2106SOL     OW17950   3.856   3.400   3.422 -0.2526 -0.3109 -0.4609
 2106SOL    HW117951   3.775   3.366   3.386 -0.3397  0.0265 -0.5796
 2106SOL    HW217952   3.891   3.425   3.337 -2.0217 -1.4351 -1.5227
 2107SOL     OW17953   4.713   0.435   2.778 -0.3665 -0.1937 -0.1946
 2107SOL    HW117954   4.628   0.451   2.817 -0.8308 -2.4472 -0.2763
 2107SOL    HW217955   4.685   0.395   2.696 -1.4411  1.8780 -0.8404
 2108SOL     OW17956   2.699   2.159   7.407  0.0386 -0.2097  0.1860
 2108SOL    HW117957   2.661   2.123   7.487 -3.4995  1.6756 -0.6314
 2108SOL    HW217958   2.624   2.160   7.347  0.2898  1.0954 -0.1146
 2109SOL     OW17959   3.266   2.307   4.448 -0.4274  0.5060 -0.0776
 2109SOL    HW117960   3.294   2.396   4.472 -0.6036 -0.0736  2.3026
 2109SOL    HW217961   3.347   2.255   4.451  0.2679  1.6339  0.9327
 2110SOL     OW17962   0.874   0.930   7.851 -0.1450 -0.4181 -0.3326
 2110SOL    HW117963   0.967   0.934   7.828 -0.5228 -0.6827 -1.9127
 2110SOL    HW217964   0.879   0.943   7.945 -2.4910  0.8018 -0.3832
 2111SOL     OW17965   2.865   2.765   5.533 -0.7812 -0.2787 -1.1032
 2111SOL    HW117966   2.938   2.706   5.510 -1.2572 -0.8395 -1.1854
 2111SOL    HW217967   2.885   2.790   5.623 -4.4062  2.6659 -1.1563
 2112SOL     OW17968   4.319   0.246  12.593 -0.0185 -0.6136 -0.0410
 2112SOL    HW117969   4.355   0.158  12.595  1.5717  0.0645  1.0764
 2112SOL    HW217970   4.245   0.236  12.534 -2.0343 -1.2646  2.5956
 2113SOL     OW17971   2.673   3.460   0.150 -0.1206 -0.1656  0.2173
 2113SOL    HW117972   2.668   3.472   0.245  1.7389  0.5699  0.2320
 2113SOL    HW217973   2.616   3.531   0.122 -0.4728 -0.0856  1.1333
 2114SOL     OW17974   3.442   2.443   8.738  0.1435  0.2885  0.1344
 2114SOL    HW117975   3.535   2.446   8.718 -0.0021 -0.8489 -0.7016
 2114SOL    HW217976   3.441   2.516   8.800 -0.2295  0.6885 -0.3416
 2115SOL     OW17977   1.940   3.728   1.900 -0.7324  0.6604 -0.3321
 2115SOL    HW117978   1.908   3.700   1.985 -0.6462  1.2040 -0.1210
 2115SOL    HW217979   1.930   3.650   1.846 -3.1704 -0.0013  1.0951
 2116SOL     OW17980   0.075   4.584   7.895 -0.5421 -0.5183  0.3379
 2116SOL    HW117981   0.047   4.673   7.916  0.2909  0.0529 -1.0009
 2116SOL    HW217982   0.085   4.543   7.981  0.7024  1.6022  1.1829
 2117SOL     OW17983   3.869   3.506   7.772 -0.3360  0.4938 -0.4797
 2117SOL    HW117984   3.929   3.579   7.753 -0.4095  0.7175  0.1762
 2117SOL    HW217985   3.798   3.529   7.712 -0.2251  1.8197 -0.0933
 2118SOL     OW17986   0.216   1.404  15.365 -0.1797  0.9938  0.7298
 2118SOL    HW117987   0.180   1.481  15.409 -1.0036 -0.0418  1.8664
 2118SOL    HW217988   0.218   1.437  15.275  1.2979  1.4977  0.9494
 2119SOL     OW17989   3.970   4.282   7.447  0.3907  0.8790  0.3610
 2119SOL    HW117990   3.949   4.371   7.474  0.4321  0.6208  1.2227
 2119SOL    HW217991   4.057   4.263   7.482 -0.4363 -1.9149  0.8605
 2120SOL     OW17992   4.720   1.598   5.215  0.1453 -0.3487 -0.1969
 2120SOL    HW117993   4.645   1.575   5.270  0.7035 -1.6127  0.0389
 2120SOL    HW217994   0.047   1.539   5.258 -0.3417  2.2551  4.1293
 2121SOL     OW17995   3.975   0.796   7.973 -0.4311  0.5172  0.0144
 2121SOL    HW117996   4.027   0.764   8.046  1.1725 -2.0325 -2.2137
 2121SOL    HW217997   3.891   0.817   8.013 -1.0805 -1.7637 -0.1528
 2122SOL     OW17998   4.453   3.800   1.398 -0.2211 -0.0865  0.0503
 2122SOL    HW117999   4.401   3.727   1.367 -0.6720 -0.4706  1.7001
 2122SOL    HW218000   4.527   3.746   1.426  1.0976  0.9675 -1.4034
 2123SOL     OW18001   3.609   1.071   7.083  0.1754  0.2184 -0.0502
 2123SOL    HW118002   3.644   1.042   7.167 -2.6569 -1.9246  0.3915
 2123SOL    HW218003   3.525   1.103   7.117  0.0010  1.9627 -2.1093
 2124SOL     OW18004   4.382   4.247   8.826  0.0649  0.3972 -0.1859
 2124SOL    HW118005   4.439   4.220   8.899  2.2139  1.2859 -1.5418
 2124SOL    HW218006   4.352   4.159   8.803  0.0016  0.2043  0.6160
 2125SOL     OW18007   3.999   3.897   1.801 -0.4616  0.5944 -0.3840
 2125SOL    HW118008   3.936   3.876   1.870  2.0285 -0.0223  1.7051
 2125SOL    HW218009   4.054   3.962   1.844  0.8476  0.2515 -1.5262
 2126SOL     OW18010   1.346   3.306   8.716 -0.1281  0.4216  0.4498
 2126SOL    HW118011   1.423   3.313   8.774  1.8835  0.3965 -2.2318
 2126SOL    HW218012   1.352   3.221   8.674 -1.2157  2.1446 -3.1799
 2127SOL     OW18013   1.599   3.895   2.144  0.5496  0.7045 -0.4313
 2127SOL    HW118014   1.520   3.847   2.122  0.9261 -0.8271  1.6232
 2127SOL    HW218015   1.650   3.891   2.063  1.1250  1.3556 -0.1052
 2128SOL     OW18016   4.450   0.514   1.725 -0.1438 -0.1723 -0.5047
 2128SOL    HW118017   4.398   0.434   1.738 -0.7923  0.1136 -1.3431
 2128SOL    HW218018   4.532   0.467   1.709  0.7981  1.3644 -0.2219
 2129SOL     OW18019   2.369   2.923  11.086  0.1085  0.3409 -0.4448
 2129SOL    HW118020   2.348   2.936  11.178 -1.0299 -2.3845 -0.2913
 2129SOL    HW218021   2.463   2.909  11.090 -0.0019  0.2191  1.3979
 2130SOL     OW18022   3.881   0.391   3.051  0.0187 -0.2793  0.6772
 2130SOL    HW118023   3.891   0.328   3.122 -1.8405 -0.9978  0.3132
 2130SOL    HW218024   3.868   0.471   3.101  0.9347  0.0390  0.3915
 2131SOL     OW18025   4.631   3.442   9.273 -0.2451 -0.2285 -0.4979
 2131SOL    HW118026   4.536   3.451   9.265 -0.3971  0.8356  2.4344
 2131SOL    HW218027   4.645   3.360   9.320 -0.2507  0.1494  0.1575
 2132SOL     OW18028   0.644   0.883   8.618  0.8593  0.1791 -0.5616
 2132SOL    HW118029   0.738   0.888   8.634  0.8618  2.7677 -1.3785
 2132SOL    HW218030   0.624   0.917   8.530 -2.8444 -0.1714  0.1522
 2133SOL     OW18031   3.461   1.369   4.657  0.3850 -0.3937  0.1380
 2133SOL    HW118032   3.493   1.384   4.568  1.7769  0.6698  0.8080
 2133SOL    HW218033   3.403   1.300   4.625 -0.4616  0.2683  0.2672
 2134SOL     OW18034   3.497   0.828   4.326  0.1453  0.1755  0.9132
 2134SOL    HW118035   3.476   0.900   4.266  0.1561 -1.5464 -1.1675
 2134SOL    HW218036   3.576   0.789   4.288  0.2665  1.2232  0.0852
 2135SOL     OW18037   2.112   2.170  15.631  0.8612  0.3372 -0.2973
 2135SOL    HW118038   2.117   2.096  15.570 -0.7518  0.5468 -0.6956
 2135SOL    HW218039   2.167   2.145  15.705 -1.1917  0.2799  1.2295
 2136SOL     OW18040   2.017   3.506  16.699 -0.6911 -0.5860 -0.2727
 2136SOL    HW118041   2.018   3.499  16.795 -0.8298  0.5472 -0.1769
 2136SOL    HW218042   1.965   3.586  16.687  0.4641  0.4512  1.5812
 2137SOL     OW18043   3.372   3.646   8.474  0.0315  0.0112  0.3532
 2137SOL    HW118044   3.293   3.701   8.482  2.2884  3.3185 -0.0959
 2137SOL    HW218045   3.407   3.654   8.386  1.3747  1.7766  1.0462
 2138SOL     OW18046   3.284   4.414  17.442  0.2855  0.6831  0.0403
 2138SOL    HW118047   3.289   4.372  17.528 -0.0340  2.1049  0.7625
 2138SOL    HW218048   3.220   4.362  17.394  0.9384  0.2294 -0.3337
 2139SOL     OW18049   0.255   4.641  11.298 -0.4011  0.2237 -0.3265
 2139SOL    HW118050   0.257   4.551  11.265  0.3213  0.2509 -0.3582
 2139SOL    HW218051   0.184   4.637  11.362  2.5018  1.5241  3.0136
 2140SOL     OW18052   2.730   0.280   2.829 -0.2258 -1.0565 -0.1750
 2140SOL    HW118053   2.796   0.240   2.774 -2.2369 -3.9191 -0.4991
 2140SOL    HW218054   2.659   0.288   2.765 -0.6481 -1.6287  0.2232
 2141SOL     OW18055   1.918   1.272   8.468  0.6564 -0.3915  0.2553
 2141SOL    HW118056   1.862   1.343   8.498 -0.4960 -1.0056 -0.4282
 2141SOL    HW218057   1.944   1.304   8.381 -1.1924  1.9757  0.5653
 2142SOL     OW18058   0.067   1.938   5.867 -0.0485 -0.1043 -0.5666
 2142SOL    HW118059   0.029   1.895   5.790  0.8380 -1.9215  0.0176
 2142SOL    HW218060   0.075   1.859   5.920  0.9084  0.2224 -0.2313
 2143SOL     OW18061   1.685   3.940   8.469  0.3506 -0.8349  0.1446
 2143SOL    HW118062   1.717   3.947   8.559  0.2564  3.6107 -0.1834
 2143SOL    HW218063   1.742   3.866   8.446  0.5511 -0.6500  0.0407
 2144SOL     OW18064   2.672   2.065   8.793  0.4808  0.6818 -0.5322
 2144SOL    HW118065   2.695   1.985   8.744 -2.6672 -0.4863 -0.0986
 2144SOL    HW218066   2.716   2.133   8.742 -0.4880  2.1136  0.5586
 2145SOL     OW18067   1.932   2.940  13.095  0.0158 -0.2704 -0.0369
 2145SOL    HW118068   1.859   2.936  13.158 -1.2144 -0.8601 -1.4900
 2145SOL    HW218069   2.004   2.902  13.144  0.4088 -1.9935 -1.9639
 2146SOL     OW18070   3.963   1.545   3.462 -0.0515 -0.1197 -0.4287
 2146SOL    HW118071   3.970   1.601   3.385  0.2316 -0.4433 -0.6357
 2146SOL    HW218072   4.048   1.501   3.454  1.2668  2.9027 -3.3130
 2147SOL     OW18073   3.506   3.110   3.108 -0.3262 -0.3983 -0.3820
 2147SOL    HW118074   3.432   3.121   3.168 -1.0451 -0.9612 -1.1681
 2147SOL    HW218075   3.478   3.147   3.024 -1.9194  0.0369  0.3253
 2148SOL     OW18076   3.101   4.269   0.243  0.2391  0.3381  0.1062
 2148SOL    HW118077   3.068   4.262   0.333 -2.3550  1.8543 -0.7158
 2148SOL    HW218078   3.193   4.290   0.260 -0.4276  1.6930  2.1527
 2149SOL     OW18079   4.245   3.093   5.589 -0.2813  0.0770 -0.1510
 2149SOL    HW118080   4.294   3.113   5.509 -2.1090 -1.1033 -1.5858
 2149SOL    HW218081   4.277   3.148   5.661  1.2223 -0.8660 -0.0976
 2150SOL     OW18082   3.348   2.316   7.409 -0.1570 -0.0891 -0.7362
 2150SOL    HW118083   3.405   2.297   7.484 -1.4660  2.9415  1.0095
 2150SOL    HW218084   3.297   2.390   7.441  2.6187  1.3732  0.3051
 2151SOL     OW18085   3.287   2.277  17.160 -0.3696  0.1968 -0.1817
 2151SOL    HW118086   3.307   2.187  17.134  1.3743  0.2667  0.9078
 2151SOL    HW218087   3.353   2.328  17.114 -2.7104  1.3954 -2.1997
 2152SOL     OW18088   4.653   2.362   2.346 -0.2454  0.3443 -0.0855
 2152SOL    HW118089   0.005   2.346   2.308 -0.3897  0.2968 -0.3954
 2152SOL    HW218090   4.658   2.457   2.346  1.0260  0.2815 -0.4981
 2153SOL     OW18091   3.566   1.811   6.389 -0.1904  0.4528 -0.3535
 2153SOL    HW118092   3.619   1.838   6.464 -1.9628  2.5087  0.1614
 2153SOL    HW218093   3.494   1.873   6.402 -0.2690 -0.0025  1.3142
 2154SOL     OW18094   0.604   1.315   7.651  0.0232  0.5299 -0.0113
 2154SOL    HW118095   0.644   1.322   7.564 -1.6547 -2.5278 -1.0520
 2154SOL    HW218096   0.652   1.236   7.678  0.0485  0.8274  0.7895
 2155SOL     OW18097   2.503   4.641   3.958 -0.3074  0.1514  0.1608
 2155SOL    HW118098   2.455   4.696   4.019  0.7485  0.8667  0.3447
 2155SOL    HW218099   2.451   4.662   3.881  0.1053 -1.0116 -0.4421
 2156SOL     OW18100   0.674   2.428   1.260  0.6502  0.3455  0.4604
 2156SOL    HW118101   0.652   2.495   1.195 -0.1144 -0.1376  0.2209
 2156SOL    HW218102   0.591   2.383   1.279  1.2033 -0.4270  1.0505
 2157SOL     OW18103   3.572   3.162  15.903 -0.2368  0.3488 -0.6833
 2157SOL    HW118104   3.488   3.166  15.858  0.3167  3.3629 -1.4903
 2157SOL    HW218105   3.624   3.124  15.833  2.7704  0.0391  1.7340
 2158SOL     OW18106   3.820   3.972   1.616 -0.4778 -0.0088  0.3156
 2158SOL    HW118107   3.880   3.936   1.681  1.2928 -0.2889 -1.4595
 2158SOL    HW218108   3.774   4.046   1.655 -3.6620 -1.1452 -1.2446
 2159SOL     OW18109   0.154   1.258   7.387  0.0595 -0.4722 -0.3076
 2159SOL    HW118110   0.203   1.317   7.444 -0.1431 -0.9031  0.3134
 2159SOL    HW218111   0.193   1.179   7.423  0.1611 -0.2624  0.0459
 2160SOL     OW18112   3.518   0.126  10.774 -0.3312  0.2161 -0.1038
 2160SOL    HW118113   3.520   0.046  10.828  0.7838  1.1959  1.2963
 2160SOL    HW218114   3.586   0.101  10.712 -0.5557  1.5519 -0.8711
 2161SOL     OW18115   0.810   2.986   8.669 -0.0138  0.3907 -0.2873
 2161SOL    HW118116   0.759   2.908   8.649  1.0137 -0.2429 -0.4765
 2161SOL    HW218117   0.808   2.993   8.764 -0.4159  2.7251 -0.4908
 2162SOL     OW18118   2.359   1.075   4.616  0.1513 -0.2051  0.1448
 2162SOL    HW118119   2.267   1.099   4.620  0.7009  2.2631 -2.0275
 2162SOL    HW218120   2.401   1.124   4.687  0.2952 -2.0650  1.3447
 2163SOL     OW18121   3.175   4.019   5.506  0.6103  0.2195  0.0487
 2163SOL    HW118122   3.138   3.954   5.566  1.8413  0.2061  0.8020
 2163SOL    HW218123   3.127   4.001   5.425  0.1295 -3.2497  1.0962
 2164SOL     OW18124   1.389   2.880   7.505 -0.0662 -0.0048  0.2137
 2164SOL    HW118125   1.439   2.922   7.575  2.3141 -0.1746 -1.3979
 2164SOL    HW218126   1.307   2.930   7.505  0.0616  0.2079  0.8318
 2165SOL     OW18127   2.896   2.782   2.362 -0.0356 -0.2136 -0.6351
 2165SOL    HW118128   2.869   2.759   2.273  1.2864 -0.7608 -0.8858
 2165SOL    HW218129   2.978   2.732   2.368  0.8983  1.3306 -0.7247
 2166SOL     OW18130   0.687   2.123   6.102 -0.2344  0.2719  0.3793
 2166SOL    HW118131   0.646   2.066   6.037  0.9953 -1.1778  0.8633
 2166SOL    HW218132   0.680   2.204   6.053  0.5762 -0.1418 -0.4131
 2167SOL     OW18133   2.384   2.524   0.820  0.2493  0.0010  0.5879
 2167SOL    HW118134   2.432   2.562   0.894  1.9315 -2.7909  0.9482
 2167SOL    HW218135   2.383   2.430   0.836  1.3829 -0.6134 -2.9271
 2168SOL     OW18136   0.535   3.237   3.951 -0.2885  0.0625  0.3291
 2168SOL    HW118137   0.497   3.300   4.013  0.6932  1.8559 -0.9103
 2168SOL    HW218138   0.629   3.254   3.957 -0.9932  4.5931 -1.8710
 2169SOL     OW18139   3.358   3.561   7.421 -0.2834 -0.1274 -0.1141
 2169SOL    HW118140   3.443   3.535   7.384 -0.5885 -1.0411 -0.1718
 2169SOL    HW218141   3.333   3.637   7.368  1.3598  1.9665  2.1148
 2170SOL     OW18142   1.280   3.819   3.039  0.2556 -0.2931  0.6172
 2170SOL    HW118143   1.285   3.910   3.067 -1.0838  0.2068 -0.7312
 2170SOL    HW218144   1.347   3.776   3.091  0.1949 -1.1003  0.0303
 2171SOL     OW18145   3.069   1.765   0.725  0.3985 -0.0105 -0.6820
 2171SOL    HW118146   2.990   1.814   0.747  0.8750  1.2065 -1.7091
 2171SOL    HW218147   3.136   1.833   0.720  1.1515 -0.6623  0.3925
 2172SOL     OW18148   0.509   4.461   1.243  0.4097  0.4210 -0.5464
 2172SOL    HW118149   0.548   4.484   1.159  0.8537  1.8068  0.0438
 2172SOL    HW218150   0.443   4.530   1.253  1.0694  1.0934 -0.8532
 2173SOL     OW18151   0.156   1.758  16.140  0.0186 -0.2380  0.3372
 2173SOL    HW118152   0.137   1.798  16.225 -0.9733 -1.4627  0.6813
 2173SOL    HW218153   0.150   1.839  16.090  0.6659  0.0015  0.6476
 2174SOL     OW18154   3.657   0.978   1.488 -0.1002 -0.5823  0.4189
 2174SOL    HW118155   3.735   0.953   1.537  0.5661  0.1645 -0.2782
 2174SOL    HW218156   3.674   1.063   1.448 -2.3003  0.2574  1.2484
 2175SOL     OW18157   3.108   4.135   9.014  0.7785  0.5130  0.0868
 2175SOL    HW118158   3.129   4.199   8.946 -0.2332  1.6970  0.8881
 2175SOL    HW218159   3.016   4.157   9.021  0.0111 -2.6052 -0.2907
 2176SOL     OW18160   4.215   0.972   6.365  0.3444  0.2876 -0.0497
 2176SOL    HW118161   4.190   1.037   6.431  0.0705  1.6433 -1.4697
 2176SOL    HW218162   4.306   0.990   6.342  0.6618 -1.2840 -0.0224
 2177SOL     OW18163   0.065   4.726  15.587 -0.0323  0.5670 -0.1262
 2177SOL    HW118164   0.059   0.058  15.518 -0.6910  0.6711  0.0240
 2177SOL    HW218165   0.008   0.036  15.650  1.5622  0.8188  1.1410
 2178SOL     OW18166   0.465   1.924   6.650 -0.0239 -0.1865  0.4332
 2178SOL    HW118167   0.395   1.989   6.641  0.3355  0.3767  1.7088
 2178SOL    HW218168   0.418   1.847   6.618 -0.2510  0.2830 -0.3868
 2179SOL     OW18169   2.058   0.692   2.951  0.7797  0.2680 -0.1135
 2179SOL    HW118170   2.123   0.746   2.907 -0.2277  2.6825  1.3694
 2179SOL    HW218171   2.109   0.611   2.954 -2.0484 -1.5214 -0.3964
 2180SOL     OW18172   3.933   2.542   9.482 -0.1116 -0.8076 -0.2555
 2180SOL    HW118173   3.965   2.572   9.567 -2.1829  1.5676 -0.3229
 2180SOL    HW218174   3.986   2.465   9.461  0.6621  0.1101 -1.6090
 2181SOL     OW18175   3.095   3.055   1.552  0.3236 -0.0771 -0.5309
 2181SOL    HW118176   3.007   3.018   1.560  1.0202 -1.3029  1.2784
 2181SOL    HW218177   3.122   3.001   1.477 -2.5252 -2.7173  0.3864
 2182SOL     OW18178   2.903   1.269   6.733  0.5792  0.2076  0.2074
 2182SOL    HW118179   2.973   1.213   6.767  1.9426  1.3249 -0.7760
 2182SOL    HW218180   2.843   1.201   6.701  0.5199 -0.4040  1.5879
 2183SOL     OW18181   0.134   1.700   7.944 -0.2509 -0.4015 -0.0223
 2183SOL    HW118182   0.059   1.748   7.908  1.0511  1.1491 -0.6672
 2183SOL    HW218183   0.148   1.634   7.875  0.6666 -0.7263  0.4815
 2184SOL     OW18184   3.035   2.283   6.939  0.0769 -0.0481 -0.5293
 2184SOL    HW118185   2.967   2.318   6.996 -0.6519  0.6701 -1.8438
 2184SOL    HW218186   3.085   2.363   6.924 -0.2338  0.1403 -0.5433
 2185SOL     OW18187   0.303   4.258  16.704  0.0256  0.0653 -0.3580
 2185SOL    HW118188   0.340   4.209  16.631 -0.3588  1.0553 -1.2074
 2185SOL    HW218189   0.381   4.296  16.746 -0.2248  0.4411 -0.2315
 2186SOL     OW18190   4.042   0.086   7.648  0.2104  0.2776  0.5204
 2186SOL    HW118191   4.099   0.086   7.725  0.7754  1.1302  0.1038
 2186SOL    HW218192   4.013   4.730   7.652 -0.6643  0.5432  0.1412
 2187SOL     OW18193   4.034   2.796   6.414  0.1883 -0.1089 -0.0679
 2187SOL    HW118194   3.945   2.760   6.413 -0.0297  0.4207 -0.6726
 2187SOL    HW218195   4.012   2.888   6.397  0.7746  0.2752  1.2670
 2188SOL     OW18196   1.157   3.330   7.327  0.4113  0.3392  0.2680
 2188SOL    HW118197   1.186   3.293   7.243  0.4492  1.6911 -0.3135
 2188SOL    HW218198   1.075   3.283   7.340 -0.4531  2.0339  0.8870
 2189SOL     OW18199   0.103   3.165  13.092  0.4778 -0.5676 -0.3384
 2189SOL    HW118200   0.093   3.260  13.086  1.2695 -0.5550 -1.4527
 2189SOL    HW218201   0.197   3.152  13.082  0.8567  2.9779 -1.3588
 2190SOL     OW18202   2.837   4.157  12.480  0.1021  0.3131 -0.0483
 2190SOL    HW118203   2.901   4.088  12.463  1.1881  1.6867 -1.4537
 2190SOL    HW218204   2.797   4.168  12.394 -2.2079 -1.5375  0.7614
 2191SOL     OW18205   0.350   2.065   7.003  0.1992  0.6844 -0.2194
 2191SOL    HW118206   0.311   1.995   6.950 -0.3905 -0.1531  1.3477
 2191SOL    HW218207   0.439   2.033   7.018  0.3133  1.5035  0.8319
 2192SOL     OW18208   2.829   3.558  15.379 -0.1141  0.5503  0.7317
 2192SOL    HW118209   2.735   3.549  15.365  0.0174 -0.8471  0.7536
 2192SOL    HW218210   2.860   3.555  15.289  2.0540  2.1751  1.4035
 2193SOL     OW18211   0.573   4.404   4.443  0.3228  0.3413 -0.2287
 2193SOL    HW118212   0.510   4.417   4.513 -0.8245  0.2521 -1.2603
 2193SOL    HW218213   0.525   4.334   4.397  1.4523 -0.5211 -0.1057
 2194SOL     OW18214   0.221   4.022   5.336  0.6709  0.5855  0.2969
 2194SOL    HW118215   0.161   4.074   5.390 -1.2969  0.3151 -1.6120
 2194SOL    HW218216   0.180   3.937   5.325 -0.6029  1.3566 -0.9761
 2195SOL     OW18217   2.135   0.768   3.968 -0.2976 -0.0646 -0.1916
 2195SOL    HW118218   2.199   0.819   3.918  0.4612  0.0760  0.9058
 2195SOL    HW218219   2.170   0.682   3.941  0.0404 -0.8669  2.7878
 2196SOL     OW18220   2.344   0.984  10.342  0.1716  0.1061 -0.4091
 2196SOL    HW118221   2.289   1.045  10.294 -1.1427  0.8517  2.0260
 2196SOL    HW218222   2.389   0.935  10.273 -0.8175 -1.4611  0.0506
 2197SOL     OW18223   4.557   2.007   9.693  0.3774 -0.4382 -0.2707
 2197SOL    HW118224   4.467   2.010   9.663  1.0920  0.3193 -2.3585
 2197SOL    HW218225   4.556   1.997   9.788 -1.7261 -0.7554 -0.3313
 2198SOL     OW18226   3.570   3.258   8.385  0.1931  0.1467 -0.0540
 2198SOL    HW118227   3.478   3.265   8.411  0.3219  1.3218  0.0872
 2198SOL    HW218228   3.558   3.282   8.293 -0.4158  1.1015  0.2808
 2199SOL     OW18229   4.600   0.462   5.390 -0.1139 -0.4842 -0.6458
 2199SOL    HW118230   4.672   0.408   5.422 -0.4558 -0.2882  0.4567
 2199SOL    HW218231   4.628   0.554   5.394 -1.8241  0.0384 -0.7228
 2200SOL     OW18232   1.648   3.130   5.491 -0.0309  0.6088 -0.3467
 2200SOL    HW118233   1.686   3.042   5.494 -0.8421  0.2078 -1.6326
 2200SOL    HW218234   1.678   3.168   5.573  0.1712 -0.3888  0.0362
 2201SOL     OW18235   2.274   3.757  15.864 -0.3700 -0.4566  0.3554
 2201SOL    HW118236   2.295   3.755  15.958 -0.8967 -2.8095  0.4168
 2201SOL    HW218237   2.266   3.852  15.853  0.6597 -0.1556  2.1566
 2202SOL     OW18238   0.404   0.053   3.574 -0.3842 -0.1916 -0.0363
 2202SOL    HW118239   0.456   0.088   3.502 -1.7161  0.4100 -0.7203
 2202SOL    HW218240   0.314   0.047   3.540  0.5682  1.0317 -2.7780
 2203SOL     OW18241   1.598   3.522  15.404 -0.5809 -0.7716 -0.1940
 2203SOL    HW118242   1.675   3.496  15.454 -0.6035 -0.0225  0.2325
 2203SOL    HW218243   1.617   3.487  15.317  3.2606  0.1396  0.2772
 2204SOL     OW18244   2.267   1.932   3.339 -0.1264  0.4221 -0.3181
 2204SOL    HW118245   2.230   1.849   3.370 -0.6498  0.9740  0.5703
 2204SOL    HW218246   2.205   1.997   3.372  0.0134  1.0732 -1.3353
 2205SOL     OW18247   4.685   2.592  11.515 -0.1823 -0.3230  0.1868
 2205SOL    HW118248   4.725   2.679  11.514  1.0782 -0.9546 -4.6392
 2205SOL    HW218249   4.711   2.554  11.599 -1.9873  1.4656  1.5419
 2206SOL     OW18250   0.107   2.985   3.948 -0.0269  0.1868  0.8797
 2206SOL    HW118251   0.139   3.012   4.034 -1.0467  1.8069  0.7500
 2206SOL    HW218252   0.071   2.906   3.989 -0.9852 -0.6521 -1.6325
 2207SOL     OW18253   4.696   4.471   5.635 -0.1255  0.0362 -0.2002
 2207SOL    HW118254   0.014   4.474   5.555 -1.4127 -0.7359 -1.0708
 2207SOL    HW218255   0.024   4.484   5.706 -0.2268  0.7149 -0.2334
 2208SOL     OW18256   0.580   3.149   1.962  0.2077  0.4721 -0.2768
 2208SOL    HW118257   0.517   3.145   2.034 -0.6087  1.1135 -0.9622
 2208SOL    HW218258   0.593   3.054   1.964 -2.2134  0.0626 -4.2854
 2209SOL     OW18259   3.636   4.494  15.963  0.2768  0.6202  0.4287
 2209SOL    HW118260   3.561   4.512  16.019 -0.8226  1.2471 -1.2538
 2209SOL    HW218261   3.660   4.586  15.971  1.5954  0.3439 -0.3135
 2210SOL     OW18262   3.661   1.585   7.804  0.2713  0.5298 -0.1505
 2210SOL    HW118263   3.692   1.495   7.797  0.5719  0.4473  2.5232
 2210SOL    HW218264   3.732   1.634   7.761  1.3763 -0.3614  0.6503
 2211SOL     OW18265   1.406   1.766   4.508 -0.0227 -0.0288 -0.0206
 2211SOL    HW118266   1.340   1.719   4.559 -1.2826 -1.0464 -2.5461
 2211SOL    HW218267   1.389   1.851   4.548  3.1022  1.9691 -2.9329
 2212SOL     OW18268   2.673   2.212   3.336  0.1000 -0.5437  0.4637
 2212SOL    HW118269   2.748   2.236   3.390 -0.6045  2.6144  0.0652
 2212SOL    HW218270   2.695   2.249   3.250 -0.2731 -1.1806  0.0950
 2213SOL     OW18271   2.607   1.863   2.921 -0.7918  0.4852  0.1153
 2213SOL    HW118272   2.586   1.781   2.877  0.8970  0.3624 -0.4508
 2213SOL    HW218273   2.516   1.891   2.933 -0.5704  1.7948 -1.3101
 2214SOL     OW18274   0.679   1.631   3.982 -0.3068  0.0379  0.1328
 2214SOL    HW118275   0.602   1.627   3.926 -1.4923  1.8140  1.6375
 2214SOL    HW218276   0.714   1.719   3.972  1.0107 -0.2449  2.1940
 2215SOL     OW18277   4.053   1.945   8.250  0.2260 -0.5713  0.1365
 2215SOL    HW118278   4.084   1.855   8.253  3.7222  0.6549  1.1568
 2215SOL    HW218279   3.967   1.931   8.291  0.0270 -1.6906 -0.6681
 2216SOL     OW18280   3.339   3.401   3.221  0.2563  0.0462  0.2766
 2216SOL    HW118281   3.256   3.380   3.179  1.1110 -1.6207 -0.5592
 2216SOL    HW218282   3.393   3.427   3.146  0.0873  1.7396  0.7475
 2217SOL     OW18283   4.531   0.493   8.708 -0.3373  0.2298  0.2928
 2217SOL    HW118284   4.620   0.496   8.744  1.1401 -3.6528 -2.9391
 2217SOL    HW218285   4.483   0.464   8.785  1.7347  1.1854  1.9450
 2218SOL     OW18286   0.577   4.546   7.353 -0.4170  0.1873 -0.6529
 2218SOL    HW118287   0.523   4.522   7.428 -1.1833  2.3699 -0.5014
 2218SOL    HW218288   0.589   4.641   7.351 -1.3057  0.2952 -1.2194
 2219SOL     OW18289   3.032   0.783   1.792 -0.2373 -0.2375  0.1628
 2219SOL    HW118290   3.080   0.812   1.714 -0.5854  1.1167  0.4397
 2219SOL    HW218291   2.954   0.742   1.755 -0.9260  0.1439  1.2079
 2220SOL     OW18292   1.031   0.869  12.884  0.1435  0.2664  0.3040
 2220SOL    HW118293   1.030   0.888  12.790  2.4714 -0.6454  0.0932
 2220SOL    HW218294   0.938   0.853  12.901  0.1836 -2.1744 -1.6850
 2221SOL     OW18295   1.227   4.021   5.737 -0.5966 -0.0935  0.0846
 2221SOL    HW118296   1.133   4.033   5.751 -1.1435 -0.6865 -3.2415
 2221SOL    HW218297   1.243   4.111   5.708  1.5465 -1.2138 -2.1691
 2222SOL     OW18298   3.489   2.313   8.123 -0.5609  0.0443 -0.0349
 2222SOL    HW118299   3.399   2.341   8.139 -0.5073 -1.2342  2.5213
 2222SOL    HW218300   3.541   2.385   8.160  1.1925 -2.2071  1.8454
 2223SOL     OW18301   0.770   1.196   8.102 -0.1046  0.4662 -0.4936
 2223SOL    HW118302   0.777   1.262   8.171 -1.7714  2.0642 -1.8398
 2223SOL    HW218303   0.841   1.136   8.124  1.1551  1.7741 -1.0028
 2224SOL     OW18304   2.907   3.578   7.118 -0.4089 -0.5758 -0.6021
 2224SOL    HW118305   2.824   3.624   7.125 -0.0526 -0.1582  1.0975
 2224SOL    HW218306   2.894   3.519   7.193 -2.2146  2.7357  1.6980
 2225SOL     OW18307   3.823   1.305   9.299 -0.4010 -0.0546  0.0199
 2225SOL    HW118308   3.866   1.279   9.381 -2.8222  2.0109  1.9475
 2225SOL    HW218309   3.809   1.399   9.309  0.7572  0.3478 -2.1660
 2226SOL     OW18310   0.623   1.563   4.671  0.1843  0.0527 -0.4529
 2226SOL    HW118311   0.578   1.479   4.678 -0.8673  0.4986 -1.9633
 2226SOL    HW218312   0.575   1.616   4.735 -1.6847  0.2660 -2.0753
 2227SOL     OW18313   2.628   3.900  16.516  0.0625 -0.3370  0.4207
 2227SOL    HW118314   2.597   3.825  16.566 -0.7414  0.0695  0.5225
 2227SOL    HW218315   2.700   3.932  16.570  0.0095 -0.3743  0.5135
 2228SOL     OW18316   2.486   3.090  11.472 -0.0804 -0.2825  0.1658
 2228SOL    HW118317   2.470   3.159  11.536  0.9076 -2.3590  2.6507
 2228SOL    HW218318   2.448   3.128  11.393  1.1544 -0.4591 -0.5142
 2229SOL     OW18319   2.533   3.868   7.236  0.0034  0.8510  0.6386
 2229SOL    HW118320   2.564   3.955   7.261  1.3260  0.3362  0.7450
 2229SOL    HW218321   2.454   3.866   7.290 -0.7156 -3.0737 -0.5512
 2230SOL     OW18322   4.364   3.610   6.013 -0.6298  0.7321 -0.1751
 2230SOL    HW118323   4.438   3.637   6.068 -0.9354  0.9026  0.1537
 2230SOL    HW218324   4.318   3.560   6.081  2.0645  1.0269  1.8978
 2231SOL     OW18325   1.257   2.603   5.751  0.7037 -0.9182  0.1907
 2231SOL    HW118326   1.291   2.531   5.805 -1.2228  0.7942  3.7085
 2231SOL    HW218327   1.279   2.680   5.803 -1.4463  1.2387 -2.1131
 2232SOL     OW18328   4.159   4.466   6.652 -0.1535  0.0351  0.7807
 2232SOL    HW118329   4.157   4.432   6.742 -1.0192  0.0178  0.7543
 2232SOL    HW218330   4.247   4.436   6.627 -1.3505 -1.4543 -1.6082
 2233SOL     OW18331   1.055   3.044   1.591  0.6468  0.0071  0.4863
 2233SOL    HW118332   1.103   3.099   1.530  0.4530 -0.0301  0.2961
 2233SOL    HW218333   0.992   3.097   1.640  0.1990 -1.6362  1.6862
 2234SOL     OW18334   2.812   2.721   7.486  0.2088  0.5262 -0.1355
 2234SOL    HW118335   2.861   2.641   7.465 -1.1066  0.0319 -1.3207
 2234SOL    HW218336   2.864   2.760   7.556 -1.9654  0.8790  1.2535
 2235SOL     OW18337   0.701   4.599   2.492  0.3983 -0.7991  0.0009
 2235SOL    HW118338   0.715   4.622   2.400  2.9142  1.7470  1.0033
 2235SOL    HW218339   0.769   4.535   2.509 -2.1016 -4.3449 -3.3977
 2236SOL     OW18340   1.966   0.435  12.456 -0.1104 -0.2665 -0.3818
 2236SOL    HW118341   1.885   0.485  12.458  0.9277  1.3692  1.1881
 2236SOL    HW218342   1.959   0.404  12.546  1.6082 -0.6625 -0.3671
 2237SOL     OW18343   2.210   1.642   7.740 -0.6779  0.0653  0.1836
 2237SOL    HW118344   2.254   1.644   7.825  0.5662  3.3865 -0.5583
 2237SOL    HW218345   2.122   1.617   7.766  0.0569  0.6095  3.2354
 2238SOL     OW18346   4.255   2.976   9.527 -0.0522  0.2463 -0.5252
 2238SOL    HW118347   4.260   3.020   9.612 -0.3103  0.9560 -0.8727
 2238SOL    HW218348   4.293   3.036   9.463 -0.9469 -0.4019 -1.6754
 2239SOL     OW18349   4.432   2.280   3.026 -0.1861 -0.8697 -0.1992
 2239SOL    HW118350   4.432   2.210   2.961  2.2998  0.1266 -1.2470
 2239SOL    HW218351   4.524   2.278   3.052 -0.7036  2.0098  1.8474
 2240SOL     OW18352   0.464   2.708   7.282  0.0517  0.1571  0.2184
 2240SOL    HW118353   0.537   2.701   7.345 -0.6239 -3.2354  0.6305
 2240SOL    HW218354   0.413   2.634   7.315 -0.9629  0.9265  0.3756
 2241SOL     OW18355   3.831   1.692  14.069 -0.1084 -0.8064 -0.3130
 2241SOL    HW118356   3.910   1.739  14.097  0.8183 -2.1053 -0.7149
 2241SOL    HW218357   3.842   1.605  14.107  1.0931 -1.3433 -1.8687
 2242SOL     OW18358   3.760   1.727   3.147 -0.1820 -0.3209 -0.0478
 2242SOL    HW118359   3.723   1.689   3.068  0.4682 -0.9361 -0.0633
 2242SOL    HW218360   3.842   1.677   3.151  2.4608  3.9307 -0.8165
 2243SOL     OW18361   3.197   2.309   5.093 -0.9556  0.1250  0.8500
 2243SOL    HW118362   3.200   2.214   5.091  1.4314  0.2380 -0.8213
 2243SOL    HW218363   3.136   2.332   5.023  0.9747  2.2592 -0.1387
 2244SOL     OW18364   1.259   3.011  10.695 -0.6489  0.3329 -0.0865
 2244SOL    HW118365   1.173   3.027  10.733  0.0228  1.7372  0.8455
 2244SOL    HW218366   1.311   3.085  10.726 -1.0662 -0.7715  3.3319
 2245SOL     OW18367   1.127   3.372  12.025  0.5119 -0.0964  0.0059
 2245SOL    HW118368   1.198   3.437  12.026 -0.1580  0.6445 -0.8950
 2245SOL    HW218369   1.168   3.290  11.998  3.0662  1.6736 -1.5309
 2246SOL     OW18370   0.137   4.593   1.756  0.3743 -0.3917  0.3667
 2246SOL    HW118371   0.225   4.605   1.793  0.8074 -1.0585 -0.4486
 2246SOL    HW218372   0.108   4.526   1.819  0.7236 -0.2065  0.7280
 2247SOL     OW18373   1.470   4.221   5.072  0.5597 -0.2249 -0.1354
 2247SOL    HW118374   1.442   4.152   5.131 -0.2489 -0.6604 -1.0343
 2247SOL    HW218375   1.437   4.297   5.121 -0.5314 -1.1835  0.6073
 2248SOL     OW18376   1.438   2.726  11.753 -0.3042 -0.5980  0.0790
 2248SOL    HW118377   1.355   2.728  11.801 -2.3762 -0.5017 -3.4783
 2248SOL    HW218378   1.431   2.802  11.696 -0.3579  0.7877  1.9355
 2249SOL     OW18379   1.010   1.391   6.242 -0.2283 -0.1189  0.2368
 2249SOL    HW118380   1.056   1.367   6.322 -0.7628  0.0769  0.6018
 2249SOL    HW218381   1.069   1.463   6.220 -2.6915  1.9393  0.4352
 2250SOL     OW18382   3.799   3.997   7.823  0.4639  0.1849 -0.2824
 2250SOL    HW118383   3.760   3.988   7.736  0.0222  0.5847 -0.1244
 2250SOL    HW218384   3.806   4.092   7.822 -1.1379  0.3261  0.8376
 2251SOL     OW18385   0.752   1.289   8.717 -0.0406 -0.0962  0.2555
 2251SOL    HW118386   0.660   1.261   8.714 -0.7307  2.2220 -0.0957
 2251SOL    HW218387   0.783   1.237   8.791  0.4407  2.8323  2.0863
 2252SOL     OW18388   1.412   1.874   6.946  0.5835  0.9244 -0.1619
 2252SOL    HW118389   1.416   1.948   6.885 -1.2759  0.5097 -0.7789
 2252SOL    HW218390   1.323   1.840   6.944  0.7826  0.5241 -1.9573
 2253SOL     OW18391   2.768   2.403   9.100 -0.2307 -0.4054 -0.1285
 2253SOL    HW118392   2.766   2.311   9.072  0.9810 -0.1650 -1.0401
 2253SOL    HW218393   2.717   2.392   9.180 -2.3110 -1.3312 -1.5998
 2254SOL     OW18394   4.402   3.004  10.330 -0.7758  0.3496 -0.2796
 2254SOL    HW118395   4.335   3.033  10.268  1.1775  0.3084 -2.3929
 2254SOL    HW218396   4.352   2.964  10.401  0.1128  0.6060  0.5012
 2255SOL     OW18397   3.077   0.718  17.418 -0.1307 -0.2594  0.6697
 2255SOL    HW118398   3.000   0.771  17.398 -1.8990 -3.6647 -1.6068
 2255SOL    HW218399   3.138   0.791  17.410  0.2398 -0.6087  0.3351
 2256SOL     OW18400   0.378   4.553   8.007 -0.0223  0.3097  0.1589
 2256SOL    HW118401   0.321   4.557   8.083  0.1515  0.7296  0.2712
 2256SOL    HW218402   0.402   4.461   8.000 -0.3816  0.3723 -1.9497
 2257SOL     OW18403   1.198   1.023  16.977 -0.4026 -0.1925  0.4928
 2257SOL    HW118404   1.109   1.017  16.942  0.5814 -2.8220 -1.5498
 2257SOL    HW218405   1.254   0.994  16.905 -1.3578 -1.2697  0.1799
 2258SOL     OW18406   1.299   0.385   1.932 -0.4436  0.1926  0.4512
 2258SOL    HW118407   1.322   0.292   1.931 -1.1189  0.0145  0.9858
 2258SOL    HW218408   1.345   0.434   1.865  0.5109 -2.6293 -0.9682
 2259SOL     OW18409   3.522   1.339  17.514  0.2332  0.3064 -0.2167
 2259SOL    HW118410   3.537   1.277  17.585 -0.3028 -1.2766 -1.4976
 2259SOL    HW218411   3.466   1.405  17.555 -0.7826 -0.0922 -0.9681
 2260SOL     OW18412   3.354   2.433   1.181 -0.4011  0.3083  0.0592
 2260SOL    HW118413   3.264   2.401   1.171 -0.3849  1.2178 -3.3095
 2260SOL    HW218414   3.403   2.353   1.199 -1.6711 -0.9370 -1.8873
 2261SOL     OW18415   1.337   4.467   7.516 -0.2065 -0.9904  0.0767
 2261SOL    HW118416   1.317   4.560   7.505  1.9724 -0.4573  0.6140
 2261SOL    HW218417   1.343   4.463   7.611 -1.1446  1.9361  0.2372
 2262SOL     OW18418   4.395   2.113   5.693 -0.8982 -0.0065 -0.1625
 2262SOL    HW118419   4.448   2.124   5.772 -0.5059  0.1985 -0.4527
 2262SOL    HW218420   4.463   2.104   5.626 -0.0435 -0.9312  0.8333
 2263SOL     OW18421   2.464   1.460   3.512 -0.3762  0.5121 -0.1099
 2263SOL    HW118422   2.519   1.382   3.527 -0.8586  0.1334 -0.3187
 2263SOL    HW218423   2.488   1.478   3.421 -0.3625  0.7487 -0.0581
 2264SOL     OW18424   3.651   1.115   3.973  0.0945  0.4302 -0.4915
 2264SOL    HW118425   3.729   1.158   4.008  0.1775 -0.8077  0.8721
 2264SOL    HW218426   3.578   1.160   4.016  1.2029  1.7159  0.0367
 2265SOL     OW18427   3.048   3.458   2.126 -0.1042  0.4285  0.2815
 2265SOL    HW118428   3.070   3.521   2.194 -1.4963  1.0607  0.1469
 2265SOL    HW218429   3.039   3.517   2.051  1.5925 -0.0100 -0.2820
 2266SOL     OW18430   4.209   0.031   7.867 -0.0178  0.1737 -0.0266
 2266SOL    HW118431   4.297   0.026   7.905 -0.1171 -1.3586  0.0131
 2266SOL    HW218432   4.160   4.713   7.930  3.4829 -1.2844  1.5254
 2267SOL     OW18433   2.531   0.309   2.650 -0.1675  0.1094  0.3426
 2267SOL    HW118434   2.464   0.242   2.634 -0.1047  0.1483 -0.0789
 2267SOL    HW218435   2.477   0.387   2.661  0.0053  0.0445  1.5859
 2268SOL     OW18436   1.625   3.700   9.025  0.1735 -0.0263 -0.1286
 2268SOL    HW118437   1.555   3.733   8.969 -1.9003 -1.0726  1.8490
 2268SOL    HW218438   1.706   3.695   8.974 -0.5017  2.3165 -1.3877
 2269SOL     OW18439   3.022   0.713   9.789 -0.2910 -0.4200 -0.5225
 2269SOL    HW118440   3.081   0.752   9.725  0.5723  0.9281  1.0824
 2269SOL    HW218441   3.078   0.714   9.867  1.8016 -0.5448 -2.0203
 2270SOL     OW18442   4.487   1.851   4.168 -0.0879  0.0972  0.1493
 2270SOL    HW118443   4.527   1.899   4.241  0.0066  0.3884 -0.0946
 2270SOL    HW218444   4.528   1.902   4.098  0.1748  1.3799  1.2437
 2271SOL     OW18445   0.365   1.355  16.654  0.1262  0.2664  0.0413
 2271SOL    HW118446   0.436   1.347  16.591  0.9644 -1.0062  1.1530
 2271SOL    HW218447   0.418   1.372  16.732 -0.4420  2.4339 -0.0486
 2272SOL     OW18448   2.941   4.478  12.406  0.4318 -0.2599 -0.6599
 2272SOL    HW118449   2.845   4.477  12.406  0.3870  2.1373 -3.1834
 2272SOL    HW218450   2.960   4.398  12.356 -0.8021 -1.1284  0.2653
 2273SOL     OW18451   0.765   4.709   6.629  0.2976 -0.4479 -0.2043
 2273SOL    HW118452   0.796   4.658   6.704 -0.0525  0.8386  0.8231
 2273SOL    HW218453   0.676   4.725   6.663  0.7381  0.9888  0.2662
 2274SOL     OW18454   0.409   0.327   7.128 -0.0227 -0.2627 -0.0911
 2274SOL    HW118455   0.365   0.384   7.190 -2.2083  0.6300 -2.4677
 2274SOL    HW218456   0.500   0.336   7.157  0.0993  0.4063 -0.6656
 2275SOL     OW18457   0.016   1.786   2.594 -0.1146  0.4208 -0.0850
 2275SOL    HW118458   0.071   1.814   2.521  1.1663  2.5653  1.6968
 2275SOL    HW218459   4.682   1.745   2.543 -1.3398  0.0179  1.8978
 2276SOL     OW18460   1.954   3.622   3.441  0.2051  0.1640  0.0873
 2276SOL    HW118461   1.961   3.568   3.362  0.2437 -0.3142  0.4152
 2276SOL    HW218462   1.943   3.709   3.405  2.0022 -0.4637 -1.9575
 2277SOL     OW18463   1.744   1.350  11.196  0.3854  0.0162 -0.1744
 2277SOL    HW118464   1.783   1.272  11.154  2.6173  0.1896  1.5350
 2277SOL    HW218465   1.654   1.320  11.210 -0.1440  0.0765 -3.4949
 2278SOL     OW18466   0.938   2.622   5.199  0.5201 -0.5113  0.3406
 2278SOL    HW118467   0.861   2.568   5.210  1.2450 -1.2669  1.6317
 2278SOL    HW218468   0.965   2.585   5.115 -1.6397 -1.8048  0.2300
 2279SOL     OW18469   4.601   4.315   3.287  0.4298 -0.0411 -0.3268
 2279SOL    HW118470   4.558   4.301   3.372 -2.9232  0.1677 -1.9948
 2279SOL    HW218471   4.622   4.407   3.301 -0.5859  0.1153  0.1887
 2280SOL     OW18472   2.601   4.316  11.871 -0.4347 -0.0048  0.4375
 2280SOL    HW118473   2.628   4.340  11.959 -1.0352  0.4455  0.5007
 2280SOL    HW218474   2.598   4.400  11.825  0.3218 -0.2692 -0.0985
 2281SOL     OW18475   1.832   4.069   7.181  0.0467  0.2315  0.6842
 2281SOL    HW118476   1.737   4.075   7.189 -0.1325  1.0875 -2.0371
 2281SOL    HW218477   1.871   4.045   7.265  1.1742  2.2510  0.7369
 2282SOL     OW18478   1.517   0.568   2.991  0.4355  0.3569  0.6946
 2282SOL    HW118479   1.519   0.615   2.908  1.0308  0.0198  0.5255
 2282SOL    HW218480   1.428   0.535   3.000 -1.1012  3.9455 -1.3187
 2283SOL     OW18481   2.762   1.005   7.683 -0.0952  0.5124  0.2760
 2283SOL    HW118482   2.671   0.984   7.703  0.4772 -1.2651  1.1021
 2283SOL    HW218483   2.769   0.979   7.591  4.5925 -0.1886  0.8377
 2284SOL     OW18484   0.763   2.593  10.820  0.2846 -0.0863  0.1439
 2284SOL    HW118485   0.690   2.577  10.879  0.4275 -0.3043  0.2609
 2284SOL    HW218486   0.824   2.529  10.854  1.2949  0.9312  0.2559
 2285SOL     OW18487   1.263   2.020  15.496  0.4157  0.7110 -0.2423
 2285SOL    HW118488   1.308   1.981  15.421  1.3442  2.4297 -0.5820
 2285SOL    HW218489   1.230   1.941  15.539  0.5205  0.7722 -0.0509
 2286SOL     OW18490   3.991   1.792   1.691 -0.7911 -0.3900 -0.3435
 2286SOL    HW118491   4.035   1.764   1.611  1.5544  0.0866  0.7929
 2286SOL    HW218492   3.904   1.758   1.671 -0.9240  0.2209 -0.7895
 2287SOL     OW18493   4.484   4.076   9.318  0.4038 -0.2005 -0.5023
 2287SOL    HW118494   4.544   4.108   9.385  3.0688 -1.6148 -2.2511
 2287SOL    HW218495   4.446   3.998   9.360  0.0688 -0.3787 -1.1339
 2288SOL     OW18496   1.965   3.646  12.016  0.2122 -0.3684  0.2669
 2288SOL    HW118497   2.034   3.652  11.951  0.9320 -1.5285  0.9051
 2288SOL    HW218498   2.018   3.630  12.094  0.2225 -0.4217  0.2492
 2289SOL     OW18499   4.236   4.019   4.205 -0.0572  0.4123 -0.2022
 2289SOL    HW118500   4.259   4.072   4.128 -0.0384  2.4862  1.2285
 2289SOL    HW218501   4.148   3.996   4.175  0.4419 -1.1677 -0.4489
 2290SOL     OW18502   3.324   3.869  12.177 -0.4873  0.8237 -0.0507
 2290SOL    HW118503   3.343   3.838  12.088  0.8533  0.7824  0.2584
 2290SOL    HW218504   3.404   3.903  12.216  0.8756 -2.5652  0.1336
 2291SOL     OW18505   0.804   4.715  12.755 -0.7618  0.4294 -0.2625
 2291SOL    HW118506   0.878   0.027  12.715  1.9321 -0.4545  3.7143
 2291SOL    HW218507   0.772   4.678  12.672  3.6542  1.0880 -2.2817
 2292SOL     OW18508   3.646   0.303   6.829 -0.3861  0.2115  0.6028
 2292SOL    HW118509   3.581   0.297   6.899  0.6108 -2.0095  1.3615
 2292SOL    HW218510   3.725   0.311   6.883 -0.2950  0.4286  0.4357
 2293SOL     OW18511   0.216   1.160   6.721 -0.0553 -1.1655 -0.7742
 2293SOL    HW118512   0.183   1.170   6.811 -1.4258  1.0404 -1.5204
 2293SOL    HW218513   0.298   1.111   6.722 -0.0906 -1.2474 -1.9796
 2294SOL     OW18514   0.381   2.233  14.740 -0.1742  0.0316  0.1805
 2294SOL    HW118515   0.420   2.292  14.806 -1.8785  0.0723  1.1454
 2294SOL    HW218516   0.338   2.291  14.677 -1.1285 -0.6108  0.2495
 2295SOL     OW18517   4.213   1.204   8.935  0.1142 -0.2523 -0.1695
 2295SOL    HW118518   4.149   1.274   8.926  0.9649  0.3581 -1.4989
 2295SOL    HW218519   4.302   1.232   8.915  0.8415 -2.4417  0.0152
 2296SOL     OW18520   0.083   3.032   9.910  0.1594  0.4011  0.4160
 2296SOL    HW118521   0.053   3.049   9.821  0.6261 -0.3612  0.1167
 2296SOL    HW218522   0.160   3.089   9.907  0.9944 -0.5619  2.9464
 2297SOL     OW18523   4.721   4.682  14.497  0.1038  0.3916  0.2056
 2297SOL    HW118524   4.663   0.021  14.516 -0.2769 -0.0414  0.7476
 2297SOL    HW218525   0.018   4.650  14.582  1.0994  1.3764  0.2106
 2298SOL     OW18526   3.192   0.171   3.095  0.2166 -0.2388  0.1142
 2298SOL    HW118527   3.181   0.194   3.187  0.1477 -2.5104  0.6654
 2298SOL    HW218528   3.100   0.162   3.073  0.8503 -2.2295 -1.6485
 2299SOL     OW18529   0.589   2.607   6.842  0.4813  0.2953  0.4484
 2299SOL    HW118530   0.550   2.532   6.797  0.2575  0.0829  0.9922
 2299SOL    HW218531   0.530   2.632   6.913 -1.2151  2.8628 -1.9051
 2300SOL     OW18532   2.728   3.486   9.548  0.1815 -0.2447 -0.3336
 2300SOL    HW118533   2.802   3.458   9.495  1.5540 -0.5078  1.7341
 2300SOL    HW218534   2.772   3.511   9.629  0.2995 -1.7251  0.0600
 2301SOL     OW18535   1.650   3.455   3.128  0.2351 -0.5311  0.1563
 2301SOL    HW118536   1.724   3.394   3.118  1.4923  0.4285  3.8487
 2301SOL    HW218537   1.583   3.389   3.147  0.0170 -0.0869  0.9066
 2302SOL     OW18538   1.869   1.726   7.055  0.4997 -0.4766  0.1921
 2302SOL    HW118539   1.801   1.697   7.116 -0.8200  0.2699 -0.8952
 2302SOL    HW218540   1.949   1.703   7.101  1.5982  1.1563 -0.9121
 2303SOL     OW18541   3.596   4.072   2.395  0.1038  0.2436 -0.2836
 2303SOL    HW118542   3.683   4.112   2.388  0.4895 -0.4051  0.6898
 2303SOL    HW218543   3.618   3.991   2.441 -1.1398 -1.2590 -2.3484
 2304SOL     OW18544   4.568   4.263   6.340  0.0696 -0.3848  0.1732
 2304SOL    HW118545   4.540   4.337   6.394 -0.4941 -0.2479 -0.3199
 2304SOL    HW218546   4.607   4.309   6.266 -2.4267  1.6451  0.1460
 2305SOL     OW18547   3.610   0.670  10.334  0.6924  0.0780 -0.2936
 2305SOL    HW118548   3.599   0.765  10.328  1.4249  0.2942  1.8356
 2305SOL    HW218549   3.516   0.651  10.326  0.5262  0.6384  0.3282
 2306SOL     OW18550   3.150   2.826   5.683  0.4549 -0.1438 -0.0627
 2306SOL    HW118551   3.112   2.911   5.661  0.8187 -0.7169 -2.8619
 2306SOL    HW218552   3.132   2.822   5.777  1.0445  2.0613  0.1367
 2307SOL     OW18553   0.254   0.818  13.874  0.6792  0.5102  0.0340
 2307SOL    HW118554   0.270   0.879  13.801 -0.9388  2.6229  1.4595
 2307SOL    HW218555   0.239   0.885  13.940  0.4892  1.0395 -0.5506
 2308SOL     OW18556   0.565   1.410  16.833 -0.4126 -0.1317  0.2616
 2308SOL    HW118557   0.658   1.399  16.852  0.4113  1.0190 -3.0693
 2308SOL    HW218558   0.568   1.485  16.774  2.1844  0.0686  0.6512
 2309SOL     OW18559   4.296   3.396   5.705 -0.3014  0.6409 -0.5311
 2309SOL    HW118560   4.366   3.462   5.706 -1.0802  1.4263  2.6045
 2309SOL    HW218561   4.283   3.384   5.799 -2.5137 -2.7911 -1.2782
 2310SOL     OW18562   4.251   4.356   2.330 -0.4629 -0.0467  0.0627
 2310SOL    HW118563   4.176   4.315   2.287 -1.2809 -0.2189  1.6290
 2310SOL    HW218564   4.326   4.323   2.281  0.2188  1.4801  0.0771
 2311SOL     OW18565   0.261   1.251   1.546  0.6971  0.3051 -0.2622
 2311SOL    HW118566   0.251   1.339   1.510  2.1003  0.5389 -0.0693
 2311SOL    HW218567   0.356   1.240   1.542  0.5709 -0.3226 -1.6560
 2312SOL     OW18568   0.730   2.435   2.897 -0.3571  0.3199  0.1906
 2312SOL    HW118569   0.799   2.501   2.910 -0.7773  0.6382  0.7828
 2312SOL    HW218570   0.728   2.400   2.986 -0.0144  1.6857  0.7447
 2313SOL     OW18571   1.610   4.264   0.810  0.4109 -0.0503  0.5605
 2313SOL    HW118572   1.667   4.334   0.779 -2.0353  1.2091 -1.1753
 2313SOL    HW218573   1.608   4.214   0.728  0.9967  0.8834 -0.0185
 2314SOL     OW18574   1.257   3.886   5.232  0.1616  0.2552  0.7485
 2314SOL    HW118575   1.322   3.956   5.241 -0.2349  0.7667 -0.3828
 2314SOL    HW218576   1.244   3.870   5.325  1.5842 -0.5316  0.8056
 2315SOL     OW18577   0.757   0.281   4.207 -0.3810 -0.6737 -0.4032
 2315SOL    HW118578   0.805   0.202   4.184  0.2329 -0.5215  0.3737
 2315SOL    HW218579   0.835   0.334   4.223  0.7991 -1.3390 -3.8867
 2316SOL     OW18580   3.685   1.323  10.034 -0.3692  0.5312  0.7412
 2316SOL    HW118581   3.759   1.356   9.982 -0.5993 -1.1403 -0.6224
 2316SOL    HW218582   3.691   1.235   9.996  1.0757  0.9080  0.0638
 2317SOL     OW18583   0.845   1.292  16.973  0.4660  1.1310 -0.0048
 2317SOL    HW118584   0.927   1.318  17.014  0.4418 -1.1504  1.5225
 2317SOL    HW218585   0.789   1.286  17.051  0.1002  1.5765 -0.2373
 2318SOL     OW18586   4.444   2.395   9.871 -0.3018  0.9138 -0.0023
 2318SOL    HW118587   4.470   2.483   9.846  2.3378  0.3969  0.9287
 2318SOL    HW218588   4.416   2.412   9.961 -0.2845 -1.2063  0.4128
 2319SOL     OW18589   3.113   3.497  13.873 -0.1768 -0.4244  0.1266
 2319SOL    HW118590   3.145   3.559  13.807  1.1232 -2.4805 -1.1683
 2319SOL    HW218591   3.179   3.430  13.857 -1.0294 -1.3344  0.3572
 2320SOL     OW18592   1.739   4.385   2.131  0.6330  0.0013  0.1081
 2320SOL    HW118593   1.810   4.441   2.101  2.6283 -0.5151  3.8366
 2320SOL    HW218594   1.732   4.401   2.225 -1.1814 -1.6083  0.2300
 2321SOL     OW18595   0.148   2.844  17.586 -0.1726 -0.3762 -0.2024
 2321SOL    HW118596   0.187   2.828  17.672 -0.2219 -0.8513 -0.2680
 2321SOL    HW218597   0.058   2.857  17.615 -0.0024 -1.0686  0.6300
 2322SOL     OW18598   0.149   2.285   6.939  0.2857 -0.1988 -0.0425
 2322SOL    HW118599   0.123   2.290   7.031  0.4418 -1.1584  0.0597
 2322SOL    HW218600   0.231   2.237   6.953  0.7584  0.1092 -1.8274
 2323SOL     OW18601   3.287   4.093  10.815  0.2853  0.2474  0.0595
 2323SOL    HW118602   3.377   4.061  10.813  1.0003  2.3251 -1.0178
 2323SOL    HW218603   3.291   4.131  10.727 -4.4798  2.4082  0.7675
 2324SOL     OW18604   4.205   2.853   2.174 -0.1583 -0.1689 -0.3027
 2324SOL    HW118605   4.189   2.929   2.118  0.2910 -1.2880 -1.9425
 2324SOL    HW218606   4.286   2.881   2.217 -1.2094 -1.3533  2.4155
 2325SOL     OW18607   2.972   3.635  10.291 -0.4912  0.8560 -0.1108
 2325SOL    HW118608   3.026   3.679  10.357  1.3090 -1.6749  0.1462
 2325SOL    HW218609   2.888   3.625  10.335  1.3118 -1.3797  2.8750
 2326SOL     OW18610   3.408   1.690  11.442 -0.0740  0.6888 -0.1443
 2326SOL    HW118611   3.416   1.765  11.383 -1.9968  0.8523 -0.2097
 2326SOL    HW218612   3.415   1.731  11.529 -0.6610  0.1998  0.1309
 2327SOL     OW18613   3.317   3.364   8.477 -0.2739 -0.4087  0.3624
 2327SOL    HW118614   3.293   3.337   8.566  1.1742 -1.1871  0.5313
 2327SOL    HW218615   3.333   3.458   8.484 -3.7992  0.2804 -1.1539
 2328SOL     OW18616   2.162   0.751   9.744 -0.1077 -0.1692  0.2878
 2328SOL    HW118617   2.096   0.788   9.686  0.2969  1.2377  0.7455
 2328SOL    HW218618   2.210   0.823   9.783  0.6086 -0.8628  0.6831
 2329SOL     OW18619   3.274   0.291   0.690 -0.0633  0.1369  0.4334
 2329SOL    HW118620   3.348   0.329   0.737  0.7900 -1.3499  0.3003
 2329SOL    HW218621   3.310   0.207   0.663 -2.8432 -0.7654 -0.4872
 2330SOL     OW18622   2.988   4.015   7.568 -0.0644 -0.3256  0.0400
 2330SOL    HW118623   3.009   4.016   7.661 -0.2035 -0.2237  0.0698
 2330SOL    HW218624   3.018   4.099   7.533  0.2339 -0.2616  0.4503
 2331SOL     OW18625   2.737   3.065   9.306 -0.4614  0.0160 -0.1315
 2331SOL    HW118626   2.679   3.120   9.254 -3.1325 -1.8157  0.9156
 2331SOL    HW218627   2.696   3.068   9.393 -0.8104 -1.2728 -0.2522
 2332SOL     OW18628   0.273   1.562   4.634  0.2735 -0.6797  0.5074
 2332SOL    HW118629   0.285   1.653   4.608  0.4703 -1.1929 -1.2349
 2332SOL    HW218630   0.239   1.525   4.552 -2.3464 -0.0983  1.3245
 2333SOL     OW18631   0.642   0.378   7.968  0.5849  0.0179  0.1438
 2333SOL    HW118632   0.702   0.449   7.947  0.9621 -0.8260 -1.6710
 2333SOL    HW218633   0.560   0.425   7.985  1.8804  3.1256 -2.2912
 2334SOL     OW18634   0.045   0.712   4.952 -0.1010 -0.6667 -0.3375
 2334SOL    HW118635   4.690   0.717   4.921 -0.0309  2.3849 -0.0542
 2334SOL    HW218636   0.084   0.652   4.888 -1.1662 -1.0469 -0.6335
 2335SOL     OW18637   2.807   1.757   0.843 -0.3712  0.2869  1.1312
 2335SOL    HW118638   2.743   1.761   0.772  0.7497  0.1650  0.1106
 2335SOL    HW218639   2.818   1.662   0.851  0.9812  0.3627  0.2146
 2336SOL     OW18640   4.049   4.233   0.287 -0.6355  0.2866  0.2657
 2336SOL    HW118641   4.026   4.312   0.238  1.3409  0.8851  0.3222
 2336SOL    HW218642   4.086   4.271   0.367 -1.6851  1.6563  0.0987
 2337SOL     OW18643   3.163   1.243   2.636 -0.2689 -0.0413  0.2197
 2337SOL    HW118644   3.133   1.312   2.577 -0.2627  0.7196  1.0971
 2337SOL    HW218645   3.130   1.168   2.587 -1.8089  0.9278 -0.2232
 2338SOL     OW18646   1.146   0.100   3.594 -0.4688 -0.5073  0.1412
 2338SOL    HW118647   1.133   0.146   3.511 -0.2884 -3.0808 -1.3082
 2338SOL    HW218648   1.207   0.164   3.632  1.1293 -1.2172 -1.2122
 2339SOL     OW18649   0.913   2.915   4.237 -0.5837  0.3668 -0.2065
 2339SOL    HW118650   1.006   2.913   4.260 -0.8922 -0.1930  0.9819
 2339SOL    HW218651   0.901   3.004   4.202 -0.4953  0.7864  0.8315
 2340SOL     OW18652   3.129   2.707  12.827  0.9878  0.4085 -0.2056
 2340SOL    HW118653   3.193   2.743  12.887 -0.1049  0.9717  0.6044
 2340SOL    HW218654   3.150   2.764  12.753  0.5601  1.2620  0.3476
 2341SOL     OW18655   4.176   3.759   4.503 -0.9027 -0.1885 -0.4057
 2341SOL    HW118656   4.260   3.795   4.472 -0.5365 -0.9312 -0.2807
 2341SOL    HW218657   4.201   3.699   4.573  2.2877  0.0302 -1.3124
 2342SOL     OW18658   3.983   3.731  10.518 -0.1331 -0.6110 -0.2207
 2342SOL    HW118659   3.924   3.660  10.495 -2.2217  1.3329 -0.8773
 2342SOL    HW218660   4.068   3.690  10.527  1.0104  2.2684  2.3673
 2343SOL     OW18661   3.019   1.161  10.344  0.0055 -0.3525  0.3921
 2343SOL    HW118662   2.952   1.092  10.345  1.7358 -2.0311  0.6858
 2343SOL    HW218663   2.981   1.240  10.382  0.3029 -0.2650  0.5079
 2344SOL     OW18664   2.301   2.360   2.435 -0.8755  0.5982 -0.2705
 2344SOL    HW118665   2.311   2.298   2.363 -0.8582 -0.2592  0.4569
 2344SOL    HW218666   2.221   2.404   2.404 -0.0908  3.0565  1.1951
 2345SOL     OW18667   2.766   0.711   5.865  0.1702  0.5210 -0.2416
 2345SOL    HW118668   2.846   0.752   5.899 -0.4147  0.5001  1.1379
 2345SOL    HW218669   2.749   0.771   5.792 -0.0332 -0.2344 -0.8176
 2346SOL     OW18670   0.480   4.330   6.177  0.1344 -0.4773  0.1537
 2346SOL    HW118671   0.558   4.283   6.205 -0.2996 -0.3157  1.6528
 2346SOL    HW218672   0.485   4.310   6.084 -0.5331 -3.5468  0.7673
 2347SOL     OW18673   2.301   3.385  14.607  0.1370  0.4803  0.0156
 2347SOL    HW118674   2.217   3.398  14.650 -0.1734 -0.2611 -0.3813
 2347SOL    HW218675   2.323   3.478  14.599  2.0621 -0.0785 -1.4302
 2348SOL     OW18676   3.674   3.856   2.860 -0.2412 -0.8286  0.1295
 2348SOL    HW118677   3.748   3.905   2.826 -0.0561 -1.7119 -0.7243
 2348SOL    HW218678   3.606   3.923   2.848  0.9470  0.7066  1.9259
 2349SOL     OW18679   0.331   2.567   5.856  0.2046  0.1800 -0.4214
 2349SOL    HW118680   0.387   2.613   5.794 -2.1256  2.3357 -0.9180
 2349SOL    HW218681   0.327   2.630   5.928 -0.4992  0.6051 -0.8314
 2350SOL     OW18682   1.635   0.036   6.618 -0.2960  0.0179 -0.1653
 2350SOL    HW118683   1.658   4.717   6.693  0.6832  0.7706  0.0764
 2350SOL    HW218684   1.629   4.704   6.550  1.1873 -1.2958  0.9905
 2351SOL     OW18685   1.644   4.516   6.059 -0.0585 -0.3064 -0.0134
 2351SOL    HW118686   1.581   4.498   5.989  0.5057  0.4633 -0.7222
 2351SOL    HW218687   1.631   4.609   6.076 -0.7284 -0.9454  3.0258
 2352SOL     OW18688   1.420   1.331   3.426  0.1206 -1.1748 -0.4014
 2352SOL    HW118689   1.501   1.280   3.432  2.6372  2.8532  0.2498
 2352SOL    HW218690   1.357   1.271   3.467  1.5503 -1.7243  0.9974
 2353SOL     OW18691   4.226   3.695   5.008  0.6205  0.1731 -0.1894
 2353SOL    HW118692   4.285   3.757   5.050  1.7405  1.3422 -3.4308
 2353SOL    HW218693   4.253   3.607   5.032  2.0147  0.2089 -1.5873
 2354SOL     OW18694   2.455   0.048   5.842  0.1165 -0.0743  0.2265
 2354SOL    HW118695   2.385   0.077   5.783 -1.3599 -0.3839  1.8450
 2354SOL    HW218696   2.436   4.689   5.843 -0.3201  0.0572  3.3088
 2355SOL     OW18697   2.800   1.001  13.266 -0.3854 -0.4576  1.1817
 2355SOL    HW118698   2.885   1.000  13.222 -0.1263  1.1657  1.6305
 2355SOL    HW218699   2.789   0.910  13.291  1.2829 -1.5426 -2.0039
 2356SOL     OW18700   1.482   2.780  12.133  0.2501 -0.4565 -0.0921
 2356SOL    HW118701   1.502   2.692  12.165 -3.3108 -0.5916  1.6818
 2356SOL    HW218702   1.575   2.804  12.137 -0.5432  2.7658 -1.1931
 2357SOL     OW18703   1.230   2.414   1.965 -0.2607  0.2785  0.1688
 2357SOL    HW118704   1.184   2.351   1.911  1.7553 -1.2429  0.2175
 2357SOL    HW218705   1.244   2.348   2.033  3.0526 -0.5778 -1.3213
 2358SOL     OW18706   3.578   1.852   8.507  0.4091  0.4119 -0.2112
 2358SOL    HW118707   3.568   1.824   8.598 -0.7777  0.1908 -0.4174
 2358SOL    HW218708   3.486   1.859   8.481  0.2290 -2.4199 -0.3796
 2359SOL     OW18709   0.412   2.883   2.594  0.3634  0.9994  0.0572
 2359SOL    HW118710   0.404   2.788   2.601 -1.1268  1.0613 -0.7376
 2359SOL    HW218711   0.353   2.897   2.668 -0.1279  1.9909 -0.5348
 2360SOL     OW18712   0.538   2.423   6.314 -0.0796  0.1101 -0.1711
 2360SOL    HW118713   0.616   2.368   6.324  1.2095  1.9783  0.0592
 2360SOL    HW218714   0.590   2.498   6.287 -1.1097  1.5774  1.8919
 2361SOL     OW18715   4.143   3.941   1.087 -0.8737  0.1993 -0.0375
 2361SOL    HW118716   4.145   3.936   0.991  0.6430  0.8265 -0.0291
 2361SOL    HW218717   4.232   3.914   1.108 -0.2058  1.0689 -1.6961
 2362SOL     OW18718   0.948   2.885   1.149  0.2166  0.4921 -0.1637
 2362SOL    HW118719   0.923   2.892   1.241  2.1568  0.9023  0.3216
 2362SOL    HW218720   0.975   2.794   1.139 -2.0048 -0.2130  0.1108
 2363SOL     OW18721   3.610   2.736   1.421  0.0472  0.1037  0.4637
 2363SOL    HW118722   3.533   2.718   1.476  0.4485 -0.2459  0.9062
 2363SOL    HW218723   3.580   2.706   1.335 -2.7937  2.9243  0.4618
 2364SOL     OW18724   1.302   3.086   7.871 -0.0274 -0.1358 -0.2689
 2364SOL    HW118725   1.237   3.038   7.922  0.9117 -1.7480 -0.5910
 2364SOL    HW218726   1.305   3.034   7.791  0.5601  0.1126 -0.4135
 2365SOL     OW18727   1.049   1.568   5.416  0.4560 -0.0833  0.2720
 2365SOL    HW118728   1.135   1.528   5.428 -0.3033 -1.4539  1.1472
 2365SOL    HW218729   1.063   1.597   5.326  0.4460  2.0108  0.9595
 2366SOL     OW18730   0.509   2.092  14.113  0.0798 -0.6217  0.1847
 2366SOL    HW118731   0.530   2.017  14.058  1.4851 -0.8471  1.0280
 2366SOL    HW218732   0.586   2.097  14.169  0.3235  0.6185 -0.2538
 2367SOL     OW18733   3.800   0.132   5.634  0.1614 -0.7864  0.0778
 2367SOL    HW118734   3.721   0.080   5.647 -0.2273 -0.2916 -0.2983
 2367SOL    HW218735   3.845   0.122   5.718  0.6777  0.7739  0.0046
 2368SOL     OW18736   2.856   4.413   6.205  0.1195  0.2410 -0.0343
 2368SOL    HW118737   2.765   4.384   6.203  0.3239 -0.4607  0.8587
 2368SOL    HW218738   2.901   4.351   6.263  1.2632 -1.6003 -2.9152
 2369SOL     OW18739   0.133   4.473   5.434  0.1842 -0.1805  0.1176
 2369SOL    HW118740   0.062   4.439   5.378  0.3597 -1.2773  0.5489
 2369SOL    HW218741   0.208   4.495   5.380  0.9995 -2.0057  0.4860
 2370SOL     OW18742   0.088   2.206   1.197  0.2204  0.1241 -0.3539
 2370SOL    HW118743   0.032   2.143   1.150 -1.7643  0.2416  1.8369
 2370SOL    HW218744   0.064   2.289   1.156 -2.3537 -0.3008  0.2397
 2371SOL     OW18745   0.017   3.675   6.693  0.2727 -0.1270 -0.0247
 2371SOL    HW118746   0.082   3.653   6.627  0.5320 -0.8642  0.4841
 2371SOL    HW218747   0.074   3.713   6.759  2.8873  1.2396 -3.0683
 2372SOL     OW18748   0.233   2.562   8.777 -0.5423  0.5117 -0.0731
 2372SOL    HW118749   0.196   2.633   8.725 -1.8830 -0.5035 -0.5129
 2372SOL    HW218750   0.180   2.487   8.751  0.5820  0.7358 -2.9263
 2373SOL     OW18751   2.198   2.475   8.687  0.0451  0.0220 -0.3366
 2373SOL    HW118752   2.155   2.528   8.754 -1.0884 -1.1650 -0.1418
 2373SOL    HW218753   2.131   2.472   8.618 -0.3145  1.2610 -0.0565
 2374SOL     OW18754   3.284   0.578   6.430 -0.2482 -0.1081 -0.4421
 2374SOL    HW118755   3.372   0.558   6.399  0.2287  0.0031  0.8229
 2374SOL    HW218756   3.250   0.490   6.444 -2.2052  0.1510 -3.6366
 2375SOL     OW18757   1.373   1.900   7.217 -0.3916  0.6989 -0.4513
 2375SOL    HW118758   1.375   1.806   7.234 -0.1337  0.8845  0.5853
 2375SOL    HW218759   1.381   1.907   7.122 -0.9366  1.3416 -0.4470
 2376SOL     OW18760   0.245   3.501  10.800 -0.2509  0.2571  0.5739
 2376SOL    HW118761   0.235   3.568  10.867  0.9946  1.9247 -0.9159
 2376SOL    HW218762   0.296   3.546  10.732  0.0527 -0.6754  0.1783
 2377SOL     OW18763   0.574   1.152  15.231  0.4225 -0.2702 -0.1338
 2377SOL    HW118764   0.613   1.237  15.209 -0.9424  0.1665 -0.8523
 2377SOL    HW218765   0.638   1.114  15.292 -0.4244  0.2599  1.0668
 2378SOL     OW18766   4.653   2.134  15.883 -0.2363  0.3753  0.0056
 2378SOL    HW118767   4.614   2.093  15.806  0.6460  1.5250 -1.0513
 2378SOL    HW218768   4.586   2.194  15.915 -0.1514  0.3576  0.2196
 2379SOL     OW18769   1.411   0.189   6.582 -0.2444 -0.4236 -0.0059
 2379SOL    HW118770   1.408   0.209   6.489  3.9994 -1.5950 -0.3819
 2379SOL    HW218771   1.491   0.138   6.594 -0.3534 -1.0113 -1.8675
 2380SOL     OW18772   3.369   0.046   0.608 -0.4738 -0.1834  0.1268
 2380SOL    HW118773   3.328   4.711   0.557  1.4537  1.0693 -3.1167
 2380SOL    HW218774   3.435   4.734   0.660  1.5205  0.1827 -2.0810
 2381SOL     OW18775   4.219   1.711  10.468 -0.2789  0.3270  0.0959
 2381SOL    HW118776   4.252   1.795  10.437  0.1849  0.8924  2.1033
 2381SOL    HW218777   4.167   1.690  10.390 -1.7041 -1.8919  1.6269
 2382SOL     OW18778   2.368   1.430   8.900 -0.0473 -0.6460 -0.4389
 2382SOL    HW118779   2.334   1.428   8.989  3.2746 -3.7454  0.7690
 2382SOL    HW218780   2.450   1.478   8.911 -1.1884  1.1818  0.0165
 2383SOL     OW18781   1.691   1.791   5.869 -0.2970 -0.7487 -0.3526
 2383SOL    HW118782   1.770   1.841   5.847 -1.2037  0.0461 -1.8501
 2383SOL    HW218783   1.729   1.705   5.889 -1.4097 -1.1434  0.0698
 2384SOL     OW18784   4.397   1.681   8.262  0.0867  0.5931 -0.2085
 2384SOL    HW118785   4.449   1.616   8.214  1.9256  1.0862  1.0901
 2384SOL    HW218786   4.418   1.656   8.352 -0.3061 -0.2848 -0.3628
 2385SOL     OW18787   2.108   1.015   7.716  0.1867  0.2694  0.0670
 2385SOL    HW118788   2.048   0.942   7.729  0.0149  0.2863 -0.6224
 2385SOL    HW218789   2.076   1.053   7.634 -0.1306  0.8372  0.4535
 2386SOL     OW18790   1.302   1.373   2.296 -0.7180  0.4185  0.3991
 2386SOL    HW118791   1.360   1.377   2.372  1.4723  0.4586 -1.3058
 2386SOL    HW218792   1.343   1.431   2.233  0.8409  0.8030  1.7805
 2387SOL     OW18793   4.338   3.587   1.089  0.2006 -0.2709  0.5328
 2387SOL    HW118794   4.305   3.670   1.054 -0.1662 -0.3212  0.7549
 2387SOL    HW218795   4.265   3.526   1.076  0.6510 -0.5962 -0.4580
 2388SOL     OW18796   4.068   3.304   3.891 -0.0188  0.2598 -0.9111
 2388SOL    HW118797   4.038   3.280   3.978 -0.1909 -0.7345 -1.2501
 2388SOL    HW218798   3.990   3.290   3.837 -0.5008 -0.4128 -0.0280
 2389SOL     OW18799   3.684   0.608   9.722  0.0586  0.0362 -0.3679
 2389SOL    HW118800   3.725   0.590   9.806 -1.1099  0.2470  0.2359
 2389SOL    HW218801   3.636   0.688   9.744 -0.2590 -0.1287 -0.4702
 2390SOL     OW18802   1.814   3.957   7.423 -0.1995 -0.2586  0.3465
 2390SOL    HW118803   1.783   3.975   7.512 -1.1670 -0.7104  0.0974
 2390SOL    HW218804   1.884   3.895   7.445 -1.0040 -1.3441 -0.1791
 2391SOL     OW18805   1.619   3.995  17.150  0.1144 -0.2554  0.0431
 2391SOL    HW118806   1.652   4.020  17.236  1.8602  0.3442 -0.8122
 2391SOL    HW218807   1.634   3.901  17.164 -0.6436 -0.5701 -1.2322
 2392SOL     OW18808   1.978   0.852   1.784  0.7999 -0.1701 -0.0930
 2392SOL    HW118809   1.894   0.832   1.824  0.7358  1.7511  0.7240
 2392SOL    HW218810   2.030   0.878   1.860 -0.8694 -0.2459  1.0631
 2393SOL     OW18811   3.285   0.698  10.348  0.3911 -0.4918  0.1778
 2393SOL    HW118812   3.279   0.793  10.363  2.2695 -0.4305  0.6268
 2393SOL    HW218813   3.220   0.688  10.279 -1.1638 -0.2917  1.6095
 2394SOL     OW18814   3.832   1.815  10.244  0.4146 -0.1975  0.2353
 2394SOL    HW118815   3.739   1.831  10.234  0.1634 -0.2198  2.3756
 2394SOL    HW218816   3.837   1.748  10.176  1.4390  0.4039 -0.2811
 2395SOL     OW18817   3.764   3.688   5.870  0.3117  0.3868  0.3504
 2395SOL    HW118818   3.769   3.783   5.880  0.3080  0.5950 -1.5145
 2395SOL    HW218819   3.727   3.677   5.782 -0.7956 -1.1959  1.0140
 2396SOL     OW18820   3.588   2.821   8.008  0.1303  0.3109  0.0137
 2396SOL    HW118821   3.538   2.834   7.928  0.9079  0.7546 -0.3998
 2396SOL    HW218822   3.676   2.854   7.990  1.6287 -2.1036  2.7318
 2397SOL     OW18823   3.640   3.164   7.596  0.0766  0.5619 -0.4223
 2397SOL    HW118824   3.620   3.216   7.674  2.3311 -0.5919  0.9256
 2397SOL    HW218825   3.606   3.079   7.626  2.9246 -0.2982  0.3764
 2398SOL     OW18826   0.497   1.144   4.069 -0.8790  0.1931 -0.2021
 2398SOL    HW118827   0.450   1.092   4.004 -4.1308  3.5297 -0.5656
 2398SOL    HW218828   0.492   1.086   4.145 -1.9785  0.9036  0.2744
 2399SOL     OW18829   0.472   1.566   3.819 -0.2316  0.3501 -0.1956
 2399SOL    HW118830   0.392   1.546   3.772 -1.1206  1.3088  0.9098
 2399SOL    HW218831   0.462   1.517   3.900  0.0030 -0.4089 -0.6309
 2400SOL     OW18832   1.890   3.612   2.147  0.1092  0.1634  0.1073
 2400SOL    HW118833   1.828   3.549   2.111 -1.9860  1.7576  0.9133
 2400SOL    HW218834   1.941   3.551   2.200  0.3436 -0.9171 -1.3675
 2401SOL     OW18835   3.181   2.719  11.531 -0.0973 -0.2260  0.2714
 2401SOL    HW118836   3.234   2.790  11.566  1.0538 -1.4534  0.9898
 2401SOL    HW218837   3.094   2.754  11.548  0.1387  0.1398  0.7174
 2402SOL     OW18838   2.859   0.863  17.391  0.1468 -0.1392  0.1117
 2402SOL    HW118839   2.884   0.955  17.396  1.0791 -0.4315  0.8654
 2402SOL    HW218840   2.831   0.854  17.300 -3.6139  0.9444  1.1606
 2403SOL     OW18841   2.671   1.465   7.490 -0.0244  0.3974  0.2082
 2403SOL    HW118842   2.652   1.386   7.540  0.6157 -0.9570 -1.6998
 2403SOL    HW218843   2.584   1.505   7.490 -0.7149 -1.1075  0.8630
 2404SOL     OW18844   2.780   1.580   1.152  0.3716 -0.7839 -0.1522
 2404SOL    HW118845   2.710   1.560   1.214 -1.2235 -0.0915 -1.7344
 2404SOL    HW218846   2.852   1.607   1.209  0.6600 -1.6825 -0.0972
 2405SOL     OW18847   4.659   3.775  11.238 -0.1572 -0.3112  0.7291
 2405SOL    HW118848   4.622   3.757  11.324 -3.1583 -3.2785 -1.1534
 2405SOL    HW218849   0.014   3.800  11.261 -0.0491  0.5653 -0.6204
 2406SOL     OW18850   3.783   1.722  12.770  0.8872  0.3267 -0.3469
 2406SOL    HW118851   3.758   1.685  12.686 -0.1376  1.9964 -0.7978
 2406SOL    HW218852   3.757   1.815  12.765 -0.8307 -0.1554 -0.3791
 2407SOL     OW18853   4.497   4.476   5.809  0.4838  0.0162 -0.4930
 2407SOL    HW118854   4.535   4.546   5.862  0.9382 -0.0620 -0.7082
 2407SOL    HW218855   4.563   4.469   5.739  0.2230 -0.2798 -0.7124
 2408SOL     OW18856   0.537   1.791  15.263  0.3343 -0.3195 -0.2774
 2408SOL    HW118857   0.476   1.750  15.325 -0.7655  2.8321  0.7398
 2408SOL    HW218858   0.622   1.771  15.301  1.4930 -0.0362 -2.6957
 2409SOL     OW18859   2.935   0.918   5.970  0.4586  1.1210  0.3802
 2409SOL    HW118860   2.899   0.980   5.906 -1.4098 -1.5155 -1.1293
 2409SOL    HW218861   3.030   0.920   5.962  0.2938  0.5562 -1.6048
 2410SOL     OW18862   4.683   1.941  14.720 -0.4551  0.2062  0.6530
 2410SOL    HW118863   4.688   1.850  14.692 -1.3813  1.1709 -2.5760
 2410SOL    HW218864   0.041   1.955  14.736 -0.6637 -0.7820  2.7761
 2411SOL     OW18865   3.818   1.648   2.612  0.1433  0.5451  0.2664
 2411SOL    HW118866   3.735   1.614   2.577  0.1766  0.2171  0.5034
 2411SOL    HW218867   3.844   1.705   2.540 -0.2836  0.5722  0.1333
 2412SOL     OW18868   3.863   4.525  11.835 -0.3608  0.1998  0.2424
 2412SOL    HW118869   3.810   4.493  11.762 -0.4398 -1.3122  0.9562
 2412SOL    HW218870   3.799   4.575  11.885 -1.5211 -0.6908 -0.3729
 2413SOL     OW18871   4.062   0.296   5.149 -0.8106 -0.1354  0.1689
 2413SOL    HW118872   4.037   0.286   5.057 -0.1158  0.3253 -0.0697
 2413SOL    HW218873   4.139   0.239   5.149 -0.3681  0.4638 -0.3561
 2414SOL     OW18874   1.331   2.332   7.639  0.1393 -0.1939 -0.1635
 2414SOL    HW118875   1.300   2.420   7.663 -1.5907 -0.9154  0.2427
 2414SOL    HW218876   1.266   2.315   7.571  1.1564  3.3262 -2.0085
 2415SOL     OW18877   4.407   2.616   1.242  0.0707  0.2521  0.1506
 2415SOL    HW118878   4.368   2.683   1.299 -1.1202  0.1986 -0.6119
 2415SOL    HW218879   4.393   2.642   1.151  2.2266  1.8100  0.2659
 2416SOL     OW18880   2.341   1.976   2.703 -0.5739  0.1062 -0.5912
 2416SOL    HW118881   2.408   1.987   2.635  1.5072 -1.5985  1.1961
 2416SOL    HW218882   2.307   2.065   2.705 -0.7259 -0.0226  1.7420
 2417SOL     OW18883   2.022   4.225   2.669 -0.1215 -0.4417 -0.1072
 2417SOL    HW118884   1.960   4.249   2.601  0.4653  0.1146 -0.4509
 2417SOL    HW218885   1.988   4.139   2.694  1.6244 -0.4292  2.3061
 2418SOL     OW18886   3.443   4.519   7.814 -0.3767 -0.0640 -0.6085
 2418SOL    HW118887   3.362   4.563   7.837 -0.1210  0.3075 -0.4295
 2418SOL    HW218888   3.494   4.594   7.783 -1.6544  1.0435 -0.0235
 2419SOL     OW18889   4.334   0.889   5.370  0.4941  0.1188 -0.2231
 2419SOL    HW118890   4.291   0.807   5.394  1.0438 -0.0694  0.1304
 2419SOL    HW218891   4.362   0.881   5.279 -0.0366 -0.5382 -0.3305
 2420SOL     OW18892   2.569   2.686  12.360 -0.5278 -0.3911 -0.4055
 2420SOL    HW118893   2.548   2.622  12.292  2.1141 -1.2625 -0.4025
 2420SOL    HW218894   2.512   2.662  12.433  0.4732  0.7670  0.7554
 2421SOL     OW18895   3.629   4.144   8.205 -0.3400  0.3971 -0.0268
 2421SOL    HW118896   3.595   4.184   8.125 -0.3499  0.2489 -0.0979
 2421SOL    HW218897   3.664   4.063   8.166 -0.1949  0.6611 -0.4443
 2422SOL     OW18898   2.123   3.637   0.554 -0.4487 -0.0729 -0.3855
 2422SOL    HW118899   2.136   3.549   0.518  0.7024 -0.7391  1.5849
 2422SOL    HW218900   2.211   3.657   0.589  0.8948 -1.0633 -3.2281
 2423SOL     OW18901   1.553   4.312  14.127 -0.4056 -0.6787  0.1865
 2423SOL    HW118902   1.492   4.329  14.055  0.0974 -1.0067 -0.3175
 2423SOL    HW218903   1.580   4.223  14.105  0.2239  0.1509 -2.3722
 2424SOL     OW18904   2.303   0.561  15.911  0.2369 -0.0529 -0.1413
 2424SOL    HW118905   2.240   0.619  15.868  0.7242  0.7262  0.1936
 2424SOL    HW218906   2.346   0.520  15.837  3.0208  2.6393 -0.0327
 2425SOL     OW18907   1.734   4.511  14.483 -0.1150 -0.4873  0.1793
 2425SOL    HW118908   1.700   4.440  14.538 -0.5587  0.9043  1.6798
 2425SOL    HW218909   1.751   4.586  14.539 -0.8351  1.7011 -2.5481
 2426SOL     OW18910   2.667   1.174  17.735 -0.1450  0.4505 -0.0970
 2426SOL    HW118911   2.657   1.218  17.650 -0.2079 -1.2889 -0.9850
 2426SOL    HW218912   2.721   1.237   0.044  0.8950 -0.4450 -0.0952
 2427SOL     OW18913   0.734   2.907   6.497 -0.5055  0.3376  0.7217
 2427SOL    HW118914   0.655   2.856   6.512 -1.2358  1.3454  0.3117
 2427SOL    HW218915   0.764   2.889   6.408 -0.3786  0.1823  0.7956
 2428SOL     OW18916   2.567   3.492   4.390 -0.0798  0.1450  0.1745
 2428SOL    HW118917   2.513   3.413   4.380  1.7792 -0.7914 -2.5203
 2428SOL    HW218918   2.649   3.468   4.346  0.7149 -1.0479  2.3374
 2429SOL     OW18919   2.751   3.005   5.802  0.5997 -0.6114  0.4198
 2429SOL    HW118920   2.777   3.074   5.740  1.3220  0.0398  1.4496
 2429SOL    HW218921   2.756   3.055   5.883  0.2204  0.9103 -0.4935
 2430SOL     OW18922   4.446   2.291   4.798 -0.1346 -0.1457 -0.3705
 2430SOL    HW118923   4.539   2.288   4.779  0.7670 -0.4888  4.0279
 2430SOL    HW218924   4.433   2.206   4.841  3.6453 -0.6054 -0.1832
 2431SOL     OW18925   4.551   2.148   6.939 -0.2573  0.5592  0.2925
 2431SOL    HW118926   4.500   2.167   7.018  1.1280 -0.8458  1.5018
 2431SOL    HW218927   4.530   2.055   6.931 -4.8662  1.5853  0.3122
 2432SOL     OW18928   4.366   4.085  17.433 -0.0367  0.8367  0.6178
 2432SOL    HW118929   4.304   4.058  17.501  0.5672 -0.9416  0.4438
 2432SOL    HW218930   4.388   4.172  17.468  1.3479  0.4189  0.7900
 2433SOL     OW18931   2.302   2.998   8.444 -0.4046  0.7887 -0.2999
 2433SOL    HW118932   2.379   3.042   8.408  0.0230  0.7579  0.5932
 2433SOL    HW218933   2.263   2.965   8.363 -0.3991 -0.4270  0.2058
 2434SOL     OW18934   0.770   2.269   8.572  0.2406 -0.0494 -0.2882
 2434SOL    HW118935   0.716   2.192   8.592  0.0365  0.4994  1.2208
 2434SOL    HW218936   0.787   2.251   8.480 -0.9865 -0.1609 -0.4953
 2435SOL     OW18937   1.360   3.047   6.877 -0.2103  0.0739 -0.4191
 2435SOL    HW118938   1.290   3.110   6.860 -0.3311  0.1648  0.4310
 2435SOL    HW218939   1.315   2.965   6.897  0.3463  0.0375  0.6918
 2436SOL     OW18940   4.714   0.284  12.612 -0.4854 -0.3310 -0.1463
 2436SOL    HW118941   4.721   0.375  12.581 -1.0804 -0.1315  0.3039
 2436SOL    HW218942   0.058   0.245  12.574 -1.5665 -1.7704 -0.9377
 2437SOL     OW18943   2.982   1.715   3.529 -0.1564 -0.7083 -1.1973
 2437SOL    HW118944   2.927   1.651   3.483 -0.3647 -1.6109  0.3328
 2437SOL    HW218945   2.992   1.789   3.468  0.5944  2.1003  2.3386
 2438SOL     OW18946   4.711   3.324   8.969  0.5834  0.3466 -0.0329
 2438SOL    HW118947   4.643   3.369   8.918 -0.4826  0.0038  1.0724
 2438SOL    HW218948   0.032   3.277   8.907 -0.7136  1.2884 -1.9258
 2439SOL     OW18949   1.004   3.038  10.214 -0.0292 -0.2647 -0.1193
 2439SOL    HW118950   0.995   2.944  10.233  1.8350 -0.8356 -2.0316
 2439SOL    HW218951   1.051   3.068  10.292 -0.5706 -0.0826  0.1319
 2440SOL     OW18952   2.543   1.436   0.783 -0.1515 -0.0092 -0.1946
 2440SOL    HW118953   2.617   1.435   0.844 -1.4557  2.7061  1.4570
 2440SOL    HW218954   2.549   1.352   0.738  0.4552  0.6363 -1.3328
 2441SOL     OW18955   1.829   4.579  15.121  0.1401  0.2287  0.3521
 2441SOL    HW118956   1.745   4.537  15.141  1.5142 -0.4457  4.7098
 2441SOL    HW218957   1.792   4.640  15.057 -0.8937 -1.3032 -0.5006
 2442SOL     OW18958   0.201   2.894   9.003  0.0220 -0.4918 -0.6599
 2442SOL    HW118959   0.266   2.961   9.022  0.3390 -0.8950 -0.3293
 2442SOL    HW218960   0.227   2.828   9.068 -0.8687  0.7319  0.9299
 2443SOL     OW18961   2.914   4.445   4.839  0.1540 -0.1289 -0.1506
 2443SOL    HW118962   2.871   4.456   4.755 -2.6461  0.3430  1.3416
 2443SOL    HW218963   2.945   4.535   4.852 -2.7220  0.4214  2.9165
 2444SOL     OW18964   3.358   1.572   4.829 -0.6818  0.3498  0.6658
 2444SOL    HW118965   3.450   1.589   4.849 -0.7410 -0.6572  1.7795
 2444SOL    HW218966   3.371   1.505   4.762  1.4548 -1.1900  2.6466
 2445SOL     OW18967   0.058   1.963   6.746  0.2508 -0.3259  0.4909
 2445SOL    HW118968   4.728   1.927   6.806 -0.7072 -2.0368 -1.5538
 2445SOL    HW218969   0.021   1.922   6.668  2.1605  0.7719 -1.0007
 2446SOL     OW18970   0.626   3.116   3.659 -0.0195  0.0197  0.1083
 2446SOL    HW118971   0.598   3.029   3.689  2.2692 -0.6825  0.2876
 2446SOL    HW218972   0.691   3.150   3.721  0.0144 -1.0792  0.6775
 2447SOL     OW18973   2.117   1.495  17.271  0.2461  1.0148 -0.4528
 2447SOL    HW118974   2.073   1.567  17.318 -3.3036 -0.6130 -1.3069
 2447SOL    HW218975   2.036   1.459  17.235  0.6624  0.6270 -1.0066
 2448SOL     OW18976   1.810   1.164   5.985  0.0564 -0.3152 -0.2882
 2448SOL    HW118977   1.781   1.151   5.895  1.2046  0.2638 -0.7353
 2448SOL    HW218978   1.815   1.076   6.022  1.1073 -1.0639 -2.2410
 2449SOL     OW18979   0.498   1.848   7.363 -0.2832 -0.0979  0.2787
 2449SOL    HW118980   0.519   1.862   7.270  0.2300  2.7157  0.8375
 2449SOL    HW218981   0.557   1.776   7.386 -0.0831 -0.0619 -0.1207
 2450SOL     OW18982   2.809   2.802  11.296  0.1154 -0.2440 -0.7492
 2450SOL    HW118983   2.848   2.876  11.343  0.0467  0.5733 -1.9900
 2450SOL    HW218984   2.823   2.730  11.358 -1.0061 -0.0265 -0.2450
 2451SOL     OW18985   2.716   3.049  13.312  0.4098  0.8579  0.4541
 2451SOL    HW118986   2.758   3.054  13.399  1.5465  4.4466 -0.2862
 2451SOL    HW218987   2.786   3.082  13.256 -1.6168  3.5264 -0.4806
 2452SOL     OW18988   1.033   0.424   6.420  0.0498 -0.2019 -0.3487
 2452SOL    HW118989   1.055   0.333   6.437  0.8701 -0.1752 -1.2339
 2452SOL    HW218990   0.937   0.423   6.428  0.2658 -1.5247  1.8433
 2453SOL     OW18991   2.403   3.701   0.592 -0.5588  0.1335 -0.0028
 2453SOL    HW118992   2.360   3.757   0.656  0.3070  1.1959 -0.3601
 2453SOL    HW218993   2.495   3.699   0.618 -0.7327 -2.6637  0.4510
 2454SOL     OW18994   2.068   3.884   8.905  0.0548  0.2798 -0.2099
 2454SOL    HW118995   2.088   3.790   8.909 -0.5243  0.2780  2.4335
 2454SOL    HW218996   2.152   3.913   8.869 -0.3259  2.4866  0.6711
 2455SOL     OW18997   1.665   2.493   2.947  0.2262  0.4777 -0.0093
 2455SOL    HW118998   1.585   2.523   2.991 -0.8208 -0.3655 -1.3356
 2455SOL    HW218999   1.721   2.571   2.947  0.2586  0.4545 -0.1150
 2456SOL     OW19000   4.345   4.044   3.732 -0.0668 -0.4049  0.1554
 2456SOL    HW119001   4.363   3.950   3.742  0.4300 -0.4441 -1.1275
 2456SOL    HW219002   4.381   4.065   3.646 -0.8090  1.2593  0.2504
 2457SOL     OW19003   2.232   2.975   5.810 -0.0191  0.1979  0.0045
 2457SOL    HW119004   2.189   2.940   5.888  0.9964  1.5763  1.1899
 2457SOL    HW219005   2.274   2.896   5.777  0.1913  0.4363 -0.2978
 2458SOL     OW19006   2.219   3.356   3.892 -0.3665 -0.3058  0.4905
 2458SOL    HW119007   2.266   3.398   3.820 -1.3430 -2.3005 -1.3555
 2458SOL    HW219008   2.293   3.356   3.951  0.6922 -0.1501 -0.8360
 2459SOL     OW19009   0.036   3.043  13.594  0.4337  0.1317 -0.3474
 2459SOL    HW119010   0.123   3.062  13.560  0.3984  0.4664 -0.2459
 2459SOL    HW219011   0.049   3.095  13.673 -1.7521  1.3807 -0.8005
 2460SOL     OW19012   4.354   2.499   1.948 -0.0356 -0.4290 -0.3154
 2460SOL    HW119013   4.337   2.431   1.883 -1.4008 -2.1450  1.8137
 2460SOL    HW219014   4.306   2.572   1.908  0.2131 -0.1506 -0.1036
 2461SOL     OW19015   2.908   0.088   6.371  0.3047  0.1942 -0.1595
 2461SOL    HW119016   2.836   0.150   6.366  0.9575  0.8575 -1.2406
 2461SOL    HW219017   2.971   0.142   6.324 -0.3571  0.3675 -0.8344
 2462SOL     OW19018   3.675   4.655   6.756  0.3207  0.1393  0.2458
 2462SOL    HW119019   3.715   4.672   6.841  1.7624 -1.3978 -0.1063
 2462SOL    HW219020   3.709   4.566   6.742  0.0499  0.5806 -3.2403
 2463SOL     OW19021   2.030   1.520   3.937 -0.2975 -0.1808 -0.0314
 2463SOL    HW119022   2.096   1.585   3.911 -0.5325  0.0535 -0.0323
 2463SOL    HW219023   1.948   1.568   3.931  0.6328  1.3399 -0.7661
 2464SOL     OW19024   0.505   1.931  12.575 -0.4038  0.5279 -0.3694
 2464SOL    HW119025   0.483   2.000  12.513  0.5447 -1.6404 -3.0680
 2464SOL    HW219026   0.528   1.855  12.523 -0.0172  1.1733 -1.1348
 2465SOL     OW19027   1.318   3.030   1.951  0.0888 -0.0887  0.6504
 2465SOL    HW119028   1.222   3.039   1.945  0.0692 -0.4031  0.4810
 2465SOL    HW219029   1.338   2.982   1.871 -1.4066 -0.0453  0.2354
 2466SOL     OW19030   3.313   4.397   6.940  0.0421  0.5597  0.0572
 2466SOL    HW119031   3.273   4.311   6.925  2.3967 -0.6996  0.9456
 2466SOL    HW219032   3.240   4.426   6.994  1.0974  1.9695  0.7211
 2467SOL     OW19033   2.835   2.144   9.031  0.4793 -0.1324  0.2693
 2467SOL    HW119034   2.917   2.097   9.019  0.7810 -0.1230  2.3289
 2467SOL    HW219035   2.785   2.114   8.955 -0.4951  2.5443 -0.1443
 2468SOL     OW19036   3.534   0.894   9.511  0.3526  0.6251  0.0063
 2468SOL    HW119037   3.561   0.850   9.592  0.4217  0.0700 -0.3203
 2468SOL    HW219038   3.528   0.978   9.556 -0.2841  0.7892 -0.3981
 2469SOL     OW19039   2.994   1.219   5.093 -0.1370  0.0390 -0.7107
 2469SOL    HW119040   3.074   1.270   5.085 -0.7452  0.8897 -1.3961
 2469SOL    HW219041   2.926   1.267   5.045 -0.3410 -1.4571 -1.9162
 2470SOL     OW19042   3.565   2.396   7.236  0.7258 -0.2685 -0.1827
 2470SOL    HW119043   3.494   2.361   7.290  0.4190  0.6552  0.0122
 2470SOL    HW219044   3.610   2.445   7.305  2.9444  0.0185 -1.8459
 2471SOL     OW19045   3.648   4.621  11.338 -0.2196  0.3089  0.4561
 2471SOL    HW119046   3.663   4.715  11.327 -0.4062  0.2272 -0.4363
 2471SOL    HW219047   3.684   4.591  11.255 -0.7718 -0.2653  0.4257
 2472SOL     OW19048   3.880   0.575  10.370 -0.7422 -0.5838  0.4393
 2472SOL    HW119049   3.786   0.594  10.373 -0.7765 -0.8535  1.0846
 2472SOL    HW219050   3.922   0.659  10.352  0.1917 -1.3470 -0.9021
 2473SOL     OW19051   3.594   3.326   8.679 -0.0055 -0.0564  0.1495
 2473SOL    HW119052   3.563   3.330   8.769  0.2155  0.2475  0.2126
 2473SOL    HW219053   3.552   3.247   8.643  2.0364  0.1852 -2.7417
 2474SOL     OW19054   4.489   2.760  10.202  0.2393  0.2567  0.5550
 2474SOL    HW119055   4.400   2.731  10.183  0.8478 -0.1676 -1.6957
 2474SOL    HW219056   4.469   2.844  10.244  2.6908  0.2149  1.7908
 2475SOL     OW19057   4.031   4.095   1.985 -0.7922 -0.0643 -0.5051
 2475SOL    HW119058   3.978   4.165   1.946  0.0678  0.9793  0.1814
 2475SOL    HW219059   4.117   4.135   1.997 -1.1386  0.2783  0.8356
 2476SOL     OW19060   3.177   1.745   2.448 -0.0943 -0.3531  0.3093
 2476SOL    HW119061   3.114   1.716   2.383 -0.1313  2.6713 -1.0332
 2476SOL    HW219062   3.258   1.707   2.414  1.1310  0.4208  2.3560
 2477SOL     OW19063   2.192   4.357   2.278 -0.1278 -0.3424  0.3648
 2477SOL    HW119064   2.170   4.271   2.314 -2.3747 -1.1968 -3.0509
 2477SOL    HW219065   2.118   4.410   2.308  0.7922  0.7039  0.7705
 2478SOL     OW19066   3.901   3.383   4.549 -0.8839 -0.3413 -0.1002
 2478SOL    HW119067   3.889   3.309   4.609 -1.4374 -0.1059  0.0862
 2478SOL    HW219068   3.948   3.336   4.481  0.4740  2.1026 -0.8321
 2479SOL     OW19069   2.537   2.514   1.063 -0.0825 -0.9095  0.1015
 2479SOL    HW119070   2.459   2.493   1.114  0.5142  0.0159  1.4170
 2479SOL    HW219071   2.566   2.575   1.131 -2.9621  0.0725  0.4157
 2480SOL     OW19072   4.694   4.273  11.282  0.3029  0.2423 -0.3410
 2480SOL    HW119073   4.639   4.351  11.277 -2.0007 -1.3438  0.3831
 2480SOL    HW219074   4.629   4.204  11.275  1.1224 -0.5400 -0.2208
 2481SOL     OW19075   0.407   3.638   5.182 -0.2652 -0.5332  0.1904
 2481SOL    HW119076   0.414   3.679   5.268  1.2538  0.8321 -0.5850
 2481SOL    HW219077   0.321   3.596   5.178 -0.5733  0.0551  0.5054
 2482SOL     OW19078   2.967   1.976   3.312  1.0544 -0.0499  0.3024
 2482SOL    HW119079   2.902   2.012   3.252 -0.2090 -0.7604  1.2649
 2482SOL    HW219080   3.032   1.930   3.259 -1.2927  0.7465 -3.2441
 2483SOL     OW19081   1.592   4.104   0.589  0.0836 -0.2155 -0.3868
 2483SOL    HW119082   1.651   4.146   0.526  0.2682 -0.5146 -0.4130
 2483SOL    HW219083   1.509   4.102   0.542 -0.5171  1.5225  0.5804
 2484SOL     OW19084   2.373   0.504   1.614  0.4937  0.0381  0.3651
 2484SOL    HW119085   2.308   0.561   1.654 -0.7076 -1.9016  1.1166
 2484SOL    HW219086   2.364   0.537   1.524 -2.1066  2.1663  1.3997
 2485SOL     OW19087   0.079   1.412   2.708 -0.2613 -0.4225 -0.3732
 2485SOL    HW119088   0.130   1.338   2.740  1.2484 -0.0138 -1.8223
 2485SOL    HW219089   0.112   1.426   2.619 -1.2005  1.5489 -0.4133
 2486SOL     OW19090   2.416   2.738   9.102  0.2325  0.1063 -0.6915
 2486SOL    HW119091   2.412   2.659   9.156 -1.2858  0.3996 -0.3531
 2486SOL    HW219092   2.492   2.777   9.145 -1.2106  1.8041  0.3310
 2487SOL     OW19093   1.258   1.591  16.325 -0.4839  0.2544  0.2320
 2487SOL    HW119094   1.217   1.562  16.243  2.1648  0.4745 -1.1809
 2487SOL    HW219095   1.346   1.613  16.294  0.1526 -3.7241 -0.7635
 2488SOL     OW19096   4.363   4.090   8.189  0.1294 -0.9852  0.0991
 2488SOL    HW119097   4.453   4.088   8.155  1.5192  2.9381  3.6353
 2488SOL    HW219098   4.378   4.021   8.254  2.1975 -0.5107  0.1258
 2489SOL     OW19099   3.215   3.933  16.468 -0.1947 -0.4220 -0.2262
 2489SOL    HW119100   3.230   3.848  16.428  2.8640  0.3099 -0.6925
 2489SOL    HW219101   3.120   3.942  16.458 -0.2665  1.4220  2.0342
 2490SOL     OW19102   3.594   3.653   8.645 -0.3738  0.1483 -0.6420
 2490SOL    HW119103   3.511   3.649   8.599  0.0219 -1.3811 -1.2061
 2490SOL    HW219104   3.575   3.619   8.733  1.2012 -0.3577 -0.4883
 2491SOL     OW19105   3.452   3.077  12.095 -0.3984 -0.0525 -0.3244
 2491SOL    HW119106   3.505   3.040  12.025  0.9308  0.2163  0.5270
 2491SOL    HW219107   3.431   3.163  12.059  1.1434 -0.0945 -1.3571
 2492SOL     OW19108   4.668   2.013  15.193  0.0739 -0.0702  0.0566
 2492SOL    HW119109   4.632   1.997  15.106  0.2558 -1.8798  0.3127
 2492SOL    HW219110   4.638   2.104  15.198 -1.4225 -0.5015 -1.4157
 2493SOL     OW19111   2.832   0.065   3.797 -0.5662  0.7897  0.0862
 2493SOL    HW119112   2.891   0.133   3.829 -0.1313 -0.5766  2.1716
 2493SOL    HW219113   2.890   0.021   3.734 -0.2890  1.0203  0.1793
 2494SOL     OW19114   0.063   1.467  12.071 -0.4961  0.0294 -0.1982
 2494SOL    HW119115   0.158   1.475  12.057 -0.6223 -0.9384 -1.5437
 2494SOL    HW219116   0.065   1.452  12.166 -0.2210  3.2731  0.3324
 2495SOL     OW19117   4.668   0.009   0.953 -0.3960  0.3522  0.3529
 2495SOL    HW119118   4.709   0.096   0.947  3.1538 -1.2802  1.3467
 2495SOL    HW219119   4.709   4.724   1.037  0.3561  1.0213  0.1484
 2496SOL     OW19120   2.249   3.016   4.109 -0.2617  0.0144  0.0457
 2496SOL    HW119121   2.276   3.050   4.024  0.3327  1.1047  0.6802
 2496SOL    HW219122   2.199   2.935   4.100  0.2695 -0.2318 -0.7891
 2497SOL     OW19123   3.009   3.166   8.470 -0.7351  0.5108  0.2502
 2497SOL    HW119124   3.060   3.126   8.400  4.4731  0.8980  3.8193
 2497SOL    HW219125   2.964   3.086   8.498  0.4706 -0.9386 -1.9435
 2498SOL     OW19126   1.630   3.536   7.816  0.0488 -0.1422 -0.2919
 2498SOL    HW119127   1.583   3.577   7.888  0.9576  1.6300 -0.7149
 2498SOL    HW219128   1.625   3.441   7.828  0.3090 -0.4144 -2.3185
 2499SOL     OW19129   1.461   3.306   7.758  0.3550  0.1767  0.2561
 2499SOL    HW119130   1.410   3.301   7.838  2.2305 -1.4442  1.3540
 2499SOL    HW219131   1.481   3.212   7.755  0.8442  0.2857  0.1052
 2500SOL     OW19132   2.799   2.672   7.821 -0.6952  0.0897 -0.1969
 2500SOL    HW119133   2.878   2.725   7.827  0.5780 -1.8643  0.4194
 2500SOL    HW219134   2.778   2.658   7.913  1.1439  1.8067  0.4789
 2501SOL     OW19135   3.763   0.926   2.016  0.4195  0.3591  0.4910
 2501SOL    HW119136   3.821   0.857   2.048  2.0836  1.9113  0.8093
 2501SOL    HW219137   3.751   0.986   2.090 -0.7670  2.1360 -1.1411
 2502SOL     OW19138   3.828   1.736  16.516 -0.0657  0.0753  0.7981
 2502SOL    HW119139   3.747   1.786  16.511  1.2320  2.0151 -1.3181
 2502SOL    HW219140   3.840   1.698  16.429  0.0397 -1.3899  1.4634
 2503SOL     OW19141   3.849   3.161   1.063  0.1484 -0.2996 -0.5015
 2503SOL    HW119142   3.808   3.079   1.091 -2.8271  1.4498  0.2247
 2503SOL    HW219143   3.821   3.216   1.136 -1.4109  0.3607 -1.6057
 2504SOL     OW19144   3.080   4.025  12.191 -0.0572 -0.3060  0.3711
 2504SOL    HW119145   3.007   3.975  12.154  0.2650 -1.1893  0.9220
 2504SOL    HW219146   3.140   3.966  12.238 -0.0362  0.6501  1.5443
 2505SOL     OW19147   3.180   0.408   4.978 -0.3593  0.2797  0.1764
 2505SOL    HW119148   3.224   0.345   4.922  0.8782 -0.4312  1.9312
 2505SOL    HW219149   3.141   0.351   5.045  2.3534 -1.5136  0.2294
 2506SOL     OW19150   1.738   1.285  13.324 -0.3487  0.1069  0.6326
 2506SOL    HW119151   1.655   1.328  13.346  0.0443 -0.2386  2.7899
 2506SOL    HW219152   1.784   1.262  13.405 -2.1744 -0.9778  1.3622
 2507SOL     OW19153   0.818   0.549   1.455  0.1588 -0.1323  0.1063
 2507SOL    HW119154   0.868   0.540   1.375  1.0950  0.8373  0.5904
 2507SOL    HW219155   0.878   0.583   1.521  1.4765 -2.5834  0.1584
 2508SOL     OW19156   2.602   2.046  15.433 -0.6126  0.3633 -0.0727
 2508SOL    HW119157   2.587   2.076  15.523  1.2445 -0.4907  0.5173
 2508SOL    HW219158   2.589   1.952  15.441 -1.6338  0.4028 -1.3232
 2509SOL     OW19159   2.427   0.669  10.412  0.1362  0.0922 -0.6496
 2509SOL    HW119160   2.406   0.708  10.328  0.7739  0.8920 -0.4401
 2509SOL    HW219161   2.354   0.607  10.421  0.4472 -0.1053  0.6081
 2510SOL     OW19162   0.565   3.826   5.799  0.7724  0.5569 -0.2388
 2510SOL    HW119163   0.568   3.761   5.728 -3.2211  1.4621 -1.2283
 2510SOL    HW219164   0.528   3.769   5.866  0.8402  1.6130  0.6887
 2511SOL     OW19165   4.259   3.955  14.904  0.2127  0.4525  0.0158
 2511SOL    HW119166   4.192   3.991  14.962 -1.6312 -1.1704 -1.1255
 2511SOL    HW219167   4.323   3.934  14.971  0.6923  0.4281 -0.4458
 2512SOL     OW19168   0.236   1.157   7.765  0.7819 -0.0038 -0.4058
 2512SOL    HW119169   0.219   1.082   7.822  2.1372  0.2194  0.3062
 2512SOL    HW219170   0.298   1.213   7.813 -2.3468  0.3830  3.2460
 2513SOL     OW19171   2.220   0.314   2.743 -0.5713 -0.0806 -0.0940
 2513SOL    HW119172   2.216   0.366   2.663 -0.5340 -1.4671 -0.9804
 2513SOL    HW219173   2.276   0.242   2.715  1.4527  0.3735  2.7076
 2514SOL     OW19174   1.597   0.101   5.936  0.7305  0.2221  0.3699
 2514SOL    HW119175   1.526   0.038   5.923 -0.5056  1.7186 -0.0626
 2514SOL    HW219176   1.600   0.133   5.846 -1.9048  2.5012  1.0995
 2515SOL     OW19177   1.357   3.667   1.879  0.2264  0.6982  0.6313
 2515SOL    HW119178   1.366   3.717   1.960  0.6020 -0.6059  1.4103
 2515SOL    HW219179   1.372   3.737   1.815 -4.1301 -0.1462 -1.2776
 2516SOL     OW19180   1.620   0.874   5.523  0.0175  0.0853  0.1140
 2516SOL    HW119181   1.605   0.916   5.438  0.6715  1.4147  0.6571
 2516SOL    HW219182   1.690   0.926   5.561  1.2473 -1.9418  0.6076
 2517SOL     OW19183   1.012   3.740   3.666  0.6440  0.3098 -0.2018
 2517SOL    HW119184   0.923   3.776   3.668  0.8131  0.9877 -4.0903
 2517SOL    HW219185   1.047   3.778   3.747  0.5070 -1.7035  0.7943
 2518SOL     OW19186   4.492   2.028   2.908 -0.2874 -0.1041 -0.2518
 2518SOL    HW119187   4.518   1.940   2.881  2.9355  1.1383 -1.2026
 2518SOL    HW219188   4.504   2.015   3.002 -0.7463  0.7195 -0.0822
 2519SOL     OW19189   0.742   1.851   6.430 -0.2146 -0.0205  0.2293
 2519SOL    HW119190   0.668   1.830   6.373  0.1156 -1.3909  0.3105
 2519SOL    HW219191   0.705   1.846   6.518  3.7251 -2.0915  1.7657
 2520SOL     OW19192   0.123   4.122  12.711 -0.0524  0.2068  0.2586
 2520SOL    HW119193   0.052   4.186  12.719  0.7832  1.3614 -1.9426
 2520SOL    HW219194   0.169   4.167  12.642 -0.8885  1.3340  0.4407
 2521SOL     OW19195   4.414   2.285   2.197  0.6168 -0.1666  0.1058
 2521SOL    HW119196   4.402   2.298   2.291 -1.2100  3.6709 -0.6785
 2521SOL    HW219197   4.503   2.320   2.197  0.3978  0.3612  1.8640
 2522SOL     OW19198   1.195   2.970   8.951  0.5321 -0.2502  0.1854
 2522SOL    HW119199   1.290   2.959   8.949  0.6288  0.4884  0.3202
 2522SOL    HW219200   1.155   2.900   8.900  1.6181  0.3045 -1.4307
 2523SOL     OW19201   1.769   0.568   2.136 -0.6949  0.0790  0.6087
 2523SOL    HW119202   1.693   0.596   2.084 -1.6949 -1.7746  1.0684
 2523SOL    HW219203   1.816   0.526   2.065 -1.7629 -0.7969  0.4130
 2524SOL     OW19204   4.275   2.670   7.166 -0.5536  0.5041 -0.0694
 2524SOL    HW119205   4.340   2.725   7.210 -0.9269  0.6965  0.2515
 2524SOL    HW219206   4.321   2.639   7.089 -2.3855 -0.1264 -0.9239
 2525SOL     OW19207   0.089   3.576   3.360 -0.1576 -0.6074  0.0123
 2525SOL    HW119208   0.118   3.663   3.334  1.5948 -1.1894  0.0441
 2525SOL    HW219209   0.158   3.515   3.335 -0.7545 -1.6966  1.0144
 2526SOL     OW19210   3.165   0.357  12.324  0.1406 -0.1970  0.2052
 2526SOL    HW119211   3.176   0.370  12.418  0.8120  0.1843  0.0739
 2526SOL    HW219212   3.098   0.289  12.317 -1.3569  1.2406  0.5612
 2527SOL     OW19213   1.930   4.301  15.228  0.0699 -0.4632  0.1025
 2527SOL    HW119214   2.008   4.246  15.228  0.5435  0.1666 -2.2966
 2527SOL    HW219215   1.973   4.387  15.225 -1.5794  0.2956 -2.4381
 2528SOL     OW19216   3.470   2.567  12.908  0.8495  0.8923  0.1145
 2528SOL    HW119217   3.556   2.590  12.941  1.0121 -0.0773  0.3657
 2528SOL    HW219218   3.420   2.640  12.945  0.7616  0.1862  1.3705
 2529SOL     OW19219   1.153   4.206   8.590  0.0998  0.3362 -0.0621
 2529SOL    HW119220   1.195   4.152   8.524 -0.7960  0.3737 -0.6656
 2529SOL    HW219221   1.210   4.282   8.581  0.2282  0.3385  0.7858
 2530SOL     OW19222   0.651   3.393   2.022  0.0430 -0.0624  0.9333
 2530SOL    HW119223   0.633   3.301   2.003  1.3004  0.4565 -2.8321
 2530SOL    HW219224   0.616   3.435   1.943  1.4625  0.4069  0.5571
 2531SOL     OW19225   3.442   3.144   2.845  0.6719  0.1987  0.1521
 2531SOL    HW119226   3.528   3.114   2.816  1.0434  0.6511  0.7860
 2531SOL    HW219227   3.385   3.078   2.806  1.8492 -0.8575  0.2444
 2532SOL     OW19228   0.055   1.079   2.344  0.3100  0.2227  0.4947
 2532SOL    HW119229   0.085   1.073   2.435 -1.9030 -1.6427  1.1229
 2532SOL    HW219230   0.107   1.008   2.306  0.9556  0.1713  1.4896
 2533SOL     OW19231   4.595   1.257  10.796 -0.1936 -0.0267  0.2723
 2533SOL    HW119232   4.580   1.346  10.763  0.8410 -0.7668 -2.2063
 2533SOL    HW219233   4.622   1.268  10.887 -0.5555 -0.9558  0.4953
 2534SOL     OW19234   0.385   3.067   9.146  0.2321 -0.5628  0.6704
 2534SOL    HW119235   0.464   3.075   9.093 -0.5132  1.1696 -0.1892
 2534SOL    HW219236   0.423   3.025   9.223 -1.8619 -0.3968  1.8001
 2535SOL     OW19237   0.801   4.180   7.734  0.2939 -0.4844  0.3537
 2535SOL    HW119238   0.888   4.206   7.764  0.8110  0.4293 -1.9245
 2535SOL    HW219239   0.764   4.128   7.805 -0.8787 -0.4150 -0.2203
 2536SOL     OW19240   3.126   3.630   6.768 -0.1102  0.4052  0.0155
 2536SOL    HW119241   3.039   3.594   6.782  0.2708 -0.6177 -0.2345
 2536SOL    HW219242   3.182   3.554   6.778  0.8917  0.9241 -1.6285
 2537SOL     OW19243   4.149   4.613   0.457 -0.0924  0.2352  0.7238
 2537SOL    HW119244   4.133   4.662   0.538  1.0494  1.1631  0.3830
 2537SOL    HW219245   4.243   4.624   0.473  0.2109 -2.6110  0.8948
 2538SOL     OW19246   1.710   2.059  16.690 -0.0945 -0.3090 -0.0825
 2538SOL    HW119247   1.802   2.082  16.678  0.1612 -2.6678 -2.6532
 2538SOL    HW219248   1.719   1.964  16.700 -0.0099 -0.0349  2.4286
 2539SOL     OW19249   0.308   2.451  11.812 -0.0516  0.0534  0.3787
 2539SOL    HW119250   0.303   2.399  11.733  0.5583 -3.1945  2.4942
 2539SOL    HW219251   0.393   2.432  11.852  0.3264  0.1022 -0.4103
 2540SOL     OW19252   1.919   0.128   2.426 -0.0240  0.4198 -0.3077
 2540SOL    HW119253   1.865   0.168   2.495  2.5469  0.3046  1.7897
 2540SOL    HW219254   1.885   0.169   2.347  2.0023  0.5025 -1.1174
 2541SOL     OW19255   0.973   4.182   2.730  0.2089  0.1974 -0.0120
 2541SOL    HW119256   0.990   4.095   2.694  2.1910  0.7907 -0.5471
 2541SOL    HW219257   0.989   4.169   2.823  1.4408 -0.7900 -0.3669
 2542SOL     OW19258   2.055   3.304  12.263 -0.5069  0.2742  0.2976
 2542SOL    HW119259   1.975   3.262  12.294 -0.0734  0.8009  2.0984
 2542SOL    HW219260   2.025   3.395  12.268  0.2024  0.6625 -2.1915
 2543SOL     OW19261   1.077   0.727   5.373 -0.2206  0.3574 -0.0165
 2543SOL    HW119262   1.161   0.701   5.335 -1.4587 -1.9128 -1.2399
 2543SOL    HW219263   1.019   0.714   5.298  0.1744 -1.2659 -0.0498
 2544SOL     OW19264   1.450   3.637   8.321 -0.4285 -0.2868 -0.1908
 2544SOL    HW119265   1.386   3.696   8.281  0.5009  0.1584 -1.0287
 2544SOL    HW219266   1.385   3.579   8.361 -0.1870 -0.9431 -0.7421
 2545SOL     OW19267   3.143   2.591   8.128 -0.2245  0.0695 -0.0192
 2545SOL    HW119268   3.105   2.508   8.100 -0.0389 -0.9519  2.7373
 2545SOL    HW219269   3.216   2.551   8.175 -0.2021  0.6990  0.4835
 2546SOL     OW19270   4.349   2.116  10.033 -0.4954  0.3396  0.3785
 2546SOL    HW119271   4.258   2.144  10.028 -0.4922  0.1276 -0.8762
 2546SOL    HW219272   4.382   2.147  10.117 -0.5590 -1.3831  1.0436
 2547SOL     OW19273   2.489   4.398   7.966  0.1734 -0.2050 -0.1692
 2547SOL    HW119274   2.573   4.444   7.977  0.8293 -0.9599 -2.0894
 2547SOL    HW219275   2.430   4.473   7.971  0.7594  0.1975  0.6632
 2548SOL     OW19276   2.559   1.760   3.237 -0.7309 -0.1322  0.4607
 2548SOL    HW119277   2.640   1.787   3.193 -0.1784 -0.5427  1.2376
 2548SOL    HW219278   2.582   1.773   3.329 -2.0380  2.1750  0.4927
 2549SOL     OW19279   4.329   3.693   2.586  0.0601  0.0166 -0.5693
 2549SOL    HW119280   4.414   3.721   2.621 -0.8262  2.3691 -0.2834
 2549SOL    HW219281   4.353   3.682   2.494  0.6127 -1.4332 -0.2479
 2550SOL     OW19282   1.740   2.463   9.167  0.0135 -0.3651 -0.3736
 2550SOL    HW119283   1.690   2.449   9.248 -0.1105 -0.8759 -0.5343
 2550SOL    HW219284   1.797   2.532   9.201 -1.0610 -0.0319  0.7595
 2551SOL     OW19285   2.910   3.408   5.450 -0.5940 -0.0610  0.0032
 2551SOL    HW119286   2.821   3.406   5.417 -0.7418  0.1634  0.3906
 2551SOL    HW219287   2.963   3.390   5.372  0.4423  0.2649  0.6317
 2552SOL     OW19288   0.514   1.195  11.621 -0.2781 -0.0708 -0.1826
 2552SOL    HW119289   0.419   1.203  11.609 -0.4119 -0.7659  0.4133
 2552SOL    HW219290   0.535   1.288  11.622  1.4757 -0.4815  1.1323
 2553SOL     OW19291   3.936   3.664   8.393  0.0698 -0.1569  0.2686
 2553SOL    HW119292   3.934   3.569   8.404  1.1997 -0.1704  0.3159
 2553SOL    HW219293   3.886   3.660   8.311 -1.4825  0.8048  1.1645
 2554SOL     OW19294   2.254   3.425   5.204 -0.0898 -0.1623  0.0261
 2554SOL    HW119295   2.272   3.449   5.113  2.6697 -2.2861  0.0027
 2554SOL    HW219296   2.224   3.334   5.194  0.9068 -0.4254 -0.6278
 2555SOL     OW19297   4.130   4.296   9.088 -0.1237  0.0528 -0.2760
 2555SOL    HW119298   4.037   4.317   9.085 -0.0385  0.4998  0.1896
 2555SOL    HW219299   4.115   4.221   9.030 -0.0670 -1.0418  1.1070
 2556SOL     OW19300   1.483   0.459   1.751 -0.0683  0.6465 -0.2304
 2556SOL    HW119301   1.511   0.388   1.693  0.8819  0.1712  0.8208
 2556SOL    HW219302   1.527   0.523   1.695  0.2919  0.5343 -0.0726
 2557SOL     OW19303   2.386   4.192   4.917 -0.5135  0.7730 -0.3790
 2557SOL    HW119304   2.425   4.279   4.918  0.0899  0.4674  2.5503
 2557SOL    HW219305   2.350   4.184   4.828 -0.9650  0.7242 -0.1917
 2558SOL     OW19306   1.183   2.032   2.838 -0.4827  0.6407  0.6658
 2558SOL    HW119307   1.099   2.050   2.879 -1.0234  1.5691 -0.8263
 2558SOL    HW219308   1.206   2.119   2.806  4.2021 -0.8401  0.0024
 2559SOL     OW19309   2.053   0.958   8.025  0.8439  0.7563 -0.0297
 2559SOL    HW119310   2.073   1.017   7.952 -0.0625 -0.4129 -1.2123
 2559SOL    HW219311   2.079   0.873   7.991  0.9979  0.6748  0.2881
 2560SOL     OW19312   2.207   0.179   3.813 -0.5117  0.1139 -0.0279
 2560SOL    HW119313   2.130   0.132   3.781  0.5625 -2.6132  1.4195
 2560SOL    HW219314   2.176   0.270   3.812  1.2207  0.6865 -0.8217
 2561SOL     OW19315   4.069   4.526   7.655  0.3242 -0.8257  0.0309
 2561SOL    HW119316   4.118   4.445   7.666  1.9091  0.2454  0.7937
 2561SOL    HW219317   4.011   4.520   7.732 -1.4417 -1.2099 -1.3191
 2562SOL     OW19318   4.194   1.870   7.023 -0.7226  0.2365  0.5970
 2562SOL    HW119319   4.278   1.839   7.056  0.3349 -0.0748 -2.4515
 2562SOL    HW219320   4.140   1.792   7.033  0.5666 -0.8061 -0.6401
 2563SOL     OW19321   2.909   3.935  17.552  0.5170  0.2304  0.7118
 2563SOL    HW119322   2.841   3.888  17.600 -0.2435  2.3972  1.7285
 2563SOL    HW219323   2.853   3.990  17.498 -1.0832 -2.0054  0.1206
 2564SOL     OW19324   4.634   0.074   7.594 -0.2600 -0.5679 -0.0308
 2564SOL    HW119325   4.574   0.103   7.525 -1.3675  0.1344  1.2207
 2564SOL    HW219326   4.609   0.132   7.666 -0.2064 -1.5346  0.7703
 2565SOL     OW19327   4.209   1.603  16.117 -0.0277 -0.0201  0.0891
 2565SOL    HW119328   4.264   1.607  16.195  1.7257 -0.1714 -1.1332
 2565SOL    HW219329   4.247   1.526  16.074 -0.5008  0.1135 -0.5798
 2566SOL     OW19330   2.884   4.571   1.336  0.1986  0.6217 -0.2765
 2566SOL    HW119331   2.903   4.487   1.378  1.7083  0.7664 -0.6712
 2566SOL    HW219332   2.799   4.608   1.361 -0.4193 -1.1408  0.1904
 2567SOL     OW19333   1.633   2.807   1.510  0.6454 -0.6002  0.8392
 2567SOL    HW119334   1.634   2.878   1.446 -3.2170 -1.1171  0.1983
 2567SOL    HW219335   1.552   2.764   1.482  0.1623  0.4438  0.6428
 2568SOL     OW19336   4.455   1.096   9.138 -0.8666 -0.1450  0.3639
 2568SOL    HW119337   4.391   1.098   9.066 -1.1048 -0.2968  0.5699
 2568SOL    HW219338   4.392   1.082   9.208  0.2707 -1.6893  1.0783
 2569SOL     OW19339   0.689   4.222   1.381  0.3290 -0.3961 -0.3802
 2569SOL    HW119340   0.752   4.172   1.434 -1.5615 -3.0510 -0.6913
 2569SOL    HW219341   0.664   4.298   1.434 -0.0172 -0.3599 -0.6020
 2570SOL     OW19342   1.994   2.812   5.676  0.0882 -0.2802 -0.1144
 2570SOL    HW119343   2.078   2.796   5.632  0.7751 -0.7438  1.3846
 2570SOL    HW219344   1.985   2.734   5.731  0.4803 -2.1169 -2.6554
 2571SOL     OW19345   0.505   1.879   9.423 -0.4879 -0.2170  0.1212
 2571SOL    HW119346   0.508   1.793   9.464 -1.5959 -0.1611  0.3175
 2571SOL    HW219347   0.411   1.882   9.439 -0.7223  0.8003 -1.4536
 2572SOL     OW19348   3.316   0.899   1.926 -0.1831  0.1143 -0.1096
 2572SOL    HW119349   3.386   0.839   1.900 -0.1691 -1.1601  2.9124
 2572SOL    HW219350   3.360   0.925   2.007  0.6968 -1.4223 -0.0830
 2573SOL     OW19351   1.352   0.657   2.337 -0.2616  0.0337 -0.0317
 2573SOL    HW119352   1.304   0.582   2.303 -2.1848  0.6493  1.3012
 2573SOL    HW219353   1.422   0.596   2.360  0.0330  0.3544 -0.0653
 2574SOL     OW19354   1.196   3.285  11.317  0.3643 -0.0769  0.3551
 2574SOL    HW119355   1.196   3.205  11.265 -1.5098  0.9669 -1.2491
 2574SOL    HW219356   1.111   3.324  11.297  0.8605  0.4764 -0.6922
 2575SOL     OW19357   3.211   2.131   7.263  0.2067  0.0841  0.5989
 2575SOL    HW119358   3.121   2.135   7.295 -0.6334  1.6823 -1.9568
 2575SOL    HW219359   3.250   2.203   7.314  2.0592 -0.1568 -0.4773
 2576SOL     OW19360   4.411   2.955   2.328 -0.5845  0.1818 -0.7854
 2576SOL    HW119361   4.499   2.992   2.333 -1.2722  1.7864 -0.6986
 2576SOL    HW219362   4.415   2.907   2.411 -1.5807  2.1218  0.3745
 2577SOL     OW19363   4.249   2.525   0.634 -0.9998 -0.0128  0.2084
 2577SOL    HW119364   4.237   2.448   0.690 -1.4913  0.8474  1.3001
 2577SOL    HW219365   4.181   2.586   0.661 -3.8909 -2.4899 -1.5379
 2578SOL     OW19366   0.779   4.344   6.527 -0.0750  0.1690  0.2263
 2578SOL    HW119367   0.775   4.424   6.475  0.6009  0.0901  0.0513
 2578SOL    HW219368   0.742   4.377   6.609 -0.1168  1.1131 -0.1729
 2579SOL     OW19369   0.882   4.262   5.071 -0.4673 -0.1002 -0.1432
 2579SOL    HW119370   0.909   4.342   5.025  2.5714 -1.6747 -1.0997
 2579SOL    HW219371   0.815   4.294   5.132 -0.3457 -0.7243  0.3129
 2580SOL     OW19372   4.079   2.761  16.010 -0.7089  0.0591  0.0534
 2580SOL    HW119373   4.073   2.857  16.010 -0.7255  0.0695 -4.8435
 2580SOL    HW219374   4.157   2.742  15.959  1.4656  2.0723  2.6448
 2581SOL     OW19375   0.614   1.974   7.011 -0.4277 -0.6078  0.0842
 2581SOL    HW119376   0.683   1.993   7.075 -0.1600  2.0971 -1.0277
 2581SOL    HW219377   0.608   1.878   7.015 -0.0161 -0.7748 -3.1460
 2582SOL     OW19378   2.168   3.010  11.301 -0.7354  0.0442 -0.2606
 2582SOL    HW119379   2.190   3.071  11.372  1.4900 -0.9611 -0.0863
 2582SOL    HW219380   2.210   2.933  11.340 -0.5423  0.5356  0.5065
 2583SOL     OW19381   2.793   1.162   4.803 -0.0860  0.2258 -0.3448
 2583SOL    HW119382   2.733   1.228   4.767 -0.9268  0.2281  1.0696
 2583SOL    HW219383   2.727   1.100   4.834 -1.4796  1.3467 -0.9926
 2584SOL     OW19384   2.242   1.200  10.220  0.7488  0.1433  0.1209
 2584SOL    HW119385   2.208   1.287  10.239 -1.1226 -0.2323 -1.4984
 2584SOL    HW219386   2.283   1.219  10.135 -0.5319  4.3269  0.4714
 2585SOL     OW19387   0.532   3.257   0.035 -0.4304  0.6197 -0.0639
 2585SOL    HW119388   0.584   3.337   0.032  1.6219 -0.8262 -3.4100
 2585SOL    HW219389   0.451   3.295  17.738  0.1761  1.5407 -0.4482
 2586SOL     OW19390   1.110   3.368   6.631 -0.5443 -0.1201  0.1327
 2586SOL    HW119391   1.111   3.282   6.588  1.0490  0.8735 -1.8237
 2586SOL    HW219392   1.024   3.359   6.673 -1.2463 -0.8516 -1.4700
 2587SOL     OW19393   1.509   3.623   7.048 -0.0250  0.0711 -0.0314
 2587SOL    HW119394   1.475   3.554   7.105  0.3089 -1.6240 -1.8751
 2587SOL    HW219395   1.553   3.673   7.116  2.1082  1.0288 -2.0861
 2588SOL     OW19396   3.301   2.984  15.896 -0.2822  0.1298 -0.3814
 2588SOL    HW119397   3.371   2.950  15.840  0.5210 -1.9089  1.8411
 2588SOL    HW219398   3.283   3.072  15.863  0.3716 -0.8560 -3.3877
 2589SOL     OW19399   2.158   0.722   3.571 -0.4775 -0.4357  0.3269
 2589SOL    HW119400   2.141   0.777   3.494  1.4529 -2.1578 -1.3126
 2589SOL    HW219401   2.073   0.678   3.576 -0.2313 -0.9087  0.3901
 2590SOL     OW19402   3.659   3.814   4.825 -0.1613 -0.6852 -0.3298
 2590SOL    HW119403   3.740   3.787   4.783  0.5467  2.0779 -0.6930
 2590SOL    HW219404   3.687   3.824   4.916 -2.0030 -1.1412  0.3081
 2591SOL     OW19405   0.771   2.213   4.050 -0.2886  0.5509  0.4892
 2591SOL    HW119406   0.690   2.197   4.099  0.3204  1.3092  1.7428
 2591SOL    HW219407   0.809   2.271   4.115  1.6266 -1.7837  1.4194
 2592SOL     OW19408   1.134   1.818   2.698  0.3738 -0.2895  0.2586
 2592SOL    HW119409   1.039   1.816   2.695  0.4509 -0.1973 -2.2353
 2592SOL    HW219410   1.144   1.896   2.754  0.2373  0.3604 -0.6286
 2593SOL     OW19411   1.103   1.572   4.031 -0.0376 -0.0653  0.1709
 2593SOL    HW119412   1.047   1.519   3.975  0.8741  0.1145 -0.9170
 2593SOL    HW219413   1.160   1.616   3.968  2.7918 -1.2060  1.9750
 2594SOL     OW19414   0.826   4.205   5.968  0.2278 -0.3237 -0.1635
 2594SOL    HW119415   0.860   4.122   6.002 -0.4502 -0.4410  0.2367
 2594SOL    HW219416   0.742   4.179   5.931  1.0340 -2.6977 -0.3050
 2595SOL     OW19417   2.406   2.389   9.652 -0.5410 -0.4521  0.0910
 2595SOL    HW119418   2.443   2.316   9.601  1.5760  0.2933  0.5405
 2595SOL    HW219419   2.419   2.355   9.741 -1.3717  1.3256  0.8826
 2596SOL     OW19420   2.639   1.746   2.592 -0.2481  0.3251  0.0070
 2596SOL    HW119421   2.646   1.841   2.587 -1.1627  0.3811 -0.1431
 2596SOL    HW219422   2.545   1.728   2.595  0.4587 -3.4321  0.6503
 2597SOL     OW19423   1.859   1.825   0.833  0.3598 -0.3058  0.0720
 2597SOL    HW119424   1.903   1.888   0.889 -0.3591 -0.1018  0.4061
 2597SOL    HW219425   1.940   1.795   0.790 -0.5611  0.8627 -2.4709
 2598SOL     OW19426   4.286   0.586   3.841  0.2950  0.1428 -0.4603
 2598SOL    HW119427   4.318   0.564   3.929  1.6738 -2.5233 -1.6300
 2598SOL    HW219428   4.312   0.510   3.789 -1.5876  0.5957 -2.0647
 2599SOL     OW19429   1.664   3.024   6.217 -0.0037 -0.0095  0.3968
 2599SOL    HW119430   1.672   3.004   6.310  4.0187  1.8725  0.4376
 2599SOL    HW219431   1.579   3.066   6.199  0.0991 -0.4230 -0.9896
 2600SOL     OW19432   0.311   2.455   4.228 -0.0095 -0.1087  0.5264
 2600SOL    HW119433   0.310   2.493   4.316  0.0729  2.4479 -0.5664
 2600SOL    HW219434   0.368   2.517   4.183 -0.5206  0.7214  1.0213
 2601SOL     OW19435   3.604   0.118  15.109  0.1026  0.2768 -0.6156
 2601SOL    HW119436   3.568   0.181  15.047  0.7492 -0.1247 -1.4044
 2601SOL    HW219437   3.591   0.164  15.192  0.6850 -0.4889 -0.0960
 2602SOL     OW19438   3.705   2.004   3.842  0.1766  0.1932 -0.2938
 2602SOL    HW119439   3.684   1.914   3.867  1.8272  0.4557  2.0022
 2602SOL    HW219440   3.673   2.003   3.752  1.8994  1.6413 -0.9200
 2603SOL     OW19441   4.515   1.101   7.609 -0.7084 -0.1060 -0.2644
 2603SOL    HW119442   4.509   1.195   7.621  2.7461 -0.1024  1.2186
 2603SOL    HW219443   4.525   1.073   7.700  0.3698 -0.3544 -0.4625
 2604SOL     OW19444   0.058   4.383   1.932 -0.2492  0.3485 -0.3528
 2604SOL    HW119445   0.144   4.342   1.945  0.8611  2.2917 -1.5521
 2604SOL    HW219446   0.002   4.308   1.913 -2.3712  1.1627  2.6581
 2605SOL     OW19447   3.304   0.431   8.807 -0.9006 -0.3368 -0.0826
 2605SOL    HW119448   3.243   0.397   8.872 -0.7210 -0.8970 -0.2134
 2605SOL    HW219449   3.289   0.526   8.802  0.9214 -0.1128 -1.2541
 2606SOL     OW19450   2.732   2.915   1.908  0.1525 -0.2193 -0.2182
 2606SOL    HW119451   2.679   2.961   1.973  0.0385  1.9276 -1.8207
 2606SOL    HW219452   2.668   2.852   1.873  0.9295 -2.0622  1.6914
 2607SOL     OW19453   0.766   0.581  14.915  0.3536 -0.0014 -0.2253
 2607SOL    HW119454   0.735   0.495  14.888  1.1074 -0.4788  0.4353
 2607SOL    HW219455   0.691   0.640  14.916  0.2179 -0.1889  1.2427
 2608SOL     OW19456   2.613   0.508   5.724 -0.5541 -0.3480  0.1644
 2608SOL    HW119457   2.686   0.539   5.778 -0.6493 -1.3765  0.8936
 2608SOL    HW219458   2.667   0.472   5.655  0.5965  0.5020  0.6173
 2609SOL     OW19459   0.187   2.200  16.880 -0.0615 -0.2367  0.1097
 2609SOL    HW119460   0.241   2.271  16.915 -0.0118 -1.0971  1.7650
 2609SOL    HW219461   0.107   2.245  16.855  0.7117  0.4790 -1.1273
 2610SOL     OW19462   3.638   3.245  12.431  0.7363 -0.4953  0.1336
 2610SOL    HW119463   3.734   3.248  12.431  0.6096  3.4824  0.3278
 2610SOL    HW219464   3.619   3.302  12.505 -2.8955 -0.2405 -0.9967
 2611SOL     OW19465   1.901   1.887   5.587  0.0322 -0.3448  0.7224
 2611SOL    HW119466   1.971   1.827   5.614  1.6606  0.4664 -1.7430
 2611SOL    HW219467   1.835   1.820   5.568 -0.2257 -0.0538  0.5893
 2612SOL     OW19468   4.503   4.636   2.683  0.1060 -0.5968 -0.6531
 2612SOL    HW119469   4.523   4.544   2.697 -1.0237 -0.8938 -1.0078
 2612SOL    HW219470   4.445   4.625   2.608 -0.9376 -1.8161  0.3496
 2613SOL     OW19471   2.698   3.444   7.899 -0.0450  0.0216 -0.0199
 2613SOL    HW119472   2.791   3.446   7.876  0.6833  1.1951  2.9873
 2613SOL    HW219473   2.705   3.408   7.988 -0.5574  1.3551  0.5552
 2614SOL     OW19474   1.853   2.950   8.636 -0.0023  0.4419  0.5324
 2614SOL    HW119475   1.888   3.008   8.568 -0.4029  2.2467  1.8820
 2614SOL    HW219476   1.805   3.008   8.695  0.5451  1.3044  0.1351
 2615SOL     OW19477   4.248   4.422  12.873  0.5318 -0.0912  0.2204
 2615SOL    HW119478   4.289   4.339  12.896  2.0759  0.8924  1.0489
 2615SOL    HW219479   4.248   4.413  12.778  1.0435 -1.1719  0.3264
 2616SOL     OW19480   0.450   1.861   8.725  0.2625  0.0769 -0.0981
 2616SOL    HW119481   0.368   1.883   8.681  1.1629  0.3400 -1.6417
 2616SOL    HW219482   0.422   1.863   8.816  0.4599  0.9404 -0.0520
 2617SOL     OW19483   2.737   2.671   9.017 -0.1389  0.7933  0.5798
 2617SOL    HW119484   2.744   2.583   9.054  0.4973  0.0108 -1.4384
 2617SOL    HW219485   2.659   2.651   8.965  0.7654 -2.8225  0.6391
 2618SOL     OW19486   0.104   2.721   8.601  0.0953 -0.2292 -0.5363
 2618SOL    HW119487   0.068   2.769   8.527  0.4760 -1.0323 -1.2416
 2618SOL    HW219488   0.086   2.631   8.575  1.2042 -1.1042  1.7397
 2619SOL     OW19489   3.462   3.923  17.044  0.1912 -0.4477  0.4348
 2619SOL    HW119490   3.483   3.865  16.971 -0.1255 -1.0268  0.8037
 2619SOL    HW219491   3.443   4.004  16.996  0.1477 -0.0828  1.0699
 2620SOL     OW19492   1.424   3.925  14.053  1.1466  0.4403  0.2650
 2620SOL    HW119493   1.494   3.983  14.084  1.0223  1.2301 -0.9265
 2620SOL    HW219494   1.359   3.939  14.122 -0.4900 -1.0284 -1.0115
 2621SOL     OW19495   4.470   2.461   5.577 -0.6585 -0.0890 -0.1675
 2621SOL    HW119496   4.542   2.432   5.634  0.1121  0.4456 -0.8691
 2621SOL    HW219497   4.400   2.397   5.588 -0.2170 -0.6188 -0.4216
 2622SOL     OW19498   4.608   2.603  12.263 -0.0150  0.1235 -0.4070
 2622SOL    HW119499   4.577   2.513  12.253  0.0244  0.0993 -0.3061
 2622SOL    HW219500   4.630   2.600  12.356  2.6740  2.9143 -0.9694
 2623SOL     OW19501   0.851   0.478   6.875 -0.1154  0.1621 -0.3714
 2623SOL    HW119502   0.828   0.463   6.783  3.1691 -3.2219 -0.6028
 2623SOL    HW219503   0.945   0.474   6.863 -0.4243 -2.2402 -1.8477
 2624SOL     OW19504   3.261   2.457   9.780  0.5439  0.0802 -0.2038
 2624SOL    HW119505   3.215   2.449   9.697 -1.4523 -0.8498  0.9998
 2624SOL    HW219506   3.189   2.476   9.839 -0.8556 -0.5671 -1.7125
 2625SOL     OW19507   0.093   3.896   2.474 -0.2248  0.1590  0.4016
 2625SOL    HW119508   0.109   3.918   2.566  1.2428 -1.2205  0.4720
 2625SOL    HW219509   0.104   3.801   2.474  0.6758  0.2793 -1.2762
 2626SOL     OW19510   1.726   3.440  16.892  0.0587  0.1644 -0.5028
 2626SOL    HW119511   1.674   3.469  16.967 -1.1741 -0.9351 -0.9264
 2626SOL    HW219512   1.776   3.369  16.932  0.8436  0.0564 -1.6765
 2627SOL     OW19513   1.598   1.975   1.925  0.5866 -0.6436  0.3173
 2627SOL    HW119514   1.558   1.889   1.914 -0.8065 -0.0125  0.4789
 2627SOL    HW219515   1.567   1.990   2.014  0.6324  0.1078  0.2119
 2628SOL     OW19516   3.237   1.963   0.672  0.2836  0.1746 -0.2352
 2628SOL    HW119517   3.316   1.951   0.619 -1.1178 -3.3776 -1.5100
 2628SOL    HW219518   3.250   2.056   0.690 -0.6580  0.5257 -1.3772
 2629SOL     OW19519   1.484   1.069   5.971  0.0930 -0.1976  0.9037
 2629SOL    HW119520   1.458   1.129   5.901 -2.5152 -1.9757  0.3530
 2629SOL    HW219521   1.499   0.987   5.924 -1.0569  0.0788  0.0591
 2630SOL     OW19522   0.320   2.356   3.015  0.6083  0.0772 -0.5106
 2630SOL    HW119523   0.415   2.343   3.016  0.4743 -0.8278  0.1851
 2630SOL    HW219524   0.287   2.268   3.033 -0.9688  0.8116  0.1709
 2631SOL     OW19525   2.295   4.221   8.649  0.1677 -0.2959 -0.2531
 2631SOL    HW119526   2.270   4.301   8.603  1.1830 -0.7651 -1.6112
 2631SOL    HW219527   2.277   4.159   8.579 -1.0696  0.7749 -0.8859
 2632SOL     OW19528   1.337   3.582   8.681 -0.7317  0.1924  0.1220
 2632SOL    HW119529   1.358   3.489   8.666 -3.0707 -0.2614 -0.2339
 2632SOL    HW219530   1.257   3.590   8.629  0.0736 -0.1867 -1.1817
 2633SOL     OW19531   1.916   2.829   4.297  0.1741 -0.5293 -0.1217
 2633SOL    HW119532   1.883   2.877   4.222 -0.4613  1.9543  1.7590
 2633SOL    HW219533   1.982   2.896   4.316  1.5600 -2.0828  0.6021
 2634SOL     OW19534   1.960   4.413  14.820  0.3672  0.0070 -0.2410
 2634SOL    HW119535   1.981   4.445  14.908  0.9289 -3.4708  0.9106
 2634SOL    HW219536   2.004   4.330  14.837 -1.2873 -0.8070  0.0947
 2635SOL     OW19537   2.747   3.379   5.755  0.0030 -0.0162  0.2016
 2635SOL    HW119538   2.701   3.452   5.713  1.0842 -0.0622 -1.0425
 2635SOL    HW219539   2.705   3.373   5.841 -1.0393  1.1945 -0.2157
 2636SOL     OW19540   1.401   4.338   6.826 -0.0354  1.0970 -0.1916
 2636SOL    HW119541   1.388   4.261   6.881  2.8557 -0.6902 -2.0396
 2636SOL    HW219542   1.402   4.411   6.889  2.4340  0.3536  0.6156
 2637SOL     OW19543   3.164   0.009   7.519 -0.8629  0.0851  0.4157
 2637SOL    HW119544   3.092   0.004   7.582 -0.6611 -1.4359  0.5152
 2637SOL    HW219545   3.211   4.662   7.533 -2.8344 -1.3774 -1.5910
 2638SOL     OW19546   2.255   3.370   4.922 -0.1315  0.0768 -0.1457
 2638SOL    HW119547   2.344   3.403   4.909 -0.4464  1.2791  0.6810
 2638SOL    HW219548   2.205   3.387   4.842  1.0758  0.2798 -0.8546
 2639SOL     OW19549   0.996   3.963   5.453  0.0884 -0.3022  0.0375
 2639SOL    HW119550   1.043   3.881   5.464  1.4517  0.6590  1.3478
 2639SOL    HW219551   1.067   4.026   5.444  0.1387 -0.5120 -1.0845
 2640SOL     OW19552   4.560   1.878  13.071 -0.2879 -0.1291 -0.9582
 2640SOL    HW119553   4.621   1.843  13.136  0.2220  3.7938  0.6968
 2640SOL    HW219554   4.617   1.944  13.032  1.0214 -1.4906 -1.3435
 2641SOL     OW19555   2.506   4.418   9.300 -0.8941 -0.6358 -0.3917
 2641SOL    HW119556   2.418   4.380   9.299 -0.9469 -0.5248  0.6436
 2641SOL    HW219557   2.495   4.480   9.228  2.1127  0.1397 -0.1670
 2642SOL     OW19558   2.651   0.040   4.229 -0.2274 -0.0509  0.5391
 2642SOL    HW119559   2.712   0.033   4.156 -1.1365  0.1141 -0.2401
 2642SOL    HW219560   2.608   0.121   4.200 -0.1384 -0.3591 -0.4505
 2643SOL     OW19561   3.539   1.161  17.700 -0.2114  1.1967 -0.3206
 2643SOL    HW119562   3.628   1.131  17.681  0.6827  2.2923  2.0491
 2643SOL    HW219563   3.493   1.082  17.725 -1.5116  1.9199 -0.4240
 2644SOL     OW19564   0.898   0.510  10.437 -0.0966  0.0248  0.2629
 2644SOL    HW119565   0.934   0.438  10.488 -3.5361 -0.7690  1.5658
 2644SOL    HW219566   0.802   0.507  10.436 -0.0938  0.1130 -0.2353
 2645SOL     OW19567   1.900   1.758   8.888  0.0048  0.5081  0.0321
 2645SOL    HW119568   1.883   1.834   8.944 -1.1222  0.9800 -0.9440
 2645SOL    HW219569   1.955   1.707   8.947 -1.6377 -2.2040 -0.7685
 2646SOL     OW19570   2.951   0.639  15.194 -0.2445  0.3060 -0.5700
 2646SOL    HW119571   2.908   0.704  15.250 -0.7120 -0.3678 -0.1426
 2646SOL    HW219572   2.894   0.632  15.117 -0.1215  1.8964 -0.8143
 2647SOL     OW19573   0.781   1.161   6.569  0.1697 -0.4553 -0.1424
 2647SOL    HW119574   0.853   1.218   6.596  0.0856 -0.8914  0.9952
 2647SOL    HW219575   0.709   1.222   6.556  1.6954  1.2898 -0.4926
 2648SOL     OW19576   3.181   2.230   7.685  0.0464 -0.6377  0.6149
 2648SOL    HW119577   3.107   2.211   7.628 -0.7572  0.6098  1.2595
 2648SOL    HW219578   3.171   2.167   7.756 -0.6164 -0.5360  0.6050
 2649SOL     OW19579   1.866   1.952   9.068 -0.2114  0.3746  0.3059
 2649SOL    HW119580   1.876   2.047   9.063  1.3375  0.1520 -0.6469
 2649SOL    HW219581   1.816   1.948   9.149  0.8324  1.4241  0.9965
 2650SOL     OW19582   0.395   1.057   2.289  0.0014  0.6179  0.4338
 2650SOL    HW119583   0.330   1.004   2.243  0.7225 -0.6011  0.8238
 2650SOL    HW219584   0.458   1.072   2.218  0.4376 -1.2205  0.4265
 2651SOL     OW19585   2.331   1.774   7.966  0.2215  0.1546  0.3229
 2651SOL    HW119586   2.304   1.865   7.969  0.4036  0.2365 -0.3677
 2651SOL    HW219587   2.424   1.787   7.948  0.2343 -0.8543 -0.3719
 2652SOL     OW19588   2.502   1.661   1.775 -0.3448  0.1114  0.3576
 2652SOL    HW119589   2.418   1.707   1.777  0.1639  1.0742 -1.2254
 2652SOL    HW219590   2.553   1.701   1.846 -0.5679  1.4192 -0.2325
 2653SOL     OW19591   4.158   2.802  15.237 -0.0055 -0.1501  0.5413
 2653SOL    HW119592   4.248   2.813  15.268  0.4472 -0.9121 -0.5153
 2653SOL    HW219593   4.100   2.800  15.313  0.2950  0.8638  0.8062
 2654SOL     OW19594   3.577   0.212   7.334 -0.1462 -0.4547  0.0622
 2654SOL    HW119595   3.494   0.260   7.332 -0.6739 -1.3812 -0.4791
 2654SOL    HW219596   3.540   0.124   7.341 -1.5468  0.1614  0.3569
 2655SOL     OW19597   1.221   0.287   4.100 -0.4818  0.1422  0.1012
 2655SOL    HW119598   1.184   0.315   4.016  0.8701  1.2118 -0.1260
 2655SOL    HW219599   1.256   0.200   4.077  0.3779  0.9219 -1.5259
 2656SOL     OW19600   1.194   3.714   7.002 -0.5295 -0.0302  0.2941
 2656SOL    HW119601   1.248   3.766   7.062  1.5356 -1.9165  0.0783
 2656SOL    HW219602   1.120   3.772   6.984  0.6189  0.8223 -1.5879
 2657SOL     OW19603   2.788   0.712   9.663  0.5926  0.8945  0.1710
 2657SOL    HW119604   2.778   0.627   9.620  2.8494  0.3454  0.6983
 2657SOL    HW219605   2.875   0.703   9.703  1.0410 -0.6604 -1.1780
 2658SOL     OW19606   3.403   0.039   0.936  0.4548 -0.3447 -0.3575
 2658SOL    HW119607   3.408   0.086   1.019 -0.4959 -0.3761 -0.2794
 2658SOL    HW219608   3.477   0.071   0.885 -2.0235  1.2452 -2.9734
 2659SOL     OW19609   2.872   1.303   8.420 -0.0913 -0.2838  0.0994
 2659SOL    HW119610   2.807   1.275   8.356  0.8630 -0.3754 -0.8343
 2659SOL    HW219611   2.825   1.354   8.486  0.7470  0.7654 -0.1017
 2660SOL     OW19612   3.098   1.192   7.759 -0.5810  0.3911 -0.0534
 2660SOL    HW119613   3.176   1.243   7.779 -1.3477  1.0649  1.2311
 2660SOL    HW219614   3.137   1.105   7.745 -4.0867 -1.0770 -0.7074
 2661SOL     OW19615   1.846   2.828   7.382 -0.8155 -0.2624 -0.4913
 2661SOL    HW119616   1.770   2.771   7.371 -0.0579 -1.4310  0.3665
 2661SOL    HW219617   1.914   2.771   7.346 -0.4578 -1.7886  2.6020
 2662SOL     OW19618   2.960   0.666   6.857 -0.0901  0.0993 -0.5162
 2662SOL    HW119619   2.942   0.573   6.843 -1.0153  0.7377 -3.6505
 2662SOL    HW219620   2.933   0.679   6.948  0.6677  0.2564 -0.3192
 2663SOL     OW19621   1.128   0.194   7.387  0.1152  0.0682  0.6558
 2663SOL    HW119622   1.041   0.154   7.393 -0.4676  1.2101 -0.0019
 2663SOL    HW219623   1.173   0.126   7.337 -1.9782 -0.9346  0.1321
 2664SOL     OW19624   0.255   2.961   4.544 -0.5078 -0.3320  0.2721
 2664SOL    HW119625   0.159   2.961   4.549 -0.4262  0.3501  1.5711
 2664SOL    HW219626   0.280   2.967   4.636  0.8986 -2.1532  0.0053
 2665SOL     OW19627   2.021   1.664   6.577 -0.0346 -0.1965  0.3451
 2665SOL    HW119628   2.090   1.729   6.563  2.7086 -2.6555  2.2670
 2665SOL    HW219629   1.969   1.678   6.498 -0.5530 -0.3757  0.6537
 2666SOL     OW19630   3.091   4.369  11.125 -0.3732  0.0664 -0.0716
 2666SOL    HW119631   3.123   4.327  11.206 -1.8282  2.2906  1.6627
 2666SOL    HW219632   3.085   4.293  11.067  1.4889  0.8234 -1.2723
 2667SOL     OW19633   0.009   3.309  11.630  0.4523  0.0024 -0.7931
 2667SOL    HW119634   4.652   3.301  11.605  1.0089 -0.4083 -2.6978
 2667SOL    HW219635   0.057   3.249  11.574  0.2547  0.0476 -1.0106
 2668SOL     OW19636   4.590   0.898   5.829 -0.4343 -0.0164  0.3544
 2668SOL    HW119637   4.513   0.845   5.809  1.0097 -1.1180 -2.3038
 2668SOL    HW219638   4.595   0.905   5.924  1.4019 -1.6913  0.3786
 2669SOL     OW19639   2.571   0.979   9.171  0.3063  0.2980 -0.4811
 2669SOL    HW119640   2.611   0.941   9.250 -1.2405 -2.7491 -1.1393
 2669SOL    HW219641   2.519   0.902   9.146 -1.3241  0.0873  3.5390
 2670SOL     OW19642   1.061   0.239   7.048 -0.0686  0.8516  0.2942
 2670SOL    HW119643   1.122   0.296   7.095  0.8873 -0.6304  0.8850
 2670SOL    HW219644   1.046   0.295   6.972  0.7460 -0.6296 -0.9547
 2671SOL     OW19645   3.517   3.553   9.001 -0.2365  0.2357  0.1989
 2671SOL    HW119646   3.523   3.541   9.096  0.2709 -2.3034 -0.1409
 2671SOL    HW219647   3.549   3.468   8.970 -0.8778  0.0616  0.0120
 2672SOL     OW19648   3.429   1.355   9.711  0.2147  0.2851  0.7201
 2672SOL    HW119649   3.420   1.444   9.677  1.1498 -0.8645 -2.5089
 2672SOL    HW219650   3.474   1.318   9.635 -1.1845 -3.0251  1.5091
 2673SOL     OW19651   4.550   0.960  11.123 -0.0136 -0.2435  0.0258
 2673SOL    HW119652   4.469   0.931  11.082 -0.2533  0.4059  0.0511
 2673SOL    HW219653   4.584   0.876  11.153  1.0602 -0.3769 -1.5726
 2674SOL     OW19654   0.615   2.832   1.688  0.1694  0.1777 -0.2370
 2674SOL    HW119655   0.648   2.762   1.631 -1.6201 -0.3324 -0.6370
 2674SOL    HW219656   0.648   2.788   1.766 -2.0306  0.3732  0.7800
 2675SOL     OW19657   0.057   4.287   4.056  0.2068  0.1733 -0.6147
 2675SOL    HW119658   0.093   4.369   4.089 -0.9802  0.2857  0.4196
 2675SOL    HW219659   4.705   4.314   4.026 -0.0600 -0.8805 -0.8032
 2676SOL     OW19660   4.294   3.071   6.370  0.4257  0.0470 -0.4053
 2676SOL    HW119661   4.208   3.051   6.407  1.1196  1.5655  2.0797
 2676SOL    HW219662   4.318   2.989   6.327  2.6743 -0.5471  1.9841
 2677SOL     OW19663   3.040   4.130  17.663 -0.0301  0.3070 -0.4257
 2677SOL    HW119664   2.991   4.057  17.625  1.1182 -0.7616  0.1200
 2677SOL    HW219665   3.066   4.085   0.005 -1.0849 -0.8402 -0.7373
 2678SOL     OW19666   3.344   3.729   1.174 -0.2989  0.1337 -0.8723
 2678SOL    HW119667   3.389   3.738   1.090  2.2812 -0.5725  0.4403
 2678SOL    HW219668   3.408   3.679   1.225 -0.9789  1.1840  1.0362
 2679SOL     OW19669   3.779   0.188   7.100 -0.2754  0.0069  0.5319
 2679SOL    HW119670   3.825   0.270   7.121  1.7071 -0.4156 -2.1381
 2679SOL    HW219671   3.691   0.207   7.132 -0.7705 -1.8978  0.3421
 2680SOL     OW19672   4.272   1.564  14.979 -0.1679  0.0832 -0.1237
 2680SOL    HW119673   4.315   1.480  14.999 -2.0108 -1.0218 -0.8966
 2680SOL    HW219674   4.279   1.563  14.884  0.6733 -1.2703 -0.0528
 2681SOL     OW19675   1.059   3.105   1.946  0.2634  0.4753 -0.2136
 2681SOL    HW119676   1.020   3.136   1.864  0.2084  0.2285 -0.2792
 2681SOL    HW219677   1.016   3.166   2.006 -1.2704  0.3737 -1.2214
 2682SOL     OW19678   2.443   0.340  16.379  0.4867 -0.1953 -0.5264
 2682SOL    HW119679   2.362   0.325  16.427  1.6088  2.6439  2.2397
 2682SOL    HW219680   2.411   0.382  16.299 -1.0474 -2.3215 -1.0146
 2683SOL     OW19681   0.658   3.499   3.174 -0.2006  0.2597 -0.6387
 2683SOL    HW119682   0.598   3.431   3.203 -0.8199  1.5699  1.1621
 2683SOL    HW219683   0.604   3.559   3.123 -0.6284  0.4012 -0.0105
 2684SOL     OW19684   4.050   4.132   8.692  0.0961  0.6630  0.1732
 2684SOL    HW119685   3.981   4.097   8.636  0.5233 -0.4235  0.3351
 2684SOL    HW219686   4.076   4.045   8.721  0.3554  0.8531  0.5168
 2685SOL     OW19687   3.582   4.704   2.825 -0.1447 -0.0309  1.0408
 2685SOL    HW119688   3.503   0.013   2.792  1.1504  0.0100 -2.0294
 2685SOL    HW219689   3.645   4.721   2.755 -3.6253  3.5439 -1.2567
 2686SOL     OW19690   2.542   2.625   5.671 -0.1156 -0.8574 -0.6945
 2686SOL    HW119691   2.533   2.716   5.699  0.3477 -1.1560  0.4064
 2686SOL    HW219692   2.577   2.590   5.753  0.2205 -1.9484 -1.3015
 2687SOL     OW19693   2.782   4.546   1.709 -0.4007  0.6769  0.1537
 2687SOL    HW119694   2.791   4.479   1.777  1.2839  0.9289  0.1611
 2687SOL    HW219695   2.757   4.492   1.634  1.3288 -1.5745  1.2231
 2688SOL     OW19696   1.895   4.151   7.840 -0.0586 -0.4074 -0.0737
 2688SOL    HW119697   1.916   4.061   7.866  1.9987  0.4316  1.2385
 2688SOL    HW219698   1.813   4.145   7.792 -0.2438 -5.2148  0.8215
 2689SOL     OW19699   1.735   1.169  15.659  0.2932  0.1467  0.0594
 2689SOL    HW119700   1.643   1.186  15.680  0.2853 -0.5443  0.5688
 2689SOL    HW219701   1.774   1.235  15.717 -0.0550  1.2034 -0.8929
 2690SOL     OW19702   3.347   0.711  15.825 -0.0991  0.1237 -0.0337
 2690SOL    HW119703   3.434   0.708  15.864  0.0336  1.2052 -0.2441
 2690SOL    HW219704   3.312   0.794  15.857  0.2968  0.3743 -0.2551
 2691SOL     OW19705   4.363   1.374   5.607  0.0488  0.0361  0.1147
 2691SOL    HW119706   4.310   1.443   5.569  2.2573  1.3945 -0.5271
 2691SOL    HW219707   4.378   1.312   5.535 -2.3398 -1.7866  1.2264
 2692SOL     OW19708   0.037   1.674   4.294 -0.4256 -0.0318  0.6184
 2692SOL    HW119709   0.060   1.636   4.209  0.0879 -1.8141  1.5370
 2692SOL    HW219710   0.003   1.599   4.344  1.1024 -0.6894  0.6953
 2693SOL     OW19711   0.574   4.370   2.739 -0.2388  0.7013  0.1281
 2693SOL    HW119712   0.585   4.465   2.737  0.1075  0.6618  0.2459
 2693SOL    HW219713   0.568   4.340   2.648  1.0614  0.2431  0.2013
 2694SOL     OW19714   1.692   1.539   8.995 -0.1766 -0.4653 -0.1898
 2694SOL    HW119715   1.646   1.609   9.040  0.9004  0.8987 -1.2156
 2694SOL    HW219716   1.716   1.584   8.914  2.9787 -0.6832  0.6084
 2695SOL     OW19717   2.757   0.016   4.727 -0.1282 -0.1676 -0.3067
 2695SOL    HW119718   2.821   4.697   4.681  0.9108 -0.9583  2.0430
 2695SOL    HW219719   2.775   0.104   4.694  0.4932 -0.0259  0.4146
 2696SOL     OW19720   1.800   3.422   1.943  0.2925 -0.2369 -0.4113
 2696SOL    HW119721   1.895   3.416   1.928  0.4092 -0.2822  0.3814
 2696SOL    HW219722   1.775   3.350   2.001 -0.5515  0.6540  0.3181
 2697SOL     OW19723   1.654   1.858   4.019  0.4552 -0.2598 -0.2312
 2697SOL    HW119724   1.685   1.927   4.077  0.8348 -0.7582  0.1634
 2697SOL    HW219725   1.648   1.904   3.936  1.2478 -3.1513 -1.8971
 2698SOL     OW19726   2.854   2.973   5.176  0.0428  0.4509  0.2273
 2698SOL    HW119727   2.815   2.972   5.263 -0.2264  2.1253  0.1270
 2698SOL    HW219728   2.942   3.008   5.191  0.5145 -0.2823 -0.7983
 2699SOL     OW19729   2.070   2.959   4.788 -0.3275  0.3348 -0.5636
 2699SOL    HW119730   2.132   2.907   4.737  0.6952  1.5631 -0.5794
 2699SOL    HW219731   2.095   2.932   4.876 -1.8849  0.5552 -0.0431
 2700SOL     OW19732   0.395   1.826   3.563  0.5178  0.4202 -0.6841
 2700SOL    HW119733   0.422   1.734   3.562 -0.0495  0.2601 -1.2534
 2700SOL    HW219734   0.306   1.825   3.528 -0.2671  2.8988  1.1843
 2701SOL     OW19735   2.738   3.393   5.179 -0.2065  0.4705  0.4546
 2701SOL    HW119736   2.727   3.448   5.102  0.1216 -0.2526 -0.1108
 2701SOL    HW219737   2.832   3.374   5.184  0.0267  1.4448 -0.2519
 2702SOL     OW19738   2.553   0.420   6.267 -0.2145 -0.1978 -0.0744
 2702SOL    HW119739   2.588   0.481   6.203 -0.1898 -0.7097 -0.5490
 2702SOL    HW219740   2.542   0.481   6.340 -0.4251 -0.3865  0.0540
 2703SOL     OW19741   4.557   2.316  11.618 -0.2688 -0.3822 -0.6952
 2703SOL    HW119742   4.617   2.389  11.633  0.1676 -1.2122  1.5352
 2703SOL    HW219743   4.614   2.264  11.562  0.4051 -1.4651  1.0060
 2704SOL     OW19744   1.491   2.691   2.663 -0.1036 -0.3206 -0.7574
 2704SOL    HW119745   1.453   2.625   2.720  0.3563 -1.4430 -1.7474
 2704SOL    HW219746   1.512   2.758   2.728  1.0697  0.5678 -2.0451
 2705SOL     OW19747   4.090   3.889  12.239  0.2595  0.6036 -0.2592
 2705SOL    HW119748   4.146   3.823  12.197 -0.9500 -0.0875 -0.7898
 2705SOL    HW219749   4.070   3.950  12.168 -1.7481  0.6996  0.3999
 2706SOL     OW19750   0.409   3.989  16.252  0.4346 -0.0699 -0.2668
 2706SOL    HW119751   0.380   4.015  16.164  1.7979  2.3863  0.0216
 2706SOL    HW219752   0.480   4.052  16.260 -1.4118  2.2017 -1.5839
 2707SOL     OW19753   2.287   4.517  13.727  0.0142  0.2716 -0.1212
 2707SOL    HW119754   2.330   4.519  13.813  0.9145  0.6913 -0.5774
 2707SOL    HW219755   2.217   4.582  13.734 -1.2349 -1.2136  0.9697
 2708SOL     OW19756   0.068   0.627   3.734  0.2869  0.9470  0.4555
 2708SOL    HW119757   0.110   0.560   3.680 -1.0728  2.8160 -2.9318
 2708SOL    HW219758   0.071   0.579   3.816 -1.7353 -0.0229 -0.0510
 2709SOL     OW19759   4.240   2.850   3.639  0.3821 -0.0877 -0.7537
 2709SOL    HW119760   4.210   2.885   3.723  0.2084 -0.0299 -0.8381
 2709SOL    HW219761   4.318   2.801   3.664  0.2363  0.0839  0.0591
 2710SOL     OW19762   3.465   2.809   7.764 -0.4465 -0.2618 -0.2697
 2710SOL    HW119763   3.458   2.876   7.695 -0.0547  1.6520  1.5286
 2710SOL    HW219764   3.550   2.773   7.739 -0.4467 -1.7469  1.9203
 2711SOL     OW19765   3.648   2.153   8.646  0.1147 -0.0365 -0.3868
 2711SOL    HW119766   3.625   2.140   8.554  0.0431 -3.1874  0.0817
 2711SOL    HW219767   3.733   2.108   8.643  0.2276  0.0295  1.5364
 2712SOL     OW19768   2.140   2.590   8.020 -0.2015  0.0270 -0.3306
 2712SOL    HW119769   2.052   2.611   8.051 -0.6354 -1.6781 -0.4076
 2712SOL    HW219770   2.154   2.665   7.962 -0.0135 -0.3157 -0.7254
 2713SOL     OW19771   4.485   2.693   3.705 -0.1831  0.3874  0.1328
 2713SOL    HW119772   4.434   2.643   3.768  1.4184  0.3086  1.3625
 2713SOL    HW219773   4.551   2.732   3.762 -1.9464  0.6291  2.0292
 2714SOL     OW19774   4.070   0.999   2.486 -0.2537  0.6492  0.0890
 2714SOL    HW119775   4.163   1.015   2.470  0.1745 -1.1480  0.7033
 2714SOL    HW219776   4.064   0.903   2.480  1.1208  0.5857 -0.4102
 2715SOL     OW19777   2.493   0.806   4.003  0.8828  0.4133 -0.4834
 2715SOL    HW119778   2.423   0.785   4.065  3.2449 -2.4983  1.1821
 2715SOL    HW219779   2.494   0.725   3.952 -2.8315  0.0392  0.0356
 2716SOL     OW19780   3.990   3.472  15.123 -0.3497 -0.2762 -0.2510
 2716SOL    HW119781   3.952   3.473  15.211 -0.6518  0.5399 -0.3965
 2716SOL    HW219782   4.083   3.495  15.131 -0.6159  0.3737  1.0468
 2717SOL     OW19783   3.859   1.355   7.750  0.1411 -0.3859 -0.0834
 2717SOL    HW119784   3.803   1.312   7.814 -0.8256 -0.1508 -0.7641
 2717SOL    HW219785   3.945   1.349   7.791  1.1210  2.5379 -1.6903
 2718SOL     OW19786   3.643   2.512  14.985 -0.0193 -0.5822  0.2419
 2718SOL    HW119787   3.711   2.519  14.918 -0.7865  1.2095 -0.3394
 2718SOL    HW219788   3.614   2.421  14.977  0.2908 -0.7653  1.1778
 2719SOL     OW19789   2.268   1.070  15.135 -0.3779 -0.0790  0.3920
 2719SOL    HW119790   2.287   1.161  15.113 -0.3089  0.0947  1.1556
 2719SOL    HW219791   2.207   1.080  15.208 -0.2245  0.8846  0.3886
 2720SOL     OW19792   1.452   4.180  13.376  0.4225  0.6384  0.1822
 2720SOL    HW119793   1.438   4.108  13.315  1.6944  0.3298  0.2450
 2720SOL    HW219794   1.378   4.238  13.357 -0.0473 -1.0567 -3.1296
 2721SOL     OW19795   2.310   0.097  14.841  0.3048 -0.1411 -0.5190
 2721SOL    HW119796   2.238   0.147  14.879  0.6049  0.9042 -1.3244
 2721SOL    HW219797   2.272   0.010  14.829 -1.8428  0.7049  0.3072
 2722SOL     OW19798   0.397   0.151   4.803 -0.1726 -0.0545 -0.1583
 2722SOL    HW119799   0.392   0.222   4.867  0.5683  1.4296 -1.7424
 2722SOL    HW219800   0.392   0.202   4.723 -0.7311  0.9311  0.5003
 2723SOL     OW19801   0.294   3.235   8.169 -0.4083 -0.5070 -0.5663
 2723SOL    HW119802   0.273   3.236   8.262 -0.6424 -1.7798 -0.6085
 2723SOL    HW219803   0.358   3.306   8.170  2.5301 -3.2129  0.1156
 2724SOL     OW19804   0.628   2.828   0.863  0.0744 -0.7172 -0.2018
 2724SOL    HW119805   0.717   2.856   0.884 -1.0570  2.7432  0.0182
 2724SOL    HW219806   0.579   2.898   0.907  1.7601 -0.0876  0.6925
 2725SOL     OW19807   1.673   2.893  13.319  0.0515  0.0952 -0.6499
 2725SOL    HW119808   1.589   2.886  13.273 -0.2473  0.2008 -0.1076
 2725SOL    HW219809   1.665   2.816  13.376 -1.6224  0.1165 -0.8472
 2726SOL     OW19810   4.147   2.783   9.921  0.0238 -0.1200 -0.3554
 2726SOL    HW119811   4.202   2.827   9.856 -1.2288  2.0812  0.1014
 2726SOL    HW219812   4.060   2.822   9.914 -0.6727 -2.0105 -2.4539
 2727SOL     OW19813   3.007   3.973   3.215  0.1626 -0.1782 -0.1766
 2727SOL    HW119814   3.031   3.887   3.181  0.4587 -0.3249  0.4003
 2727SOL    HW219815   3.034   4.029   3.142  0.1686  0.5948  0.4185
 2728SOL     OW19816   2.244   0.883  17.038 -0.1600 -0.7423  0.3870
 2728SOL    HW119817   2.155   0.877  17.074  0.1044  0.4143  1.2243
 2728SOL    HW219818   2.224   0.863  16.947 -0.2006  1.2564 -0.0375
 2729SOL     OW19819   2.691   0.498   8.734 -0.0401 -0.0330 -0.1395
 2729SOL    HW119820   2.655   0.570   8.683 -0.7599 -0.8032 -0.7075
 2729SOL    HW219821   2.760   0.545   8.782 -0.2135 -0.9351  1.0066
 2730SOL     OW19822   2.357   1.108   7.765 -0.5613  0.3375 -0.1845
 2730SOL    HW119823   2.379   1.028   7.717 -0.9916 -3.5823  6.1915
 2730SOL    HW219824   2.261   1.100   7.767 -0.3192 -2.1796  2.1269
 2731SOL     OW19825   3.356   2.344   0.479  0.1690  0.0347 -0.2849
 2731SOL    HW119826   3.379   2.345   0.386  1.2473 -0.6158 -0.0296
 2731SOL    HW219827   3.415   2.269   0.486 -0.4028 -0.4140 -0.3444
 2732SOL     OW19828   0.372   1.287   3.098  0.3869 -0.5384 -0.1716
 2732SOL    HW119829   0.449   1.233   3.079  1.6020  0.3695  2.1302
 2732SOL    HW219830   0.371   1.350   3.026  1.1114  1.1796  1.3376
 2733SOL     OW19831   0.800   0.641   8.122  0.2407  0.2140 -0.2768
 2733SOL    HW119832   0.708   0.640   8.147  0.6916 -0.9704  1.3435
 2733SOL    HW219833   0.825   0.730   8.145 -2.0015  0.9271 -0.6047
 2734SOL     OW19834   1.571   0.769   4.182  0.1952 -0.7260  0.1879
 2734SOL    HW119835   1.582   0.771   4.277 -0.4083 -0.1515  0.2519
 2734SOL    HW219836   1.511   0.842   4.167  2.8743  1.2559 -0.8910
 2735SOL     OW19837   4.390   3.194   7.205 -0.6784 -0.3288 -0.0569
 2735SOL    HW119838   4.470   3.156   7.241  1.1275  0.4712 -3.2126
 2735SOL    HW219839   4.386   3.270   7.263  1.6385  0.7722 -1.3735
 2736SOL     OW19840   1.468   2.458  17.353  0.0366  0.2663 -0.2312
 2736SOL    HW119841   1.451   2.369  17.381 -1.8525  0.9893  0.9309
 2736SOL    HW219842   1.479   2.500  17.438  0.9381 -1.3036  0.4102
 2737SOL     OW19843   1.752   0.208   2.627 -0.4612 -0.3254  0.0293
 2737SOL    HW119844   1.789   0.194   2.715  2.4749  0.0279 -1.1504
 2737SOL    HW219845   1.668   0.161   2.630 -0.8804  0.4207 -0.0383
 2738SOL     OW19846   3.177   3.121  12.408  0.0812  0.0871 -0.0537
 2738SOL    HW119847   3.109   3.181  12.439 -1.5877 -0.7779 -2.0021
 2738SOL    HW219848   3.242   3.186  12.381 -1.1090 -0.1313 -3.4449
 2739SOL     OW19849   1.400   1.008   9.429 -0.2454 -0.0486  0.4823
 2739SOL    HW119850   1.408   1.068   9.355 -1.6459 -2.7331 -1.8441
 2739SOL    HW219851   1.430   0.930   9.383  1.6592  0.9252  0.0551
 2740SOL     OW19852   2.638   4.137  13.556 -0.2663 -0.1081 -0.0392
 2740SOL    HW119853   2.697   4.093  13.496 -0.5569 -2.0095  1.0702
 2740SOL    HW219854   2.643   4.229  13.531 -0.5948 -0.6583 -2.1910
 2741SOL     OW19855   2.728   1.414   2.714 -0.4044 -0.2227  0.3136
 2741SOL    HW119856   2.816   1.448   2.698 -1.6577  2.5398 -0.6979
 2741SOL    HW219857   2.689   1.417   2.627  0.1102  1.6105  0.1388
 2742SOL     OW19858   3.563   3.794  16.246  0.3457 -0.4308  0.4825
 2742SOL    HW119859   3.536   3.829  16.161  0.2528 -1.0990  0.2391
 2742SOL    HW219860   3.523   3.851  16.312 -3.4000 -0.8967 -1.3805
 2743SOL     OW19861   4.368   1.115  10.910  0.1655 -0.3404  0.0401
 2743SOL    HW119862   4.332   1.180  10.970 -1.0040 -2.4095  1.5599
 2743SOL    HW219863   4.429   1.158  10.850 -1.7632 -0.0046 -1.7173
 2744SOL     OW19864   1.519   3.432   7.272  0.0214  0.1550 -0.1244
 2744SOL    HW119865   1.490   3.430   7.363  2.0620  0.8624  0.5503
 2744SOL    HW219866   1.486   3.345   7.254  1.7184 -0.2817 -1.1673
 2745SOL     OW19867   2.924   1.848   4.747 -0.1362 -0.3909 -0.1061
 2745SOL    HW119868   2.976   1.909   4.695  0.9232 -0.6264  0.6787
 2745SOL    HW219869   2.913   1.879   4.838  1.6026 -0.3518  0.0824
 2746SOL     OW19870   2.498   3.267  11.938 -0.2976  0.0873  0.4229
 2746SOL    HW119871   2.535   3.337  11.992 -0.3699 -1.2442  2.1944
 2746SOL    HW219872   2.439   3.230  12.004 -0.8083 -0.4627 -0.3433
 2747SOL     OW19873   4.212   4.301   3.398  0.0229  0.3275  0.3488
 2747SOL    HW119874   4.220   4.310   3.303 -1.9065  0.3930  0.2087
 2747SOL    HW219875   4.147   4.231   3.401 -0.3712  0.7247  1.0039
 2748SOL     OW19876   2.559   3.898  13.663  0.2501  0.3747  0.1451
 2748SOL    HW119877   2.574   3.985  13.626 -0.7744  0.4854 -0.0165
 2748SOL    HW219878   2.638   3.879  13.712  0.1313  1.9548  0.9576
 2749SOL     OW19879   1.492   0.135   8.585  0.8531  0.2458  0.0352
 2749SOL    HW119880   1.410   0.134   8.633 -0.2088  2.3623 -1.7323
 2749SOL    HW219881   1.520   0.044   8.586  1.8949  0.5649  0.0620
 2750SOL     OW19882   1.501   3.476   1.548  0.5021 -0.4313 -0.4060
 2750SOL    HW119883   1.566   3.445   1.485 -1.2800 -1.4314 -1.7385
 2750SOL    HW219884   1.525   3.416   1.619 -0.1931  0.8249  0.8855
 2751SOL     OW19885   1.030   2.448   6.326  0.5058  0.0478 -0.1731
 2751SOL    HW119886   0.975   2.502   6.270 -0.3124 -1.4376 -0.8114
 2751SOL    HW219887   1.067   2.391   6.259 -3.4293 -1.1907 -1.3246
 2752SOL     OW19888   1.080   3.396   2.219  0.4553  0.4365 -0.1050
 2752SOL    HW119889   1.001   3.359   2.179  0.6564 -0.5261  0.3689
 2752SOL    HW219890   1.130   3.424   2.143  1.2604  1.0205  0.6307
 2753SOL     OW19891   4.578   2.767  12.628  0.0113 -0.4031 -0.4424
 2753SOL    HW119892   4.602   2.688  12.580 -0.6719 -2.1434  2.1564
 2753SOL    HW219893   4.526   2.811  12.560 -2.6714 -1.5830  0.8871
 2754SOL     OW19894   3.116   4.316   5.026 -0.7042  0.1408  0.0591
 2754SOL    HW119895   3.099   4.356   4.941  2.0064  0.7538 -0.1840
 2754SOL    HW219896   3.120   4.221   5.013  1.8475  0.3845 -0.9180
 2755SOL     OW19897   1.727   3.701   6.342  0.1902  0.8360  0.2115
 2755SOL    HW119898   1.724   3.697   6.246 -2.5935 -1.5585  0.3932
 2755SOL    HW219899   1.743   3.609   6.362  3.1708  0.9964 -1.4134
 2756SOL     OW19900   3.960   1.350  15.531  0.2095 -0.3803  0.0503
 2756SOL    HW119901   3.893   1.418  15.529 -0.1350 -0.7612 -1.5488
 2756SOL    HW219902   3.941   1.296  15.454  1.6784 -0.1914 -0.4461
 2757SOL     OW19903   4.592   3.362  13.030  0.0645 -0.2202  0.6165
 2757SOL    HW119904   4.613   3.285  13.083 -0.6476 -2.2726 -2.0982
 2757SOL    HW219905   4.500   3.367  13.055  0.1369  1.4546  0.5402
 2758SOL     OW19906   2.174   1.219   5.050 -0.1742 -1.0061 -0.2866
 2758SOL    HW119907   2.196   1.217   4.957  0.4943  0.5279 -0.1630
 2758SOL    HW219908   2.260   1.249   5.080  0.8133 -3.7738 -0.3492
 2759SOL     OW19909   3.915   4.070   3.617 -0.3277 -0.1272  0.0500
 2759SOL    HW119910   3.858   3.995   3.601 -3.1466  1.7098  1.4779
 2759SOL    HW219911   3.895   4.076   3.710  3.0317  0.7166  0.7329
 2760SOL     OW19912   1.278   2.952  14.540  0.2590  0.4428 -0.3237
 2760SOL    HW119913   1.246   2.878  14.489 -0.3286 -0.5047  1.4111
 2760SOL    HW219914   1.234   2.936  14.624  1.1904 -0.2737  0.0288
 2761SOL     OW19915   0.061   1.408   9.837 -0.3521 -0.0659  0.1441
 2761SOL    HW119916   0.082   1.340   9.773  1.5732 -0.0046  0.7218
 2761SOL    HW219917   0.145   1.453   9.842 -0.8439  1.1031 -2.1283
 2762SOL     OW19918   1.126   2.667   2.841  0.0436  0.3637  0.1624
 2762SOL    HW119919   1.033   2.647   2.845 -0.0597  0.8807  0.4022
 2762SOL    HW219920   1.139   2.721   2.763  1.5359  0.9919  0.8275
 2763SOL     OW19921   3.410   4.086  14.049 -0.7194 -0.3194  0.5885
 2763SOL    HW119922   3.400   3.991  14.049 -0.6120 -0.3349 -1.3052
 2763SOL    HW219923   3.476   4.092  14.119  0.4043 -1.3827 -0.3697
 2764SOL     OW19924   0.648   2.273   7.185  0.0132  0.0157 -0.1403
 2764SOL    HW119925   0.725   2.218   7.169 -0.1630 -0.9811  2.5192
 2764SOL    HW219926   0.649   2.295   7.278 -0.8885 -0.8222  0.0741
 2765SOL     OW19927   2.416   1.586  15.065  0.0205 -0.2906  0.0704
 2765SOL    HW119928   2.460   1.671  15.074  0.0654 -0.6632  3.4897
 2765SOL    HW219929   2.325   1.614  15.075 -0.1023 -0.8036  0.3840
 2766SOL     OW19930   3.631   4.325   3.209  0.1774 -0.4597 -0.6050
 2766SOL    HW119931   3.695   4.385   3.249 -2.2276  0.6047  1.6104
 2766SOL    HW219932   3.630   4.377   3.128 -1.2556  2.6776  1.4161
 2767SOL     OW19933   1.975   2.355  10.969 -0.7417 -0.4097 -0.5651
 2767SOL    HW119934   1.941   2.305  11.043 -1.0846 -0.5967 -0.8461
 2767SOL    HW219935   2.052   2.299  10.966 -0.8451 -0.4349 -2.6009
 2768SOL     OW19936   4.472   1.573   3.225  0.2658  0.2556 -0.2921
 2768SOL    HW119937   4.432   1.492   3.194 -0.7297  1.0248 -1.0742
 2768SOL    HW219938   4.466   1.619   3.141 -1.7387  1.3046  0.4253
 2769SOL     OW19939   2.096   2.852   2.556  0.5091  0.3779 -0.1211
 2769SOL    HW119940   2.025   2.789   2.548 -0.5206  1.4942  0.3609
 2769SOL    HW219941   2.108   2.893   2.471 -2.5919  0.1776 -0.6474
 2770SOL     OW19942   1.654   3.437  13.959  0.0759  0.3533 -0.3513
 2770SOL    HW119943   1.720   3.454  13.893  1.1684  3.4587  1.5464
 2770SOL    HW219944   1.628   3.528  13.974  1.2935  0.9992 -2.2492
 2771SOL     OW19945   1.316   0.378   3.458 -0.0144  0.3525  0.0701
 2771SOL    HW119946   1.222   0.357   3.451  0.2799 -0.9024 -0.2207
 2771SOL    HW219947   1.328   0.443   3.527 -0.4099  1.3065 -0.7613
 2772SOL     OW19948   4.029   0.948   0.897 -0.3413 -0.6402 -0.4729
 2772SOL    HW119949   3.971   0.901   0.836 -0.2305  1.5462 -2.2347
 2772SOL    HW219950   4.117   0.912   0.884 -1.4971 -3.2835 -1.1695
 2773SOL     OW19951   0.608   4.143   7.490 -0.0998 -0.5169 -0.1091
 2773SOL    HW119952   0.527   4.113   7.529 -1.1258 -0.9777 -2.6100
 2773SOL    HW219953   0.677   4.126   7.554  0.8537 -3.1501 -1.8536
 2774SOL     OW19954   2.810   0.042   8.820 -0.1346  0.1269 -0.2964
 2774SOL    HW119955   2.822   0.004   8.733  0.2861  1.3447 -0.7587
 2774SOL    HW219956   2.808   0.137   8.808 -1.7590  0.3590  1.8391
 2775SOL     OW19957   4.189   3.318   8.183 -0.1975  0.4948  0.1169
 2775SOL    HW119958   4.249   3.389   8.159  0.7861 -0.3250  0.1463
 2775SOL    HW219959   4.244   3.269   8.243  0.4236 -0.1432 -0.9687
 2776SOL     OW19960   1.269   1.153   3.540  0.0645 -0.0582 -0.7333
 2776SOL    HW119961   1.315   1.143   3.624  1.1509 -1.3058 -1.4969
 2776SOL    HW219962   1.203   1.084   3.543  1.1574 -1.0883 -0.8787
 2777SOL     OW19963   0.538   1.617   4.951 -0.1056  0.1554 -0.1545
 2777SOL    HW119964   0.471   1.622   5.020  0.5985  1.0453  0.4519
 2777SOL    HW219965   0.615   1.590   5.001 -0.6059 -0.4361  0.3026
 2778SOL     OW19966   4.063   3.863   6.710  0.0389  0.6200 -0.4709
 2778SOL    HW119967   4.013   3.933   6.751  0.4111  0.5065  0.1808
 2778SOL    HW219968   4.064   3.896   6.620 -0.0405  1.0264 -0.3241
 2779SOL     OW19969   1.079   2.704   8.015  0.7308 -0.0513 -0.3352
 2779SOL    HW119970   0.992   2.674   8.042  1.1599 -1.4796 -0.5390
 2779SOL    HW219971   1.129   2.623   8.003  1.7227  0.0750  3.0022
 2780SOL     OW19972   1.168   2.469   6.928  0.1402 -0.3850 -0.4467
 2780SOL    HW119973   1.217   2.406   6.875 -2.2204 -1.5775 -1.1963
 2780SOL    HW219974   1.097   2.418   6.965 -0.5414  2.1936  1.8345
 2781SOL     OW19975   2.874   2.455   9.630 -0.0248 -0.6790 -0.0843
 2781SOL    HW119976   2.910   2.542   9.612  2.2422 -1.0710  2.5337
 2781SOL    HW219977   2.781   2.476   9.623  0.1170 -0.0549 -0.0913
 2782SOL     OW19978   0.679   4.210  12.089  0.0692  0.0299  0.4274
 2782SOL    HW119979   0.648   4.294  12.056 -2.2181 -0.6642  0.8194
 2782SOL    HW219980   0.595   4.169  12.108  0.6350 -0.5111  1.7859
 2783SOL     OW19981   2.354   3.495   5.715 -0.1094 -0.1283 -0.0980
 2783SOL    HW119982   2.318   3.458   5.635 -2.5171  1.7909  0.1192
 2783SOL    HW219983   2.274   3.494   5.768  0.3001  0.2091  0.5296
 2784SOL     OW19984   0.245   0.346   1.958 -0.6600  0.3259 -0.0665
 2784SOL    HW119985   0.208   0.262   1.984 -1.5255  0.1842 -1.7330
 2784SOL    HW219986   0.213   0.409   2.023 -1.7598  0.4624 -0.7335
 2785SOL     OW19987   3.706   3.160  16.416  0.2743  0.2841 -0.0848
 2785SOL    HW119988   3.702   3.065  16.405  0.9156  0.1640  0.7472
 2785SOL    HW219989   3.780   3.176  16.359  0.0212 -0.5149 -0.6227
 2786SOL     OW19990   3.115   2.113   8.306 -0.4569  0.1210 -0.1851
 2786SOL    HW119991   3.141   2.021   8.303  1.3801  0.6625 -1.2113
 2786SOL    HW219992   3.084   2.116   8.397  2.2008  0.5333  0.7164
 2787SOL     OW19993   0.672   4.243   4.860 -0.3713  0.0231  0.2628
 2787SOL    HW119994   0.728   4.204   4.927 -1.7143 -1.7240  0.3552
 2787SOL    HW219995   0.722   4.223   4.780 -0.7077 -0.0096  0.0618
 2788SOL     OW19996   2.312   4.422   6.705 -0.3292 -0.1303 -0.1339
 2788SOL    HW119997   2.321   4.349   6.645  0.5029  0.9090 -1.2729
 2788SOL    HW219998   2.233   4.410   6.758  0.1638  0.7761  0.8111
 2789SOL     OW19999   0.287   2.409   8.128  0.4052 -0.0534 -0.1853
 2789SOL    HW120000   0.228   2.363   8.068 -0.4579  2.0501 -0.9391
 2789SOL    HW220001   0.240   2.491   8.136 -0.7119 -0.6433 -0.7393
 2790SOL     OW20002   4.697   2.582   5.257  0.2182 -0.1201  0.4703
 2790SOL    HW120003   4.702   2.671   5.293 -1.7589  0.5053 -0.8044
 2790SOL    HW220004   0.037   2.567   5.199 -0.0647  0.6820 -0.0976
 2791SOL     OW20005   0.927   3.414   4.392 -0.2173 -0.3319  0.2535
 2791SOL    HW120006   0.841   3.452   4.409  0.2920  0.8991  0.0548
 2791SOL    HW220007   0.979   3.493   4.378 -1.0412  0.1410 -0.1555
 2792SOL     OW20008   3.318   3.321   2.228  0.0069  0.5376  0.0862
 2792SOL    HW120009   3.375   3.397   2.213  0.5278  0.3937  1.3322
 2792SOL    HW220010   3.241   3.349   2.178  0.6315  0.1435 -1.1110
 2793SOL     OW20011   3.862   1.214  15.337 -0.4404  0.3889 -0.1279
 2793SOL    HW120012   3.808   1.150  15.291 -2.2764  0.7798  1.4561
 2793SOL    HW220013   3.929   1.222  15.269 -0.2793  1.1434  0.1244
 2794SOL     OW20014   3.333   0.212   5.908  0.0995 -0.2721 -0.6858
 2794SOL    HW120015   3.355   0.193   5.817  0.1329 -3.3497 -0.0352
 2794SOL    HW220016   3.341   0.126   5.950  2.6556  0.6018  0.6061
 2795SOL     OW20017   3.310   3.547   5.477 -0.3345 -0.2546  0.6585
 2795SOL    HW120018   3.294   3.560   5.384  0.0766  1.4961  0.8206
 2795SOL    HW220019   3.235   3.585   5.523 -0.3301 -1.5420  1.7093
 2796SOL     OW20020   0.424   1.403   4.012 -0.3392 -0.0870  0.0835
 2796SOL    HW120021   0.458   1.325   4.054 -0.4146  0.1115  0.5145
 2796SOL    HW220022   0.420   1.462   4.088 -1.0095 -3.0808  2.3787
 2797SOL     OW20023   3.701   2.262   1.241 -0.0420 -0.0393 -0.1680
 2797SOL    HW120024   3.645   2.332   1.275 -0.9653 -0.5478 -0.6421
 2797SOL    HW220025   3.788   2.302   1.236 -0.2369  0.5021  0.7377
 2798SOL     OW20026   4.372   2.177   4.139  0.3333 -0.0489  0.1312
 2798SOL    HW120027   4.310   2.124   4.089  1.6790 -0.8852 -0.6510
 2798SOL    HW220028   4.447   2.194   4.081 -2.2164  2.4772 -2.4370
 2799SOL     OW20029   2.633   2.287   5.810  0.5951  0.5006  0.0887
 2799SOL    HW120030   2.727   2.276   5.826  0.5937 -2.1587 -1.7244
 2799SOL    HW220031   2.616   2.375   5.843  2.0329  1.5787 -2.0104
 2800SOL     OW20032   4.236   3.477  11.264  0.6002 -0.6115  0.3863
 2800SOL    HW120033   4.180   3.503  11.337  0.0439  1.7553 -0.9082
 2800SOL    HW220034   4.323   3.489  11.303  0.3828  1.5527  0.1714
 2801SOL     OW20035   2.179   1.340   3.598 -0.3798 -0.2096 -0.0104
 2801SOL    HW120036   2.117   1.304   3.662 -1.4521 -1.1636 -1.6011
 2801SOL    HW220037   2.252   1.370   3.653 -0.6038  0.1545  0.0880
 2802SOL     OW20038   1.136   1.523  16.551  0.1702  0.2543  0.9116
 2802SOL    HW120039   1.067   1.589  16.563  0.7579  1.1832 -0.8226
 2802SOL    HW220040   1.175   1.550  16.468 -0.5651 -0.9972  0.1431
 2803SOL     OW20041   2.283   3.854   4.681  0.3341  0.0459 -0.3282
 2803SOL    HW120042   2.366   3.900   4.673  0.9312 -0.7274  1.2916
 2803SOL    HW220043   2.299   3.780   4.623 -1.2327 -0.0095 -0.6938
 2804SOL     OW20044   3.323   0.008   6.941  0.1572 -0.0660 -0.8144
 2804SOL    HW120045   3.327   4.648   6.957  2.2357  0.3868  1.3097
 2804SOL    HW220046   3.358   0.001   6.852  2.1705  1.7209 -0.1540
 2805SOL     OW20047   2.806   4.102   2.805 -0.4791  0.4724  0.4586
 2805SOL    HW120048   2.786   4.159   2.731 -1.9830  0.9598  1.2544
 2805SOL    HW220049   2.718   4.067   2.813  0.8022 -3.0715 -0.5922
 2806SOL     OW20050   2.358   2.754   7.053  0.3635 -0.3160  0.0408
 2806SOL    HW120051   2.317   2.722   6.973  1.0062 -0.8457 -0.0790
 2806SOL    HW220052   2.373   2.664   7.080 -0.2008 -1.1072 -2.3031
 2807SOL     OW20053   3.012   3.267   5.207 -0.1586  0.4249  0.0930
 2807SOL    HW120054   3.029   3.176   5.181 -3.3117  0.7335 -3.0780
 2807SOL    HW220055   3.097   3.302   5.181 -0.2103 -0.8437 -1.8444
 2808SOL     OW20056   3.097   1.344   3.633 -0.5381 -0.0264  0.2030
 2808SOL    HW120057   3.062   1.424   3.672  0.4145  1.8474 -2.8646
 2808SOL    HW220058   3.181   1.338   3.678 -0.9781  0.0409  1.0357
 2809SOL     OW20059   0.576   3.173   1.096 -0.0802 -0.0633  0.7371
 2809SOL    HW120060   0.588   3.118   1.173 -1.0923 -1.1399  0.1106
 2809SOL    HW220061   0.660   3.213   1.118  0.7330 -0.3053 -1.8818
 2810SOL     OW20062   2.023   2.592   6.618 -0.0474  0.3334 -0.4118
 2810SOL    HW120063   2.043   2.525   6.553 -0.3637  1.9766 -2.1974
 2810SOL    HW220064   2.004   2.663   6.556 -0.2319  0.7106  0.0724
 2811SOL     OW20065   0.227   4.513   3.114  0.1832 -0.3977 -0.5715
 2811SOL    HW120066   0.157   4.472   3.064 -2.3119  1.6747  1.2538
 2811SOL    HW220067   0.275   4.453   3.171  0.2123 -1.1333 -1.3668
 2812SOL     OW20068   3.574   4.106   6.631 -0.0662 -0.4109 -0.6355
 2812SOL    HW120069   3.487   4.086   6.665 -0.0785  0.7003 -0.0174
 2812SOL    HW220070   3.611   4.027   6.671 -1.2397 -0.5293  0.2300
 2813SOL     OW20071   3.699   2.746   2.878  0.6856  0.1153 -0.5425
 2813SOL    HW120072   3.734   2.768   2.792 -0.5013  0.9835 -0.8117
 2813SOL    HW220073   3.766   2.779   2.938  1.0734 -0.2211 -0.7916
 2814SOL     OW20074   3.370   2.177  15.811 -0.2176 -0.4897  0.9291
 2814SOL    HW120075   3.384   2.242  15.743 -2.3969 -0.3200  0.6308
 2814SOL    HW220076   3.368   2.239  15.884 -0.2819  0.2926  0.2618
 2815SOL     OW20077   0.997   1.539   2.943 -0.4158  0.0820  0.2735
 2815SOL    HW120078   1.013   1.559   3.035 -0.6076  0.7040  0.1667
 2815SOL    HW220079   1.071   1.577   2.896 -1.0608  0.0647 -0.7736
 2816SOL     OW20080   0.245   4.606  14.576  0.5132 -0.3623 -0.0258
 2816SOL    HW120081   0.260   4.614  14.670  2.6892 -0.3920 -0.3642
 2816SOL    HW220082   0.330   4.635  14.543 -0.2035  1.8809  0.1391
 2817SOL     OW20083   0.326   0.388   1.701  0.3837 -0.2425 -0.1819
 2817SOL    HW120084   0.264   0.460   1.690  0.3862 -0.2850 -0.4822
 2817SOL    HW220085   0.310   0.363   1.792  0.5336  2.9240  0.7269
 2818SOL     OW20086   4.265   2.362  15.287 -0.3508 -0.7737 -0.3576
 2818SOL    HW120087   4.194   2.298  15.287 -1.2087  0.1633  1.5388
 2818SOL    HW220088   4.284   2.384  15.378  0.3156  0.9710 -0.9008
 2819SOL     OW20089   3.111   0.694   5.756 -0.2280 -0.3850 -0.1564
 2819SOL    HW120090   3.134   0.636   5.683 -3.2558  0.2176 -1.5989
 2819SOL    HW220091   3.058   0.754   5.704 -1.9183 -0.1045  1.9168
 2820SOL     OW20092   0.465   3.881   5.075 -0.0320 -0.2680  0.4396
 2820SOL    HW120093   0.552   3.911   5.099 -0.0919 -3.0139  4.1450
 2820SOL    HW220094   0.460   3.791   5.105  0.0748 -0.3825  0.1064
 2821SOL     OW20095   3.499   1.982   8.166  0.7726  0.0244  0.0012
 2821SOL    HW120096   3.486   1.887   8.168  1.8004 -0.1391 -0.5436
 2821SOL    HW220097   3.447   2.004   8.088 -0.2694 -1.0297  0.3990
 2822SOL     OW20098   3.215   2.093   2.892  0.4770  0.2515  0.0099
 2822SOL    HW120099   3.194   2.029   2.824  4.2893 -0.6489 -0.2803
 2822SOL    HW220100   3.307   2.077   2.909  0.2406 -0.1356  0.8838
 2823SOL     OW20101   1.800   1.475   5.332  0.2920 -0.1024 -0.6739
 2823SOL    HW120102   1.819   1.517   5.248 -1.7304 -0.2303 -1.1990
 2823SOL    HW220103   1.886   1.435   5.344  0.5713  1.4661  2.6061
 2824SOL     OW20104   2.513   3.997   4.727 -0.7109  0.2309 -0.2109
 2824SOL    HW120105   2.494   4.075   4.673  0.2858 -0.3024 -1.3372
 2824SOL    HW220106   2.570   4.035   4.793  0.5456  1.3875 -1.9450
 2825SOL     OW20107   4.559   3.666   7.404  0.6572 -0.1307 -0.2282
 2825SOL    HW120108   4.522   3.579   7.392 -0.1720  0.2712 -0.6210
 2825SOL    HW220109   4.542   3.708   7.319  1.1515 -1.4301 -0.9644
 2826SOL     OW20110   4.576   1.209  16.467  0.5608  0.4154 -0.0170
 2826SOL    HW120111   4.559   1.117  16.445  0.4026  0.2742  0.6725
 2826SOL    HW220112   4.550   1.262  16.392 -1.9274  1.6294  1.6822
 2827SOL     OW20113   1.883   3.997  12.283  0.3199 -0.0240 -0.0584
 2827SOL    HW120114   1.852   3.965  12.368  1.9569 -0.2453  0.4421
 2827SOL    HW220115   1.829   3.938  12.230  1.6601 -3.3047  2.2165
 2828SOL     OW20116   0.924   2.699  13.833 -0.1341 -0.9401  0.1977
 2828SOL    HW120117   0.883   2.771  13.786 -0.3655  0.6877  2.9366
 2828SOL    HW220118   0.889   2.624  13.784  0.5935 -0.2352 -1.4045
 2829SOL     OW20119   1.835   4.114  16.916  0.1173  0.1193 -0.5873
 2829SOL    HW120120   1.787   4.150  16.991  0.0676  0.5087 -0.8030
 2829SOL    HW220121   1.834   4.023  16.944 -0.3909  0.2930 -0.0346
 2830SOL     OW20122   1.514   3.436   4.025 -0.8383  0.3871 -0.1761
 2830SOL    HW120123   1.595   3.434   3.974 -0.3141  1.1597  0.6336
 2830SOL    HW220124   1.533   3.458   4.117 -2.2230  0.4408  0.0938
 2831SOL     OW20125   1.577   0.654   0.004 -0.2913  0.8318  0.1965
 2831SOL    HW120126   1.608   0.663   0.095 -2.0834 -0.1690  0.8978
 2831SOL    HW220127   1.634   0.585  17.709  0.0572  0.4506  1.5454
 2832SOL     OW20128   1.771   2.270   7.913 -0.4528  0.3206  0.0259
 2832SOL    HW120129   1.839   2.259   7.846 -0.1404 -2.6533  0.8462
 2832SOL    HW220130   1.697   2.217   7.885 -1.0233  1.2140 -0.1526
 2833SOL     OW20131   1.225   0.879   2.946  0.2994 -0.2179 -0.3091
 2833SOL    HW120132   1.186   0.966   2.941  0.7898 -0.0657 -1.4176
 2833SOL    HW220133   1.312   0.907   2.917  0.6554 -1.2712 -0.2658
 2834SOL     OW20134   0.455   1.634   2.949 -0.1356  0.5118  0.1032
 2834SOL    HW120135   0.410   1.564   2.901  0.4138  1.0025 -1.1345
 2834SOL    HW220136   0.546   1.632   2.920 -0.6711 -3.3129 -1.3294
 2835SOL     OW20137   0.219   4.729   4.611 -0.3760 -0.9947  0.6144
 2835SOL    HW120138   0.301   0.022   4.652  0.0111  1.5954 -1.8511
 2835SOL    HW220139   0.213   0.054   4.536  2.3061 -0.5988  0.7149
 2836SOL     OW20140   2.363   2.486   8.098  0.7179  0.6563  0.0565
 2836SOL    HW120141   2.353   2.405   8.049 -1.2729  0.7330  0.3336
 2836SOL    HW220142   2.276   2.522   8.081  2.9225  3.5601 -5.0336
 2837SOL     OW20143   1.529   0.701   9.685 -0.4572 -0.6136 -0.1683
 2837SOL    HW120144   1.451   0.669   9.639 -1.4328  2.0445 -0.3564
 2837SOL    HW220145   1.521   0.648   9.764 -0.1838  1.1955  1.0735
 2838SOL     OW20146   3.906   0.779  13.164 -0.0654  0.0448  0.1705
 2838SOL    HW120147   3.883   0.841  13.095  1.3035 -1.0638 -1.3010
 2838SOL    HW220148   3.998   0.768  13.138 -0.3518 -0.7202 -0.5528
 2839SOL     OW20149   4.228   3.067   9.798  0.3494 -0.6951 -0.9098
 2839SOL    HW120150   4.197   3.065   9.889  0.7533  0.2877 -0.7546
 2839SOL    HW220151   4.320   3.076   9.824  0.0047 -0.5026  0.2740
 2840SOL     OW20152   4.505   2.459   0.898  0.2612  0.0819  0.6352
 2840SOL    HW120153   4.547   2.487   0.980  2.7470 -0.8347 -0.3079
 2840SOL    HW220154   4.488   2.368   0.924  1.7080 -0.1724  0.7313
 2841SOL     OW20155   2.177   1.864  16.014  0.4796  0.1406  0.2677
 2841SOL    HW120156   2.134   1.801  15.956 -0.8680  2.0911 -0.8835
 2841SOL    HW220157   2.252   1.816  16.047  0.8269  0.6382  0.2074
 2842SOL     OW20158   3.030   3.880  16.126  0.2808  0.3161  0.1208
 2842SOL    HW120159   3.025   3.868  16.220 -2.2462  0.9829  0.0697
 2842SOL    HW220160   3.086   3.805  16.105  0.9479  0.5220  1.2384
 2843SOL     OW20161   2.296   1.909   5.843 -0.2613 -0.2059 -0.0137
 2843SOL    HW120162   2.251   1.949   5.918 -0.8357  3.0194 -2.0601
 2843SOL    HW220163   2.286   1.818   5.870  2.4050 -0.1670  1.0174
 2844SOL     OW20164   1.392   1.348   4.047 -0.3796  0.3014 -0.0428
 2844SOL    HW120165   1.353   1.316   4.129  0.3685  1.0369  0.5962
 2844SOL    HW220166   1.420   1.439   4.059  0.6164  0.3187 -2.4459
 2845SOL     OW20167   1.841   0.463  12.040  0.2434 -0.2455  0.6190
 2845SOL    HW120168   1.835   0.553  12.071  1.9906 -0.2839  1.0444
 2845SOL    HW220169   1.917   0.477  11.984  1.2709 -0.7337  1.8882
 2846SOL     OW20170   3.483   2.297   3.031  0.0980 -0.0470  0.1528
 2846SOL    HW120171   3.542   2.319   3.103 -0.2097 -0.6826  0.5961
 2846SOL    HW220172   3.490   2.373   2.973  1.3785 -0.5240 -0.3350
 2847SOL     OW20173   3.460   3.448  16.907 -0.3166 -0.0992  0.3799
 2847SOL    HW120174   3.422   3.400  16.833 -2.0207 -1.5897  2.2313
 2847SOL    HW220175   3.550   3.418  16.894  0.5013  1.8760  1.4086
 2848SOL     OW20176   1.621   2.168   6.682 -0.1748 -0.0806 -0.6581
 2848SOL    HW120177   1.553   2.113   6.720 -1.7208  2.1610 -0.1545
 2848SOL    HW220178   1.566   2.221   6.625  0.1644 -1.5616 -2.3585
 2849SOL     OW20179   3.996   4.705   1.233 -0.2672 -0.2345 -0.4697
 2849SOL    HW120180   4.077   4.702   1.284 -0.0416  0.3110 -0.7974
 2849SOL    HW220181   3.964   4.617   1.254  0.9121 -0.6920 -0.5987
 2850SOL     OW20182   1.749   2.121   1.721  0.3142  0.0087 -0.2836
 2850SOL    HW120183   1.720   2.076   1.800  0.5242  1.5668  0.6848
 2850SOL    HW220184   1.788   2.204   1.747 -0.3808  0.7720 -1.6450
 2851SOL     OW20185   0.019   3.554   8.074  0.3378 -0.6377  0.3783
 2851SOL    HW120186   4.722   3.591   7.992  2.0215 -0.6345 -0.2605
 2851SOL    HW220187   0.054   3.472   8.041 -0.1456 -0.0017 -1.7596
 2852SOL     OW20188   1.928   0.797   6.383  0.9706 -0.0686  0.4008
 2852SOL    HW120189   1.967   0.710   6.377  0.1667 -0.3887 -0.3192
 2852SOL    HW220190   1.833   0.789   6.374  0.5741  0.6101  4.0738
 2853SOL     OW20191   1.012   0.608   6.224  0.5750 -0.1240 -0.1697
 2853SOL    HW120192   0.947   0.643   6.285  1.5366 -2.1746  2.0593
 2853SOL    HW220193   1.031   0.527   6.272 -0.4017  0.0093  0.4442
 2854SOL     OW20194   3.862   4.131  14.010 -0.2075  0.7255  0.2923
 2854SOL    HW120195   3.783   4.142  13.958  0.2603 -0.8978 -0.7441
 2854SOL    HW220196   3.815   4.082  14.078  0.0552  1.8380  1.2685
 2855SOL     OW20197   3.643   2.022   3.171 -0.4625 -0.3344 -0.1645
 2855SOL    HW120198   3.730   2.060   3.162 -0.8590  0.6381  0.1987
 2855SOL    HW220199   3.664   1.928   3.166  1.7543  0.1309  0.4932
 2856SOL     OW20200   0.727   1.279   3.828  0.4030  0.2985  0.5343
 2856SOL    HW120201   0.726   1.184   3.844  1.6677  0.4166  1.3068
 2856SOL    HW220202   0.643   1.289   3.784 -0.4943 -0.0814  2.1641
 2857SOL     OW20203   2.949   0.401  15.317  1.0507  0.1071  0.2783
 2857SOL    HW120204   2.910   0.431  15.400  0.0167 -0.2060 -0.0909
 2857SOL    HW220205   2.950   0.481  15.265 -2.7275 -0.7866 -1.1845
 2858SOL     OW20206   1.501   4.070   9.329  0.1629 -0.5628  0.5526
 2858SOL    HW120207   1.491   3.992   9.275  4.3153 -1.1871  0.7150
 2858SOL    HW220208   1.518   4.022   9.410  1.4336  0.0370  0.6396
 2859SOL     OW20209   0.588   0.396   1.369 -0.0147  0.5460 -0.1642
 2859SOL    HW120210   0.680   0.409   1.389 -0.3230 -0.2602  1.7809
 2859SOL    HW220211   0.574   0.478   1.322  0.3705 -0.0280 -1.2681
 2860SOL     OW20212   2.203   3.410   7.152  0.0943  0.0232 -0.4452
 2860SOL    HW120213   2.137   3.379   7.091 -1.6987 -1.0151  2.0153
 2860SOL    HW220214   2.262   3.449   7.087  1.5818 -0.0624  0.8433
 2861SOL     OW20215   0.229   3.469   6.958  0.1130 -0.1609  0.2890
 2861SOL    HW120216   0.281   3.395   6.927 -1.0677 -0.3367 -1.2617
 2861SOL    HW220217   0.142   3.431   6.950 -1.0854  2.9141 -0.9823
 2862SOL     OW20218   3.822   0.843   6.602 -0.3523  0.6495 -0.3148
 2862SOL    HW120219   3.758   0.899   6.558  1.1238  1.8358 -1.0003
 2862SOL    HW220220   3.864   0.896   6.671 -0.8445  0.9268 -0.2295
 2863SOL     OW20221   0.455   0.050   8.369 -0.4131 -0.4834 -0.6184
 2863SOL    HW120222   0.403   0.123   8.335 -1.8744 -2.6624 -3.0321
 2863SOL    HW220223   0.537   0.059   8.319  0.3841  0.9986  0.9261
 2864SOL     OW20224   0.294   3.920   7.370  0.3690  0.2899  0.1954
 2864SOL    HW120225   0.206   3.938   7.337  1.5213 -0.3454 -3.2253
 2864SOL    HW220226   0.349   3.961   7.303  2.9320  2.2698  3.5381
 2865SOL     OW20227   1.413   2.636   8.706 -0.2258  0.9073  0.3597
 2865SOL    HW120228   1.394   2.605   8.794  1.3906 -0.4484  0.2273
 2865SOL    HW220229   1.360   2.585   8.645  0.4586  0.7283 -0.0875
 2866SOL     OW20230   0.178   3.425  16.689  0.0129  0.1381  0.0854
 2866SOL    HW120231   0.240   3.427  16.616 -0.2172  1.4168 -0.0787
 2866SOL    HW220232   0.152   3.517  16.687 -1.8092 -0.3612  0.4784
 2867SOL     OW20233   2.147   3.886   3.376 -0.4425 -0.0924  0.2897
 2867SOL    HW120234   2.090   3.943   3.326 -4.6142 -4.0522  0.5185
 2867SOL    HW220235   2.167   3.932   3.458 -1.0912  2.6182 -1.1043
 2868SOL     OW20236   4.145   1.540  14.375 -0.3203  0.4087 -0.5608
 2868SOL    HW120237   4.066   1.552  14.428 -0.8375  0.3212 -1.3099
 2868SOL    HW220238   4.133   1.446  14.361 -1.2883  0.6695 -1.4354
 2869SOL     OW20239   2.260   0.557   3.861 -0.3100 -0.3460  0.1506
 2869SOL    HW120240   2.202   0.514   3.797 -1.2725  0.3740  0.5410
 2869SOL    HW220241   2.338   0.503   3.848  0.3703  0.4088  1.0608
 2870SOL     OW20242   4.368   4.519   5.063 -0.0701 -0.3680 -0.0187
 2870SOL    HW120243   4.458   4.548   5.077  0.9358 -3.9080  0.7114
 2870SOL    HW220244   4.372   4.504   4.969 -0.3697  0.5989 -0.1957
 2871SOL     OW20245   1.178   1.911  14.129  0.0072 -0.4001  0.1992
 2871SOL    HW120246   1.092   1.928  14.091 -0.1502  0.3185  0.8751
 2871SOL    HW220247   1.243   1.950  14.071  0.5010  0.4863  1.3400
 2872SOL     OW20248   4.268   1.876  11.510  0.1303 -0.1614 -1.2005
 2872SOL    HW120249   4.180   1.844  11.526  0.0660 -0.6702 -2.5537
 2872SOL    HW220250   4.251   1.966  11.481  2.0317  0.6960  0.3780
 2873SOL     OW20251   0.791   1.137   7.697 -0.1633  0.8007  0.3587
 2873SOL    HW120252   0.814   1.050   7.729 -1.3162 -0.1045 -1.2265
 2873SOL    HW220253   0.794   1.119   7.603 -1.7376 -1.1608  0.6767
 2874SOL     OW20254   4.342   2.831   8.819  0.5350  0.0499 -0.8045
 2874SOL    HW120255   4.427   2.790   8.802  0.6597 -0.4598  1.0413
 2874SOL    HW220256   4.359   2.887   8.895 -0.8856  0.7473 -1.0114
 2875SOL     OW20257   2.650   0.780  15.479  0.5585 -0.2852 -0.3499
 2875SOL    HW120258   2.697   0.821  15.407  0.5132  0.9187  0.3046
 2875SOL    HW220259   2.618   0.856  15.528  1.3913  0.1055 -0.4124
 2876SOL     OW20260   1.009   2.678   6.964 -0.4996 -0.6395  0.0193
 2876SOL    HW120261   0.996   2.692   6.870  1.8780  0.3512 -0.1717
 2876SOL    HW220262   1.073   2.606   6.955  0.2964  0.0282  0.3518
 2877SOL     OW20263   0.002   0.505   8.421  0.0681  0.0248 -0.0687
 2877SOL    HW120264   0.078   0.549   8.458  1.0945 -1.7111 -0.1574
 2877SOL    HW220265   4.715   0.572   8.355 -2.0335 -1.9386 -1.3512
 2878SOL     OW20266   4.317   2.292   8.266  0.1280 -0.6446 -0.0723
 2878SOL    HW120267   4.296   2.379   8.232  1.0501 -1.0971 -1.7874
 2878SOL    HW220268   4.305   2.235   8.190 -0.7929  0.7266 -0.9614
 2879SOL     OW20269   4.438   3.001   1.294  0.1036  0.6043  0.3558
 2879SOL    HW120270   4.431   3.070   1.228  0.3909  1.0207  0.7561
 2879SOL    HW220271   4.519   3.019   1.343  1.3066  2.3974 -2.3297
 2880SOL     OW20272   1.216   3.461   1.523 -0.0897  0.0928 -0.1178
 2880SOL    HW120273   1.311   3.454   1.516 -0.1866 -0.1698 -1.1604
 2880SOL    HW220274   1.204   3.487   1.614 -0.3221  1.4620 -0.5284
 2881SOL     OW20275   1.807   4.264   6.850 -0.5468  0.6570  0.5491
 2881SOL    HW120276   1.751   4.187   6.858  0.1513 -0.0724 -1.4862
 2881SOL    HW220277   1.754   4.322   6.903 -0.8575  1.0142 -0.1478
 2882SOL     OW20278   3.226   2.854   1.410 -0.2498  0.7243  0.2468
 2882SOL    HW120279   3.269   2.818   1.487 -0.2110  0.7705  0.2472
 2882SOL    HW220280   3.287   2.841   1.338 -1.7955 -0.0931 -0.9239
 2883SOL     OW20281   3.903   0.400   4.558  0.1039  0.0384  0.1011
 2883SOL    HW120282   3.876   0.348   4.482 -1.3053  2.1794 -0.8591
 2883SOL    HW220283   3.864   0.350   4.629 -1.7503 -0.7477 -1.4656
 2884SOL     OW20284   4.214   2.023   0.764 -0.1759  0.1888  0.2506
 2884SOL    HW120285   4.169   1.939   0.764  0.4842 -0.1599 -0.7497
 2884SOL    HW220286   4.271   2.010   0.689 -0.1402 -0.9986  0.4776
 2885SOL     OW20287   4.389   2.993   5.892  0.5657  0.0928  0.0416
 2885SOL    HW120288   4.443   2.956   5.821  0.2771  0.5870 -0.4396
 2885SOL    HW220289   4.344   2.915   5.924 -1.4406  1.4996  0.6597
 2886SOL     OW20290   3.691   2.672  11.701  0.3472  0.2114 -0.0178
 2886SOL    HW120291   3.751   2.712  11.638  0.5897 -2.0354 -1.2014
 2886SOL    HW220292   3.608   2.675  11.652  0.1832  1.5734  0.3224
 2887SOL     OW20293   0.697   1.081   4.348  0.0285 -0.0717  0.2395
 2887SOL    HW120294   0.631   1.144   4.376  0.3391 -0.2632  1.3920
 2887SOL    HW220295   0.644   1.030   4.287  0.7317 -0.6460  0.1044
 2888SOL     OW20296   1.995   3.232   4.005 -0.1891  0.1487  0.3152
 2888SOL    HW120297   2.075   3.257   3.958  0.2564 -0.4134  0.7829
 2888SOL    HW220298   2.031   3.180   4.076 -0.7860 -0.4618  0.1709
 2889SOL     OW20299   1.957   2.563  16.224 -0.0984  0.0430  0.7793
 2889SOL    HW120300   2.017   2.507  16.273  2.3717  2.2250  0.2055
 2889SOL    HW220301   1.876   2.513  16.215  0.2165 -0.2022 -0.7180
 2890SOL     OW20302   4.220   3.102  10.629 -0.0572  0.5695  0.5444
 2890SOL    HW120303   4.243   3.010  10.612  0.1275  0.6738  0.2288
 2890SOL    HW220304   4.136   3.091  10.584  0.5529 -1.7794 -0.0190
 2891SOL     OW20305   0.722   4.061   9.040  0.5635  0.1728  0.1281
 2891SOL    HW120306   0.736   4.033   9.130  0.8671  0.0553  0.0431
 2891SOL    HW220307   0.812   4.058   9.007  2.1264  5.3591  4.0666
 2892SOL     OW20308   2.843   0.281   4.709 -0.0992  0.3771  0.8244
 2892SOL    HW120309   2.768   0.339   4.699  0.8238  1.5418  0.6216
 2892SOL    HW220310   2.914   0.307   4.651  2.2232  0.1204  3.5558
 2893SOL     OW20311   2.739   3.079   7.387 -0.1815 -0.3603  0.4120
 2893SOL    HW120312   2.685   3.042   7.317  0.7663 -0.3542 -0.3216
 2893SOL    HW220313   2.824   3.084   7.344 -0.1020  2.1941  0.8381
 2894SOL     OW20314   3.717   3.060   5.841  0.6476 -0.6640  0.1263
 2894SOL    HW120315   3.772   3.125   5.797 -1.4317  2.1056  1.6466
 2894SOL    HW220316   3.648   3.121   5.865  0.0221 -1.6574  0.8403
 2895SOL     OW20317   1.894   3.380   5.361  0.3037  0.1898  0.0532
 2895SOL    HW120318   1.914   3.320   5.433 -0.5893 -1.0518 -0.7083
 2895SOL    HW220319   1.858   3.452   5.412 -2.9142 -1.1766 -0.2748
 2896SOL     OW20320   2.370   0.253  11.289 -0.2797 -0.0170 -0.0559
 2896SOL    HW120321   2.419   0.199  11.228 -0.3785 -1.1248  0.8452
 2896SOL    HW220322   2.437   0.306  11.333 -0.6762  0.3065  0.1673
 2897SOL     OW20323   2.885   2.238   6.354  0.4377 -0.3621  0.1412
 2897SOL    HW120324   2.867   2.225   6.261 -0.2013 -1.9432  0.4891
 2897SOL    HW220325   2.834   2.169   6.396  0.4659 -0.2842  0.3047
 2898SOL     OW20326   4.077   3.090   8.452  0.1494  0.0263  0.5462
 2898SOL    HW120327   4.088   3.067   8.544 -1.8586 -0.0204  0.7722
 2898SOL    HW220328   3.981   3.096   8.447  0.3409  1.1700 -1.5212
 2899SOL     OW20329   2.475   4.478   8.873  0.8365 -0.8229 -0.1632
 2899SOL    HW120330   2.385   4.505   8.853  1.2511 -0.3604 -1.3972
 2899SOL    HW220331   2.516   4.563   8.890  0.4114 -1.0687  2.0717
 2900SOL     OW20332   3.801   1.858   2.829 -0.0203  0.1124 -0.5867
 2900SOL    HW120333   3.731   1.804   2.866  2.1225 -0.7879  2.1593
 2900SOL    HW220334   3.838   1.807   2.757  1.6449 -1.1994  1.2000
 2901SOL     OW20335   2.972   4.041   2.185  0.2985 -0.0045  0.0362
 2901SOL    HW120336   2.936   3.978   2.123 -1.2171  0.9911 -0.0946
 2901SOL    HW220337   2.930   4.016   2.267  0.0175  0.0945 -0.0752
 2902SOL     OW20338   2.944   4.480  15.954 -0.5281  0.2164 -0.4636
 2902SOL    HW120339   3.008   4.524  15.897 -0.4442  1.4121  0.5689
 2902SOL    HW220340   2.940   4.391  15.917 -1.6240  0.3861 -0.7580
 2903SOL     OW20341   0.392   1.654  16.126  0.0552 -0.1546  0.3624
 2903SOL    HW120342   0.312   1.706  16.123  0.9388  1.0925 -1.1631
 2903SOL    HW220343   0.376   1.601  16.204  1.0907  0.0175  0.6904
 2904SOL     OW20344   4.157   0.690  11.921 -0.3193 -0.0780  0.0161
 2904SOL    HW120345   4.082   0.711  11.867 -1.2141  0.3477  1.4092
 2904SOL    HW220346   4.122   0.664  12.007  0.7933 -1.2407  0.1134
 2905SOL     OW20347   3.106   1.015  16.603 -0.2661 -0.1871 -0.0053
 2905SOL    HW120348   3.128   0.940  16.547  0.2627 -0.4788  0.5958
 2905SOL    HW220349   3.169   1.075  16.563 -1.3553  0.5480 -0.6403
 2906SOL     OW20350   4.251   2.269   3.761 -0.3904 -0.6165  0.4500
 2906SOL    HW120351   4.281   2.356   3.787  1.7225 -0.9248 -0.9122
 2906SOL    HW220352   4.230   2.288   3.670  1.9776  0.7437  0.1588
 2907SOL     OW20353   1.869   0.930   4.253  0.6451  0.1258 -0.3852
 2907SOL    HW120354   1.784   0.973   4.265 -0.6751 -2.2017 -1.2800
 2907SOL    HW220355   1.858   0.900   4.163  0.9191 -1.1203 -0.0002
 2908SOL     OW20356   3.023   2.511   4.065 -0.7018 -0.2874  0.1407
 2908SOL    HW120357   3.065   2.432   4.098  0.3293 -0.0373 -0.6166
 2908SOL    HW220358   2.937   2.482   4.034 -0.3663 -0.2335 -0.8174
 2909SOL     OW20359   4.336   3.948   2.764  0.2228 -0.1502  0.1875
 2909SOL    HW120360   4.337   3.861   2.724 -1.5666 -0.4077  0.7206
 2909SOL    HW220361   4.307   3.940   2.855 -2.1225  3.6209 -0.2368
 2910SOL     OW20362   0.381   1.974   4.076 -0.0736 -0.3013 -0.6909
 2910SOL    HW120363   0.421   1.948   4.159  0.5737 -0.7143 -1.1362
 2910SOL    HW220364   0.358   1.898   4.023  0.6889 -0.6532 -0.5062
 2911SOL     OW20365   0.610   2.712   8.990 -0.4773  0.4296  0.1254
 2911SOL    HW120366   0.565   2.629   8.979  0.3523  0.2387 -1.7620
 2911SOL    HW220367   0.680   2.690   9.051  0.1858  0.5304 -0.5945
 2912SOL     OW20368   0.018   1.321   7.735  0.1038  0.0813  0.3280
 2912SOL    HW120369   4.708   1.296   7.816  0.4455  0.4254  0.6232
 2912SOL    HW220370   0.093   1.261   7.734 -1.6562 -2.1309  2.0195
 2913SOL     OW20371   1.247   2.464   9.363  0.4841  0.3049  0.0820
 2913SOL    HW120372   1.263   2.556   9.343  0.6236  0.2831  0.0956
 2913SOL    HW220373   1.205   2.431   9.283  1.1307 -1.0201  0.2845
 2914SOL     OW20374   4.163   2.755  17.129 -0.0568 -0.5181  0.2282
 2914SOL    HW120375   4.090   2.799  17.172  1.3961  0.6804  1.4590
 2914SOL    HW220376   4.137   2.663  17.133  2.1638 -1.1791 -0.5779
 2915SOL     OW20377   3.637   1.036  13.081 -0.3692 -0.5575  0.1243
 2915SOL    HW120378   3.578   0.970  13.116 -2.0853  1.0499  0.2457
 2915SOL    HW220379   3.695   1.035  13.158  0.7055  0.3593 -0.6731
 2916SOL     OW20380   3.938   1.194   2.704 -0.2533  0.4228 -0.6644
 2916SOL    HW120381   3.964   1.164   2.616 -1.8741 -0.7800 -0.7237
 2916SOL    HW220382   3.992   1.141   2.762 -0.3198 -1.3062 -2.1747
 2917SOL     OW20383   1.008   1.848   5.513 -0.1752 -0.3443 -0.0388
 2917SOL    HW120384   0.971   1.820   5.596  1.3499 -1.3179  0.3169
 2917SOL    HW220385   1.018   1.758   5.481  4.2643  0.2843 -0.5154
 2918SOL     OW20386   3.925   3.661  13.636 -0.3782  0.0512 -0.0781
 2918SOL    HW120387   3.917   3.756  13.646  1.5921  0.4155 -2.1723
 2918SOL    HW220388   4.014   3.643  13.607 -0.2602 -0.6531  0.7199
 2919SOL     OW20389   3.261   3.840   6.905 -0.0706  0.4411  0.1897
 2919SOL    HW120390   3.317   3.827   6.828 -1.7675  2.1313 -1.3337
 2919SOL    HW220391   3.203   3.764   6.904 -0.1816  0.5297 -0.2815
 2920SOL     OW20392   3.231   0.305   6.442 -0.4424  0.6978 -0.0021
 2920SOL    HW120393   3.166   0.285   6.375  0.3258  1.6714 -1.0461
 2920SOL    HW220394   3.249   0.218   6.479 -1.0929 -1.3654 -4.4755
 2921SOL     OW20395   1.339   4.583   1.577  0.0643 -0.1583  0.0303
 2921SOL    HW120396   1.328   4.503   1.525  0.1599 -0.1202 -0.0470
 2921SOL    HW220397   1.395   4.552   1.648 -1.2748 -2.0801  0.2498
 2922SOL     OW20398   1.712   4.185   3.540 -0.2650 -0.6243  0.1709
 2922SOL    HW120399   1.715   4.220   3.451 -3.0530 -0.9592 -0.0473
 2922SOL    HW220400   1.629   4.218   3.573  0.7136 -0.4273  2.3890
 2923SOL     OW20401   2.455   4.499   5.490 -0.2867 -0.2069 -0.6841
 2923SOL    HW120402   2.490   4.500   5.401 -0.0532 -1.5276 -0.6080
 2923SOL    HW220403   2.363   4.478   5.479 -0.8858  2.7919 -1.4443
 2924SOL     OW20404   3.347   1.289   7.783  0.0993 -0.2775  0.3189
 2924SOL    HW120405   3.374   1.349   7.714 -2.4694 -1.4751 -1.7224
 2924SOL    HW220406   3.430   1.270   7.826  1.2654  1.6119 -1.1088
 2925SOL     OW20407   0.099   2.733   3.420  0.2757 -0.3361 -0.2532
 2925SOL    HW120408   0.041   2.664   3.452  1.3550 -1.4905 -0.7868
 2925SOL    HW220409   0.186   2.726   3.459  0.2891  0.7376 -0.0872
 2926SOL     OW20410   2.455   1.908  12.013 -0.4276  0.4158 -0.0527
 2926SOL    HW120411   2.458   2.004  12.017 -0.0407  0.3790  0.4836
 2926SOL    HW220412   2.434   1.885  12.103  1.6373 -1.6194 -0.1049
 2927SOL     OW20413   4.167   0.916   9.551 -0.5217 -0.1481  0.5860
 2927SOL    HW120414   4.193   0.895   9.641 -0.5058 -1.6766  0.2288
 2927SOL    HW220415   4.245   0.892   9.502 -1.5554 -1.1573 -0.5759
 2928SOL     OW20416   2.593   0.787  13.542  0.4265 -0.3468  0.1373
 2928SOL    HW120417   2.552   0.756  13.461  1.1764  0.2069 -0.4594
 2928SOL    HW220418   2.551   0.732  13.608  2.1389 -0.3989  1.1955
 2929SOL     OW20419   0.066   2.259   4.544  0.0044 -0.4512 -0.5472
 2929SOL    HW120420   0.055   2.308   4.626  1.4031 -0.1913 -0.5080
 2929SOL    HW220421   0.024   2.319   4.482  0.1649 -0.5272 -0.7325
 2930SOL     OW20422   1.516   3.930   4.933 -0.7061 -0.3700 -0.0394
 2930SOL    HW120423   1.540   3.977   5.012  1.9133  0.3913 -1.2910
 2930SOL    HW220424   1.554   3.842   4.939 -0.0801 -0.1477 -0.7955
 2931SOL     OW20425   2.161   2.849   3.035 -0.0790 -0.5052  0.2610
 2931SOL    HW120426   2.181   2.828   2.944  2.6737  1.6522  0.3412
 2931SOL    HW220427   2.223   2.791   3.078 -1.0021  0.1381  2.4819
 2932SOL     OW20428   2.650   1.300   1.490  0.2845 -0.3689 -0.5536
 2932SOL    HW120429   2.737   1.338   1.482 -0.0314  0.0574 -1.9896
 2932SOL    HW220430   2.642   1.273   1.398  0.0829 -2.0232 -0.0503
 2933SOL     OW20431   3.169   3.984   5.845 -0.6945 -0.8870 -0.4243
 2933SOL    HW120432   3.206   4.072   5.851 -2.7606 -0.0560  0.1583
 2933SOL    HW220433   3.251   3.939   5.826  0.0218 -0.5848  1.8819
 2934SOL     OW20434   3.088   1.868   3.744  1.0413  0.7924  0.3918
 2934SOL    HW120435   3.025   1.928   3.704 -0.0620  0.1281  1.1205
 2934SOL    HW220436   3.089   1.796   3.681 -1.4418 -1.7836  3.2870
 2935SOL     OW20437   2.597   4.242   6.555 -0.1510  0.9007 -0.2641
 2935SOL    HW120438   2.645   4.229   6.474 -2.1963  0.6962 -1.4294
 2935SOL    HW220439   2.513   4.269   6.519 -0.5267  2.0298  1.4361
 2936SOL     OW20440   3.749   3.735  15.989  0.2921  0.6596 -0.0247
 2936SOL    HW120441   3.774   3.827  15.988 -2.0021  1.2760 -0.4484
 2936SOL    HW220442   3.719   3.721  16.079 -1.6748 -0.3555 -0.8421
 2937SOL     OW20443   2.938   3.410   7.586  0.2411  0.1739 -0.2651
 2937SOL    HW120444   2.904   3.485   7.635 -1.2663 -0.7086  0.0280
 2937SOL    HW220445   3.024   3.394   7.625  0.8795  1.4572 -1.1355
 2938SOL     OW20446   3.849   1.425   9.835  0.0069 -0.0801 -0.8832
 2938SOL    HW120447   3.837   1.496   9.772 -1.4409  0.3698 -0.0887
 2938SOL    HW220448   3.929   1.452   9.878  0.6424  1.2054 -2.8567
 2939SOL     OW20449   2.588   0.916  15.949 -0.4171 -0.2130  0.0198
 2939SOL    HW120450   2.575   0.821  15.955 -0.0161 -0.1430  1.8867
 2939SOL    HW220451   2.546   0.938  15.865 -0.7202 -0.7072  0.0397
 2940SOL     OW20452   2.407   3.163   5.510  0.2456  0.7239  0.4348
 2940SOL    HW120453   2.347   3.099   5.473  2.6447  0.1091 -2.3468
 2940SOL    HW220454   2.339   3.204   5.564 -2.5918 -2.8806 -0.5037
 2941SOL     OW20455   3.650   1.349   4.895  0.5267 -0.2908 -0.4435
 2941SOL    HW120456   3.681   1.273   4.845 -2.2640 -0.5847 -1.7075
 2941SOL    HW220457   3.612   1.395   4.821  0.1631  1.0094  0.5570
 2942SOL     OW20458   0.751   0.440   0.097  0.0613  0.0756 -0.2563
 2942SOL    HW120459   0.747   0.495   0.175 -1.0087 -2.3023  1.3939
 2942SOL    HW220460   0.832   0.390   0.111  0.7133  1.0750 -0.4586
 2943SOL     OW20461   1.060   2.422   3.029 -0.1360 -0.2541 -0.1930
 2943SOL    HW120462   1.005   2.500   3.039 -0.7361 -0.7190  0.1627
 2943SOL    HW220463   1.032   2.409   2.938  0.3709 -1.0885 -0.2295
 2944SOL     OW20464   1.690   3.645   5.741 -0.1254  0.1637 -0.3802
 2944SOL    HW120465   1.659   3.713   5.801  1.7720  0.8701 -0.2008
 2944SOL    HW220466   1.783   3.667   5.735  0.3357 -1.2895  1.2071
 2945SOL     OW20467   0.621   0.222  14.184 -0.3336  0.8424 -0.5261
 2945SOL    HW120468   0.670   0.284  14.238  0.2810 -1.5809  1.6912
 2945SOL    HW220469   0.542   0.273  14.169  0.3436  1.6417 -1.3154
 2946SOL     OW20470   3.983   1.126   3.212 -0.0637 -0.5256  0.0476
 2946SOL    HW120471   4.001   1.173   3.130  2.4791 -0.8778  0.4123
 2946SOL    HW220472   3.928   1.050   3.193 -1.0153  0.2394 -0.2853
 2947SOL     OW20473   3.292   3.814   1.437  0.0816 -0.2767  0.2791
 2947SOL    HW120474   3.299   3.781   1.347  0.3167 -0.3847  0.3353
 2947SOL    HW220475   3.371   3.868   1.433  0.1942 -0.4105  0.6776
 2948SOL     OW20476   0.859   1.916   2.679 -0.2268  0.1243  0.1342
 2948SOL    HW120477   0.790   1.853   2.659 -1.2719  1.7539 -1.4470
 2948SOL    HW220478   0.847   1.925   2.774  0.9664 -3.2911  0.5932
 2949SOL     OW20479   1.343   3.883   7.143 -0.2258 -1.0424 -0.0608
 2949SOL    HW120480   1.291   3.939   7.201  1.1933  0.4084 -0.1888
 2949SOL    HW220481   1.422   3.866   7.195  0.5955  1.2582 -0.5531
 2950SOL     OW20482   4.589   2.210   9.264 -0.6807 -0.7946 -0.9048
 2950SOL    HW120483   4.606   2.210   9.170  0.8570 -0.9872 -0.6259
 2950SOL    HW220484   4.571   2.122   9.296  3.8578 -2.1020 -2.0557
 2951SOL     OW20485   3.930   2.215   3.988 -0.1146 -0.7358  0.3601
 2951SOL    HW120486   3.837   2.197   4.002 -1.1743  2.5353 -2.4195
 2951SOL    HW220487   3.957   2.244   4.075 -0.3446  2.9183 -0.7892
 2952SOL     OW20488   2.246   3.173  14.451  0.2991  0.0940 -0.4891
 2952SOL    HW120489   2.327   3.123  14.437  0.4294  0.3935 -0.8073
 2952SOL    HW220490   2.287   3.247  14.495  1.4695 -1.0051  0.2859
 2953SOL     OW20491   2.099   1.682   7.170 -0.2407  0.3632  0.3093
 2953SOL    HW120492   2.111   1.700   7.263  2.0254 -1.4378  0.3586
 2953SOL    HW220493   2.186   1.687   7.130 -1.7191 -1.9360 -3.2245
 2954SOL     OW20494   2.241   2.088  15.845  0.0129  0.1431  0.3061
 2954SOL    HW120495   2.222   2.020  15.910 -0.5858 -0.0984 -0.1177
 2954SOL    HW220496   2.234   2.168  15.896  1.5671 -0.2525  1.1304
 2955SOL     OW20497   2.991   1.593   6.835  0.1293 -0.0826  0.2728
 2955SOL    HW120498   3.068   1.560   6.791  1.0525  0.7727  1.2262
 2955SOL    HW220499   3.032   1.651   6.900  1.1405 -0.1791 -0.2915
 2956SOL     OW20500   4.225   0.874   2.959  0.4930  0.1030 -0.1013
 2956SOL    HW120501   4.307   0.831   2.932  0.0524 -1.0942  0.4807
 2956SOL    HW220502   4.159   0.807   2.944 -0.5488  1.1706 -0.2943
 2957SOL     OW20503   2.500   0.576   6.854  0.2072  0.4737 -0.6007
 2957SOL    HW120504   2.442   0.514   6.897  1.2078 -0.0403  0.0068
 2957SOL    HW220505   2.526   0.645   6.915  3.4079 -1.3404  0.0747
 2958SOL     OW20506   3.623   4.514   6.427 -0.4086  0.6471 -0.2682
 2958SOL    HW120507   3.657   4.442   6.481  1.0855  1.1537 -0.5463
 2958SOL    HW220508   3.704   4.535   6.380 -0.5524  1.3326 -0.2008
 2959SOL     OW20509   3.634   1.193  11.931  0.0377  0.0377 -0.7409
 2959SOL    HW120510   3.719   1.204  11.973 -0.3778 -1.9394  0.6564
 2959SOL    HW220511   3.592   1.275  11.955  1.0575  0.1339  0.7120
 2960SOL     OW20512   2.169   2.524  17.570  0.0786  0.3356  0.1000
 2960SOL    HW120513   2.164   2.578  17.491  1.2727 -1.1398 -0.9753
 2960SOL    HW220514   2.214   2.446  17.538  3.1522  1.7567  0.9071
 2961SOL     OW20515   2.421   0.756   4.979  0.2819 -0.4221  0.0419
 2961SOL    HW120516   2.343   0.718   5.021  0.9771  0.1661  1.8557
 2961SOL    HW220517   2.432   0.700   4.902  0.1091  0.4199 -0.5947
 2962SOL     OW20518   1.568   4.309   1.946  0.1223  0.2834  0.2308
 2962SOL    HW120519   1.520   4.269   2.018  0.2811 -2.1886 -1.0321
 2962SOL    HW220520   1.649   4.333   1.991  0.8146 -1.5268 -0.0338
 2963SOL     OW20521   0.936   2.784   7.190  0.2357  0.1786 -0.2120
 2963SOL    HW120522   0.945   2.751   7.101  0.2556  1.0274 -0.5270
 2963SOL    HW220523   0.991   2.862   7.179  0.7062  0.3022  2.7459
 2964SOL     OW20524   3.367   0.917   8.623  0.0601 -0.5676 -0.4883
 2964SOL    HW120525   3.454   0.930   8.587 -0.6460  2.0709 -1.2625
 2964SOL    HW220526   3.361   0.824   8.645  3.8123 -0.3732  1.3249
 2965SOL     OW20527   3.769   3.515   6.596 -0.3234  0.4751 -0.0546
 2965SOL    HW120528   3.792   3.518   6.503 -0.7894 -1.1519 -0.2381
 2965SOL    HW220529   3.859   3.522   6.628 -0.9125 -0.1861  1.7526
 2966SOL     OW20530   0.644   4.318   6.768  0.1915  0.2288  0.8847
 2966SOL    HW120531   0.575   4.309   6.834 -0.2474 -1.9183  0.1206
 2966SOL    HW220532   0.690   4.389   6.813 -0.8674  1.2622  0.3632
 2967SOL     OW20533   0.444   2.879   1.141  0.0206  0.0464  0.0665
 2967SOL    HW120534   0.515   2.902   1.200 -2.0936  0.3533  2.4819
 2967SOL    HW220535   0.390   2.954   1.114 -1.1516 -0.6748  0.3792
 2968SOL     OW20536   4.353   1.947  12.504 -0.2663 -0.7143  0.0803
 2968SOL    HW120537   4.286   1.994  12.554 -2.7523 -2.3511 -1.6937
 2968SOL    HW220538   4.391   1.885  12.565 -1.2341 -0.9434  0.4576
 2969SOL     OW20539   4.284   2.849   6.133  0.0613  0.2082 -0.1996
 2969SOL    HW120540   4.255   2.805   6.213 -1.2451  1.7856  0.1866
 2969SOL    HW220541   4.378   2.830   6.141  0.2578  0.8412 -1.0398
 2970SOL     OW20542   2.699   4.154   2.336  0.6113  0.4921  0.0561
 2970SOL    HW120543   2.670   4.065   2.352  0.2941  0.6278  0.2427
 2970SOL    HW220544   2.644   4.175   2.261 -0.7981 -0.8451  0.7243
 2971SOL     OW20545   0.544   2.637   7.746  0.1424 -0.3434  0.1328
 2971SOL    HW120546   0.575   2.727   7.755 -0.4419 -0.3543  2.2734
 2971SOL    HW220547   0.555   2.626   7.651 -2.3873 -0.4127 -0.1466
 2972SOL     OW20548   1.232   2.325   4.081  0.7352  0.0552  0.2843
 2972SOL    HW120549   1.327   2.335   4.083  0.7871 -0.3018 -0.4842
 2972SOL    HW220550   1.212   2.340   3.988  1.3985  0.7250  0.2532
 2973SOL     OW20551   1.325   4.487  14.199  0.0453  0.4144 -0.7617
 2973SOL    HW120552   1.344   4.396  14.177  1.6934  0.2587  1.3535
 2973SOL    HW220553   1.406   4.529  14.227  0.6256 -0.4460 -1.1729
 2974SOL     OW20554   2.657   0.844  17.583 -0.3930  0.2708  0.5091
 2974SOL    HW120555   2.577   0.818  17.538 -0.8870 -1.2785  2.2525
 2974SOL    HW220556   2.730   0.842  17.522  2.3819  2.6573  3.7431
 2975SOL     OW20557   3.511   2.892   7.112 -0.0702 -0.6659 -0.5213
 2975SOL    HW120558   3.537   2.949   7.040  1.3798 -1.3327 -0.5232
 2975SOL    HW220559   3.585   2.832   7.120 -0.2354 -0.6434  1.1297
 2976SOL     OW20560   1.042   4.575   8.389  0.0482 -0.1727 -0.5170
 2976SOL    HW120561   0.953   4.603   8.368  0.0399 -0.3524 -0.7145
 2976SOL    HW220562   1.080   4.559   8.303  1.3220  0.2668 -0.0378
 2977SOL     OW20563   4.729   3.099   6.370  0.5266 -0.4722 -0.1494
 2977SOL    HW120564   4.723   3.194   6.378  0.9624 -0.0116 -5.0582
 2977SOL    HW220565   4.663   3.081   6.437  1.2864 -1.0802  0.4209
 2978SOL     OW20566   3.857   4.372   8.763  0.5191 -0.0822 -0.9294
 2978SOL    HW120567   3.930   4.314   8.741  0.0420  0.3786 -3.7315
 2978SOL    HW220568   3.844   4.357   8.856  0.9933 -0.5990 -0.9465
 2979SOL     OW20569   2.970   4.720   9.357 -0.0909 -0.2519 -0.4820
 2979SOL    HW120570   2.992   4.719   9.450  0.3606 -0.7113 -0.5916
 2979SOL    HW220571   3.000   0.070   9.325  1.5541 -0.4568  0.4929
 2980SOL     OW20572   2.989   0.943   8.004 -0.0985 -0.8740 -0.8717
 2980SOL    HW120573   3.029   0.960   8.090 -2.5715 -1.1798  0.3344
 2980SOL    HW220574   2.914   1.002   8.012 -0.1853 -1.1379  0.3621
 2981SOL     OW20575   2.731   3.940   4.431  0.0930 -0.2019 -0.3174
 2981SOL    HW120576   2.648   3.970   4.468  0.7506  1.8161 -0.4628
 2981SOL    HW220577   2.783   4.021   4.426 -0.1182 -0.0858 -0.5900
 2982SOL     OW20578   4.600   1.340   2.853 -1.0543 -0.0136 -0.0424
 2982SOL    HW120579   4.643   1.330   2.938  0.0903  1.7431 -0.4122
 2982SOL    HW220580   4.676   1.362   2.799 -0.9095 -1.9594 -0.6124
 2983SOL     OW20581   2.536   2.674  10.311  0.1026  0.0292 -0.1932
 2983SOL    HW120582   2.466   2.634  10.364  0.0865  0.4018  0.0693
 2983SOL    HW220583   2.575   2.723  10.384  0.7442 -2.7333  1.3515
 2984SOL     OW20584   1.532   2.116   3.005 -0.5865 -0.1888 -0.5575
 2984SOL    HW120585   1.529   2.205   2.972  3.6110 -0.1863 -0.9473
 2984SOL    HW220586   1.549   2.119   3.099 -1.3551  0.8144 -0.4614
 2985SOL     OW20587   1.310   4.544   5.443  0.3291 -0.3574  0.2465
 2985SOL    HW120588   1.351   4.630   5.440 -0.4190 -0.0337 -0.6754
 2985SOL    HW220589   1.256   4.562   5.521  0.5654  2.3566 -0.2189
 2986SOL     OW20590   4.314   2.048   9.534 -0.4437  0.5607 -0.1366
 2986SOL    HW120591   4.229   2.078   9.565 -0.2193 -0.0910  1.0971
 2986SOL    HW220592   4.369   2.124   9.515  0.6107  0.0630  0.8839
 2987SOL     OW20593   4.036   3.326  10.566 -0.3736 -0.1379 -0.2893
 2987SOL    HW120594   4.006   3.289  10.649  1.4387  0.1542  0.4809
 2987SOL    HW220595   4.123   3.363  10.580 -0.3358 -0.9167  1.5089
 2988SOL     OW20596   0.364   4.205   7.831  0.5400 -0.0310  0.3861
 2988SOL    HW120597   0.292   4.193   7.893  1.2369 -1.4900  0.9065
 2988SOL    HW220598   0.339   4.153   7.755  0.0411  1.5183 -0.5052
 2989SOL     OW20599   4.000   1.746   2.325 -0.0588  0.4520  0.4044
 2989SOL    HW120600   3.956   1.664   2.350 -2.0981  0.8310 -1.9488
 2989SOL    HW220601   4.030   1.707   2.243 -0.2220 -0.5818  0.8304
 2990SOL     OW20602   2.352   3.802   9.412  0.7597  0.6004 -0.2926
 2990SOL    HW120603   2.309   3.887   9.410 -0.1151  0.1436 -0.8694
 2990SOL    HW220604   2.383   3.789   9.323 -0.5596 -0.9809 -0.5247
 2991SOL     OW20605   2.536   1.014  13.212 -0.0297  0.2506  0.1836
 2991SOL    HW120606   2.631   1.011  13.224 -0.3868 -2.2279  2.5451
 2991SOL    HW220607   2.506   1.015  13.303 -0.4265  0.3383  0.0506
 2992SOL     OW20608   1.245   4.732  14.073 -0.1332  0.0007  0.0238
 2992SOL    HW120609   1.250   4.652  14.125 -2.2238  0.1358  0.3984
 2992SOL    HW220610   1.326   4.722  14.022  0.0537  0.5383  0.2200
 2993SOL     OW20611   2.459   2.987   9.848  0.5858  0.0571 -0.2034
 2993SOL    HW120612   2.479   2.940   9.929  0.8093  0.3582 -0.0860
 2993SOL    HW220613   2.517   2.940   9.787  1.5136 -0.6189  1.1972
 2994SOL     OW20614   2.141   2.440  11.947 -0.2840 -0.1949  0.3701
 2994SOL    HW120615   2.129   2.374  11.879  2.0982  1.1898 -1.4105
 2994SOL    HW220616   2.073   2.411  12.007 -1.5642 -0.8550 -1.3946
 2995SOL     OW20617   0.967   2.421   1.604 -0.0775 -0.0076 -0.4449
 2995SOL    HW120618   0.946   2.437   1.696  4.0809 -3.5689  1.1167
 2995SOL    HW220619   1.060   2.406   1.620 -0.3472 -1.1452  0.0207
 2996SOL     OW20620   1.143   4.138   8.980  0.0282  0.1776  0.3124
 2996SOL    HW120621   1.118   4.091   9.059 -1.6771  3.7423  1.8995
 2996SOL    HW220622   1.233   4.164   8.999  0.2905  0.5188 -1.4104
 2997SOL     OW20623   1.041   1.567   1.863 -0.4623  0.1619 -0.7251
 2997SOL    HW120624   1.012   1.485   1.903  0.3718  1.3034  2.2268
 2997SOL    HW220625   0.959   1.615   1.863 -0.2052  0.6051 -1.5715
 2998SOL     OW20626   3.188   2.805   7.041  0.5369  0.4943  0.2231
 2998SOL    HW120627   3.197   2.758   7.124  1.1137 -0.6347 -0.4764
 2998SOL    HW220628   3.128   2.871   7.074  2.1101  0.7392  2.6367
 2999SOL     OW20629   0.912   3.742   5.672  0.2654  0.0840  0.0890
 2999SOL    HW120630   0.919   3.683   5.597 -0.4243  0.3571 -0.1978
 2999SOL    HW220631   0.974   3.699   5.731  1.7509 -0.1636 -1.6854
 3000SOL     OW20632   4.144   2.580  15.085 -0.1715 -0.1650 -0.1151
 3000SOL    HW120633   4.225   2.543  15.119 -0.3900 -0.0515  0.5215
 3000SOL    HW220634   4.147   2.665  15.129 -0.1340 -1.0066  1.5055
 3001SOL     OW20635   3.879   3.442  16.573 -0.6640 -0.1826 -0.5072
 3001SOL    HW120636   3.880   3.466  16.481 -0.0017  0.4207 -0.3429
 3001SOL    HW220637   3.920   3.523  16.601 -3.0985  0.1322  2.1600
 3002SOL     OW20638   1.258   2.284   2.562  0.1047 -0.2957 -0.8614
 3002SOL    HW120639   1.187   2.305   2.500 -1.7034  2.5740  2.2041
 3002SOL    HW220640   1.331   2.315   2.508  0.2581 -0.8651 -0.9792
 3003SOL     OW20641   2.160   4.160  16.065 -0.2373  0.2007  0.0676
 3003SOL    HW120642   2.159   4.099  15.991  0.3755 -0.5689  0.6896
 3003SOL    HW220643   2.137   4.245  16.027 -0.2588 -0.5138 -1.5314
 3004SOL     OW20644   1.948   2.024   3.321 -0.1465  0.0777 -0.4983
 3004SOL    HW120645   1.898   1.944   3.340  0.2203  0.1854  0.9009
 3004SOL    HW220646   1.996   2.008   3.239 -0.0861  1.7313 -0.7780
 3005SOL     OW20647   1.517   3.493   3.452 -0.3588 -0.0375  0.7441
 3005SOL    HW120648   1.534   3.462   3.363  0.6209 -1.0413  1.2798
 3005SOL    HW220649   1.426   3.462   3.459 -0.4540  0.4172  1.4749
 3006SOL     OW20650   1.602   3.558   9.899 -0.0278  0.3350  0.0361
 3006SOL    HW120651   1.593   3.579   9.992 -1.5679 -0.3702  0.0604
 3006SOL    HW220652   1.608   3.463   9.901  3.4883  0.5902  0.9826
 3007SOL     OW20653   4.591   3.926  16.715  0.3028  0.6388  0.2003
 3007SOL    HW120654   4.626   4.007  16.677  0.3787 -0.0201 -1.1241
 3007SOL    HW220655   4.497   3.942  16.705  0.4863  2.0858  0.7844
 3008SOL     OW20656   4.694   4.414  17.470 -0.4192  0.1772  0.1132
 3008SOL    HW120657   4.693   4.499  17.426  2.2077 -0.2710 -0.8584
 3008SOL    HW220658   0.054   4.405  17.458 -0.3276  1.1933  0.0606
 3009SOL     OW20659   0.151   1.315   8.990  0.5752  0.4063 -0.5039
 3009SOL    HW120660   0.130   1.234   9.037 -1.6094  1.4093  0.2264
 3009SOL    HW220661   0.171   1.362   9.071 -1.4395 -0.5108  0.5207
 3010SOL     OW20662   2.715   2.718   1.622 -0.0399 -0.2855  0.3660
 3010SOL    HW120663   2.716   2.655   1.551  0.8800 -0.7566  0.7882
 3010SOL    HW220664   2.790   2.775   1.605  0.2013 -0.8225 -0.3433
 3011SOL     OW20665   4.383   1.699  16.353 -0.1294  0.6304 -0.6303
 3011SOL    HW120666   4.470   1.669  16.382 -0.8216  0.8407  1.6786
 3011SOL    HW220667   4.412   1.748  16.276  1.1840 -0.6794 -0.9753
 3012SOL     OW20668   1.984   1.958  11.014 -0.2750  0.0172 -0.2036
 3012SOL    HW120669   1.981   2.045  11.054 -1.4851 -0.4777  0.7796
 3012SOL    HW220670   1.890   1.941  11.014 -0.2776  0.0323 -0.1673
 3013SOL     OW20671   1.645   2.638   9.846 -0.6935 -0.0968  0.5025
 3013SOL    HW120672   1.586   2.713   9.842 -1.3833 -0.5811  1.6875
 3013SOL    HW220673   1.601   2.590   9.776  2.2113 -1.6312 -0.3166
 3014SOL     OW20674   2.174   4.446   9.545  0.4066  0.2154  0.3992
 3014SOL    HW120675   2.194   4.540   9.544 -1.4204  0.5800 -2.3194
 3014SOL    HW220676   2.101   4.446   9.607  0.3278 -0.6462  0.2997
 3015SOL     OW20677   1.910   2.817   0.105  0.4288 -0.3442 -0.0665
 3015SOL    HW120678   1.961   2.736   0.106  1.1199  0.0634 -2.1857
 3015SOL    HW220679   1.873   2.822   0.193 -0.0621 -0.4267 -0.2679
 3016SOL     OW20680   2.138   0.949   5.865  0.7313  0.1696 -0.3533
 3016SOL    HW120681   2.149   0.954   5.960  1.4687  1.8330 -0.5388
 3016SOL    HW220682   2.228   0.920   5.848 -0.0740 -2.9731  0.6455
 3017SOL     OW20683   3.134   0.031   4.254 -0.7850  0.3490 -0.0408
 3017SOL    HW120684   3.061   4.733   4.201 -0.4085 -0.0689 -0.2969
 3017SOL    HW220685   3.164   0.110   4.210  2.4716 -0.8808  0.0105
 3018SOL     OW20686   3.839   4.107   2.224  0.1331 -0.4037  0.2176
 3018SOL    HW120687   3.819   4.014   2.212 -0.3361 -0.1449 -1.0546
 3018SOL    HW220688   3.773   4.146   2.166 -1.3906 -0.6259  1.8166
 3019SOL     OW20689   4.037   4.574   3.816  0.1024 -0.3885  0.1747
 3019SOL    HW120690   4.009   4.536   3.899  1.7787  0.9063  1.3406
 3019SOL    HW220691   3.970   4.552   3.751  0.2741 -1.8533  0.5095
 3020SOL     OW20692   1.641   4.218   8.400  0.0771  0.1939  0.1098
 3020SOL    HW120693   1.640   4.216   8.304 -2.0285 -3.5530  0.2015
 3020SOL    HW220694   1.667   4.127   8.415 -3.0195 -0.5476  1.1064
 3021SOL     OW20695   2.539   2.268  17.339  0.0962 -0.5472  0.5931
 3021SOL    HW120696   2.606   2.201  17.356  1.8434  1.2623  0.9406
 3021SOL    HW220697   2.580   2.348  17.372 -0.0551 -0.4642  0.5760
 3022SOL     OW20698   4.315   1.988   1.689 -0.7183  0.1543 -0.2919
 3022SOL    HW120699   4.409   1.979   1.672 -0.3461  2.1926  0.6627
 3022SOL    HW220700   4.312   2.027   1.776  0.6621 -1.3658  0.4503
 3023SOL     OW20701   0.487   1.471   9.743  0.3412 -0.0298  0.3139
 3023SOL    HW120702   0.463   1.391   9.697 -0.9240 -0.5586  1.9196
 3023SOL    HW220703   0.412   1.480   9.802  2.7406  2.0496  3.0130
 3024SOL     OW20704   4.674   2.723  17.380 -0.0880  0.1521  0.4238
 3024SOL    HW120705   4.679   2.812  17.346  2.2352 -0.6664 -1.4318
 3024SOL    HW220706   4.625   2.721  17.462 -0.2536 -0.1533  0.3183
 3025SOL     OW20707   4.209   2.274   1.769 -0.0696 -0.9968 -0.1710
 3025SOL    HW120708   4.285   2.242   1.817 -1.0351 -3.5361 -0.3023
 3025SOL    HW220709   4.162   2.191   1.779  0.2703 -1.4609 -2.2882
 3026SOL     OW20710   1.912   2.826   7.629 -0.2375  0.0401  0.5863
 3026SOL    HW120711   1.882   2.844   7.539 -0.6215 -1.5394  0.4101
 3026SOL    HW220712   1.894   2.912   7.668 -0.9716  1.7514 -3.4158
 3027SOL     OW20713   1.057   2.439   7.580  0.2775 -0.2043  0.5710
 3027SOL    HW120714   1.037   2.520   7.628 -2.3731  0.5100 -1.7132
 3027SOL    HW220715   1.036   2.459   7.489  0.1266  3.6016  1.4420
 3028SOL     OW20716   2.758   3.871  12.350 -0.6515 -0.1975  0.0118
 3028SOL    HW120717   2.700   3.885  12.425  0.7517  0.6702  0.9388
 3028SOL    HW220718   2.768   3.958  12.310  1.8807  0.0111  1.0854
 3029SOL     OW20719   2.902   1.831  12.732  0.5756  0.4714  0.3348
 3029SOL    HW120720   2.847   1.908  12.715  0.2458 -0.1065 -1.2537
 3029SOL    HW220721   2.876   1.804  12.820 -0.0731 -2.4388 -0.7500
 3030SOL     OW20722   0.675   1.540   3.259 -0.9232  0.0105 -0.1296
 3030SOL    HW120723   0.668   1.449   3.232  1.7260 -0.4792  0.8545
 3030SOL    HW220724   0.730   1.588   3.198  0.3512 -1.2188  0.0695
 3031SOL     OW20725   2.411   1.672   5.560 -0.2044  0.5902 -0.0663
 3031SOL    HW120726   2.492   1.677   5.611 -0.7941 -3.2110  1.2838
 3031SOL    HW220727   2.456   1.668   5.475 -1.4815 -0.0305 -0.7302
 3032SOL     OW20728   1.174   0.239   2.707  0.0793  0.0190 -0.1716
 3032SOL    HW120729   1.105   0.267   2.767 -0.3324  0.1686 -0.7110
 3032SOL    HW220730   1.151   0.279   2.623  0.6098 -2.1078 -1.3365
 3033SOL     OW20731   4.093   3.741   2.691  0.1706 -0.3082 -0.0833
 3033SOL    HW120732   4.170   3.764   2.639 -0.8810 -0.7471 -1.8468
 3033SOL    HW220733   4.117   3.660   2.738 -0.2946 -1.3794 -1.6857
 3034SOL     OW20734   1.517   1.883   2.711  0.0029 -0.5084  0.9779
 3034SOL    HW120735   1.602   1.850   2.740 -0.5751 -1.9236  1.0467
 3034SOL    HW220736   1.472   1.864   2.793 -1.6995 -0.6243  0.0073
 3035SOL     OW20737   4.397   1.598   2.965 -0.3238  0.3773 -0.1466
 3035SOL    HW120738   4.456   1.620   2.892  1.1241  0.4580  1.0319
 3035SOL    HW220739   4.390   1.505   2.948 -0.2805  0.2681  0.4170
 3036SOL     OW20740   2.084   4.507   4.169  0.6970 -0.3632  0.0685
 3036SOL    HW120741   2.017   4.571   4.193 -1.4155 -2.1776 -0.8630
 3036SOL    HW220742   2.099   4.519   4.075  1.5731 -1.0912  0.1106
 3037SOL     OW20743   2.167   4.483   9.059  0.1393 -0.2827  0.1782
 3037SOL    HW120744   2.078   4.517   9.048  1.3729  2.4276 -1.4210
 3037SOL    HW220745   2.177   4.415   8.993  0.0516 -1.4251  1.3427
 3038SOL     OW20746   1.728   3.883   7.660 -0.2229 -0.0829  0.6966
 3038SOL    HW120747   1.762   3.794   7.670 -1.0534 -0.3647  1.0176
 3038SOL    HW220748   1.637   3.856   7.653  0.5998 -2.8092  0.4498
 3039SOL     OW20749   2.896   4.688   7.410 -0.0797  0.4503 -0.0498
 3039SOL    HW120750   2.832   4.617   7.409 -0.3184  0.6642 -0.0444
 3039SOL    HW220751   2.925   4.698   7.501 -3.2898 -2.6321  1.3024
 3040SOL     OW20752   3.308   2.156   1.303 -0.3815  0.2765 -0.2481
 3040SOL    HW120753   3.248   2.093   1.344 -0.0134 -0.0482 -0.2013
 3040SOL    HW220754   3.389   2.140   1.353 -0.0410  0.1007 -0.8494
 3041SOL     OW20755   1.137   1.501   8.734 -0.3126  0.6837  0.0572
 3041SOL    HW120756   1.232   1.511   8.741 -0.3141  1.4255 -0.8170
 3041SOL    HW220757   1.102   1.573   8.680 -2.1243  0.0504  0.3670
 3042SOL     OW20758   3.954   3.574  16.351  0.4180  0.6366 -0.9785
 3042SOL    HW120759   3.937   3.570  16.257 -0.3580 -2.0217 -0.7282
 3042SOL    HW220760   3.959   3.668  16.370 -2.8105  0.8991 -1.3564
 3043SOL     OW20761   4.296   3.138   4.993 -0.3368  0.0028  0.6823
 3043SOL    HW120762   4.236   3.181   5.053  1.9016 -0.5412  3.3261
 3043SOL    HW220763   4.234   3.080   4.950 -2.1394  2.1659  0.3871
 3044SOL     OW20764   2.119   1.379   9.536 -0.6779  0.9930  0.5244
 3044SOL    HW120765   2.202   1.425   9.523 -0.2180 -0.0266 -0.0764
 3044SOL    HW220766   2.111   1.332   9.454 -1.3799  0.0216  1.1486
 3045SOL     OW20767   0.997   2.243   5.182 -0.6390  0.2676 -0.3996
 3045SOL    HW120768   0.942   2.275   5.253  1.5773  1.3641  0.8151
 3045SOL    HW220769   0.988   2.150   5.203  0.9105  0.6429  1.8557
 3046SOL     OW20770   1.123   2.258   4.454  0.5062  0.1493 -0.0749
 3046SOL    HW120771   1.174   2.339   4.446 -0.4244  0.8341  0.9388
 3046SOL    HW220772   1.041   2.281   4.498 -0.8048  0.3709 -2.5865
 3047SOL     OW20773   3.319   2.588   7.797  0.1679  0.4191  0.1619
 3047SOL    HW120774   3.249   2.612   7.858 -0.3902  0.8089 -0.6453
 3047SOL    HW220775   3.384   2.658   7.800  1.6197 -0.8514 -1.3482
 3048SOL     OW20776   0.538   2.959   9.332 -0.5236 -0.2641  0.3992
 3048SOL    HW120777   0.540   2.863   9.337 -1.4988 -0.3644 -1.0050
 3048SOL    HW220778   0.630   2.976   9.349 -0.5418 -0.1514  0.3839
 3049SOL     OW20779   1.991   2.738   6.389  0.5006  0.2447  0.3880
 3049SOL    HW120780   2.010   2.832   6.384 -0.8021  0.5340  0.7617
 3049SOL    HW220781   1.898   2.740   6.365  0.5974 -0.2997 -0.0247
 3050SOL     OW20782   4.448   2.338   6.025  0.0031  0.1205  0.2190
 3050SOL    HW120783   4.503   2.405   5.985 -0.6540  0.8312  0.5061
 3050SOL    HW220784   4.482   2.255   5.993  1.5852  0.7406  0.3316
 3051SOL     OW20785   0.986   3.835   4.161  0.3576 -0.0646  0.1567
 3051SOL    HW120786   0.938   3.872   4.088 -2.3577 -1.9200  1.0135
 3051SOL    HW220787   1.068   3.885   4.154 -0.1228  1.0407  2.3144
 3052SOL     OW20788   2.096   3.614  13.023  0.0365  0.1220 -0.4131
 3052SOL    HW120789   2.079   3.698  12.981  1.2273  1.9652  2.7380
 3052SOL    HW220790   2.190   3.618  13.037  0.0212  2.2780 -0.9324
 3053SOL     OW20791   4.434   0.438   6.748  0.0873  0.2842  0.2128
 3053SOL    HW120792   4.383   0.410   6.672  1.0686 -1.0571  0.0573
 3053SOL    HW220793   4.527   0.426   6.725  0.3764  1.3336  0.8306
 3054SOL     OW20794   2.234   0.608   1.937 -0.0491  0.6544  0.2304
 3054SOL    HW120795   2.197   0.607   1.849 -0.4879  0.1812  0.4199
 3054SOL    HW220796   2.231   0.703   1.950 -0.9668  0.3764  2.1754
 3055SOL     OW20797   2.049   3.199   6.622  0.3456 -0.0803 -0.0867
 3055SOL    HW120798   2.054   3.285   6.580  0.2128 -0.8137 -1.6194
 3055SOL    HW220799   2.138   3.176   6.649  0.0606  1.3779  2.0696
 3056SOL     OW20800   3.472   0.131   4.299 -0.0179 -0.5476  0.6812
 3056SOL    HW120801   3.398   0.147   4.241 -0.0287  0.8394  1.0928
 3056SOL    HW220802   3.539   0.175   4.247 -0.6164 -0.9863 -0.4817
 3057SOL     OW20803   0.927   2.874   1.902  0.3775  0.4727  0.1474
 3057SOL    HW120804   0.987   2.809   1.866 -0.1418  0.0535  0.0443
 3057SOL    HW220805   0.989   2.940   1.934  1.1214  0.4391 -1.2756
 3058SOL     OW20806   0.310   1.716   7.494 -0.8584 -0.2234  0.3172
 3058SOL    HW120807   0.355   1.718   7.579 -0.4417  0.4004  0.0790
 3058SOL    HW220808   0.375   1.763   7.442  1.1541 -0.8530  2.2886
 3059SOL     OW20809   0.708   0.987   3.903  0.6039 -0.3594 -0.1962
 3059SOL    HW120810   0.678   0.901   3.934 -0.5897 -0.0173 -0.3787
 3059SOL    HW220811   0.683   1.035   3.982  2.2644 -0.1841  0.2062
 3060SOL     OW20812   1.597   3.424  13.602  0.2561 -0.6413 -0.1710
 3060SOL    HW120813   1.561   3.336  13.586 -1.6666  0.2542 -0.7593
 3060SOL    HW220814   1.635   3.447  13.518 -0.1346  0.0140 -0.1638
 3061SOL     OW20815   3.788   3.429   5.057  0.2271  0.3706 -0.5210
 3061SOL    HW120816   3.878   3.459   5.043  0.1572  0.4182 -0.8837
 3061SOL    HW220817   3.754   3.432   4.967  1.1839  0.1967 -0.8930
 3062SOL     OW20818   1.347   3.563   7.709  0.1373 -0.6361 -0.1737
 3062SOL    HW120819   1.409   3.500   7.746  2.1882  1.0020 -0.8379
 3062SOL    HW220820   1.333   3.524   7.623 -0.7136  2.4991 -1.4271
 3063SOL     OW20821   1.456   0.477   8.581  0.0368 -0.5851  0.4372
 3063SOL    HW120822   1.471   0.419   8.506 -1.8626  1.0658 -1.2460
 3063SOL    HW220823   1.495   0.427   8.652  1.7015 -0.0904 -0.1337
 3064SOL     OW20824   2.076   0.108   7.630 -0.5466  0.7524  0.2891
 3064SOL    HW120825   2.038   0.152   7.554 -0.7309  0.1648  0.0390
 3064SOL    HW220826   2.101   0.187   7.677 -0.8460  0.1212  1.5222
 3065SOL     OW20827   4.417   2.895  12.412  0.3622 -0.2603 -0.8589
 3065SOL    HW120828   4.364   2.817  12.396  1.7944 -0.7445 -3.1919
 3065SOL    HW220829   4.480   2.893  12.340 -0.1964  1.6007 -1.3908
 3066SOL     OW20830   4.483   4.669   3.393 -0.0790 -0.4367 -0.5433
 3066SOL    HW120831   4.483   4.718   3.311  0.7092  1.4017  0.5767
 3066SOL    HW220832   4.397   4.628   3.382 -0.8383  1.4518 -1.6922
 3067SOL     OW20833   1.452   0.153   1.778 -0.3271 -0.6253 -0.2956
 3067SOL    HW120834   1.366   0.119   1.756 -0.4433 -0.4362 -0.1309
 3067SOL    HW220835   1.476   0.137   1.686 -0.7759 -1.9923 -0.1701
 3068SOL     OW20836   3.873   0.864   1.595 -0.2662 -0.2478 -0.8628
 3068SOL    HW120837   3.964   0.864   1.627 -0.6580  0.7892  0.2853
 3068SOL    HW220838   3.832   0.910   1.668  1.6417  0.4199 -0.1956
 3069SOL     OW20839   3.970   2.824   5.364  0.0441  0.1344 -0.2229
 3069SOL    HW120840   3.959   2.825   5.268 -2.1578  1.4614  0.0381
 3069SOL    HW220841   4.064   2.834   5.377 -0.0312  0.4859  0.0404
 3070SOL     OW20842   1.012   2.510   7.299 -0.9331  0.3247  0.1509
 3070SOL    HW120843   0.970   2.590   7.267 -0.5301  0.3823 -0.2374
 3070SOL    HW220844   0.991   2.460   7.220 -1.6712 -0.2357  0.7044
 3071SOL     OW20845   2.076   0.986   4.399  0.1777  0.1586  0.4344
 3071SOL    HW120846   2.062   1.079   4.415  0.2568  0.4405 -1.1875
 3071SOL    HW220847   1.995   0.967   4.352  1.3760  0.9313 -1.9563
 3072SOL     OW20848   0.614   2.353   5.955  0.4220 -0.4539  0.0638
 3072SOL    HW120849   0.584   2.427   6.008  2.0229 -1.5577  2.4861
 3072SOL    HW220850   0.636   2.399   5.874 -1.7596  1.6428  0.6556
 3073SOL     OW20851   2.948   2.485   7.527  0.2598  0.1232  0.2232
 3073SOL    HW120852   2.959   2.463   7.619  1.3443  0.0960  0.0906
 3073SOL    HW220853   2.940   2.395   7.496 -1.9352  0.4698 -0.2209
 3074SOL     OW20854   4.586   2.762   4.389 -0.1176  0.5149  0.4266
 3074SOL    HW120855   4.527   2.829   4.355 -0.0070 -0.1822 -1.1175
 3074SOL    HW220856   4.530   2.685   4.398 -0.5154  0.8965  1.2507
 3075SOL     OW20857   2.488   3.677   0.122  0.2947  0.4192 -0.3428
 3075SOL    HW120858   2.401   3.665   0.084  0.7638 -0.5547 -1.1137
 3075SOL    HW220859   2.459   3.709   0.208  2.3394  0.4610  0.3382
 3076SOL     OW20860   3.347   3.494   4.061 -1.0488  0.2089  0.4675
 3076SOL    HW120861   3.302   3.418   4.026  0.7298 -0.1909 -0.9535
 3076SOL    HW220862   3.408   3.460   4.126 -1.2593 -1.0390  0.0041
 3077SOL     OW20863   3.551   1.384   7.973  0.3543  0.1968 -0.1446
 3077SOL    HW120864   3.529   1.397   8.065  0.7498 -0.1701  0.0011
 3077SOL    HW220865   3.632   1.333   7.975  0.9419  1.0660 -1.7267
 3078SOL     OW20866   4.066   1.818   9.900  0.1638 -0.2418  0.2385
 3078SOL    HW120867   4.094   1.871   9.975 -0.7785  0.0980  0.3591
 3078SOL    HW220868   3.989   1.869   9.873 -0.3268 -0.7136  0.7261
 3079SOL     OW20869   1.481   2.157  13.324 -0.7405  0.3199  0.0405
 3079SOL    HW120870   1.419   2.196  13.262 -0.4660  0.3360 -0.2240
 3079SOL    HW220871   1.516   2.240  13.355  1.1393  0.1666 -1.7109
 3080SOL     OW20872   2.966   1.550  12.743  0.0838  0.2365 -0.4106
 3080SOL    HW120873   2.976   1.645  12.732  0.7458  0.1544 -0.5609
 3080SOL    HW220874   3.028   1.510  12.682  0.5645 -0.0160  0.2523
 3081SOL     OW20875   1.212   2.712   1.903  0.0687  0.1099  0.3583
 3081SOL    HW120876   1.269   2.747   1.971  0.0839  0.6894  0.0521
 3081SOL    HW220877   1.206   2.619   1.924  1.6264 -0.3426 -1.1319
 3082SOL     OW20878   0.068   2.736   7.977 -0.2345 -0.4317  0.0564
 3082SOL    HW120879   4.715   2.742   7.940 -0.8095  0.1647  1.5246
 3082SOL    HW220880   0.096   2.821   7.944 -2.0324  0.3271  0.4978
 3083SOL     OW20881   2.002   1.389  17.618 -0.1985  0.7348  0.2913
 3083SOL    HW120882   2.009   1.335  17.540  2.2632  0.4925  0.6831
 3083SOL    HW220883   1.985   1.480  17.595 -2.0490  0.8886  2.2895
 3084SOL     OW20884   4.270   0.542   2.029 -0.2288  0.0318 -0.1970
 3084SOL    HW120885   4.285   0.460   2.074 -0.5883  0.8949  1.4823
 3084SOL    HW220886   4.355   0.583   2.012  0.1556 -0.2188  1.2014
 3085SOL     OW20887   3.844   0.986   9.903  0.5953 -0.0839  0.3813
 3085SOL    HW120888   3.867   0.973   9.996 -1.3692 -0.5751  0.8051
 3085SOL    HW220889   3.922   1.025   9.866 -1.3507  2.6086 -0.8395
 3086SOL     OW20890   1.765   1.154  12.883 -0.0178  0.2289  0.2297
 3086SOL    HW120891   1.737   1.155  12.974  1.2720  0.2106  0.6148
 3086SOL    HW220892   1.745   1.242  12.850  0.6401  0.2464 -0.1269
 3087SOL     OW20893   3.064   2.507   9.957  0.0421  0.0043  0.4556
 3087SOL    HW120894   3.077   2.570  10.028  0.0015  1.2412 -0.6264
 3087SOL    HW220895   2.969   2.509   9.948  0.0656 -2.4782 -0.1296
 3088SOL     OW20896   3.175   0.662   2.040  0.0338  0.3603  0.2508
 3088SOL    HW120897   3.170   0.752   2.007  0.7046 -0.1862 -1.3588
 3088SOL    HW220898   3.085   0.632   2.027 -0.6734  2.1061  1.1808
 3089SOL     OW20899   2.895   3.137  13.516  0.5662 -0.2156 -0.2578
 3089SOL    HW120900   2.928   3.225  13.499 -0.5283  0.1481 -0.4843
 3089SOL    HW220901   2.880   3.159  13.608 -1.7278 -0.3799 -0.6059
 3090SOL     OW20902   2.068   2.090  17.487 -0.6568 -0.0380  0.3517
 3090SOL    HW120903   2.154   2.131  17.489  0.2956 -2.0655  0.7365
 3090SOL    HW220904   2.053   2.090  17.393 -2.0700 -0.4297  0.5748
 3091SOL     OW20905   2.755   3.507   4.687  0.1629 -0.2899 -0.0492
 3091SOL    HW120906   2.802   3.540   4.610  0.8015 -1.5396 -0.1952
 3091SOL    HW220907   2.670   3.497   4.644 -0.5376  0.3711  1.1797
 3092SOL     OW20908   2.364   2.814  11.385 -0.4806 -0.5232 -0.2434
 3092SOL    HW120909   2.387   2.726  11.356  1.7006 -0.3789  1.0727
 3092SOL    HW220910   2.435   2.868  11.350 -1.3567 -0.1259 -1.4083
 3093SOL     OW20911   2.093   4.026   3.866  0.1986 -0.2452  0.2069
 3093SOL    HW120912   2.152   4.094   3.899  0.1286 -0.4238  0.7029
 3093SOL    HW220913   2.014   4.079   3.873 -0.2934 -0.6297 -2.2684
 3094SOL     OW20914   4.704   1.108  11.541  0.3554 -0.2615 -0.2397
 3094SOL    HW120915   0.063   1.118  11.552  0.0290  1.2909  1.1580
 3094SOL    HW220916   4.687   1.182  11.482  1.1506 -0.7663 -1.0882
 3095SOL     OW20917   3.713   4.232  15.905 -0.0238 -0.2371  0.1980
 3095SOL    HW120918   3.633   4.193  15.870  0.0065 -0.0608 -0.0655
 3095SOL    HW220919   3.691   4.320  15.937  0.8504  0.1214 -0.2003
 3096SOL     OW20920   0.765   4.086   6.632  0.3440  0.0206  0.6208
 3096SOL    HW120921   0.760   4.180   6.614 -0.0627  0.0590  0.9332
 3096SOL    HW220922   0.715   4.085   6.713 -0.2334  1.6619  0.2850
 3097SOL     OW20923   2.744   3.797  13.845  0.0583  0.8388 -0.3184
 3097SOL    HW120924   2.804   3.729  13.875  0.3049  1.6865  1.0991
 3097SOL    HW220925   2.667   3.778  13.899  1.8079 -1.2947  1.4452
 3098SOL     OW20926   1.898   4.229  15.488 -0.8463  0.6380  0.2510
 3098SOL    HW120927   1.988   4.234  15.520 -0.5930  0.3165 -0.4061
 3098SOL    HW220928   1.911   4.236  15.393 -0.9855 -0.4962  0.1458
 3099SOL     OW20929   2.086   1.431  13.815  0.1200 -0.1125  0.2461
 3099SOL    HW120930   2.023   1.401  13.750 -0.2457  0.4752  0.3271
 3099SOL    HW220931   2.057   1.381  13.892  0.4914  1.0907  1.1651
 3100SOL     OW20932   1.837   2.989   6.724 -0.8084 -0.0411  0.5120
 3100SOL    HW120933   1.845   3.080   6.694 -0.1670 -1.1571 -2.7219
 3100SOL    HW220934   1.914   2.989   6.781  1.2033  4.9691 -2.1268
 3101SOL     OW20935   2.382   2.452  16.755 -0.4259 -0.1390 -0.1348
 3101SOL    HW120936   2.417   2.367  16.730 -1.7744 -0.2666 -1.5873
 3101SOL    HW220937   2.434   2.503  16.693 -2.0193 -2.6902 -3.5410
 3102SOL     OW20938   1.512   1.856   4.843 -0.1926  0.4234  0.0498
 3102SOL    HW120939   1.474   1.932   4.800  2.1244  0.1628 -2.4202
 3102SOL    HW220940   1.598   1.838   4.806  0.8464  1.3224  2.0294
 3103SOL     OW20941   1.257   3.533  11.062  0.0580  0.1222 -0.8651
 3103SOL    HW120942   1.193   3.466  11.035  0.1112 -0.3542  0.1965
 3103SOL    HW220943   1.212   3.606  11.019  0.3944 -0.1774 -1.7267
 3104SOL     OW20944   1.546   3.288   1.733 -0.7049 -0.3291 -0.2702
 3104SOL    HW120945   1.613   3.221   1.743 -1.7851 -1.7129 -2.2944
 3104SOL    HW220946   1.529   3.290   1.827  0.6543 -0.2629 -0.0280
 3105SOL     OW20947   3.960   4.712   8.532 -0.2341 -0.1812  0.1130
 3105SOL    HW120948   3.974   4.714   8.438  0.6515 -1.0115  0.2222
 3105SOL    HW220949   4.030   0.035   8.561 -0.2524  0.6859 -1.5918
 3106SOL     OW20950   0.318   2.446   6.695 -0.1957  0.3595 -0.1795
 3106SOL    HW120951   0.297   2.451   6.602  1.0918  1.3976 -0.4078
 3106SOL    HW220952   0.303   2.536   6.725  0.0263 -0.4334  2.2893
 3107SOL     OW20953   3.399   0.085   2.566 -0.1952  0.6338 -0.3138
 3107SOL    HW120954   3.351   0.167   2.564  0.0661  0.7603 -1.2056
 3107SOL    HW220955   3.471   0.109   2.508  0.6954 -0.2396  0.4226
 3108SOL     OW20956   0.255   2.040   3.348 -0.3248  0.5085 -0.4996
 3108SOL    HW120957   0.194   2.112   3.363 -2.2068 -0.7157 -2.2332
 3108SOL    HW220958   0.338   2.081   3.371 -0.1382 -0.1483 -0.0019
 3109SOL     OW20959   4.536   0.877   9.671 -0.0192  0.2046  0.0501
 3109SOL    HW120960   4.610   0.818   9.655  0.3581 -0.0638  2.7478
 3109SOL    HW220961   4.492   0.873   9.586  0.8914  0.2505 -0.4227
 3110SOL     OW20962   4.273   4.106   4.744  0.0522  0.1000 -0.1859
 3110SOL    HW120963   4.272   4.108   4.648 -1.1331 -1.4560 -0.2183
 3110SOL    HW220964   4.363   4.075   4.759  0.0340  1.4752  2.6642
 3111SOL     OW20965   1.661   0.470   2.617 -0.4814  0.3461 -0.2261
 3111SOL    HW120966   1.729   0.402   2.613 -1.8252 -0.8571 -2.2318
 3111SOL    HW220967   1.582   0.417   2.623  0.9615 -1.7512  0.4006
 3112SOL     OW20968   3.110   2.362   2.620  0.5528  0.2644  0.4218
 3112SOL    HW120969   3.202   2.338   2.608 -0.1757 -0.7724 -3.0914
 3112SOL    HW220970   3.066   2.278   2.618  0.1144  0.5174 -0.6774
 3113SOL     OW20971   4.623   3.255   7.896  0.6903  0.2120  0.0271
 3113SOL    HW120972   4.716   3.268   7.918  1.0330 -0.6921 -0.8961
 3113SOL    HW220973   4.584   3.341   7.876  0.9796 -0.1472 -2.0687
 3114SOL     OW20974   2.661   1.745   5.660 -0.7107 -0.7811 -0.0459
 3114SOL    HW120975   2.744   1.740   5.707  0.8308 -0.8138 -2.7354
 3114SOL    HW220976   2.701   1.793   5.587  0.3440 -4.2623 -1.7564
 3115SOL     OW20977   1.230   3.834   5.527 -0.7773 -0.0909 -0.7121
 3115SOL    HW120978   1.261   3.749   5.557  2.0370  1.2246  0.1177
 3115SOL    HW220979   1.230   3.880   5.611  1.0768 -2.5038  0.5949
 3116SOL     OW20980   1.653   1.643   4.379 -0.6374 -0.0268 -0.3594
 3116SOL    HW120981   1.726   1.688   4.422 -0.6236  0.7383 -1.1651
 3116SOL    HW220982   1.580   1.685   4.425  0.8975  3.0414 -0.7140
 3117SOL     OW20983   4.483   3.104  17.718  0.4459 -0.0752 -0.4884
 3117SOL    HW120984   4.408   3.159   0.003  0.9515 -0.9338  3.1093
 3117SOL    HW220985   4.524   3.182  17.680 -0.2779  0.0004 -1.1082
 3118SOL     OW20986   1.663   1.665   9.228 -0.2986  0.1042 -0.8688
 3118SOL    HW120987   1.695   1.576   9.217 -0.5190  0.0697 -1.2222
 3118SOL    HW220988   1.575   1.650   9.263 -0.2905 -0.1129 -0.9407
 3119SOL     OW20989   0.424   3.760   5.421  0.1831 -0.1495 -0.2030
 3119SOL    HW120990   0.376   3.716   5.492 -0.4988 -1.9443 -1.7822
 3119SOL    HW220991   0.442   3.851   5.444  0.0509 -0.1693 -0.0156
 3120SOL     OW20992   0.766   3.105   4.650  0.5530 -0.4982  0.0660
 3120SOL    HW120993   0.833   3.174   4.651  0.5821 -0.5230 -2.4413
 3120SOL    HW220994   0.735   3.110   4.741 -0.5329  1.2819 -0.4137
 3121SOL     OW20995   1.956   2.600   2.787 -0.0837 -0.1473 -0.2445
 3121SOL    HW120996   1.908   2.680   2.809 -1.4610 -0.5548 -1.7343
 3121SOL    HW220997   1.908   2.575   2.708  0.1541  2.7680 -1.3324
 3122SOL     OW20998   3.263   4.393  14.699  0.0576 -0.1614 -0.3999
 3122SOL    HW120999   3.206   4.460  14.737  0.4807 -0.3571  0.5790
 3122SOL    HW221000   3.284   4.442  14.619  1.4278 -1.1326 -0.6485
 3123SOL     OW21001   3.980   2.148   9.085 -0.3032 -0.4346 -0.2447
 3123SOL    HW121002   4.034   2.086   9.133  2.3079  0.3138 -2.2260
 3123SOL    HW221003   3.986   2.218   9.150 -0.8674 -1.6119  1.0582
 3124SOL     OW21004   3.358   4.628  11.382 -0.4686  0.7548 -0.6791
 3124SOL    HW121005   3.449   4.613  11.356 -0.6734 -0.1925 -0.8389
 3124SOL    HW221006   3.326   4.539  11.365  1.3235 -0.1828  0.7952
 3125SOL     OW21007   0.191   1.773   9.164  0.9835 -0.0113 -0.5618
 3125SOL    HW121008   0.182   1.866   9.181  1.0985 -0.4492  1.8575
 3125SOL    HW221009   0.194   1.743   9.254  0.4634 -0.0497 -0.5570
 3126SOL     OW21010   4.159   0.814   1.990  0.4079  0.4437  0.2684
 3126SOL    HW121011   4.190   0.724   1.996  0.2352  0.4563  1.4727
 3126SOL    HW221012   4.230   0.856   1.942 -0.4362  3.5104  1.6920
 3127SOL     OW21013   3.420   3.421   2.915  0.1121  0.4039  0.5840
 3127SOL    HW121014   3.425   3.328   2.893  2.2306  0.7890 -0.5649
 3127SOL    HW221015   3.511   3.440   2.892  0.4211  1.2785  2.4949
 3128SOL     OW21016   0.232   1.437   4.361  0.1718 -0.0831  0.2468
 3128SOL    HW121017   0.202   1.376   4.294  1.4186 -0.3047 -0.1091
 3128SOL    HW221018   0.295   1.488   4.310  1.1507 -1.0149  0.5109
 3129SOL     OW21019   2.046   3.729   4.298 -0.5287  0.6516  0.2664
 3129SOL    HW121020   2.033   3.817   4.264  0.2525  1.3263  1.7510
 3129SOL    HW221021   2.060   3.685   4.214  0.6010 -0.1603  0.8821
 3130SOL     OW21022   2.796   3.154   6.324  0.1437 -0.6694 -0.1803
 3130SOL    HW121023   2.779   3.077   6.378 -0.4946 -0.6367 -0.3400
 3130SOL    HW221024   2.782   3.221   6.391  0.1287 -1.2452  0.3879
 3131SOL     OW21025   2.968   1.659   2.258 -0.0684  0.9036  0.0998
 3131SOL    HW121026   2.953   1.753   2.252  0.7717  1.0327  0.0096
 3131SOL    HW221027   2.880   1.624   2.245 -0.2575  1.8930 -1.3495
 3132SOL     OW21028   2.712   0.860   6.138 -0.3067  0.2905  0.0974
 3132SOL    HW121029   2.765   0.813   6.202 -0.5474 -0.2184 -0.0838
 3132SOL    HW221030   2.788   0.895   6.091  0.7425 -1.8874  0.1885
 3133SOL     OW21031   3.949   0.460  15.654  0.0467 -0.6267 -0.1521
 3133SOL    HW121032   3.884   0.502  15.598  2.4839  1.5859 -1.2760
 3133SOL    HW221033   3.965   0.531  15.716  0.4424 -1.3790  0.6166
 3134SOL     OW21034   3.678   1.841   0.917 -0.2446 -1.2743 -0.1966
 3134SOL    HW121035   3.772   1.846   0.901 -0.0902  2.1673  1.8289
 3134SOL    HW221036   3.664   1.913   0.978 -3.3939 -1.3148 -0.8656
 3135SOL     OW21037   3.691   3.892   2.554 -0.2238  0.1903  0.0642
 3135SOL    HW121038   3.772   3.933   2.584 -0.6917  0.1967  1.2872
 3135SOL    HW221039   3.675   3.835   2.629  2.4501  1.3673  1.5124
 3136SOL     OW21040   0.134   1.705  10.072  0.3856  0.0303 -1.0696
 3136SOL    HW121041   0.139   1.770  10.142  0.1407 -0.1535 -0.8806
 3136SOL    HW221042   0.048   1.664  10.083  0.2121  1.5163  3.2748
 3137SOL     OW21043   3.508   4.118   7.333 -0.1891 -0.6655 -0.5834
 3137SOL    HW121044   3.602   4.130   7.319 -0.3867  2.7796  1.1139
 3137SOL    HW221045   3.488   4.031   7.299 -1.7527 -0.2946 -0.6126
 3138SOL     OW21046   1.795   1.343   1.421 -0.2248  0.8456 -0.2963
 3138SOL    HW121047   1.720   1.293   1.454  0.2070  1.3237  1.4182
 3138SOL    HW221048   1.778   1.366   1.330  1.1893  0.0772 -0.7665
 3139SOL     OW21049   1.144   0.986  16.539  0.1470  0.5490  0.0742
 3139SOL    HW121050   1.108   0.990  16.627 -0.3814 -0.3260 -0.1002
 3139SOL    HW221051   1.063   0.991  16.488  0.7423  0.6287 -0.8758
 3140SOL     OW21052   0.479   0.468   6.274  0.0470 -0.9060 -0.0323
 3140SOL    HW121053   0.430   0.408   6.219 -0.6813 -0.4824  0.1507
 3140SOL    HW221054   0.419   0.478   6.348  0.4728  2.7734 -0.1894
 3141SOL     OW21055   0.312   3.331   2.005 -0.0428 -0.0465  0.3507
 3141SOL    HW121056   0.358   3.282   2.074 -0.3322 -0.7118  0.0729
 3141SOL    HW221057   0.343   3.289   1.924  0.6697 -0.3348  0.7706
 3142SOL     OW21058   3.531   0.902   6.908  0.2277  0.0438  0.4541
 3142SOL    HW121059   3.493   0.970   6.852  2.5181 -0.6464 -1.9126
 3142SOL    HW221060   3.551   0.967   6.976  1.2967  0.8781 -0.6777
 3143SOL     OW21061   2.726   4.264   2.593 -0.1166  0.4211 -0.4505
 3143SOL    HW121062   2.755   4.250   2.503  0.6150  3.1554 -0.6294
 3143SOL    HW221063   2.682   4.348   2.581 -1.3506 -0.4405 -2.1227
 3144SOL     OW21064   0.627   0.807   7.130  0.4201  0.1924 -0.5543
 3144SOL    HW121065   0.652   0.717   7.108 -1.1142 -0.5391  0.7540
 3144SOL    HW221066   0.700   0.835   7.185  0.6143 -1.4987  0.0571
 3145SOL     OW21067   3.370   4.156  14.481  0.0459 -0.1543  0.0577
 3145SOL    HW121068   3.399   4.195  14.398  1.3235 -0.5738  0.3046
 3145SOL    HW221069   3.403   4.224  14.540 -1.1510  1.4070 -1.0595
 3146SOL     OW21070   1.077   1.280  16.781 -0.2356 -0.4398  0.2784
 3146SOL    HW121071   0.986   1.280  16.812  0.3928  4.0339  2.0199
 3146SOL    HW221072   1.132   1.299  16.856  1.0096 -2.8665  0.0081
 3147SOL     OW21073   0.816   3.537   6.025  0.2372  0.1853 -0.2788
 3147SOL    HW121074   0.802   3.497   6.110 -1.5663  0.5895 -0.3943
 3147SOL    HW221075   0.819   3.630   6.048 -0.9444  0.1858 -0.1317
 3148SOL     OW21076   3.014   4.115   6.703 -0.2492  0.0235  0.4586
 3148SOL    HW121077   2.958   4.039   6.691  1.8170 -1.6339  1.2983
 3148SOL    HW221078   2.965   4.195   6.684 -0.7112 -0.0025  1.5175
 3149SOL     OW21079   2.847   1.159   7.220  0.1984  0.2761 -0.0690
 3149SOL    HW121080   2.877   1.217   7.150  0.4679  1.1894  0.8091
 3149SOL    HW221081   2.845   1.218   7.295  2.4403  0.9648 -0.5305
 3150SOL     OW21082   0.607   2.514   9.871 -0.2240  0.5135 -0.0408
 3150SOL    HW121083   0.681   2.540   9.925 -0.9474 -1.5224  1.9075
 3150SOL    HW221084   0.562   2.455   9.931 -0.8856  2.2048  1.1124
 3151SOL     OW21085   3.687   2.956   6.599  0.1115 -0.4986 -0.5993
 3151SOL    HW121086   3.713   3.037   6.554 -1.4267  0.3261  0.0033
 3151SOL    HW221087   3.636   2.915   6.529  0.5471 -2.5093  0.2615
 3152SOL     OW21088   2.595   0.666  16.283 -0.3663 -0.1133 -0.6703
 3152SOL    HW121089   2.604   0.668  16.187 -0.7386  1.4297 -0.6775
 3152SOL    HW221090   2.502   0.688  16.285 -0.7506 -1.7741 -0.3454
 3153SOL     OW21091   2.799   0.582   4.771 -0.3188  0.7766  0.8092
 3153SOL    HW121092   2.880   0.599   4.819  0.1445  2.1512 -0.4473
 3153SOL    HW221093   2.757   0.668   4.762 -0.1950  0.9482  1.8276
 3154SOL     OW21094   3.324   0.253   8.565 -0.2986  0.1454  0.5952
 3154SOL    HW121095   3.300   0.284   8.652 -0.9841 -2.7857  1.4524
 3154SOL    HW221096   3.410   0.214   8.577  0.1062  0.7156 -0.5012
 3155SOL     OW21097   3.770   0.939   4.572 -0.2747  0.2744  0.3782
 3155SOL    HW121098   3.707   0.882   4.616 -0.1263 -2.6465 -3.1642
 3155SOL    HW221099   3.826   0.883   4.518 -1.0139 -0.9480  0.8875
 3156SOL     OW21100   2.644   1.163  16.746 -0.0331  0.4189  0.2412
 3156SOL    HW121101   2.661   1.231  16.812  2.7173 -0.6648  0.6160
 3156SOL    HW221102   2.696   1.088  16.773  0.8849 -0.5217 -4.2412
 3157SOL     OW21103   1.432   3.766   8.847  0.2436 -0.2701  0.1165
 3157SOL    HW121104   1.399   3.696   8.790 -1.0412  0.3211  0.1283
 3157SOL    HW221105   1.467   3.832   8.786  0.3559  0.7007  1.2402
 3158SOL     OW21106   1.631   0.763  12.291 -0.2026 -0.0838  0.4022
 3158SOL    HW121107   1.589   0.848  12.277  0.3214 -0.1929 -1.8446
 3158SOL    HW221108   1.614   0.722  12.206 -0.2312  0.1488  0.2969
 3159SOL     OW21109   3.876   0.485   5.952  0.3664 -0.3528 -0.4594
 3159SOL    HW121110   3.833   0.432   6.019  0.5372 -1.4952 -1.2598
 3159SOL    HW221111   3.798   0.541   5.949  0.8289  0.2525 -1.1652
 3160SOL     OW21112   1.794   1.802   9.709  0.2184  0.4724  0.5882
 3160SOL    HW121113   1.772   1.834   9.622 -0.2658  1.6837  1.1529
 3160SOL    HW221114   1.804   1.708   9.698  1.7736  0.5187  1.6081
 3161SOL     OW21115   0.134   2.630   2.791  0.8381 -0.7332 -0.2840
 3161SOL    HW121116   0.189   2.629   2.713 -0.4540  1.1624 -1.2075
 3161SOL    HW221117   0.180   2.683   2.856 -0.7671  0.3481 -0.0268
 3162SOL     OW21118   0.599   3.539   1.418 -0.1267  0.0262  0.2400
 3162SOL    HW121119   0.610   3.555   1.325 -2.3776 -2.6839 -0.4697
 3162SOL    HW221120   0.587   3.630   1.445 -0.4372 -0.0464  0.3495
 3163SOL     OW21121   3.089   3.808   2.772  0.8372 -0.2074 -0.2857
 3163SOL    HW121122   3.168   3.861   2.763  1.8645 -1.7162 -0.1690
 3163SOL    HW221123   3.109   3.730   2.824  0.8124 -0.0012  0.0348
 3164SOL     OW21124   3.025   0.182   4.871 -0.3660 -0.2387 -0.4790
 3164SOL    HW121125   3.114   0.205   4.845 -0.3122  0.6283  0.4775
 3164SOL    HW221126   2.966   0.252   4.843 -1.7794 -0.4737  1.8880
 3165SOL     OW21127   3.753   2.804   5.777  0.1940  0.0607 -0.1695
 3165SOL    HW121128   3.694   2.777   5.847 -0.3359 -0.5009 -0.8325
 3165SOL    HW221129   3.749   2.899   5.784 -0.6675  0.2358 -2.8469
 3166SOL     OW21130   1.559   0.160   5.653  0.2179 -0.1414 -0.1152
 3166SOL    HW121131   1.470   0.193   5.663  1.3717  2.9193  0.0532
 3166SOL    HW221132   1.592   0.222   5.588  2.0984  0.4027  1.3706
 3167SOL     OW21133   0.259   0.642  14.802  0.3697 -0.7512  0.6165
 3167SOL    HW121134   0.168   0.663  14.821  0.3584  1.0714 -1.4124
 3167SOL    HW221135   0.255   0.557  14.758 -0.1582 -0.5614  0.2911
 3168SOL     OW21136   0.030   1.047  15.785 -0.3022 -0.2272 -0.1230
 3168SOL    HW121137   0.097   1.096  15.737  0.8001 -3.2478 -1.6790
 3168SOL    HW221138   0.064   1.046  15.875  0.6662  0.2597 -0.4855
 3169SOL     OW21139   3.080   3.305  12.736  0.2713 -0.4771  0.0567
 3169SOL    HW121140   3.163   3.353  12.737  0.8784 -1.5305  0.1270
 3169SOL    HW221141   3.070   3.286  12.643  0.5921  1.7230 -0.4244
 3170SOL     OW21142   0.979   3.844   8.201 -0.2599  0.6283 -0.5184
 3170SOL    HW121143   0.891   3.858   8.236  0.0713 -0.7953  0.8598
 3170SOL    HW221144   0.973   3.748   8.201  0.7921  0.5756  1.8613
 3171SOL     OW21145   1.964   1.558   4.854  0.1719  0.0674 -0.2019
 3171SOL    HW121146   1.966   1.641   4.805 -1.0752  1.1063  1.4915
 3171SOL    HW221147   1.934   1.498   4.786  3.2907  1.8543 -3.1089
 3172SOL     OW21148   0.573   0.775   4.503  0.0567 -0.6827 -1.0779
 3172SOL    HW121149   0.643   0.828   4.540  0.4074  0.8582 -3.9554
 3172SOL    HW221150   0.579   0.813   4.415 -1.0260 -0.0807 -0.9024
 3173SOL     OW21151   2.005   4.122   6.967  0.0654  0.1197  0.0882
 3173SOL    HW121152   1.956   4.108   7.047  1.2839 -0.8527  0.6640
 3173SOL    HW221153   1.948   4.189   6.930 -0.2595 -0.4451 -0.4359
 3174SOL     OW21154   2.755   2.275   3.058 -0.2651  1.0516 -0.0538
 3174SOL    HW121155   2.771   2.365   3.029  0.4346  0.6894 -0.7915
 3174SOL    HW221156   2.841   2.235   3.047 -0.1907  0.8866  1.0963
 3175SOL     OW21157   1.945   2.033   7.531 -0.2964 -0.0024 -0.0009
 3175SOL    HW121158   2.020   1.999   7.579  0.2810  0.8880 -0.2707
 3175SOL    HW221159   1.996   2.080   7.465  1.2930 -0.1148  1.1492
 3176SOL     OW21160   4.599   4.374   7.587 -0.1302  0.0318  0.0311
 3176SOL    HW121161   4.606   4.399   7.495 -0.6759  1.3958  0.3617
 3176SOL    HW221162   4.533   4.441   7.607 -1.7932 -1.6843  0.3607
 3177SOL     OW21163   0.375   3.444   5.557 -0.1176  0.2583  0.3886
 3177SOL    HW121164   0.349   3.536   5.564  0.1776  0.2756  1.1982
 3177SOL    HW221165   0.469   3.442   5.571  0.0204  0.7393 -0.4179
 3178SOL     OW21166   3.937   2.442  14.842  0.5188 -0.6310 -0.1592
 3178SOL    HW121167   3.905   2.370  14.788 -0.5442  0.0455 -0.4501
 3178SOL    HW221168   3.966   2.407  14.926  0.8387 -2.1454 -0.9079
 3179SOL     OW21169   2.374   3.340   8.329 -0.2761 -0.2728  0.4678
 3179SOL    HW121170   2.432   3.269   8.357 -1.2271 -0.7109  1.3046
 3179SOL    HW221171   2.431   3.415   8.313 -1.2233  0.7112  1.6879
 3180SOL     OW21172   1.501   2.540  17.614 -0.2141 -0.5483 -0.7194
 3180SOL    HW121173   1.531   2.587  17.692  0.7064 -0.0192 -1.3877
 3180SOL    HW221174   1.410   2.568  17.613 -0.7355 -2.2059  0.2108
 3181SOL     OW21175   0.020   3.697   4.633 -0.1343 -0.5973 -0.5033
 3181SOL    HW121176   0.023   3.720   4.725  0.6908 -0.3163 -0.5978
 3181SOL    HW221177   4.685   3.631   4.628  0.0390 -0.5590 -3.3666
 3182SOL     OW21178   0.376   2.758   3.539 -0.7034 -0.1112  0.4927
 3182SOL    HW121179   0.347   2.836   3.587  0.0019 -0.2017  1.0799
 3182SOL    HW221180   0.367   2.690   3.605  2.0813 -0.5832  0.3916
 3183SOL     OW21181   4.579   3.487   4.554 -0.0784  0.7167 -0.0546
 3183SOL    HW121182   4.618   3.399   4.552  0.0246  0.7342  1.0997
 3183SOL    HW221183   4.543   3.504   4.467  2.7772 -1.3304 -1.6321
 3184SOL     OW21184   0.638   3.216  13.438  0.2364 -0.0492  0.3234
 3184SOL    HW121185   0.681   3.267  13.369  0.7893  1.2631  1.6603
 3184SOL    HW221186   0.582   3.169  13.376  1.3278  1.0935 -1.5139
 3185SOL     OW21187   3.287   4.503   2.816 -0.1800 -0.1661 -0.6058
 3185SOL    HW121188   3.239   4.427   2.849 -1.4258  0.4883 -0.9307
 3185SOL    HW221189   3.316   4.544   2.898  2.3066 -2.7814 -0.1899
 3186SOL     OW21190   3.383   2.023   9.051 -0.0419 -0.6677  0.3888
 3186SOL    HW121191   3.406   2.114   9.072 -0.3088 -0.8429  1.3882
 3186SOL    HW221192   3.402   2.034   8.957  3.1116 -0.5297  1.0239
 3187SOL     OW21193   0.074   0.949   4.704 -0.0978  0.1570  0.6901
 3187SOL    HW121194   4.725   0.954   4.750  0.4187  0.2870  1.6304
 3187SOL    HW221195   0.067   1.042   4.680 -0.7286  0.3605  1.6482
 3188SOL     OW21196   2.095   1.239   0.091  0.1734  0.1392 -0.1551
 3188SOL    HW121197   2.059   1.290   0.019 -0.4753 -0.0392  0.0465
 3188SOL    HW221198   2.021   1.249   0.150  1.6947 -0.4641  1.8614
 3189SOL     OW21199   1.481   2.885   2.189 -0.3563 -0.5479 -0.2746
 3189SOL    HW121200   1.427   2.914   2.115 -1.2547  0.4689  0.7642
 3189SOL    HW221201   1.459   2.792   2.194  0.4930 -0.7513 -0.4292
 3190SOL     OW21202   4.224   0.882  16.853 -0.3116  0.3759  0.4100
 3190SOL    HW121203   4.144   0.847  16.812 -0.3791  0.0688  0.7970
 3190SOL    HW221204   4.291   0.841  16.799  0.7015  0.3131  1.7084
 3191SOL     OW21205   1.665   2.628  11.867 -0.6585 -0.1307 -0.5436
 3191SOL    HW121206   1.594   2.572  11.900 -0.5472  0.3587  0.5246
 3191SOL    HW221207   1.611   2.696  11.826 -1.6684 -0.3302  0.4299
 3192SOL     OW21208   2.670   0.223   6.748 -0.2972 -0.6581 -0.2043
 3192SOL    HW121209   2.672   0.237   6.653  1.4605  3.0189  0.3847
 3192SOL    HW221210   2.581   0.245   6.778  1.2911  2.0843  2.4085
 3193SOL     OW21211   2.715   0.642  15.720  0.2761 -0.2585 -0.0900
 3193SOL    HW121212   2.726   0.693  15.640  0.2835 -0.5871 -0.2961
 3193SOL    HW221213   2.761   0.562  15.694  3.7890  1.7103  0.1471
 3194SOL     OW21214   4.508   3.994   8.988 -1.1931  0.3954 -0.2418
 3194SOL    HW121215   4.448   3.954   9.050  0.0918 -1.4293 -0.1643
 3194SOL    HW221216   4.593   3.986   9.031 -0.4591  0.7314 -1.6097
 3195SOL     OW21217   2.064   2.270  14.648 -0.4234 -0.5375 -0.0672
 3195SOL    HW121218   1.973   2.250  14.625 -0.3819 -0.6875 -0.0980
 3195SOL    HW221219   2.084   2.203  14.713 -0.1875 -0.8481 -0.4649
 3196SOL     OW21220   3.602   3.712   6.200  0.0493 -0.6580 -0.5323
 3196SOL    HW121221   3.564   3.796   6.175  0.6961 -0.7876 -1.9415
 3196SOL    HW221222   3.691   3.726   6.168 -0.0391  1.0796 -0.0601
 3197SOL     OW21223   3.029   3.077   2.090 -0.0706  0.3441  0.5431
 3197SOL    HW121224   3.062   3.150   2.037 -0.7216 -0.5742 -1.1318
 3197SOL    HW221225   2.964   3.040   2.031  1.5474  1.4316 -1.9132
 3198SOL     OW21226   1.911   0.450   5.734 -0.2036 -0.3156 -0.1473
 3198SOL    HW121227   1.971   0.525   5.733  0.7966 -1.1416 -1.0060
 3198SOL    HW221228   1.834   0.497   5.766  0.6274  0.7284  0.3358
 3199SOL     OW21229   1.449   3.025   6.598  0.1155  0.2019  0.5811
 3199SOL    HW121230   1.365   3.070   6.589 -0.2508 -0.5367  0.3129
 3199SOL    HW221231   1.406   2.944   6.623 -2.8555  1.5079 -0.2575
 3200SOL     OW21232   2.984   4.180  17.139  0.2293  0.3573  0.0907
 3200SOL    HW121233   3.040   4.202  17.214  1.1243  0.0345 -0.4885
 3200SOL    HW221234   2.904   4.160  17.188  0.2670 -1.7409 -0.7252
 3201SOL     OW21235   0.940   3.102  11.321  0.3786 -0.3428 -0.2436
 3201SOL    HW121236   0.953   3.188  11.279 -1.3125  0.7510  1.4946
 3201SOL    HW221237   0.942   3.125  11.414 -1.0576  0.7387 -0.4866
 3202SOL     OW21238   2.757   4.287   5.762  0.0984 -0.4791  0.3907
 3202SOL    HW121239   2.686   4.345   5.734 -0.3820 -1.1969  0.1178
 3202SOL    HW221240   2.790   4.264   5.675 -1.0900 -1.6641  0.2514
 3203SOL     OW21241   0.403   4.061  16.541  0.9867  0.5191 -0.2388
 3203SOL    HW121242   0.486   4.034  16.581  0.2201  0.4155  1.3000
 3203SOL    HW221243   0.404   4.007  16.462  2.1625  1.2216 -0.7057
 3204SOL     OW21244   4.603   3.792   5.904 -0.0260  0.0822 -0.7657
 3204SOL    HW121245   4.609   3.887   5.897 -0.9258  0.2737  1.0858
 3204SOL    HW221246   4.552   3.785   5.984  0.1431 -1.8445 -0.8082
 3205SOL     OW21247   2.146   3.528   5.897  0.2917 -0.2143 -0.1490
 3205SOL    HW121248   2.054   3.503   5.891 -0.5520  2.3000  2.2893
 3205SOL    HW221249   2.161   3.539   5.991 -0.0684 -0.8168 -0.0254
 3206SOL     OW21250   1.113   2.380   6.589 -0.4307  0.1537  0.0217
 3206SOL    HW121251   1.018   2.382   6.580 -0.4479  1.8721  0.5658
 3206SOL    HW221252   1.129   2.339   6.504 -1.1979 -2.2897  1.0591
 3207SOL     OW21253   3.658   3.495  13.043 -0.1599  0.1875 -0.1058
 3207SOL    HW121254   3.618   3.571  13.086  0.1565 -1.5574  3.2278
 3207SOL    HW221255   3.721   3.534  12.981 -1.0966  0.8806 -0.6142
 3208SOL     OW21256   3.507   0.169  13.826 -0.3668 -0.2238 -0.6490
 3208SOL    HW121257   3.515   0.208  13.913  1.1223 -4.4090  1.1251
 3208SOL    HW221258   3.463   0.235  13.774 -0.2818  1.9220  1.9976
 3209SOL     OW21259   1.632   2.025  14.716  0.4557  0.1236 -0.0575
 3209SOL    HW121260   1.716   2.068  14.730  0.4162  0.7403 -1.8203
 3209SOL    HW221261   1.565   2.088  14.690  1.2112  1.1814  0.6022
 3210SOL     OW21262   0.070   0.986   2.004  0.3653 -0.3361  0.1660
 3210SOL    HW121263   4.713   0.967   2.024  0.2735  0.6066  0.6197
 3210SOL    HW221264   0.103   0.936   2.079  2.0179  2.6641  1.4221
 3211SOL     OW21265   1.253   3.418   8.190 -0.2641  0.0130  0.0706
 3211SOL    HW121266   1.279   3.354   8.256  1.7371  0.8528  0.1089
 3211SOL    HW221267   1.324   3.401   8.129 -0.3029  0.2462 -0.0401
 3212SOL     OW21268   2.171   2.474   7.645 -0.0957  0.3372 -0.2070
 3212SOL    HW121269   2.095   2.521   7.680  1.1244  2.5869 -0.5483
 3212SOL    HW221270   2.237   2.538   7.616 -0.3509 -0.0053 -1.5088
 3213SOL     OW21271   1.864   2.216   3.598 -0.1590  0.1297  0.3067
 3213SOL    HW121272   1.787   2.230   3.543 -1.8410  0.6073  2.7577
 3213SOL    HW221273   1.916   2.168   3.534 -0.4942 -0.3070  0.3630
 3214SOL     OW21274   3.435   2.090   4.404  0.5825 -0.0414 -0.1184
 3214SOL    HW121275   3.475   2.040   4.333  0.9771  1.4464 -0.9589
 3214SOL    HW221276   3.348   2.052   4.413  0.7201  0.1991  2.0592
 3215SOL     OW21277   2.177   2.697   4.061  0.1884 -0.3033 -0.2157
 3215SOL    HW121278   2.157   2.649   4.141  1.6653 -1.0122 -0.2757
 3215SOL    HW221279   2.091   2.684   4.021  0.5049  1.7679 -1.5859
 3216SOL     OW21280   4.336   0.763  16.324 -0.6087 -0.3301  0.1992
 3216SOL    HW121281   4.371   0.700  16.262  0.6382  0.3401  0.2108
 3216SOL    HW221282   4.247   0.728  16.329 -0.5881 -0.8029 -2.5571
 3217SOL     OW21283   4.346   4.518   2.016 -0.1180 -0.1257  0.2441
 3217SOL    HW121284   4.391   4.448   2.062 -2.3981 -1.9143 -0.2647
 3217SOL    HW221285   4.307   4.478   1.938  2.6211  0.5882 -1.5092
 3218SOL     OW21286   2.090   1.403  12.060  0.6853  0.0392 -0.1909
 3218SOL    HW121287   2.070   1.432  12.149  0.8764 -0.5504  0.0499
 3218SOL    HW221288   2.055   1.480  12.017 -1.9449 -0.5991  0.7892
 3219SOL     OW21289   3.428   2.031  11.390  0.4532 -0.5483  0.2624
 3219SOL    HW121290   3.459   2.069  11.308 -0.0824 -2.4155 -0.7972
 3219SOL    HW221291   3.352   1.981  11.363  0.3803  1.1395 -2.5961
 3220SOL     OW21292   3.359   2.238   6.832 -0.2792  0.3030 -0.0324
 3220SOL    HW121293   3.414   2.229   6.911  0.9418  0.5949 -0.8491
 3220SOL    HW221294   3.273   2.232   6.874 -0.9680  1.1227 -1.3391
 3221SOL     OW21295   3.289   1.070   8.082  0.1084 -0.2909  0.4406
 3221SOL    HW121296   3.219   1.101   8.139 -0.9156 -1.6969 -0.0417
 3221SOL    HW221297   3.249   1.086   7.997  4.2484  0.5152 -1.3611
 3222SOL     OW21298   1.919   0.687   5.382  0.8269 -0.4401  0.0522
 3222SOL    HW121299   1.878   0.604   5.358  0.2219 -0.3848  0.9177
 3222SOL    HW221300   1.902   0.695   5.475 -0.3097  1.1470 -0.2886
 3223SOL     OW21301   4.063   4.492   0.207  0.1469  0.1898 -0.4771
 3223SOL    HW121302   4.060   4.555   0.135 -0.8330 -1.9662 -2.3411
 3223SOL    HW221303   4.104   4.544   0.275 -1.5595  0.0886  0.6285
 3224SOL     OW21304   1.404   1.191  13.436  0.0537  0.2264 -0.3842
 3224SOL    HW121305   1.433   1.275  13.398  0.3085  0.5150  0.4451
 3224SOL    HW221306   1.312   1.198  13.414  0.1195 -0.4802 -0.8624
 3225SOL     OW21307   2.440   4.589   8.576 -0.2693 -0.5673  0.0380
 3225SOL    HW121308   2.377   4.578   8.648  0.5682 -0.8416  0.7364
 3225SOL    HW221309   2.382   4.632   8.513  2.2927  0.3975 -1.6142
 3226SOL     OW21310   3.942   3.923   4.452 -0.1577  0.0637 -0.4856
 3226SOL    HW121311   4.024   3.885   4.420  0.3797  1.0220 -0.2437
 3226SOL    HW221312   3.962   3.956   4.539 -1.7117  0.0176 -0.0952
 3227SOL     OW21313   3.477   3.375   4.253 -0.5855  0.4231  0.2736
 3227SOL    HW121314   3.558   3.327   4.270 -1.7922 -1.3161  1.0411
 3227SOL    HW221315   3.412   3.307   4.268  0.4910 -0.2072  1.9809
 3228SOL     OW21316   1.490   1.946   0.681  0.0752 -0.6901  0.0017
 3228SOL    HW121317   1.458   1.856   0.681  1.3909 -1.1445  1.2053
 3228SOL    HW221318   1.507   1.961   0.774  1.3662 -1.7663 -0.0644
 3229SOL     OW21319   4.405   4.092   7.731 -0.1955  0.3492  0.1542
 3229SOL    HW121320   4.335   4.108   7.793 -0.9204 -1.5385 -0.1715
 3229SOL    HW221321   4.431   4.006   7.766 -0.4346 -0.0399 -0.6245
 3230SOL     OW21322   4.258   0.179   2.387 -0.0066 -0.3738 -0.2156
 3230SOL    HW121323   4.167   0.156   2.372 -0.1531 -0.0442  0.1746
 3230SOL    HW221324   4.267   0.222   2.302 -0.6428 -0.6035 -0.4003
 3231SOL     OW21325   3.275   3.943   4.104  0.0205  0.6097  0.1075
 3231SOL    HW121326   3.219   3.866   4.105  0.6786  0.1176 -0.5722
 3231SOL    HW221327   3.292   3.938   4.198  2.4957 -1.0776 -0.4080
 3232SOL     OW21328   0.516   2.924   3.818 -0.1702  0.0494  0.2694
 3232SOL    HW121329   0.496   2.914   3.911  0.1842  1.7351  0.5337
 3232SOL    HW221330   0.549   2.835   3.804 -0.2609  0.5434 -3.1751
 3233SOL     OW21331   4.682   2.290   2.609  0.2839  0.9053 -0.1705
 3233SOL    HW121332   0.042   2.280   2.598  0.4537 -1.3619  3.5706
 3233SOL    HW221333   4.666   2.303   2.515  1.7807  1.3480 -0.3760
 3234SOL     OW21334   4.118   0.549   4.962 -0.3087  0.0108  0.1985
 3234SOL    HW121335   4.112   0.533   4.868 -2.4024  1.4597  0.0954
 3234SOL    HW221336   4.027   0.566   4.984 -0.0348 -0.7846  1.9473
 3235SOL     OW21337   1.596   3.859  14.271 -0.0872  0.4422 -0.0087
 3235SOL    HW121338   1.617   3.771  14.241 -1.2401 -0.2787  1.2766
 3235SOL    HW221339   1.684   3.891  14.288  1.2448 -3.1855 -0.0158
 3236SOL     OW21340   1.988   4.530   2.320 -0.7401  0.0637 -0.2480
 3236SOL    HW121341   1.989   4.610   2.267  2.7412  0.0461 -0.2197
 3236SOL    HW221342   1.896   4.506   2.315 -0.7960  0.1568  0.3265
 3237SOL     OW21343   3.115   1.800   6.942 -0.6740  0.4082  0.4573
 3237SOL    HW121344   3.190   1.758   6.985  0.0723  0.0498 -1.1696
 3237SOL    HW221345   3.123   1.889   6.977 -1.6489  0.0052  1.7096
 3238SOL     OW21346   0.606   3.284  15.587 -0.2744 -0.0066 -0.4364
 3238SOL    HW121347   0.605   3.206  15.642  0.5520  0.1087 -0.2668
 3238SOL    HW221348   0.607   3.246  15.499  2.7119  1.8859 -1.2324
 3239SOL     OW21349   3.026   2.067  11.579 -0.0605  0.2829 -0.6062
 3239SOL    HW121350   2.947   2.121  11.581 -0.8115 -0.8266 -0.2863
 3239SOL    HW221351   2.987   1.981  11.594  1.2482 -0.1481  0.2751
 3240SOL     OW21352   1.815   3.649   2.496  0.2229 -0.0539  0.3206
 3240SOL    HW121353   1.774   3.657   2.583 -0.6080 -1.7995  0.0875
 3240SOL    HW221354   1.891   3.593   2.508  0.5900  0.4683  0.4214
 3241SOL     OW21355   3.317   4.326   0.630 -0.0489 -0.4285  0.0110
 3241SOL    HW121356   3.291   4.298   0.542  1.7388 -1.9232 -0.0417
 3241SOL    HW221357   3.289   4.416   0.616 -0.6226 -0.8003 -1.2982
 3242SOL     OW21358   3.993   4.319   6.131  0.1768  0.1197  0.5385
 3242SOL    HW121359   4.085   4.342   6.144  0.5935 -1.2213  0.0345
 3242SOL    HW221360   3.961   4.408   6.121  1.3521  0.6018  1.0691
 3243SOL     OW21361   2.657   3.753   2.125  0.1937 -0.3688  0.3800
 3243SOL    HW121362   2.595   3.777   2.056  0.1286 -1.9464 -0.1096
 3243SOL    HW221363   2.626   3.669   2.159 -0.9222 -1.0204 -2.2182
 3244SOL     OW21364   2.711   0.426  16.408  0.3106  0.4294 -0.1540
 3244SOL    HW121365   2.703   0.506  16.460  0.5280  1.1573 -1.2302
 3244SOL    HW221366   2.620   0.404  16.389 -0.3165  0.2715  2.9424
 3245SOL     OW21367   1.002   3.887   2.463  0.8598 -0.2717 -0.2714
 3245SOL    HW121368   1.037   3.960   2.413  0.4008  0.1901  0.0885
 3245SOL    HW221369   0.969   3.841   2.386 -0.2148 -1.8912  1.1447
 3246SOL     OW21370   1.338   3.562   1.237  0.6235 -0.2123 -0.0074
 3246SOL    HW121371   1.340   3.467   1.249  1.3281 -0.6064 -3.4021
 3246SOL    HW221372   1.428   3.574   1.206  0.5698 -1.4334 -0.6140
 3247SOL     OW21373   3.277   2.961   7.557 -0.4433  0.1140  0.3311
 3247SOL    HW121374   3.186   2.933   7.541 -0.2684 -0.6579  0.6941
 3247SOL    HW221375   3.291   3.039   7.505  0.3008 -0.5739 -0.4984
 3248SOL     OW21376   4.001   3.126   8.054  0.0002  0.0183 -0.1480
 3248SOL    HW121377   4.069   3.191   8.074  0.8756 -0.5589 -1.2719
 3248SOL    HW221378   3.963   3.167   7.976  2.1183  1.2607 -0.5203
 3249SOL     OW21379   2.485   4.061   0.877 -0.0220  0.0092  0.2324
 3249SOL    HW121380   2.407   4.064   0.933 -0.0317  1.5224  0.1422
 3249SOL    HW221381   2.486   3.966   0.868  1.1313  0.0872 -0.5302
 3250SOL     OW21382   3.086   4.305   7.509 -0.2202 -0.7154 -0.0274
 3250SOL    HW121383   3.034   4.332   7.433  1.2730  1.1178 -0.4095
 3250SOL    HW221384   3.142   4.383   7.509 -0.5763 -0.4641 -2.8982
 3251SOL     OW21385   0.957   3.901   1.965 -0.1964  0.2681 -0.0328
 3251SOL    HW121386   0.871   3.927   2.000 -0.8509  0.8051 -1.9989
 3251SOL    HW221387   0.929   3.881   1.876 -0.4358 -3.4526  0.8793
 3252SOL     OW21388   1.339   3.937   3.641 -0.3092 -0.2676  0.2244
 3252SOL    HW121389   1.313   3.996   3.712 -0.8368  0.1848 -0.3450
 3252SOL    HW221390   1.398   3.883   3.694 -1.0087 -1.9920 -0.7669
 3253SOL     OW21391   1.587   1.604  14.109 -0.8551 -0.4347 -0.3454
 3253SOL    HW121392   1.585   1.645  14.022 -0.0220 -0.6148 -0.4515
 3253SOL    HW221393   1.577   1.683  14.162 -3.0388 -0.2936 -0.9891
 3254SOL     OW21394   2.855   0.923   0.866  0.7632 -0.6005 -0.3940
 3254SOL    HW121395   2.825   0.968   0.946  0.4506 -1.2198 -0.1654
 3254SOL    HW221396   2.937   0.965   0.839  0.6233  0.1068  0.2679
 3255SOL     OW21397   2.364   4.338   7.713  0.0323  0.0551 -0.4949
 3255SOL    HW121398   2.423   4.331   7.787 -1.6909 -0.1833  0.8682
 3255SOL    HW221399   2.297   4.278   7.745  1.2017 -1.8777 -1.7252
 3256SOL     OW21400   1.979   3.020  17.693  0.1502  0.3567  0.3219
 3256SOL    HW121401   2.069   2.987  17.698  0.1255  0.2795  0.2539
 3256SOL    HW221402   1.941   2.951   0.009  0.3996  0.8699  1.1541
 3257SOL     OW21403   3.681   1.607  10.095  0.2665  0.4307 -0.3812
 3257SOL    HW121404   3.677   1.512  10.093  1.9742  0.2957  3.0827
 3257SOL    HW221405   3.600   1.634  10.138  0.4513  0.6375 -0.1672
 3258SOL     OW21406   0.278   3.990   3.608 -0.3118  0.0358 -0.1793
 3258SOL    HW121407   0.238   4.040   3.537 -0.1269 -0.4867 -0.6526
 3258SOL    HW221408   0.355   3.948   3.571  0.6786  1.3062  0.4438
 3259SOL     OW21409   0.750   3.097   5.306  0.3470  0.1969  0.0351
 3259SOL    HW121410   0.837   3.135   5.315  1.4947 -2.3246 -0.4054
 3259SOL    HW221411   0.764   3.013   5.350 -0.9762 -0.1055 -0.1225
 3260SOL     OW21412   1.568   1.266   3.106  0.5246 -0.1525 -0.2403
 3260SOL    HW121413   1.638   1.220   3.152  0.7570  0.1497 -0.2880
 3260SOL    HW221414   1.584   1.354   3.140 -2.0584 -0.4477  1.7259
 3261SOL     OW21415   3.118   2.251   1.974 -0.4300  0.8050  0.3219
 3261SOL    HW121416   3.186   2.185   1.966 -0.4124  0.9581 -0.7541
 3261SOL    HW221417   3.042   2.200   1.945 -0.8541  2.0435 -0.7293
 3262SOL     OW21418   2.060   4.248   8.195  0.3206 -0.3165 -0.2468
 3262SOL    HW121419   2.017   4.174   8.238 -0.2560 -1.4585 -2.8489
 3262SOL    HW221420   2.137   4.208   8.155 -0.1326 -1.4645  0.0315
 3263SOL     OW21421   0.499   3.842   3.508  0.0056  0.5493 -0.1926
 3263SOL    HW121422   0.440   3.827   3.434 -2.5548  1.7140  1.6340
 3263SOL    HW221423   0.486   3.772   3.571 -1.6573  2.2600  1.3568
 3264SOL     OW21424   3.059   0.289   2.004  0.9144  0.3947 -0.4983
 3264SOL    HW121425   3.100   0.319   1.923  0.3780 -2.5337 -1.8550
 3264SOL    HW221426   2.996   0.361   2.009  0.0176 -0.7777  4.4719
 3265SOL     OW21427   2.636   1.046   6.321 -0.1228 -0.2247  0.2332
 3265SOL    HW121428   2.665   0.988   6.251 -0.1029 -0.9726  0.8663
 3265SOL    HW221429   2.616   1.129   6.276 -1.6674 -0.0433  1.2293
 3266SOL     OW21430   0.355   1.696   6.559  0.0618 -0.5183  0.5084
 3266SOL    HW121431   0.310   1.646   6.628 -2.5843  2.2972  0.8489
 3266SOL    HW221432   0.321   1.658   6.478  1.1099  1.2029 -0.7448
 3267SOL     OW21433   3.643   0.121   9.327  0.4801  0.0761 -0.6611
 3267SOL    HW121434   3.615   0.132   9.418  1.1483 -0.0233 -0.4475
 3267SOL    HW221435   3.558   0.139   9.287 -0.2278 -0.7294  0.4449
 3268SOL     OW21436   0.422   3.221   0.314 -0.1398  0.0336  0.1474
 3268SOL    HW121437   0.497   3.162   0.306 -0.2027 -0.3102  1.9535
 3268SOL    HW221438   0.402   3.236   0.222  1.1455 -0.5556 -0.2260
 3269SOL     OW21439   0.574   1.444  11.619 -0.3581 -0.4117  0.0084
 3269SOL    HW121440   0.510   1.497  11.570  0.7945 -2.4746 -3.7273
 3269SOL    HW221441   0.625   1.513  11.661  2.6770 -0.2900 -3.9178
 3270SOL     OW21442   2.168   0.355   8.097 -0.1038 -0.2106  0.3287
 3270SOL    HW121443   2.140   0.446   8.103  2.1920  0.5578 -0.5448
 3270SOL    HW221444   2.105   0.312   8.039  0.7035 -0.5562 -0.2916
 3271SOL     OW21445   4.453   1.490   5.268  0.1246  0.0126  0.2269
 3271SOL    HW121446   4.371   1.451   5.298  0.5096 -1.2812 -0.4157
 3271SOL    HW221447   4.489   1.423   5.210 -0.6433 -1.0803  1.0146
 3272SOL     OW21448   3.559   3.844   3.325 -0.8744  0.1811  0.0845
 3272SOL    HW121449   3.536   3.932   3.294 -0.1101  0.3773  0.0702
 3272SOL    HW221450   3.599   3.811   3.244  0.8852  3.8525 -0.5288
 3273SOL     OW21451   0.210   1.207  15.617  0.6794 -0.2400 -0.3702
 3273SOL    HW121452   0.303   1.193  15.634  0.2455 -1.3905  1.0452
 3273SOL    HW221453   0.212   1.227  15.523 -1.5343  0.4773 -0.2733
 3274SOL     OW21454   1.894   1.108   8.884 -0.0882  0.6117 -0.5139
 3274SOL    HW121455   1.956   1.131   8.816 -1.1109  2.6913 -0.7607
 3274SOL    HW221456   1.815   1.154   8.854 -1.4489 -1.2459  0.2181
 3275SOL     OW21457   1.756   3.957   6.466  0.9529 -0.0300  0.1943
 3275SOL    HW121458   1.729   3.921   6.551  1.3566  0.8963  0.7142
 3275SOL    HW221459   1.747   3.875   6.417  2.0338 -0.2628  0.3976
 3276SOL     OW21460   3.024   1.154   2.863 -0.4253  0.2195 -1.0357
 3276SOL    HW121461   3.077   1.185   2.790 -1.5345  1.7552 -1.1904
 3276SOL    HW221462   3.069   1.081   2.906 -1.9974  1.0948  2.1259
 3277SOL     OW21463   2.068   3.012   7.167  0.3665 -0.0826 -0.5662
 3277SOL    HW121464   2.053   3.102   7.195  1.7823  0.0421 -0.2236
 3277SOL    HW221465   2.152   2.987   7.207  0.0495  1.0904  0.7827
 3278SOL     OW21466   3.969   0.820   4.166 -0.7507  0.1500 -0.3085
 3278SOL    HW121467   3.985   0.879   4.093  0.0355 -1.0637 -1.1103
 3278SOL    HW221468   4.053   0.782   4.194 -1.7191 -0.4441  1.8193
 3279SOL     OW21469   3.897   0.741  11.841  0.5876 -0.0142 -0.2483
 3279SOL    HW121470   3.887   0.662  11.788 -0.8829  0.1750 -0.2510
 3279SOL    HW221471   3.816   0.788  11.826  1.0008  0.6642 -0.3485
 3280SOL     OW21472   0.294   2.736   6.768  0.2950  0.1162  0.2631
 3280SOL    HW121473   0.305   2.724   6.862 -1.7195  1.4470  0.6591
 3280SOL    HW221474   0.229   2.805   6.757  0.4113  0.6914  3.1477
 3281SOL     OW21475   2.864   0.597   3.210 -0.9553  0.1527  0.4200
 3281SOL    HW121476   2.815   0.561   3.136  0.2452 -0.1620 -0.2198
 3281SOL    HW221477   2.796   0.598   3.277 -1.5520  1.7499 -0.2086
 3282SOL     OW21478   3.134   0.937   6.293  0.2694 -0.4227  0.4042
 3282SOL    HW121479   3.171   0.924   6.206  0.7537 -1.5826  0.7811
 3282SOL    HW221480   3.105   0.851   6.322  0.9026 -0.7974 -0.0870
 3283SOL     OW21481   2.444   1.284   5.095  0.1872  0.3000  0.3049
 3283SOL    HW121482   2.460   1.268   5.188  0.9400  2.9177  0.6317
 3283SOL    HW221483   2.533   1.306   5.067 -0.1922  0.7898 -0.5204
 3284SOL     OW21484   4.645   1.184  12.215  0.0800 -0.3577 -0.3805
 3284SOL    HW121485   0.003   1.200  12.202  0.3845 -1.4815  0.3535
 3284SOL    HW221486   4.622   1.134  12.137  0.1088 -0.0488 -0.5818
 3285SOL     OW21487   3.499   4.661  10.958  0.4150 -0.1155  0.0606
 3285SOL    HW121488   3.555   4.590  10.927 -0.6068 -0.1898 -1.6217
 3285SOL    HW221489   3.458   4.612  11.029  0.9422 -2.5403 -1.3089
 3286SOL     OW21490   4.384   0.560   5.668  0.5260  0.3252 -0.0526
 3286SOL    HW121491   4.319   0.567   5.598 -0.8907  2.6385  1.4878
 3286SOL    HW221492   4.347   0.617   5.735  0.6372 -1.2640  1.3678
 3287SOL     OW21493   3.184   4.115   3.390  0.1456 -0.1313  0.2034
 3287SOL    HW121494   3.139   4.036   3.362  1.2523 -0.6301 -0.1331
 3287SOL    HW221495   3.267   4.098   3.347 -1.0566 -2.2050 -1.2773
 3288SOL     OW21496   0.936   0.070   3.906 -0.0823  0.1554 -0.1712
 3288SOL    HW121497   0.984   0.010   3.850 -3.8781 -1.9023 -1.2010
 3288SOL    HW221498   0.961   0.033   3.991  2.3491 -4.0811 -2.7456
 3289SOL     OW21499   3.507   3.391   1.523  0.3552  0.1733  0.1189
 3289SOL    HW121500   3.483   3.312   1.475  0.1117 -1.1011  2.3089
 3289SOL    HW221501   3.451   3.382   1.600 -1.5493 -2.2165 -1.5604
 3290SOL     OW21502   1.935   4.103  11.607  0.6464 -0.9357 -0.0286
 3290SOL    HW121503   1.921   4.154  11.527  2.0545 -2.1727 -1.0636
 3290SOL    HW221504   2.014   4.150  11.634  0.5753 -0.7350 -0.1707
 3291SOL     OW21505   4.030   2.744   7.788  0.6264 -0.2746 -0.2199
 3291SOL    HW121506   3.987   2.727   7.704  0.8819 -1.0066 -0.2010
 3291SOL    HW221507   4.083   2.665   7.799 -1.0242 -1.1975  1.0722
 3292SOL     OW21508   4.639   4.704   5.892 -0.1762  0.0410 -0.1214
 3292SOL    HW121509   4.718   4.731   5.939 -0.4030  0.6886 -0.1111
 3292SOL    HW221510   4.654   0.010   5.807 -1.6934  2.3274  0.7202
 3293SOL     OW21511   2.937   3.033   9.696  0.5970 -0.3896  0.0933
 3293SOL    HW121512   2.966   3.047   9.606 -0.4617  0.1961 -0.1468
 3293SOL    HW221513   2.983   3.103   9.742 -0.4184  0.7777 -0.7127
 3294SOL     OW21514   3.767   3.285   5.653  0.1319  0.0651 -0.1437
 3294SOL    HW121515   3.678   3.280   5.619  0.6656  1.6543 -1.7368
 3294SOL    HW221516   3.818   3.221   5.601 -0.2643  0.3171 -0.8426
 3295SOL     OW21517   1.257   0.530  16.288 -0.3430 -0.7476 -0.1097
 3295SOL    HW121518   1.307   0.510  16.209  0.3148 -1.3808  0.4701
 3295SOL    HW221519   1.166   0.529  16.258  0.4709  0.2719 -2.5614
 3296SOL     OW21520   0.705   3.617   2.168 -0.3011 -0.6055  0.1668
 3296SOL    HW121521   0.693   3.543   2.109  0.0462 -2.5496  2.5174
 3296SOL    HW221522   0.624   3.665   2.155  0.5963  1.1582  0.9564
 3297SOL     OW21523   1.214   2.013   8.084 -0.4661  0.0903  0.3434
 3297SOL    HW121524   1.242   2.096   8.124  1.3491 -0.3339 -0.0506
 3297SOL    HW221525   1.240   1.947   8.148 -1.2632 -0.6012 -0.0400
 3298SOL     OW21526   3.173   2.356   2.988 -0.2741  0.3498 -0.1133
 3298SOL    HW121527   3.260   2.361   3.027  1.0901 -1.7223 -2.9084
 3298SOL    HW221528   3.178   2.289   2.920 -2.2094 -1.9082  1.9569
 3299SOL     OW21529   4.135   3.096   1.181 -0.2215 -0.4352 -0.0061
 3299SOL    HW121530   4.185   3.050   1.113  0.0522 -2.9885  1.9436
 3299SOL    HW221531   4.050   3.076   1.141 -0.2267  0.9561 -0.7014
 3300SOL     OW21532   3.065   1.648  11.717  0.0028 -0.6085 -0.2617
 3300SOL    HW121533   3.043   1.731  11.674  0.4622  0.9160  2.4715
 3300SOL    HW221534   3.143   1.624  11.667  0.9146 -0.1245  0.9461
 3301SOL     OW21535   0.118   0.674   6.917  0.3859  0.0281  0.1565
 3301SOL    HW121536   0.190   0.612   6.904  0.8363 -0.1768  3.4851
 3301SOL    HW221537   0.137   0.733   6.990  1.4830  0.2412 -0.2983
 3302SOL     OW21538   2.660   0.435  15.472 -0.3605 -0.1597  0.6437
 3302SOL    HW121539   2.624   0.519  15.446 -1.1926 -1.3293 -2.0382
 3302SOL    HW221540   2.620   0.382  15.403  1.0708  1.1617 -1.1848
 3303SOL     OW21541   4.653   3.727   8.975  0.0534  0.4916  0.4916
 3303SOL    HW121542   4.587   3.729   9.044 -0.6953  1.1159 -0.2509
 3303SOL    HW221543   4.705   3.802   9.005  0.4660 -0.1465  1.3905
 3304SOL     OW21544   4.508   2.049  15.424 -0.3215 -0.4374 -0.6261
 3304SOL    HW121545   4.503   1.989  15.498  0.8293  0.1305 -0.0980
 3304SOL    HW221546   4.599   2.035  15.396 -0.7736 -2.9926 -0.8521
 3305SOL     OW21547   3.824   3.821   9.042 -0.1127  0.0843 -0.4767
 3305SOL    HW121548   3.832   3.759   8.970 -0.6089  0.7336 -1.0945
 3305SOL    HW221549   3.823   3.906   8.997  2.1086  0.7946  0.7745
 3306SOL     OW21550   1.762   0.808   7.061  0.0248  0.5721  0.0170
 3306SOL    HW121551   1.774   0.861   6.982  1.6671 -0.1501 -0.2264
 3306SOL    HW221552   1.793   0.871   7.127  2.4103 -0.5115 -0.0586
 3307SOL     OW21553   4.293   1.585   7.812  0.5511 -0.5575 -0.2860
 3307SOL    HW121554   4.308   1.587   7.718  0.3501  0.0337 -0.3014
 3307SOL    HW221555   4.330   1.671   7.834 -1.2298  0.4705 -1.3443
 3308SOL     OW21556   0.952   3.690  17.602 -0.3704  0.4441 -0.4827
 3308SOL    HW121557   0.864   3.664  17.577  0.4574 -2.9545  0.0499
 3308SOL    HW221558   1.004   3.658  17.527 -0.0902 -0.5386  0.1289
 3309SOL     OW21559   1.148   4.362   4.564 -0.7755 -0.3273  0.5471
 3309SOL    HW121560   1.059   4.376   4.533  0.3730  2.4922 -1.4027
 3309SOL    HW221561   1.176   4.445   4.602  2.3030 -1.4095  0.6880
 3310SOL     OW21562   2.733   0.848  17.131  0.1000 -0.1063  0.1915
 3310SOL    HW121563   2.741   0.830  17.037 -0.8181 -0.1604  0.1228
 3310SOL    HW221564   2.642   0.824  17.145 -0.3766  1.4823 -0.2404
 3311SOL     OW21565   2.208   0.766   8.357  0.4712 -0.3524 -0.0194
 3311SOL    HW121566   2.261   0.794   8.283 -0.0261  0.0924 -0.1995
 3311SOL    HW221567   2.149   0.708   8.309 -1.0221  3.2599 -2.4927
 3312SOL     OW21568   0.204   0.536  11.985  0.2884  0.4947  0.2706
 3312SOL    HW121569   0.264   0.479  11.937 -0.2900  1.9287 -2.2147
 3312SOL    HW221570   0.255   0.549  12.064 -1.1277  1.7343  0.9821
 3313SOL     OW21571   1.164   0.220  13.963  0.4076 -0.6320 -0.1226
 3313SOL    HW121572   1.224   0.266  14.021 -0.9299  0.7057  0.2141
 3313SOL    HW221573   1.174   0.130  13.992  0.6939 -0.4079  0.4841
 3314SOL     OW21574   2.718   0.397   6.972 -0.2105  0.1376  0.2845
 3314SOL    HW121575   2.739   0.336   6.901  2.4645  1.4641 -0.0914
 3314SOL    HW221576   2.670   0.459   6.917 -1.3627 -0.2531  0.8729
 3315SOL     OW21577   3.767   0.877   3.899  0.6980 -0.3533  0.1537
 3315SOL    HW121578   3.700   0.865   3.832  1.2022  0.1129 -0.4423
 3315SOL    HW221579   3.731   0.953   3.944  1.8291  1.6071 -2.1856
 3316SOL     OW21580   1.922   1.057   2.616 -0.1047  0.5840 -0.0044
 3316SOL    HW121581   2.005   1.105   2.619  0.3626 -0.2984  1.4802
 3316SOL    HW221582   1.951   0.966   2.605  0.5405  0.8163 -0.2337
 3317SOL     OW21583   1.036   1.232  15.670 -0.4209 -0.1631  0.0688
 3317SOL    HW121584   1.039   1.159  15.609 -0.2058  0.7892 -1.0612
 3317SOL    HW221585   0.962   1.292  15.655  1.5095  1.6814 -2.0671
 3318SOL     OW21586   1.566   1.673   6.813  0.7712  0.2197  0.4113
 3318SOL    HW121587   1.553   1.749   6.870  3.2607 -0.5837  2.0722
 3318SOL    HW221588   1.661   1.667   6.805  0.5126 -1.6680 -1.3888
 3319SOL     OW21589   1.464   3.206   3.452  0.7237  0.1532 -0.0983
 3319SOL    HW121590   1.502   3.119   3.462  1.0273  0.2915 -0.0629
 3319SOL    HW221591   1.448   3.242   3.540 -1.7203 -0.5310 -0.2662
 3320SOL     OW21592   1.886   0.792   3.177  0.3671 -0.5603  0.1816
 3320SOL    HW121593   1.881   0.733   3.252 -0.3589  0.3850  0.8768
 3320SOL    HW221594   1.939   0.743   3.115  0.2103  0.3014 -0.6464
 3321SOL     OW21595   4.635   0.686   6.753 -0.5227 -0.0867 -0.3164
 3321SOL    HW121596   4.602   0.684   6.843 -0.1921 -1.6645 -0.2184
 3321SOL    HW221597   4.728   0.700   6.773 -0.7072 -0.3575  0.7207
 3322SOL     OW21598   4.183   2.098   3.957 -0.2051 -0.5663  0.8048
 3322SOL    HW121599   4.088   2.092   3.952 -0.0955 -2.9238  1.4490
 3322SOL    HW221600   4.208   2.186   3.930  0.4772 -1.4850 -1.5826
 3323SOL     OW21601   2.893   2.011   6.977  0.0267 -0.0971  0.3527
 3323SOL    HW121602   2.954   2.052   6.915 -1.5048  2.6873  0.7092
 3323SOL    HW221603   2.841   2.085   7.008 -0.8519 -0.5371 -0.0501
 3324SOL     OW21604   2.163   0.211  13.437 -0.4792  0.4027  0.3518
 3324SOL    HW121605   2.112   0.202  13.357 -0.4189 -0.1555  0.3763
 3324SOL    HW221606   2.178   0.119  13.459  1.1038  0.7292  0.6893
 3325SOL     OW21607   3.858   4.437   3.582  0.1778  0.2449 -0.0717
 3325SOL    HW121608   3.810   4.519   3.590  0.0667  0.1224  0.5333
 3325SOL    HW221609   3.825   4.389   3.658 -1.9566  2.4031  0.3338
 3326SOL     OW21610   1.859   4.308   8.058 -0.5096 -0.1736  0.0640
 3326SOL    HW121611   1.940   4.286   8.105  0.8133 -1.1888 -2.6610
 3326SOL    HW221612   1.868   4.259   7.976  0.9010  0.4748 -0.1732
 3327SOL     OW21613   2.110   0.585   9.038 -0.5974 -0.2039 -0.1730
 3327SOL    HW121614   2.201   0.614   9.033 -0.4152 -0.8120 -0.4355
 3327SOL    HW221615   2.107   0.562   9.131  1.6752  2.7454  0.6223
 3328SOL     OW21616   0.806   0.477   5.164  0.1199 -0.1403  0.2703
 3328SOL    HW121617   0.723   0.449   5.203  1.2225  0.6714  3.2324
 3328SOL    HW221618   0.812   0.567   5.196  0.3192 -0.6970  1.8233
 3329SOL     OW21619   4.253   4.353  14.334  0.1384 -0.5111 -0.2455
 3329SOL    HW121620   4.188   4.416  14.364  2.0208  1.3684 -0.1094
 3329SOL    HW221621   4.333   4.405  14.325  0.2440 -0.3935  1.4301
 3330SOL     OW21622   0.149   3.584  11.145 -0.0602  0.1070  0.2514
 3330SOL    HW121623   0.060   3.608  11.118 -0.6064 -2.3594 -0.1309
 3330SOL    HW221624   0.129   3.505  11.196  0.6221  0.3595  0.9050
 3331SOL     OW21625   0.754   1.394   7.431  0.1198  0.3233 -0.1773
 3331SOL    HW121626   0.710   1.397   7.346  1.0118  1.1136 -0.6139
 3331SOL    HW221627   0.830   1.339   7.416 -1.4224 -1.8364 -0.1226
 3332SOL     OW21628   2.557   1.990   2.489 -0.0203 -0.0299 -0.0962
 3332SOL    HW121629   2.485   1.970   2.429  0.3192 -1.4353 -0.0177
 3332SOL    HW221630   2.636   2.011   2.439  0.8986  0.3981  1.5287
 3333SOL     OW21631   2.957   2.229   7.450 -0.0644 -0.0739 -0.5313
 3333SOL    HW121632   2.963   2.162   7.517 -0.3973 -0.4206 -0.8501
 3333SOL    HW221633   2.868   2.212   7.419 -0.5404 -1.1478  1.4682
 3334SOL     OW21634   2.930   4.243   5.284  0.8468  0.1798  0.1001
 3334SOL    HW121635   2.865   4.195   5.232  1.3272  1.3338 -1.5697
 3334SOL    HW221636   2.960   4.308   5.221 -0.4864 -0.2120 -0.9398
 3335SOL     OW21637   2.462   1.119   7.137 -0.0548  0.3007 -0.2621
 3335SOL    HW121638   2.527   1.060   7.099 -1.1111  1.0208 -3.1499
 3335SOL    HW221639   2.509   1.200   7.158  1.8281 -1.0428  0.7341
 3336SOL     OW21640   0.353   1.037  13.057  0.1500  0.2167  0.8148
 3336SOL    HW121641   0.306   0.965  13.100  0.1109 -0.2786 -0.0564
 3336SOL    HW221642   0.345   1.114  13.113  0.5995  0.6831  0.2285
 3337SOL     OW21643   2.129   2.672  11.779 -0.0422  0.0079 -0.0185
 3337SOL    HW121644   2.101   2.621  11.703  0.5930  0.7894 -0.7762
 3337SOL    HW221645   2.113   2.605  11.845 -2.5663 -0.0284 -0.6594
 3338SOL     OW21646   1.000   1.152   5.849  0.0837  0.0732  0.2018
 3338SOL    HW121647   1.090   1.123   5.865  0.8718  1.3130 -1.9824
 3338SOL    HW221648   0.965   1.157   5.938  4.6172 -0.3106  2.0224
 3339SOL     OW21649   2.323   3.135   5.014  0.4704  0.5634 -0.0229
 3339SOL    HW121650   2.299   3.228   5.018 -1.5095  0.2054 -4.0223
 3339SOL    HW221651   2.381   3.127   5.090  2.7715 -4.9683 -2.3639
 3340SOL     OW21652   4.099   4.338  10.163  0.6708 -0.1696 -0.3440
 3340SOL    HW121653   4.106   4.383  10.247  1.3348  0.2442 -0.6224
 3340SOL    HW221654   4.031   4.273  10.181 -1.8776  2.6241 -0.1151
 3341SOL     OW21655   0.271   0.776   5.568 -0.4776  0.3118  0.1034
 3341SOL    HW121656   0.343   0.735   5.521  0.4150 -0.0907  1.8668
 3341SOL    HW221657   0.226   0.831   5.503 -1.2228 -0.2516  0.1452
 3342SOL     OW21658   2.761   3.108   6.041  0.3913  0.3905  0.2253
 3342SOL    HW121659   2.729   3.198   6.047 -0.8623  0.1508 -2.9300
 3342SOL    HW221660   2.794   3.093   6.130 -0.6893  4.5324  1.3289
 3343SOL     OW21661   3.385   3.711   3.868 -0.5901 -0.0657 -0.1877
 3343SOL    HW121662   3.294   3.710   3.836 -1.1600 -0.2320  1.4340
 3343SOL    HW221663   3.378   3.645   3.937 -1.4520 -0.3558 -0.5471
 3344SOL     OW21664   0.226   0.867   4.489  0.0188 -0.4365 -0.4663
 3344SOL    HW121665   0.278   0.806   4.542 -0.8994 -0.8630 -0.0509
 3344SOL    HW221666   0.172   0.919   4.549  0.2550 -1.5904  0.7500
 3345SOL     OW21667   3.275   1.566   5.818 -0.2779 -0.8466  0.0107
 3345SOL    HW121668   3.315   1.653   5.819  2.0797 -1.9109  0.1923
 3345SOL    HW221669   3.185   1.578   5.791 -0.2828 -1.6084 -0.2963
 3346SOL     OW21670   2.498   1.240   6.098 -0.2550 -0.0123 -0.4324
 3346SOL    HW121671   2.413   1.250   6.141  1.0471 -1.5810  2.5456
 3346SOL    HW221672   2.483   1.152   6.064  0.1413 -0.1267 -0.3168
 3347SOL     OW21673   2.812   4.504   6.900  0.7674 -0.3644  0.7810
 3347SOL    HW121674   2.749   4.474   6.835  1.7517 -1.1583  0.1907
 3347SOL    HW221675   2.790   4.597   6.901  0.9122 -0.3259  0.6092
 3348SOL     OW21676   4.378   1.641   4.513 -0.0273 -0.0838 -0.1395
 3348SOL    HW121677   4.423   1.711   4.559  2.7585 -1.9038 -0.0836
 3348SOL    HW221678   4.310   1.697   4.476 -0.9072 -1.5793 -0.7987
 3349SOL     OW21679   3.518   2.684   1.141 -0.5298  0.2717 -0.2727
 3349SOL    HW121680   3.588   2.627   1.109 -1.3867 -0.4746 -0.8118
 3349SOL    HW221681   3.440   2.632   1.124 -2.0121  0.8394  4.7590
 3350SOL     OW21682   4.113   0.508   4.706 -0.2542  0.1987  0.0547
 3350SOL    HW121683   4.141   0.556   4.628 -0.6990 -1.0865 -0.8831
 3350SOL    HW221684   4.034   0.467   4.671 -1.9062  1.2002  2.6016
 3351SOL     OW21685   3.668   0.281   8.047 -0.2294  0.0154  0.0670
 3351SOL    HW121686   3.639   0.318   7.964 -0.9915 -0.2254  0.2249
 3351SOL    HW221687   3.751   0.328   8.057 -0.4843  0.3486  0.6520
 3352SOL     OW21688   4.698   3.873   1.935 -0.4746 -0.1938 -0.8566
 3352SOL    HW121689   4.728   3.794   1.980 -1.7721 -0.2986 -0.1539
 3352SOL    HW221690   4.651   3.838   1.859  0.0921 -0.7112 -0.9714
 3353SOL     OW21691   2.307   0.365   3.563 -0.5088  0.5461  0.2849
 3353SOL    HW121692   2.226   0.357   3.513 -0.7420 -0.1884  0.7755
 3353SOL    HW221693   2.360   0.294   3.525 -1.9445 -0.1890 -0.3366
 3354SOL     OW21694   2.859   1.986   1.005 -0.2937 -0.2526 -0.1788
 3354SOL    HW121695   2.819   1.916   0.955 -1.7789 -0.2347  0.9908
 3354SOL    HW221696   2.951   1.977   0.981  0.3592 -0.4077  2.3625
 3355SOL     OW21697   3.193   2.438  12.871  0.2834  0.6295 -0.0834
 3355SOL    HW121698   3.147   2.521  12.859 -0.3392  0.4645  1.1147
 3355SOL    HW221699   3.255   2.443  12.798  1.3347 -2.1363  0.6052
 3356SOL     OW21700   0.922   4.497   4.073 -0.4490  0.2450 -0.0577
 3356SOL    HW121701   0.835   4.521   4.107 -0.2872 -3.4271  2.8797
 3356SOL    HW221702   0.979   4.519   4.146 -0.7669 -0.9685  0.5480
 3357SOL     OW21703   3.699   4.137   4.676 -0.0465  0.5227  0.6506
 3357SOL    HW121704   3.737   4.051   4.690 -1.1715 -0.3510 -1.6642
 3357SOL    HW221705   3.740   4.162   4.593  1.4070  0.2783  1.2796
 3358SOL     OW21706   0.735   2.304  16.357 -0.5673  0.1628 -0.0353
 3358SOL    HW121707   0.663   2.295  16.419 -1.3726  0.3863 -0.9382
 3358SOL    HW221708   0.687   2.309  16.274  0.7703  0.9886 -0.7746
 3359SOL     OW21709   2.487   2.931   8.743  0.2167 -0.8245  0.6732
 3359SOL    HW121710   2.479   2.866   8.673 -0.0820  1.6539 -1.6141
 3359SOL    HW221711   2.392   2.945   8.748  0.3044  0.2979 -0.6731
 3360SOL     OW21712   1.900   1.450   5.704 -0.2667 -0.0812 -0.5810
 3360SOL    HW121713   1.956   1.526   5.688  1.3641 -1.1882 -0.1762
 3360SOL    HW221714   1.959   1.375   5.701 -0.6201 -0.3398 -1.0382
 3361SOL     OW21715   1.357   0.151   6.311 -0.5995 -0.1270  0.1815
 3361SOL    HW121716   1.364   0.056   6.317  0.5792 -0.0659 -0.2451
 3361SOL    HW221717   1.269   0.156   6.273 -0.5523 -1.1036 -0.0564
 3362SOL     OW21718   4.059   1.069  13.894  0.7995 -0.1515  0.1534
 3362SOL    HW121719   4.016   0.989  13.925 -0.0781  0.5115  0.6565
 3362SOL    HW221720   4.062   1.045  13.801  0.9632 -1.1668  0.4206
 3363SOL     OW21721   1.635   0.171   5.358  0.4508  0.0786  0.2673
 3363SOL    HW121722   1.683   0.101   5.314  3.3958  2.3530 -0.1416
 3363SOL    HW221723   1.545   0.139   5.352  0.6269 -0.3175 -0.2328
 3364SOL     OW21724   3.873   4.344   9.042  0.3470 -0.3784 -0.3966
 3364SOL    HW121725   3.814   4.274   9.069  0.3958 -0.8558 -1.5510
 3364SOL    HW221726   3.819   4.420   9.021  2.0340  1.3261  1.2715
 3365SOL     OW21727   4.510   1.406   8.265  0.2201 -0.0006  0.4092
 3365SOL    HW121728   4.470   1.336   8.316  1.1228  1.0253  2.5358
 3365SOL    HW221729   4.594   1.365   8.242  0.6900  1.4681 -0.4965
 3366SOL     OW21730   1.501   0.189  15.397 -0.3154 -0.3710 -0.2937
 3366SOL    HW121731   1.538   0.263  15.348 -2.4316  2.5648  2.5056
 3366SOL    HW221732   1.430   0.159  15.340 -1.0320 -0.7780  0.8203
 3367SOL     OW21733   3.565   3.222   7.848  0.6521 -0.0053  0.6967
 3367SOL    HW121734   3.565   3.206   7.942  0.3217  3.7113  1.2967
 3367SOL    HW221735   3.511   3.300   7.851 -0.4238 -0.7421  0.4724
 3368SOL     OW21736   2.606   2.679  14.858  0.0554 -0.4278  0.3786
 3368SOL    HW121737   2.603   2.615  14.787  1.3782 -0.9733  0.8064
 3368SOL    HW221738   2.524   2.659  14.903  2.2693 -1.0943  4.1388
 3369SOL     OW21739   2.859   1.884   8.142 -0.1735 -0.5926  0.3889
 3369SOL    HW121740   2.868   1.865   8.048 -0.5924  0.9507  0.0347
 3369SOL    HW221741   2.925   1.839   8.194  0.8167  1.8872  1.2652
 3370SOL     OW21742   2.107   2.610   4.322  0.2895 -0.0650  0.4251
 3370SOL    HW121743   2.043   2.673   4.355  1.0177  0.5706  0.6239
 3370SOL    HW221744   2.192   2.648   4.343  0.4244 -0.4787  0.6247
 3371SOL     OW21745   1.588   1.312   5.309  0.3474 -0.6161  0.6227
 3371SOL    HW121746   1.635   1.391   5.337 -0.2232 -0.6007  1.5297
 3371SOL    HW221747   1.622   1.303   5.220  0.0697  1.6188  0.2786
 3372SOL     OW21748   1.125   1.970   4.959  0.4148 -0.1568  0.1899
 3372SOL    HW121749   1.106   1.968   5.053 -0.4826  0.5510  0.0129
 3372SOL    HW221750   1.063   2.029   4.918  0.0502 -0.1403  0.7762
 3373SOL     OW21751   0.204   1.246   7.104  0.0743 -0.4234 -0.1160
 3373SOL    HW121752   0.187   1.248   7.198 -1.9077 -0.2176 -0.4941
 3373SOL    HW221753   0.231   1.154   7.098 -0.6341 -0.6312 -0.0106
 3374SOL     OW21754   1.729   2.527  12.181  0.2642  0.3366  0.0560
 3374SOL    HW121755   1.730   2.613  12.139  1.6496 -1.1838 -3.0046
 3374SOL    HW221756   1.801   2.481  12.137 -0.2245  0.0860 -0.4776
 3375SOL     OW21757   3.305   3.560   0.757 -0.0933  0.0431  0.1909
 3375SOL    HW121758   3.241   3.530   0.821 -0.0906 -0.7144 -0.1576
 3375SOL    HW221759   3.322   3.651   0.782 -2.7717  0.2191  1.3909
 3376SOL     OW21760   2.479   0.618  17.466  0.1668 -1.0202 -0.1066
 3376SOL    HW121761   2.566   0.604  17.501  0.3169  1.7540  0.6250
 3376SOL    HW221762   2.457   0.529  17.440 -2.6211 -0.2022 -0.5632
 3377SOL     OW21763   2.808   2.122   4.854  0.5929 -0.1816  0.4824
 3377SOL    HW121764   2.728   2.074   4.831 -0.5047  0.7673  2.3815
 3377SOL    HW221765   2.844   2.064   4.921  0.8984 -0.1150  0.3804
 3378SOL     OW21766   0.920   4.315   5.509 -0.7757  0.4208 -0.6966
 3378SOL    HW121767   0.977   4.293   5.435  0.4495 -0.3511  0.4905
 3378SOL    HW221768   0.917   4.409   5.494  2.0577  0.8653  1.4587
 3379SOL     OW21769   2.074   1.904   2.192 -0.7632 -0.2032  0.1085
 3379SOL    HW121770   2.081   1.955   2.111 -2.3267  1.1645  0.8302
 3379SOL    HW221771   2.047   1.813   2.181  0.7619 -0.6700  0.2148
 3380SOL     OW21772   0.382   0.453   6.640  0.0580 -0.5201 -0.1692
 3380SOL    HW121773   0.292   0.459   6.607  1.7056 -0.3069 -4.6356
 3380SOL    HW221774   0.411   0.372   6.600  2.7169  0.4135 -0.1217
 3381SOL     OW21775   2.625   1.835   4.537  0.3921 -0.1765 -0.4114
 3381SOL    HW121776   2.544   1.849   4.489 -0.4522  0.8901  1.3159
 3381SOL    HW221777   2.693   1.844   4.470 -0.0506 -1.6748 -1.0570
 3382SOL     OW21778   1.877   0.067   4.033 -0.3724 -0.6735  0.0336
 3382SOL    HW121779   1.787   0.059   4.065  0.2467 -2.2377  1.4167
 3382SOL    HW221780   1.861   0.073   3.939 -1.6247 -0.4727  0.2528
 3383SOL     OW21781   3.411   3.539   6.939  0.7641 -1.0533 -0.5718
 3383SOL    HW121782   3.337   3.550   7.000  0.9661  0.4696 -0.5936
 3383SOL    HW221783   3.442   3.454   6.970 -1.1075 -1.0888  1.2171
 3384SOL     OW21784   4.724   2.979  12.471  0.2406 -0.0700 -0.5732
 3384SOL    HW121785   0.070   2.955  12.427  1.4786  2.9029  0.0554
 3384SOL    HW221786   4.712   2.908  12.535  0.7881  1.0255  0.7515
 3385SOL     OW21787   1.257   1.074   6.278  0.0292 -0.5099 -0.3207
 3385SOL    HW121788   1.283   0.982   6.280 -0.6856 -0.6863  1.1400
 3385SOL    HW221789   1.197   1.093   6.351  0.8898 -0.5053  0.3851
 3386SOL     OW21790   0.654   3.364   5.351 -0.1442 -0.2263  0.9685
 3386SOL    HW121791   0.679   3.380   5.261 -3.1902  1.5520  0.4334
 3386SOL    HW221792   0.666   3.270   5.357 -0.8457 -0.3930 -0.2947
 3387SOL     OW21793   2.794   1.426  12.399  0.3872  0.2541  0.0197
 3387SOL    HW121794   2.702   1.441  12.377  0.2749 -0.4210  0.0216
 3387SOL    HW221795   2.794   1.332  12.416  1.6254  0.6595  2.2200
 3388SOL     OW21796   0.965   4.410   0.905 -0.5942 -0.0220  0.7566
 3388SOL    HW121797   1.032   4.453   0.853 -0.2903 -0.9186  0.4117
 3388SOL    HW221798   0.977   4.452   0.990 -2.7146  0.8181  0.6450
 3389SOL     OW21799   2.208   4.026   3.613  0.5221 -0.4254  0.4124
 3389SOL    HW121800   2.161   4.040   3.695 -0.8136 -1.4600 -0.1679
 3389SOL    HW221801   2.227   4.114   3.582 -1.0553 -1.0976 -2.4571
 3390SOL     OW21802   1.999   3.947   6.037  0.0868 -0.0277 -0.9187
 3390SOL    HW121803   2.067   3.934   6.104  0.1714  1.1604 -0.7700
 3390SOL    HW221804   1.975   4.039   6.046  2.8512  0.3654  2.5186
 3391SOL     OW21805   1.239   4.394   3.971  0.0711 -0.5795  0.5624
 3391SOL    HW121806   1.150   4.408   4.003  0.5576 -0.4149  1.8281
 3391SOL    HW221807   1.287   4.391   4.054 -0.5176 -0.9541  0.8846
 3392SOL     OW21808   0.826   3.317   7.456  0.1175  0.1969  0.5825
 3392SOL    HW121809   0.736   3.285   7.462 -0.0661  0.6857  0.4066
 3392SOL    HW221810   0.862   3.248   7.400  4.4881  1.7999  1.4202
 3393SOL     OW21811   3.415   1.183   6.122  0.2129 -0.6166  0.2621
 3393SOL    HW121812   3.438   1.270   6.090  0.3664 -0.9834 -0.6325
 3393SOL    HW221813   3.433   1.190   6.216  0.3018  1.9513  0.0658
 3394SOL     OW21814   3.115   1.092   5.812 -0.3910 -0.3222 -0.4200
 3394SOL    HW121815   3.147   1.130   5.731 -0.0726 -0.0492 -0.1631
 3394SOL    HW221816   3.047   1.155   5.838 -1.0953 -1.7255  1.1984
 3395SOL     OW21817   2.403   4.659   7.906  0.2606  0.1367  0.3065
 3395SOL    HW121818   2.479   4.715   7.896 -0.3064  0.7926 -0.3327
 3395SOL    HW221819   2.376   4.661   7.814  1.4407  1.9710  0.0120
 3396SOL     OW21820   4.220   0.785   8.768  0.3460 -0.4062 -0.1236
 3396SOL    HW121821   4.146   0.833   8.806  0.3718 -0.2019 -0.3290
 3396SOL    HW221822   4.262   0.855   8.718 -1.7048 -0.0676 -1.4016
 3397SOL     OW21823   1.535   4.047   6.095 -0.3221  0.4159  0.2431
 3397SOL    HW121824   1.498   4.134   6.081  1.1097  1.0793  0.5858
 3397SOL    HW221825   1.583   4.061   6.176  1.0437 -0.3937 -0.4157
 3398SOL     OW21826   3.147   0.308   2.834  0.0493  0.1131  0.2624
 3398SOL    HW121827   3.170   0.231   2.887  1.4241  1.3757  1.4677
 3398SOL    HW221828   3.114   0.366   2.903  0.7819 -1.6106  2.1016
 3399SOL     OW21829   2.640   1.682   1.407 -0.1501  0.0474  0.2010
 3399SOL    HW121830   2.580   1.612   1.381 -1.7195  0.7652  1.9373
 3399SOL    HW221831   2.603   1.731   1.480 -0.1368 -1.7631  1.3984
 3400SOL     OW21832   0.278   4.520   6.823  0.3355  0.5676 -0.0545
 3400SOL    HW121833   0.345   4.551   6.763  0.6666  0.4554  0.2602
 3400SOL    HW221834   0.324   4.552   6.900  1.5908 -1.0107 -0.1573
 3401SOL     OW21835   2.519   2.317   4.205  0.4489 -0.3658  0.2090
 3401SOL    HW121836   2.515   2.389   4.142 -1.9687 -1.0678 -0.4437
 3401SOL    HW221837   2.552   2.252   4.143  3.2428 -0.2837  1.5809
 3402SOL     OW21838   3.678   2.486  13.285 -0.1592 -0.3423  0.5491
 3402SOL    HW121839   3.625   2.417  13.244  1.2127 -2.1116  1.7946
 3402SOL    HW221840   3.692   2.452  13.373 -0.5434 -0.0250  0.7339
 3403SOL     OW21841   1.679   1.049  14.794 -0.3474  0.2367 -0.1648
 3403SOL    HW121842   1.602   0.995  14.813 -1.1410  0.9266 -1.4913
 3403SOL    HW221843   1.639   1.115  14.737 -0.9009 -2.2329 -2.6287
 3404SOL     OW21844   4.495   3.149   6.532  0.7070 -0.2545  0.1531
 3404SOL    HW121845   4.421   3.113   6.484 -1.3228  0.1513  3.0089
 3404SOL    HW221846   4.472   3.128   6.622 -0.6535 -1.8399 -0.5815
 3405SOL     OW21847   1.875   3.301  17.347 -0.0688  0.1350  0.3315
 3405SOL    HW121848   1.850   3.224  17.399 -0.5526  0.2454  0.2604
 3405SOL    HW221849   1.960   3.271  17.315 -0.4848 -0.7247  0.0268
 3406SOL     OW21850   0.515   2.392   7.854  0.4622  0.0498  0.3926
 3406SOL    HW121851   0.533   2.467   7.797 -0.6142 -0.7049 -0.9076
 3406SOL    HW221852   0.522   2.323   7.789 -0.9181  2.1427 -1.9880
 3407SOL     OW21853   4.009   0.876   5.594 -0.3023 -0.1225 -0.2698
 3407SOL    HW121854   4.008   0.780   5.587 -1.1542 -0.3413  2.9637
 3407SOL    HW221855   3.982   0.877   5.686 -0.3409  0.1612 -0.2864
 3408SOL     OW21856   4.270   4.242   2.771  0.6501  0.3732  0.4749
 3408SOL    HW121857   4.303   4.153   2.757 -0.6561  0.0967 -0.7819
 3408SOL    HW221858   4.192   4.234   2.717  0.7329 -0.8439  0.5429
 3409SOL     OW21859   4.130   0.544   7.587 -0.5949  0.0653  0.3541
 3409SOL    HW121860   4.097   0.619   7.636  0.0964  0.7615 -0.2306
 3409SOL    HW221861   4.209   0.586   7.553 -1.1764  0.3374 -0.6434
 3410SOL     OW21862   1.341   2.758   6.141  0.0374 -0.3519  0.3243
 3410SOL    HW121863   1.331   2.728   6.232 -0.2683 -0.6878  0.1799
 3410SOL    HW221864   1.425   2.715   6.128 -0.1376 -0.9434  1.1332
 3411SOL     OW21865   3.406   2.661  14.953  0.2106  0.4738 -0.4901
 3411SOL    HW121866   3.412   2.732  15.018 -0.2240 -0.5465  0.6742
 3411SOL    HW221867   3.490   2.614  14.956 -0.1866  0.0227  3.5249
 3412SOL     OW21868   1.070   4.568   4.291 -0.0995 -0.1875 -0.3407
 3412SOL    HW121869   1.160   4.539   4.276 -0.0152 -0.1502  0.1000
 3412SOL    HW221870   1.055   4.536   4.380 -0.9786 -2.4420 -1.2960
 3413SOL     OW21871   0.344   0.422   7.616 -0.2551  0.0874  0.3970
 3413SOL    HW121872   0.358   0.481   7.690 -1.5142  1.2446 -0.2851
 3413SOL    HW221873   0.277   0.367   7.655  0.1137  0.2073  1.1979
 3414SOL     OW21874   4.163   0.708   3.358  0.0466 -0.4140  0.0247
 3414SOL    HW121875   4.256   0.730   3.351 -0.3795  0.9915 -1.3345
 3414SOL    HW221876   4.153   0.716   3.452 -1.2768  2.8762 -0.3837
 3415SOL     OW21877   1.747   1.422  11.992 -0.5018  0.3427 -0.1037
 3415SOL    HW121878   1.807   1.494  12.012  1.6004 -0.9553 -1.6572
 3415SOL    HW221879   1.688   1.468  11.932 -0.1194  1.7480  0.6151
 3416SOL     OW21880   1.892   3.922  10.445 -0.4722 -0.5562 -0.3771
 3416SOL    HW121881   1.811   3.949  10.402 -0.8183  0.3080  0.7892
 3416SOL    HW221882   1.949   3.998  10.454  1.3487 -1.7560 -1.8307
 3417SOL     OW21883   3.800   4.191   2.526 -0.1724 -0.2753  0.2742
 3417SOL    HW121884   3.757   4.273   2.499  0.2441 -0.7393 -1.8153
 3417SOL    HW221885   3.895   4.201   2.519 -0.4458  3.1125  1.3693
 3418SOL     OW21886   2.107   3.341   4.310  0.2575  0.0805  0.0485
 3418SOL    HW121887   2.157   3.331   4.392  2.1009  0.7510 -0.9766
 3418SOL    HW221888   2.184   3.351   4.254  1.7086 -2.4033  1.5823
 3419SOL     OW21889   3.806   1.033   7.559  0.3672  0.3196  1.0572
 3419SOL    HW121890   3.837   1.084   7.634 -1.2522  0.3344  1.7277
 3419SOL    HW221891   3.780   0.956   7.610  2.2498  0.1013  1.6725
 3420SOL     OW21892   0.973   0.938   3.818 -0.5471 -0.6225 -0.2042
 3420SOL    HW121893   0.887   0.937   3.859  0.3197 -1.1454  1.5828
 3420SOL    HW221894   0.946   0.914   3.729 -2.8509  1.2687  0.0076
 3421SOL     OW21895   0.811   2.609  10.033 -0.0129  0.4026 -0.3349
 3421SOL    HW121896   0.902   2.578  10.034 -0.7774 -1.8512  0.0096
 3421SOL    HW221897   0.792   2.633  10.124  0.7666  1.5473 -0.4714
 3422SOL     OW21898   4.121   0.601   8.415 -0.3239 -0.2704  0.0234
 3422SOL    HW121899   4.101   0.599   8.508  1.4397  2.0853  0.4606
 3422SOL    HW221900   4.211   0.633   8.418  0.3955 -2.0980 -2.0463
 3423SOL     OW21901   1.174   3.006   4.643 -0.8834 -0.0990 -0.1098
 3423SOL    HW121902   1.243   2.941   4.654  0.9022  2.0304  1.4385
 3423SOL    HW221903   1.103   2.971   4.696 -0.7861 -1.6836 -1.0228
 3424SOL     OW21904   2.584   4.367   4.007 -0.3645 -0.1541  0.4237
 3424SOL    HW121905   2.646   4.390   4.076 -0.1591 -1.7666  0.7778
 3424SOL    HW221906   2.559   4.456   3.984 -1.1745 -1.1040 -2.3686
 3425SOL     OW21907   2.613   1.808  15.163 -0.0455  0.0846  0.4964
 3425SOL    HW121908   2.637   1.900  15.175  0.6366  0.3975 -3.4136
 3425SOL    HW221909   2.696   1.763  15.175  0.7544  1.2304 -0.7788
 3426SOL     OW21910   2.628   0.944   8.206 -0.5063  0.2787  0.0486
 3426SOL    HW121911   2.685   0.991   8.145 -1.0580 -0.6766 -1.1998
 3426SOL    HW221912   2.608   1.026   8.252 -2.0380 -0.2198  0.2784
 3427SOL     OW21913   2.671   3.017   8.043  0.2087 -0.0388  0.1542
 3427SOL    HW121914   2.582   2.992   8.069 -0.1229  0.2167 -0.7389
 3427SOL    HW221915   2.667   3.047   7.952  1.3090 -2.0668 -0.5576
 3428SOL     OW21916   4.027   3.081   6.429  0.5875 -0.3705  0.4465
 3428SOL    HW121917   3.974   3.134   6.489 -2.7221 -1.3906 -1.5516
 3428SOL    HW221918   4.011   3.125   6.346 -0.8093  0.2703  1.0617
 3429SOL     OW21919   2.599   1.022   2.691  0.9407 -0.3216 -0.4289
 3429SOL    HW121920   2.545   1.073   2.750  1.7599  0.6423 -0.5091
 3429SOL    HW221921   2.561   1.045   2.606 -2.0682 -0.4410  0.9049
 3430SOL     OW21922   1.814   3.971  14.577  0.1400  0.3592 -0.2775
 3430SOL    HW121923   1.838   4.023  14.653 -2.1759 -0.0215  0.7232
 3430SOL    HW221924   1.784   3.888  14.614 -1.4971  1.8903  1.8399
 3431SOL     OW21925   0.769   1.910   1.765 -0.0756  0.4735 -0.4735
 3431SOL    HW121926   0.689   1.959   1.783 -2.7653 -3.2755 -2.3513
 3431SOL    HW221927   0.753   1.826   1.808  2.3475 -0.5539 -1.5465
 3432SOL     OW21928   0.670   4.615   3.831 -0.1646 -0.3335  0.0753
 3432SOL    HW121929   0.729   4.559   3.781  0.2732 -0.1587  0.3887
 3432SOL    HW221930   0.637   4.549   3.892  1.3976  0.0673  1.3697
 3433SOL     OW21931   4.451   0.519   7.024  0.1039  0.1282 -0.1981
 3433SOL    HW121932   4.450   0.484   6.935 -0.3305  0.8396 -0.4775
 3433SOL    HW221933   4.534   0.487   7.059 -0.3974  0.1727  1.0292
 3434SOL     OW21934   3.599   3.278   8.954 -0.0994  0.5486 -0.5119
 3434SOL    HW121935   3.534   3.208   8.956  2.0342 -1.4371 -0.1997
 3434SOL    HW221936   3.659   3.264   9.028  2.3013  2.5022 -2.0690
 3435SOL     OW21937   0.514   2.758   6.566  0.1294 -0.3654 -0.1236
 3435SOL    HW121938   0.469   2.728   6.645  1.2860 -1.3394  0.1730
 3435SOL    HW221939   0.452   2.745   6.495  0.3792  0.3515 -0.4765
 3436SOL     OW21940   0.765   4.026   4.353 -0.4230  0.2440 -0.2448
 3436SOL    HW121941   0.819   4.095   4.316  3.4229 -1.7855  1.6051
 3436SOL    HW221942   0.796   4.047   4.441 -0.1981 -0.8052 -0.0675
 3437SOL     OW21943   2.549   3.260   3.441 -0.5715  0.4074 -0.3779
 3437SOL    HW121944   2.542   3.335   3.501 -0.1456 -1.9394  2.6184
 3437SOL    HW221945   2.576   3.308   3.363  0.9472  3.4713  2.0120
 3438SOL     OW21946   0.339   3.984  11.541 -0.6598  0.0893 -0.0498
 3438SOL    HW121947   0.406   3.991  11.473 -0.4673 -0.8349  0.0369
 3438SOL    HW221948   0.261   3.962  11.491 -1.5976  1.0127  1.0280
 3439SOL     OW21949   2.364   2.364   3.711  0.4784  0.1612 -0.3483
 3439SOL    HW121950   2.371   2.403   3.624 -1.3923  2.3455  0.4702
 3439SOL    HW221951   2.294   2.425   3.733  0.0777 -0.3327 -0.2326
 3440SOL     OW21952   2.219   3.254   3.041  0.0630 -0.0272 -0.0695
 3440SOL    HW121953   2.234   3.221   3.130  1.0493  1.0024  0.1350
 3440SOL    HW221954   2.150   3.192   3.017 -1.7515  2.7256 -1.8537
 3441SOL     OW21955   2.270   1.093   1.164 -0.2670  0.0831  0.9424
 3441SOL    HW121956   2.364   1.087   1.178 -0.1356 -1.0169 -0.4628
 3441SOL    HW221957   2.235   1.007   1.188  0.3247 -0.4122  0.0338
 3442SOL     OW21958   3.054   1.423   2.461 -0.4266 -0.8060 -1.2341
 3442SOL    HW121959   3.139   1.451   2.425  0.5787  0.2664  2.0407
 3442SOL    HW221960   3.013   1.507   2.483  0.0998 -1.0869  0.8021
 3443SOL     OW21961   0.301   0.215  11.635  0.4533 -0.0500 -0.0402
 3443SOL    HW121962   0.262   0.143  11.683  0.6084 -0.4081 -0.4534
 3443SOL    HW221963   0.221   0.238  11.587 -0.2311  0.3501  1.2849
 3444SOL     OW21964   4.281   0.910   6.098 -0.0677 -0.1308 -0.7379
 3444SOL    HW121965   4.223   0.984   6.079  1.0901  1.1342  0.6251
 3444SOL    HW221966   4.356   0.959   6.133 -0.7570  0.1846  0.2832
 3445SOL     OW21967   4.490   0.973   9.902  0.2724  0.0483 -0.5123
 3445SOL    HW121968   4.527   0.942   9.819 -0.8938 -0.8242 -0.6979
 3445SOL    HW221969   4.529   0.914   9.966  1.9064  0.4269 -1.1579
 3446SOL     OW21970   0.352   0.357   7.967 -0.8507  0.1789  0.3763
 3446SOL    HW121971   0.344   0.451   7.948  0.2847  0.1397 -0.2975
 3446SOL    HW221972   0.286   0.319   7.909 -1.3828  0.6545  0.6675
 3447SOL     OW21973   2.325   1.154   3.130  0.1505  0.8083  0.3607
 3447SOL    HW121974   2.417   1.137   3.110  0.1638 -0.0127  1.0958
 3447SOL    HW221975   2.318   1.152   3.226 -1.1866 -0.3024  0.2432
 3448SOL     OW21976   4.442   1.723  12.655 -0.2439  0.4872 -0.1402
 3448SOL    HW121977   4.523   1.718  12.706  0.0302 -0.7333 -0.7092
 3448SOL    HW221978   4.455   1.648  12.597 -1.3363  0.5098 -0.4111
 3449SOL     OW21979   3.864   1.262  12.096  0.1529  0.2923  0.0942
 3449SOL    HW121980   3.904   1.189  12.143  0.6965  1.7899  2.0098
 3449SOL    HW221981   3.860   1.336  12.158  3.3787  1.2100 -0.8090
 3450SOL     OW21982   0.786   3.990   5.747 -0.4400 -0.4769 -0.2356
 3450SOL    HW121983   0.844   3.915   5.736 -0.1766 -0.5633  1.8993
 3450SOL    HW221984   0.708   3.945   5.778 -1.0700  0.8118  0.0766
 3451SOL     OW21985   3.049   2.791   4.483 -0.6107  0.1883 -0.0149
 3451SOL    HW121986   3.003   2.760   4.405  1.0710 -2.7594  0.1549
 3451SOL    HW221987   2.997   2.772   4.561  1.1854 -1.0509  0.8680
 3452SOL     OW21988   3.480   4.543   2.609 -0.1981 -0.0413 -0.1001
 3452SOL    HW121989   3.417   4.531   2.680 -0.1490 -0.2963 -0.0997
 3452SOL    HW221990   3.477   4.638   2.602  0.7011  0.0065  0.2431
 3453SOL     OW21991   1.003   2.183   0.939 -0.5455 -0.1552  0.3990
 3453SOL    HW121992   1.093   2.157   0.960 -0.7667 -0.9807  0.3324
 3453SOL    HW221993   0.990   2.253   1.003 -0.7701 -0.1747  0.3730
 3454SOL     OW21994   2.821   2.522   3.578 -0.0040  0.3759 -0.7624
 3454SOL    HW121995   2.838   2.451   3.516 -0.2865  1.7659 -2.4276
 3454SOL    HW221996   2.911   2.541   3.604 -0.4641  1.0166  0.3586
 3455SOL     OW21997   1.587   2.006   4.317 -0.0105 -0.0826  0.0521
 3455SOL    HW121998   1.519   1.977   4.256 -1.6939  2.7894  0.5676
 3455SOL    HW221999   1.544   2.072   4.372 -3.1887 -2.3613  0.3035
 3456SOL     OW22000   3.492   2.887  15.086  0.1997 -0.1304 -0.0240
 3456SOL    HW122001   3.424   2.936  15.040 -0.3410 -1.2782 -0.4544
 3456SOL    HW222002   3.546   2.956  15.124  0.3894 -1.4505  2.1232
 3457SOL     OW22003   4.013   2.512  16.107  0.1485  0.3419  0.0327
 3457SOL    HW122004   3.996   2.473  16.021 -1.9547  0.4029  0.4201
 3457SOL    HW222005   4.055   2.595  16.083 -2.8221  1.8048 -0.1132
 3458SOL     OW22006   2.151   3.619   8.348  0.5219 -0.0096  0.2982
 3458SOL    HW122007   2.236   3.662   8.360  1.7345 -2.3501  0.1368
 3458SOL    HW222008   2.134   3.586   8.436 -3.8921  2.8089  0.5251
 3459SOL     OW22009   2.836   1.318   8.789 -0.2589  0.0075 -0.0826
 3459SOL    HW122010   2.759   1.267   8.813 -0.3733  1.3982  2.5313
 3459SOL    HW222011   2.905   1.259   8.819 -0.0031  1.4158  2.0837
 3460SOL     OW22012   3.617   2.283   9.775  0.3255 -0.1063 -0.1954
 3460SOL    HW122013   3.703   2.309   9.807  0.1438 -0.1171  0.3003
 3460SOL    HW222014   3.609   2.200   9.822  0.2983 -1.2164 -2.1457
 3461SOL     OW22015   2.755   0.908   0.101 -0.1981  0.0342 -0.1061
 3461SOL    HW122016   2.710   0.876   0.023  0.2866 -0.6877 -0.0867
 3461SOL    HW222017   2.723   0.997   0.093 -0.3806  0.1706  2.2007
 3462SOL     OW22018   0.002   3.979   2.987 -0.1392  0.2786  0.3961
 3462SOL    HW122019   0.068   4.039   3.020  0.5327  0.3582 -1.0680
 3462SOL    HW222020   4.666   4.033   3.021 -0.3383 -0.0128  0.4430
 3463SOL     OW22021   2.760   4.311   9.256  0.3448 -0.4902  0.1312
 3463SOL    HW122022   2.665   4.308   9.260  0.2279  1.6009 -1.2175
 3463SOL    HW222023   2.785   4.300   9.348 -2.5412 -0.8709  0.8704
 3464SOL     OW22024   4.409   0.093  10.387  0.0966 -0.3869 -0.5030
 3464SOL    HW122025   4.370   0.159  10.445  0.0884 -0.9662  0.1483
 3464SOL    HW222026   4.496   0.090  10.426  0.9487  0.7750 -2.3332
 3465SOL     OW22027   4.439   0.122   3.663 -0.0109  0.3860 -0.5595
 3465SOL    HW122028   4.446   0.077   3.579 -2.0660 -0.7562 -0.1037
 3465SOL    HW222029   4.375   0.060   3.696  2.3095 -2.0794 -0.7029
 3466SOL     OW22030   2.514   4.689   2.752 -0.1426 -0.3507  0.4788
 3466SOL    HW122031   2.563   4.655   2.677  0.2623  2.6217 -0.6110
 3466SOL    HW222032   2.583   4.679   2.817  0.0453  1.8901  0.6508
 3467SOL     OW22033   3.257   3.389   3.533 -0.5723 -0.0274 -0.3805
 3467SOL    HW122034   3.171   3.428   3.518  0.1517  1.4135 -0.8301
 3467SOL    HW222035   3.294   3.402   3.445 -1.0984 -0.2506 -0.6359
 3468SOL     OW22036   4.507   3.152  10.117  0.2587  0.1657 -0.8094
 3468SOL    HW122037   4.589   3.192  10.145  1.6941 -1.6299 -2.4160
 3468SOL    HW222038   4.487   3.104  10.198  1.6218 -2.3748 -1.9730
 3469SOL     OW22039   0.404   0.108   7.615 -0.0589  0.6587 -0.1673
 3469SOL    HW122040   0.457   0.140   7.688  0.1790  1.1159 -0.5349
 3469SOL    HW222041   0.365   0.028   7.650 -0.4586  0.4777 -1.0166
 3470SOL     OW22042   1.492   4.637  13.944 -0.2448  0.3879  0.6859
 3470SOL    HW122043   1.508   4.691  13.867 -2.4420  2.1279  1.4665
 3470SOL    HW222044   1.576   4.634  13.989  1.8409  0.2818 -3.2412
 3471SOL     OW22045   1.082   2.882   3.915  0.4940 -0.1497 -0.3778
 3471SOL    HW122046   1.002   2.934   3.917 -0.2871 -1.3548 -0.4137
 3471SOL    HW222047   1.142   2.957   3.922 -2.6649  2.2581  0.7196
 3472SOL     OW22048   0.908   3.980   6.089 -0.2663 -0.2866 -0.1151
 3472SOL    HW122049   0.832   3.928   6.118 -0.2980 -0.0323  0.2606
 3472SOL    HW222050   0.984   3.922   6.091  1.8653  2.4919 -1.5748
 3473SOL     OW22051   1.971   3.394   0.617  0.0216  0.2163  0.3595
 3473SOL    HW122052   1.924   3.476   0.629  2.0226  1.7127 -2.0298
 3473SOL    HW222053   2.047   3.411   0.673  1.6685 -0.0404 -1.7668
 3474SOL     OW22054   0.266   4.680   5.919 -0.3096  0.5989  0.3173
 3474SOL    HW122055   0.253   4.654   5.828 -0.1527 -0.5322  0.6237
 3474SOL    HW222056   0.234   0.035   5.918  0.8329  1.0074  0.7215
 3475SOL     OW22057   3.545   0.489   8.414  0.1593 -0.2145 -0.6750
 3475SOL    HW122058   3.594   0.430   8.356  1.4206  0.6832 -0.5052
 3475SOL    HW222059   3.463   0.441   8.432  0.9858 -0.9410  1.2031
 3476SOL     OW22060   4.001   1.369   7.242  0.4343 -0.3459 -0.2972
 3476SOL    HW122061   3.978   1.285   7.281  1.2941 -1.6359 -2.5518
 3476SOL    HW222062   3.976   1.422   7.318 -1.6252 -2.3377  0.4245
 3477SOL     OW22063   2.442   2.348  14.997  0.2066 -0.4324  0.1411
 3477SOL    HW122064   2.527   2.349  14.953  0.3019 -2.4736  0.2843
 3477SOL    HW222065   2.462   2.295  15.074  1.3498 -0.0113  0.1434
 3478SOL     OW22066   3.711   2.912   8.283 -0.4681 -0.1037  0.1553
 3478SOL    HW122067   3.797   2.882   8.254  0.2834  0.7584  1.4952
 3478SOL    HW222068   3.662   2.880   8.207 -0.6687 -0.9928  0.6578
 3479SOL     OW22069   0.002   4.483   6.809 -0.2656 -0.0080 -0.1109
 3479SOL    HW122070   0.098   4.482   6.802 -0.1564  1.8257  1.3552
 3479SOL    HW222071   4.733   4.503   6.903 -3.3823 -2.4221  0.2496
 3480SOL     OW22072   4.319   0.301   2.153 -0.4081  0.3937 -0.3018
 3480SOL    HW122073   4.407   0.265   2.163  0.3272  1.3827 -3.1069
 3480SOL    HW222074   4.276   0.222   2.121 -0.4467  0.6009 -0.7664
 3481SOL     OW22075   4.089   0.669   5.984 -0.3369  0.2114 -0.2892
 3481SOL    HW122076   4.124   0.600   6.041 -1.6536 -1.0190 -0.9472
 3481SOL    HW222077   4.000   0.636   5.970 -0.3432  0.4383 -0.7686
 3482SOL     OW22078   3.918   1.202   8.567  0.0974  0.2409 -0.1506
 3482SOL    HW122079   3.853   1.272   8.559  0.5607  0.7141  0.2305
 3482SOL    HW222080   3.955   1.214   8.655  2.4316  1.9347 -1.3662
 3483SOL     OW22081   1.822   3.411   6.428 -0.1404 -0.0185 -0.3438
 3483SOL    HW122082   1.845   3.346   6.362 -0.3356 -1.1710  0.7236
 3483SOL    HW222083   1.905   3.433   6.469 -0.6268  2.4710 -0.6966
 3484SOL     OW22084   0.058   2.403   8.615  0.2347  0.1734  0.1867
 3484SOL    HW122085   0.046   2.372   8.525 -1.4869 -2.8641  1.4599
 3484SOL    HW222086   4.701   2.431   8.622  0.7213  2.2380 -1.5268
 3485SOL     OW22087   1.933   2.664   3.640  0.0661  0.0798  0.6617
 3485SOL    HW122088   1.939   2.621   3.555 -0.4750  2.5502 -0.6039
 3485SOL    HW222089   1.879   2.742   3.630  0.4563  0.3546  0.6741
 3486SOL     OW22090   3.510   2.280  14.946  0.7082 -0.1001  0.0595
 3486SOL    HW122091   3.451   2.295  14.872 -2.2308  1.3190  2.6445
 3486SOL    HW222092   3.467   2.203  14.983 -0.4468  0.1968 -0.6371
 3487SOL     OW22093   0.181   1.607   3.986 -0.2318  0.8227  0.0959
 3487SOL    HW122094   0.193   1.523   4.030 -0.6460  1.7949  2.0709
 3487SOL    HW222095   0.213   1.597   3.897 -1.7617 -0.6952 -0.2904
 3488SOL     OW22096   4.053   3.280   4.868 -0.0851  0.0847 -0.0468
 3488SOL    HW122097   4.042   3.366   4.828  0.2603 -0.2762 -0.9158
 3488SOL    HW222098   4.081   3.307   4.956  0.0845  1.2803 -0.4645
 3489SOL     OW22099   3.126   1.443   3.377  0.0611  0.2479 -0.2106
 3489SOL    HW122100   3.139   1.394   3.458 -1.5960 -0.6489 -0.4883
 3489SOL    HW222101   3.032   1.424   3.368  0.1063  0.2914 -0.7202
 3490SOL     OW22102   3.062   1.448   6.563 -0.6351 -0.1192  0.2702
 3490SOL    HW122103   3.039   1.391   6.490  1.7032 -0.7893  0.0659
 3490SOL    HW222104   3.044   1.389   6.636  0.4875  2.2668  2.4722
 3491SOL     OW22105   2.278   1.840   1.765 -0.0379 -0.4342 -0.3724
 3491SOL    HW122106   2.254   1.929   1.739 -3.2562 -1.3569 -0.6249
 3491SOL    HW222107   2.196   1.797   1.739 -1.1211  2.5008 -1.7792
 3492SOL     OW22108   3.284   2.976   2.683 -0.0650  0.1981  0.3339
 3492SOL    HW122109   3.208   2.921   2.663  1.0896 -1.4234  0.4085
 3492SOL    HW222110   3.289   3.020   2.598 -2.1322  1.9350  1.0908
 3493SOL     OW22111   4.680   2.817   2.708 -0.3032  0.8098 -0.0635
 3493SOL    HW122112   0.001   2.868   2.651 -0.1698  0.6840 -0.0466
 3493SOL    HW222113   0.003   2.742   2.723 -1.1786  0.3321  0.9756
 3494SOL     OW22114   3.565   4.262   8.917  0.4382 -0.4345  0.6099
 3494SOL    HW122115   3.551   4.350   8.883  0.4922 -0.2580  1.0426
 3494SOL    HW222116   3.482   4.267   8.965  0.0884  1.6518 -0.2333
 3495SOL     OW22117   2.496   1.586  14.316  0.4054  0.1283  0.2194
 3495SOL    HW122118   2.491   1.501  14.361  0.3578 -0.7214 -1.3653
 3495SOL    HW222119   2.451   1.566  14.234 -0.1982 -0.0785  0.6009
 3496SOL     OW22120   3.838   3.247   7.872 -0.0243 -0.6922 -0.3841
 3496SOL    HW122121   3.744   3.252   7.853 -0.2358 -0.0217  0.8123
 3496SOL    HW222122   3.862   3.339   7.877  2.3069 -1.3517  0.5700
 3497SOL     OW22123   1.754   3.753   0.302 -0.0758 -0.2779 -0.4515
 3497SOL    HW122124   1.756   3.845   0.332  0.5339 -0.6665  0.7211
 3497SOL    HW222125   1.665   3.743   0.271 -0.6851 -0.2075  1.2559
 3498SOL     OW22126   2.607   3.588   5.647 -0.5285 -0.3204  0.5060
 3498SOL    HW122127   2.596   3.522   5.578 -0.8741 -0.8551  1.0691
 3498SOL    HW222128   2.518   3.586   5.684 -0.3807  0.2211  0.8925
 3499SOL     OW22129   1.524   0.650   5.361  0.1081 -0.7704 -0.3846
 3499SOL    HW122130   1.560   0.735   5.383 -1.3319 -0.0094 -0.9751
 3499SOL    HW222131   1.442   0.675   5.317  0.2471 -2.6628 -1.7298
 3500SOL     OW22132   2.510   3.640  16.601 -0.1630  0.7305 -0.3454
 3500SOL    HW122133   2.560   3.592  16.535  0.2831 -0.9969  1.2530
 3500SOL    HW222134   2.423   3.648  16.563  0.0642  0.0932 -0.9858
 3501SOL     OW22135   2.638   4.535   1.454 -0.3003  0.8202 -0.2936
 3501SOL    HW122136   2.621   4.535   1.359 -1.9212 -0.2283  0.0025
 3501SOL    HW222137   2.563   4.589   1.477  0.2208  0.4846  2.1325
 3502SOL     OW22138   0.473   4.017   5.455 -0.5956  0.0547 -0.2365
 3502SOL    HW122139   0.404   4.049   5.396 -1.4745  1.6112  1.6434
 3502SOL    HW222140   0.551   4.065   5.426  0.2217 -1.4302 -0.4720
 3503SOL     OW22141   4.724   0.062   6.851 -0.0105 -0.0337 -0.2883
 3503SOL    HW122142   0.071   0.039   6.895 -0.1306 -0.9627 -0.5581
 3503SOL    HW222143   0.010   0.155   6.843 -1.0215  0.0833 -1.6186
 3504SOL     OW22144   2.337   3.247   6.600  0.8628 -0.4600 -0.2742
 3504SOL    HW122145   2.407   3.312   6.590 -0.4329  0.8833 -0.4947
 3504SOL    HW222146   2.350   3.205   6.685 -0.8357 -0.5454 -0.0728
 3505SOL     OW22147   0.339   0.556   4.285 -0.3667 -0.4813  0.4215
 3505SOL    HW122148   0.342   0.482   4.223  2.3587 -0.0641  0.0221
 3505SOL    HW222149   0.431   0.556   4.313 -0.0014 -1.1486 -0.7859
 3506SOL     OW22150   3.464   1.989   7.256 -0.0233  0.2008  0.3060
 3506SOL    HW122151   3.503   1.982   7.169  0.0036 -0.9654  0.4107
 3506SOL    HW222152   3.380   2.034   7.244  0.3422  1.1573  1.3166
 3507SOL     OW22153   3.421   3.483   7.846  0.5055  0.1002  0.4771
 3507SOL    HW122154   3.510   3.488   7.879  1.2563 -0.5882 -1.4595
 3507SOL    HW222155   3.385   3.571   7.856 -1.6908 -0.8963  1.3743
 3508SOL     OW22156   1.845   1.154   2.984 -0.5129  0.5434 -0.0062
 3508SOL    HW122157   1.822   1.066   2.956  0.1638 -0.1400  1.6049
 3508SOL    HW222158   1.938   1.157   2.961  0.0589  2.2461  2.5113
 3509SOL     OW22159   0.429   1.264   6.120  0.1246 -0.1845  0.2061
 3509SOL    HW122160   0.509   1.225   6.083  0.3564  0.9670 -0.4999
 3509SOL    HW222161   0.386   1.292   6.039 -0.8328 -1.2312  0.3592
 3510SOL     OW22162   2.266   0.202   6.537 -0.0335 -0.0403  0.1192
 3510SOL    HW122163   2.254   0.107   6.526  5.8875 -0.8551  0.8203
 3510SOL    HW222164   2.280   0.215   6.444 -1.0465 -0.7748 -0.1436
 3511SOL     OW22165   4.019   3.398  16.085  0.2020 -0.1247  0.2322
 3511SOL    HW122166   4.102   3.393  16.134 -0.1762 -2.5389  0.6173
 3511SOL    HW222167   4.051   3.366  16.001 -0.1852  1.2808 -0.4459
 3512SOL     OW22168   3.382   4.303   3.029  0.5190  0.9484 -0.0003
 3512SOL    HW122169   3.321   4.352   3.084  0.8407  1.3448  0.0000
 3512SOL    HW222170   3.453   4.361   3.003 -0.4967  1.4377 -1.7204
 3513SOL     OW22171   0.643   4.509  16.981 -0.0575  0.4995 -0.7175
 3513SOL    HW122172   0.686   4.539  16.901  0.2094 -0.2164 -0.8504
 3513SOL    HW222173   0.719   4.473  17.026  0.1771 -0.4521 -1.8473
 3514SOL     OW22174   0.718   4.711   6.329  0.0300 -0.4062 -0.0490
 3514SOL    HW122175   0.715   0.011   6.418  2.8040 -0.3450  0.0194
 3514SOL    HW222176   0.812   4.702   6.314  0.0509  1.9397 -1.3454
 3515SOL     OW22177   3.538   3.958   6.137  0.0587 -0.1220 -0.0416
 3515SOL    HW122178   3.455   3.992   6.170  0.0391 -0.4161  0.2155
 3515SOL    HW222179   3.590   4.038   6.129  0.1063 -0.0587  0.9965
 3516SOL     OW22180   2.466   4.535   3.081  0.2076  0.0869 -0.0079
 3516SOL    HW122181   2.549   4.504   3.119  1.2400 -0.7400 -2.9551
 3516SOL    HW222182   2.413   4.546   3.160  0.2390  0.8817 -0.0967
 3517SOL     OW22183   1.788   2.859   5.140 -0.7574 -0.3322 -0.1073
 3517SOL    HW122184   1.746   2.787   5.093 -0.2939 -1.2264  0.8369
 3517SOL    HW222185   1.709   2.904   5.169  0.2216  1.9830 -1.0391
 3518SOL     OW22186   3.681   0.443   3.858 -0.6336  0.2553 -0.4131
 3518SOL    HW122187   3.594   0.480   3.878  0.0458  1.1829  0.8263
 3518SOL    HW222188   3.736   0.521   3.867 -1.1179  0.4025  1.2794
 3519SOL     OW22189   1.003   4.367   6.729 -0.2020  0.0048 -0.5643
 3519SOL    HW122190   1.025   4.293   6.786  0.9886  1.7407  1.2179
 3519SOL    HW222191   0.994   4.318   6.647  3.5473 -0.3783 -0.7459
 3520SOL     OW22192   2.806   3.599   1.733  0.2192  0.4178 -0.6018
 3520SOL    HW122193   2.718   3.594   1.771  0.7587  0.1474  0.6205
 3520SOL    HW222194   2.782   3.646   1.654 -0.2191  0.1889 -0.6039
 3521SOL     OW22195   0.762   1.905   3.919  0.3127  0.8952 -0.0689
 3521SOL    HW122196   0.725   1.986   3.956  0.4191 -0.0984  2.2191
 3521SOL    HW222197   0.730   1.922   3.830  0.4004 -1.6514 -0.5706
 3522SOL     OW22198   3.523   4.458   7.119 -0.1720  0.0361  0.2396
 3522SOL    HW122199   3.474   4.434   7.040  1.5272 -1.6321 -0.3210
 3522SOL    HW222200   3.574   4.377   7.126  1.5696  1.2494  1.4561
 3523SOL     OW22201   1.201   2.222   7.256 -0.6632 -0.6456  0.2566
 3523SOL    HW122202   1.223   2.201   7.165  1.2518 -2.4466  1.1307
 3523SOL    HW222203   1.122   2.275   7.246 -1.4757 -1.6577  1.4487
 3524SOL     OW22204   0.795   0.136  12.094  0.3067 -0.0732 -0.0914
 3524SOL    HW122205   0.887   0.143  12.120 -0.2272 -0.4755  1.8987
 3524SOL    HW222206   0.798   0.050  12.053 -1.7539  0.6653 -1.7815
 3525SOL     OW22207   1.745   3.892   0.644 -0.4975 -0.0956  0.2336
 3525SOL    HW122208   1.682   3.960   0.620  0.2156  1.0053  1.4883
 3525SOL    HW222209   1.730   3.896   0.739 -2.0378  2.7762 -0.1134
 3526SOL     OW22210   1.510   2.817   9.408  0.6451  0.5091  0.1732
 3526SOL    HW122211   1.513   2.876   9.483  1.2968  1.5876 -0.6874
 3526SOL    HW222212   1.571   2.856   9.345  1.0230 -1.2773 -0.5416
 3527SOL     OW22213   4.153   2.957   1.568  0.1711 -0.6294 -0.1293
 3527SOL    HW122214   4.169   3.036   1.619  2.3440 -0.5936 -0.8408
 3527SOL    HW222215   4.058   2.964   1.560  0.5533  2.4599 -1.8732
 3528SOL     OW22216   0.308   1.847   4.569 -0.2343  0.3079 -0.3437
 3528SOL    HW122217   0.367   1.871   4.641  0.9127 -0.4965 -1.0137
 3528SOL    HW222218   0.255   1.924   4.547  0.1196  0.8381  0.6589
 3529SOL     OW22219   2.567   2.606   7.679 -0.3041 -0.1682  0.2019
 3529SOL    HW122220   2.638   2.657   7.717 -1.5210  2.0119 -0.4424
 3529SOL    HW222221   2.494   2.664   7.700 -0.0975 -0.7904  2.6455
 3530SOL     OW22222   0.458   3.547   7.287  0.0705  0.4060 -0.1451
 3530SOL    HW122223   0.413   3.584   7.363 -0.3574  0.4902 -0.4388
 3530SOL    HW222224   0.387   3.509   7.236  1.7662 -3.2626  0.1797
 3531SOL     OW22225   1.137   1.053  13.722  0.8470 -0.5455 -0.2062
 3531SOL    HW122226   1.145   0.962  13.693  0.6796  0.0230 -2.0084
 3531SOL    HW222227   1.081   1.044  13.799 -0.3254 -0.3130 -1.0359
 3532SOL     OW22228   3.425   1.439   7.558 -0.2286  0.2876  0.0942
 3532SOL    HW122229   3.423   1.528   7.593  0.2418  0.3695 -0.0861
 3532SOL    HW222230   3.501   1.427   7.501 -1.9477 -2.3441 -1.6343
 3533SOL     OW22231   1.846   1.351   2.632 -0.2057  0.2846  0.4354
 3533SOL    HW122232   1.780   1.310   2.576 -0.6825  1.8027 -0.0962
 3533SOL    HW222233   1.827   1.305   2.714 -1.0308  0.4354  0.3277
 3534SOL     OW22234   4.105   0.915   1.678 -0.1820  0.1581  0.6520
 3534SOL    HW122235   4.148   0.834   1.706  0.8412 -0.0966 -1.6350
 3534SOL    HW222236   4.170   0.975   1.642 -0.8976  1.0084  0.7967
 3535SOL     OW22237   0.149   1.751   6.079 -0.2957 -0.3290  0.6903
 3535SOL    HW122238   0.193   1.806   6.143  2.0266 -1.7314  0.3020
 3535SOL    HW222239   0.211   1.735   6.008  1.4956 -1.5564  2.5459
 3536SOL     OW22240   0.112   0.346  16.460 -0.4879 -0.1781  0.7674
 3536SOL    HW122241   0.201   0.312  16.463 -0.8599 -1.0591  1.9022
 3536SOL    HW222242   0.122   0.431  16.417  0.7654 -0.4558  0.5266
 3537SOL     OW22243   1.819   1.533   8.534 -0.3307 -0.2319  0.0631
 3537SOL    HW122244   1.882   1.605   8.535 -0.1030 -0.4366  0.7255
 3537SOL    HW222245   1.773   1.564   8.613  2.9862  0.0665  1.8837
 3538SOL     OW22246   1.814   0.284   2.241 -0.1103  0.4936  0.2166
 3538SOL    HW122247   1.826   0.277   2.146 -0.8584  5.8587 -0.2523
 3538SOL    HW222248   1.765   0.367   2.242 -1.0414 -0.0505  0.4296
 3539SOL     OW22249   3.523   0.699  12.456  0.3632  0.0759 -0.1080
 3539SOL    HW122250   3.595   0.646  12.421  0.9099 -0.2181  1.4387
 3539SOL    HW222251   3.548   0.788  12.428  0.2214 -0.1145 -0.8285
 3540SOL     OW22252   4.034   0.557  12.547  0.5581 -0.0173 -0.1476
 3540SOL    HW122253   3.992   0.503  12.615  0.7830 -1.3345 -1.0521
 3540SOL    HW222254   4.033   0.498  12.472  2.3418 -0.8830  0.5012
 3541SOL     OW22255   2.686   4.539   2.596 -0.4374 -0.2002 -0.1242
 3541SOL    HW122256   2.763   4.514   2.648 -0.6530 -1.0189 -0.1915
 3541SOL    HW222257   2.724   4.593   2.527 -0.0633 -0.2937  0.0029
 3542SOL     OW22258   1.799   4.117   2.279 -0.0203 -0.2699 -0.0070
 3542SOL    HW122259   1.800   4.075   2.193 -0.0264  1.4569 -0.8391
 3542SOL    HW222260   1.840   4.046   2.328  1.8346  1.2174  0.5968
 3543SOL     OW22261   2.230   4.313  12.166  0.1372  0.6233 -0.0469
 3543SOL    HW122262   2.226   4.262  12.247  0.2240 -0.2931 -0.6171
 3543SOL    HW222263   2.137   4.301  12.146  0.1509  0.5167 -0.0491
 3544SOL     OW22264   3.285   2.880   6.807  0.8311 -0.3251  0.2846
 3544SOL    HW122265   3.256   2.869   6.898 -2.0788  1.4160 -0.4507
 3544SOL    HW222266   3.342   2.803   6.805  1.4032  0.0535  2.1765
 3545SOL     OW22267   4.506   0.821  15.101  0.2212  0.3703  0.6953
 3545SOL    HW122268   4.445   0.749  15.115  1.0834  0.0169  2.6927
 3545SOL    HW222269   4.568   0.783  15.038  0.7280 -0.2229  1.5499
 3546SOL     OW22270   3.639   4.478   4.224 -0.1063 -0.1683  0.1899
 3546SOL    HW122271   3.609   4.396   4.262 -0.4946  0.3214  0.9390
 3546SOL    HW222272   3.702   4.434   4.167  2.8545  1.9869  1.7912
 3547SOL     OW22273   1.807   3.493   8.102 -0.3489  0.2107 -0.4398
 3547SOL    HW122274   1.881   3.529   8.151 -0.9986  0.8384  0.0866
 3547SOL    HW222275   1.806   3.555   8.030 -1.8767  0.4641 -0.2028
 3548SOL     OW22276   0.901   1.585  17.095  0.0185  0.1523  0.3471
 3548SOL    HW122277   0.814   1.561  17.061  0.9235  1.0548 -2.6131
 3548SOL    HW222278   0.879   1.661  17.149 -0.0739  0.3069  0.0962
 3549SOL     OW22279   1.805   3.835  17.368 -0.3655  0.4736  0.3203
 3549SOL    HW122280   1.900   3.822  17.373 -0.6200 -1.9068 -0.6446
 3549SOL    HW222281   1.786   3.799  17.281  0.5785 -0.3950  0.4754
 3550SOL     OW22282   1.915   2.929   2.185  0.5298 -0.2599  0.7623
 3550SOL    HW122283   1.953   2.850   2.147 -1.1943  0.2659 -1.9775
 3550SOL    HW222284   1.990   2.980   2.217  0.4205 -0.4794  1.3898
 3551SOL     OW22285   2.849   3.632   2.692  0.0982  0.1416 -0.7468
 3551SOL    HW122286   2.937   3.640   2.658  0.2657  1.6826  0.0290
 3551SOL    HW222287   2.851   3.537   2.701  2.8735  0.4303  1.5933
 3552SOL     OW22288   4.185   0.545  16.580  0.0995 -0.5895  0.4227
 3552SOL    HW122289   4.203   0.532  16.487  0.2482  2.9101 -0.0267
 3552SOL    HW222290   4.239   0.472  16.610 -1.0422 -0.5313  2.6195
 3553SOL     OW22291   2.159   3.219  11.493 -0.4881  0.2731  0.8215
 3553SOL    HW122292   2.219   3.221  11.567 -0.7964 -1.4217  1.1041
 3553SOL    HW222293   2.078   3.240  11.540 -2.1037 -1.0647 -1.3796
 3554SOL     OW22294   3.826   1.701   4.182  0.0758  0.4535  0.2230
 3554SOL    HW122295   3.916   1.671   4.191  0.1803  1.1179  1.3463
 3554SOL    HW222296   3.840   1.776   4.124  1.0100 -0.7725 -1.1341
 3555SOL     OW22297   2.684   1.844   8.642  0.4242  0.1882  0.9428
 3555SOL    HW122298   2.741   1.770   8.621 -0.1577 -1.4672  5.2831
 3555SOL    HW222299   2.658   1.865   8.552 -1.5011  3.5228  2.2744
 3556SOL     OW22300   4.159   2.192   6.598  0.0371 -0.3361 -0.1171
 3556SOL    HW122301   4.159   2.130   6.670 -0.9236  0.3002  0.4360
 3556SOL    HW222302   4.252   2.216   6.602  0.1982 -0.7309 -1.5517
 3557SOL     OW22303   3.463   2.319  13.159  0.1918  0.1920  0.8123
 3557SOL    HW122304   3.414   2.397  13.134  0.2390 -0.1014 -0.1866
 3557SOL    HW222305   3.412   2.267  13.221  1.3431 -2.9425 -0.8253
 3558SOL     OW22306   3.953   0.002  12.192  0.1410  0.6469 -0.5581
 3558SOL    HW122307   3.927   0.053  12.115  1.8385  0.8055 -1.0275
 3558SOL    HW222308   3.963   0.076  12.253  0.3872 -1.8332  2.4013
 3559SOL     OW22309   0.531   4.431  12.014 -0.3465 -0.3674 -0.0506
 3559SOL    HW122310   0.440   4.401  12.005 -0.3627  0.0939 -1.4345
 3559SOL    HW222311   0.540   4.505  11.953 -0.8955 -0.3993 -0.1713
 3560SOL     OW22312   4.375   3.897   5.079 -0.5781  0.2287 -0.5544
 3560SOL    HW122313   4.312   3.967   5.065 -0.8059  0.0586 -0.3761
 3560SOL    HW222314   4.451   3.927   5.029  2.7700 -3.1469  2.4913
 3561SOL     OW22315   3.046   4.111   3.001 -0.5535 -0.0890 -0.1171
 3561SOL    HW122316   2.979   4.114   2.933 -1.1338 -3.9427  0.2741
 3561SOL    HW222317   3.099   4.186   2.976  0.7044 -0.5036  1.2694
 3562SOL     OW22318   0.375   0.373   4.088 -0.6533  0.4542  0.5341
 3562SOL    HW122319   0.464   0.378   4.055 -0.5685  0.9092  0.8382
 3562SOL    HW222320   0.328   0.315   4.028 -1.0141  1.3859 -0.0758
 3563SOL     OW22321   3.299   3.974   1.976 -0.5529 -0.0783 -0.3320
 3563SOL    HW122322   3.307   4.015   2.062  1.0088  0.2211 -0.6233
 3563SOL    HW222323   3.378   3.921   1.968  0.5475  1.4204  0.7148
 3564SOL     OW22324   2.851   3.849   6.734 -0.1427 -0.1365  0.2245
 3564SOL    HW122325   2.878   3.761   6.759  1.5405  0.2167 -0.3567
 3564SOL    HW222326   2.830   3.843   6.641 -0.6016  1.2992  0.2276
 3565SOL     OW22327   1.712   0.504   8.219 -0.3066 -0.0947  0.2046
 3565SOL    HW122328   1.775   0.491   8.290  0.7666 -1.2363 -0.9461
 3565SOL    HW222329   1.660   0.430   8.251  2.1212 -1.6566  0.5375
 3566SOL     OW22330   1.792   3.800  15.547  0.3968  0.6750 -0.5277
 3566SOL    HW122331   1.728   3.852  15.498 -1.1396 -1.3888 -0.6721
 3566SOL    HW222332   1.797   3.714  15.504 -2.1835 -0.4003  1.3612
 3567SOL     OW22333   0.729   4.547   7.130  0.4278  0.6349 -0.0985
 3567SOL    HW122334   0.714   4.524   7.222 -3.9221  0.2661 -0.8686
 3567SOL    HW222335   0.764   4.636   7.126  1.3613  0.1511 -2.7799
 3568SOL     OW22336   3.632   2.521   8.225 -0.5086 -0.0441  0.2458
 3568SOL    HW122337   3.694   2.463   8.268 -1.0517  0.1329  1.2645
 3568SOL    HW222338   3.697   2.559   8.165  0.5087 -2.1486  0.0298
 3569SOL     OW22339   1.144   1.105   4.625 -0.3737 -0.6606 -0.3623
 3569SOL    HW122340   1.136   1.153   4.708  0.1886  1.4111 -1.4902
 3569SOL    HW222341   1.056   1.121   4.592 -0.3279  0.4465  0.0376
 3570SOL     OW22342   0.484   2.209   3.909 -0.2564 -0.2472  0.0492
 3570SOL    HW122343   0.480   2.169   3.996 -0.6258 -2.8107 -1.1568
 3570SOL    HW222344   0.442   2.140   3.859 -0.4771  0.9830 -1.4528
 3571SOL     OW22345   4.452   0.399   8.957 -0.3047  0.0226 -0.0652
 3571SOL    HW122346   4.441   0.325   9.017 -0.3890 -0.1736 -0.3275
 3571SOL    HW222347   4.369   0.444   8.973 -0.8128  0.1173 -3.1448
 3572SOL     OW22348   4.572   1.492   4.384 -0.0436  0.0756 -0.2710
 3572SOL    HW122349   4.546   1.458   4.298  0.7917  2.5185 -1.4718
 3572SOL    HW222350   4.500   1.549   4.410 -0.2333  0.9726 -2.7203
 3573SOL     OW22351   1.555   0.787   4.773  0.1328  0.1199  0.9269
 3573SOL    HW122352   1.587   0.808   4.861  1.5502  2.5320 -0.1737
 3573SOL    HW222353   1.627   0.736   4.737  0.2992 -1.0394  2.8462
 3574SOL     OW22354   0.563   1.968  12.912  0.3814  0.1218 -0.2078
 3574SOL    HW122355   0.501   2.032  12.878  0.1933 -0.9229 -1.8177
 3574SOL    HW222356   0.593   1.922  12.834 -1.8736 -1.1794 -0.3267
 3575SOL     OW22357   3.416   2.992   6.449  0.3990  0.2359  0.2004
 3575SOL    HW122358   3.486   2.958   6.393  1.9571  0.7491  1.8433
 3575SOL    HW222359   3.444   3.083   6.456 -0.4182  0.5231 -0.2408
 3576SOL     OW22360   4.584   3.301   2.301  0.2957  0.7061 -0.0028
 3576SOL    HW122361   4.559   3.299   2.208  0.8458  1.1170 -0.1601
 3576SOL    HW222362   4.617   3.211   2.309 -1.9934 -0.1389  0.0158
 3577SOL     OW22363   1.003   3.288   0.523 -0.0003 -0.2017  0.3313
 3577SOL    HW122364   1.020   3.288   0.429 -1.3821  0.7661  0.0828
 3577SOL    HW222365   1.065   3.221   0.553  0.3180 -0.8615 -1.7732
 3578SOL     OW22366   0.718   4.174   0.932 -0.0870  0.4788  0.0084
 3578SOL    HW122367   0.766   4.235   0.988  3.0349 -0.0010 -2.1802
 3578SOL    HW222368   0.636   4.154   0.977 -0.9422  0.6031 -1.4855
 3579SOL     OW22369   4.465   2.016   7.594  0.0289  0.4692  0.7376
 3579SOL    HW122370   4.445   1.931   7.554  2.6277  0.0747  0.2318
 3579SOL    HW222371   4.521   2.057   7.528 -0.3250 -0.1355  0.0533
 3580SOL     OW22372   2.422   1.031  16.699 -0.4118 -0.0118  0.1938
 3580SOL    HW122373   2.507   1.072  16.711 -0.3483 -0.2399  0.5404
 3580SOL    HW222374   2.392   1.104  16.646  2.2455 -0.4458 -1.8918
 3581SOL     OW22375   3.600   3.188   9.610  0.5526 -0.0067 -0.5026
 3581SOL    HW122376   3.626   3.276   9.638 -1.3007  1.3347 -2.9173
 3581SOL    HW222377   3.583   3.210   9.519 -0.1468 -0.2710 -0.4408
 3582SOL     OW22378   1.239   0.272   0.008 -0.0284  0.2032  0.0570
 3582SOL    HW122379   1.280   0.192   0.040 -1.0028  0.4590  1.9573
 3582SOL    HW222380   1.195   0.239  17.668 -0.6102 -1.2280  0.9906
 3583SOL     OW22381   3.559   2.599   4.658  0.3134  0.1448  0.5817
 3583SOL    HW122382   3.511   2.546   4.722 -0.6417  3.0713  2.3006
 3583SOL    HW222383   3.493   2.667   4.642  1.0859  0.7054 -0.2280
 3584SOL     OW22384   0.543   0.056  11.154  0.2360 -0.3563  0.0889
 3584SOL    HW122385   0.454   0.092  11.148 -0.5666 -2.6071 -1.6428
 3584SOL    HW222386   0.523   4.705  11.116  0.7139  0.0991 -1.2090
 3585SOL     OW22387   2.819   3.668   7.718  0.5306  0.3698  0.0013
 3585SOL    HW122388   2.728   3.637   7.719  0.2039  1.3438  1.1737
 3585SOL    HW222389   2.813   3.712   7.633  1.8826  1.4146  0.4433
 3586SOL     OW22390   2.509   2.228  14.658 -0.4828 -0.2941  0.0471
 3586SOL    HW122391   2.422   2.264  14.677  1.1957  3.5842  0.3631
 3586SOL    HW222392   2.566   2.293  14.699  0.7847 -1.4089  0.0513
 3587SOL     OW22393   3.143   2.381  15.834 -0.0089 -0.0278 -0.5920
 3587SOL    HW122394   3.133   2.298  15.789  3.0805 -1.3552  1.1206
 3587SOL    HW222395   3.060   2.418  15.805 -0.7018  0.0248  1.4052
 3588SOL     OW22396   2.659   4.444  13.260 -0.1393  0.4782  0.0402
 3588SOL    HW122397   2.580   4.429  13.208 -0.0148 -1.6340  0.4414
 3588SOL    HW222398   2.677   4.537  13.248  1.2931 -0.1025 -2.2677
 3589SOL     OW22399   2.346   2.665  14.994  0.2231 -0.0554  0.0767
 3589SOL    HW122400   2.300   2.736  15.039  1.4420 -0.0374  1.2846
 3589SOL    HW222401   2.287   2.595  15.021  0.6245 -0.6036 -0.4739
 3590SOL     OW22402   2.981   1.012   1.466  0.5301 -0.1090 -0.3919
 3590SOL    HW122403   3.058   1.048   1.421  1.9770 -0.4732  1.7533
 3590SOL    HW222404   3.030   0.945   1.514  0.4233 -1.4979 -2.2128
 3591SOL     OW22405   2.245   0.948   2.562  0.8692  0.3252 -0.1569
 3591SOL    HW122406   2.296   1.012   2.612 -0.8250  0.5675  1.2709
 3591SOL    HW222407   2.233   0.992   2.478  0.6286  1.6079  0.5392
 3592SOL     OW22408   4.184   1.409   6.277  0.0857  0.5500 -0.2140
 3592SOL    HW122409   4.102   1.364   6.259  0.2991  0.0379  0.0821
 3592SOL    HW222410   4.215   1.441   6.192  2.7412  0.8468  0.8588
 3593SOL     OW22411   2.554   2.884   4.939 -0.5896  0.0294 -0.1251
 3593SOL    HW122412   2.461   2.868   4.925 -0.9309  2.2023 -0.3377
 3593SOL    HW222413   2.578   2.792   4.952 -0.9002  0.2315  1.9010
 3594SOL     OW22414   3.031   2.577  15.995 -0.3107 -0.5142  0.3512
 3594SOL    HW122415   3.073   2.499  15.958 -0.2111  0.0272 -0.6770
 3594SOL    HW222416   3.103   2.641  15.995 -0.7475 -0.0363  1.7791
 3595SOL     OW22417   1.005   3.224  16.254  0.3071 -0.1378 -0.4550
 3595SOL    HW122418   1.069   3.291  16.230 -0.5761  0.7455 -0.3628
 3595SOL    HW222419   0.925   3.260  16.214 -0.9833 -2.8471 -0.3156
 3596SOL     OW22420   2.885   0.437   7.196  0.0070 -0.3659  0.0313
 3596SOL    HW122421   2.871   0.531   7.195  1.7691 -0.1367 -3.7674
 3596SOL    HW222422   2.849   0.417   7.109  0.8299 -1.7404  0.0152
 3597SOL     OW22423   0.806   2.705   3.267  0.5307 -0.2669  0.4974
 3597SOL    HW122424   0.749   2.741   3.335 -0.0961  0.9480 -0.6933
 3597SOL    HW222425   0.866   2.779   3.258  0.1538  0.0500  0.6132
 3598SOL     OW22426   1.061   2.728   8.857  0.1959  0.4836  0.0837
 3598SOL    HW122427   0.980   2.697   8.817 -1.0025 -0.1311  2.9566
 3598SOL    HW222428   1.106   2.648   8.883 -1.8242 -0.2970  1.2427
 3599SOL     OW22429   0.121   4.507   3.364 -0.3893  0.4435 -0.1173
 3599SOL    HW122430   0.151   4.419   3.388 -0.0118  0.2687 -1.2461
 3599SOL    HW222431   0.116   4.507   3.269 -0.4605  0.5186 -0.1130
 3600SOL     OW22432   2.403   2.067  13.796  0.3805  0.3025  0.4981
 3600SOL    HW122433   2.486   2.055  13.843 -0.0826  0.2956  1.3112
 3600SOL    HW222434   2.428   2.059  13.704 -0.6942  2.5604  0.0277
 3601SOL     OW22435   1.475   3.969  16.268  0.5106  0.1893 -0.2843
 3601SOL    HW122436   1.526   3.997  16.345  0.7743 -1.8952  0.3000
 3601SOL    HW222437   1.493   3.877  16.253  0.0556  0.6953 -3.8529
 3602SOL     OW22438   0.481   1.853   4.298  0.7263  1.0190  0.7406
 3602SOL    HW122439   0.558   1.812   4.338  1.3983  0.5270 -1.0826
 3602SOL    HW222440   0.440   1.874   4.382 -1.9078  0.0189 -0.3141
 3603SOL     OW22441   1.390   0.678   3.908  0.1186  0.2799  0.3422
 3603SOL    HW122442   1.351   0.754   3.864  0.0214  0.6763  1.1135
 3603SOL    HW222443   1.354   0.700   3.994  0.2154 -0.0491  0.4644
 3604SOL     OW22444   0.505   1.018   1.000  0.4101 -0.2756 -0.5819
 3604SOL    HW122445   0.412   0.999   1.009  0.4705 -0.2988 -0.0167
 3604SOL    HW222446   0.508   1.110   0.974 -2.5273 -0.4165 -1.3770
 3605SOL     OW22447   2.027   4.378   2.937 -0.4145 -0.4401  0.1341
 3605SOL    HW122448   2.093   4.336   2.992 -0.0047  2.8086  2.1249
 3605SOL    HW222449   2.060   4.348   2.853  0.3877  2.2446 -0.4985
 3606SOL     OW22450   0.326   3.204   1.743 -0.6253 -0.2302 -0.1456
 3606SOL    HW122451   0.369   3.260   1.679  0.8364  2.5015  3.2287
 3606SOL    HW222452   0.372   3.122   1.727  0.2311  0.6396 -2.0374
 3607SOL     OW22453   0.151   3.734   6.910  0.3252 -0.1234 -0.6075
 3607SOL    HW122454   0.182   3.651   6.947 -0.1695  0.0001  0.0867
 3607SOL    HW222455   0.232   3.771   6.875 -0.0240  0.9866 -0.2414
 3608SOL     OW22456   3.953   2.440   0.980  0.0725 -0.1368 -0.0523
 3608SOL    HW122457   4.047   2.425   0.980  0.2368  0.8592  2.1977
 3608SOL    HW222458   3.931   2.407   1.068 -0.5895  1.0545  0.2384
 3609SOL     OW22459   4.712   3.749   4.880  0.4530  0.1910 -0.0926
 3609SOL    HW122460   0.047   3.790   4.931  0.2579 -0.7240  0.9092
 3609SOL    HW222461   4.655   3.710   4.947  1.7124 -1.0066  0.2930
 3610SOL     OW22462   1.227   4.181  15.972  0.1861 -0.6236 -0.1870
 3610SOL    HW122463   1.293   4.153  15.908 -1.1313  2.2971 -2.7774
 3610SOL    HW222464   1.145   4.196  15.925 -1.2731 -1.7539  1.9905
 3611SOL     OW22465   2.570   4.404   4.366  0.3325 -0.1535 -0.5913
 3611SOL    HW122466   2.507   4.476   4.369  2.0990  1.3269  1.8377
 3611SOL    HW222467   2.648   4.419   4.312  0.7469 -1.9876 -0.5081
 3612SOL     OW22468   1.198   4.558   6.047  0.1151  0.0639  0.4756
 3612SOL    HW122469   1.240   4.476   6.020  0.1581  0.5556 -0.9609
 3612SOL    HW222470   1.107   4.546   6.018  0.7443 -0.6224 -1.2286
 3613SOL     OW22471   2.812   3.505   6.086  0.4610  0.0027 -0.1467
 3613SOL    HW122472   2.822   3.563   6.010  0.0294 -0.1848 -0.3479
 3613SOL    HW222473   2.728   3.468   6.058  0.3242  0.0006  0.2652
 3614SOL     OW22474   0.026   0.151  17.207 -0.1945 -0.2937 -0.2543
 3614SOL    HW122475   0.052   0.201  17.284  0.6862 -2.0530  0.5703
 3614SOL    HW222476   4.665   0.158  17.209 -0.0516  1.6358 -0.7102
 3615SOL     OW22477   0.795   3.008   0.549 -0.6194 -0.0883  0.1513
 3615SOL    HW122478   0.854   3.078   0.578 -0.1787  0.3126 -1.7320
 3615SOL    HW222479   0.865   2.954   0.512 -0.6773 -0.3408  0.4090
 3616SOL     OW22480   1.740   4.056   9.011 -0.6748  0.5879 -0.3441
 3616SOL    HW122481   1.797   4.125   8.978  1.8579 -1.6566 -0.6754
 3616SOL    HW222482   1.788   4.000   9.072  0.0139  0.4120 -1.0461
 3617SOL     OW22483   1.247   3.125  11.970  0.4110 -0.4009  0.4650
 3617SOL    HW122484   1.332   3.106  11.931  1.2870  2.4611  0.9727
 3617SOL    HW222485   1.248   3.107  12.064  1.9056 -0.8565  0.3720
 3618SOL     OW22486   0.393   4.206   1.191 -0.2707  0.4971 -0.3685
 3618SOL    HW122487   0.366   4.195   1.282 -1.4693 -1.9851 -1.0184
 3618SOL    HW222488   0.468   4.264   1.207 -0.5312  0.5310  0.7643
 3619SOL     OW22489   2.234   4.555   3.580  0.1093 -0.1049  0.2540
 3619SOL    HW122490   2.318   4.592   3.607 -0.2803  0.5976  0.4920
 3619SOL    HW222491   2.170   4.625   3.593 -2.3452 -2.1937 -0.5495
 3620SOL     OW22492   3.004   3.426   8.561  0.2011  0.2532  0.0765
 3620SOL    HW122493   2.991   3.338   8.526  2.6266  0.5447 -1.5843
 3620SOL    HW222494   3.056   3.412   8.640 -0.2511  0.9295  0.4907
 3621SOL     OW22495   3.115   1.671   1.073 -0.1628  0.3403 -0.1435
 3621SOL    HW122496   3.058   1.706   1.004  2.0111 -2.8284 -3.5455
 3621SOL    HW222497   3.187   1.632   1.022 -1.6581 -0.1846 -1.8787
 3622SOL     OW22498   4.011   1.980   7.373 -0.3295  0.0402 -0.9576
 3622SOL    HW122499   4.009   2.066   7.415 -0.1926 -0.7547  0.6473
 3622SOL    HW222500   3.978   2.013   7.289 -1.1494  1.3819 -0.1161
 3623SOL     OW22501   3.555   0.845   3.728  0.3000 -0.7541  0.4780
 3623SOL    HW122502   3.520   0.776   3.672 -0.8609 -0.9427  1.4211
 3623SOL    HW222503   3.469   0.865   3.766  1.2955 -0.8477  2.7484
 3624SOL     OW22504   0.107   3.726   4.361  0.0666  0.0755 -0.4838
 3624SOL    HW122505   0.108   3.638   4.324 -0.8846 -0.2700  0.3152
 3624SOL    HW222506   0.027   3.723   4.414  0.6986 -2.7003  0.2853
 3625SOL     OW22507   3.153   0.778  12.430  0.0339  0.0541  0.2925
 3625SOL    HW122508   3.071   0.796  12.386 -1.1070 -2.8563  1.2281
 3625SOL    HW222509   3.126   0.792  12.521  0.3808  0.6996  0.2953
 3626SOL     OW22510   3.386   3.987   2.244  0.1016 -0.2925 -0.9732
 3626SOL    HW122511   3.464   3.987   2.300 -1.3025  1.5076  0.9802
 3626SOL    HW222512   3.320   4.024   2.302  1.4788  0.4519  0.1319
 3627SOL     OW22513   0.461   3.352   3.015  0.3788  0.2721 -0.0914
 3627SOL    HW122514   0.521   3.411   2.969 -0.6421  0.5223 -1.1006
 3627SOL    HW222515   0.449   3.283   2.949  0.3627 -2.0184  2.3324
 3628SOL     OW22516   2.607   1.262   1.206 -0.0740 -0.6820 -0.2013
 3628SOL    HW122517   2.601   1.167   1.201 -0.6243 -0.7657  2.0651
 3628SOL    HW222518   2.620   1.279   1.113 -0.9543 -0.1866 -0.2376
 3629SOL     OW22519   3.710   1.164   8.402  0.0534  0.0039 -0.6925
 3629SOL    HW122520   3.805   1.176   8.405  0.1496 -0.8624 -0.2571
 3629SOL    HW222521   3.689   1.087   8.454  2.5308 -1.0503 -1.2452
 3630SOL     OW22522   1.636   2.585   7.796 -0.3571  0.1771 -0.0705
 3630SOL    HW122523   1.591   2.530   7.861 -1.0662 -0.3637 -1.0057
 3630SOL    HW222524   1.597   2.563   7.711  0.3548  0.7011 -0.5294
 3631SOL     OW22525   2.914   0.558   1.997  0.3043  0.2754  0.0037
 3631SOL    HW122526   2.843   0.577   1.935  1.0371 -0.4484 -1.0684
 3631SOL    HW222527   2.887   0.617   2.067 -1.0340  2.4955 -2.3606
 3632SOL     OW22528   2.188   0.520  14.019 -0.0055  0.3101  0.0699
 3632SOL    HW122529   2.134   0.442  14.004 -0.4574  0.2775  1.9129
 3632SOL    HW222530   2.127   0.582  14.057  0.2906 -0.3841  1.6741
 3633SOL     OW22531   0.054   3.695  11.501  0.4161 -0.6337 -0.7117
 3633SOL    HW122532   0.033   3.754  11.573  0.3023  0.3359 -1.5418
 3633SOL    HW222533   4.720   3.629  11.505 -1.1326  1.2300  2.8132
 3634SOL     OW22534   3.926   3.086  16.904  0.3697  0.1225  0.4305
 3634SOL    HW122535   4.005   3.140  16.911 -1.7648  3.2436  0.7494
 3634SOL    HW222536   3.883   3.140  16.837  0.0256 -0.3102  0.3048
 3635SOL     OW22537   3.384   1.343   9.219 -0.4296  0.4856 -0.2559
 3635SOL    HW122538   3.412   1.374   9.133  1.2065 -0.1630  0.0388
 3635SOL    HW222539   3.440   1.265   9.223 -0.3700  0.5254 -0.3042
 3636SOL     OW22540   4.207   3.046  10.120  0.3029  0.0016 -0.3928
 3636SOL    HW122541   4.131   3.053  10.062  2.5674  0.8879 -3.2515
 3636SOL    HW222542   4.160   3.023  10.200  1.9376  1.6339  1.0306
 3637SOL     OW22543   3.634   3.215   4.604 -0.2853  0.1620 -0.4463
 3637SOL    HW122544   3.577   3.155   4.650  1.6066 -0.3777  1.1863
 3637SOL    HW222545   3.638   3.182   4.514  1.0986  2.4265 -1.2307
 3638SOL     OW22546   4.695   3.376   6.360 -0.1580  0.1044 -0.0110
 3638SOL    HW122547   4.616   3.347   6.313  0.8569 -2.4249 -0.1494
 3638SOL    HW222548   4.661   3.455   6.402 -0.1319 -0.6682  1.4419
 3639SOL     OW22549   4.732   0.056  16.917  0.1864 -0.5076 -0.4400
 3639SOL    HW122550   0.060   0.120  16.883 -0.4456 -1.1647 -2.7898
 3639SOL    HW222551   4.725   0.094  17.005  0.8453 -1.7366  0.1471
 3640SOL     OW22552   2.406   2.533   3.500 -0.3312  0.3157  0.5639
 3640SOL    HW122553   2.484   2.587   3.488  0.0680 -0.1622  1.0190
 3640SOL    HW222554   2.335   2.595   3.481 -0.4076 -0.4028 -1.4299
 3641SOL     OW22555   4.056   1.269   1.593 -0.3466  0.4084  0.6643
 3641SOL    HW122556   4.008   1.261   1.511  1.1670 -0.4614 -0.1410
 3641SOL    HW222557   4.131   1.210   1.584 -1.1715 -0.5294 -0.0457
 3642SOL     OW22558   4.279   0.611   7.971  0.1907  0.1974  0.1422
 3642SOL    HW122559   4.272   0.596   8.065 -2.9858 -2.2110 -0.4865
 3642SOL    HW222560   4.278   0.522   7.936 -0.8597  0.4486 -0.4657
 3643SOL     OW22561   1.372   3.447   4.445 -0.1226 -0.0698 -0.0659
 3643SOL    HW122562   1.464   3.453   4.469 -0.5271 -1.0877  1.7478
 3643SOL    HW222563   1.354   3.362   4.487 -0.2396 -0.4217 -0.8402
 3644SOL     OW22564   1.813   0.955  10.450 -0.0191 -0.3041  0.0973
 3644SOL    HW122565   1.893   0.952  10.398  0.8030 -1.5567  1.4132
 3644SOL    HW222566   1.749   0.973  10.381  1.0366  0.2525 -0.7313
 3645SOL     OW22567   3.880   1.030   7.832  0.0422  0.2642 -0.5045
 3645SOL    HW122568   3.866   0.946   7.874 -1.2319  1.4222  1.4000
 3645SOL    HW222569   3.975   1.032   7.825 -0.0825 -0.1804 -2.4314
 3646SOL     OW22570   4.350   3.248  10.815 -0.1655  0.4481  0.1098
 3646SOL    HW122571   4.310   3.199  10.743  1.7951 -0.6878 -0.2209
 3646SOL    HW222572   4.360   3.172  10.872  1.6137 -0.4541 -1.4270
 3647SOL     OW22573   0.020   0.721   5.671  0.9930 -0.4741  0.1357
 3647SOL    HW122574   0.109   0.741   5.641  0.2075  0.3958 -1.5623
 3647SOL    HW222575   0.008   0.786   5.741 -0.7683  0.0558 -0.6618
 3648SOL     OW22576   1.052   4.570   7.728 -0.1779  0.4230  0.0142
 3648SOL    HW122577   1.009   4.546   7.811 -1.3423 -0.5505 -0.8689
 3648SOL    HW222578   0.987   4.573   7.659  2.8060  0.0755 -2.8030
 3649SOL     OW22579   2.690   3.679   0.335  0.4442  1.0127  0.6776
 3649SOL    HW122580   2.681   3.687   0.430 -1.5749 -0.2910  0.5804
 3649SOL    HW222581   2.615   3.734   0.311  1.3871  1.6676 -0.7995
 3650SOL     OW22582   3.291   3.551  10.246 -0.2637 -0.0755  0.1227
 3650SOL    HW122583   3.272   3.632  10.199  1.7328  0.2936 -0.0462
 3650SOL    HW222584   3.353   3.514  10.183  0.0432  0.7996 -0.0798
 3651SOL     OW22585   4.002   0.231   5.877  0.0281 -0.5392 -0.3212
 3651SOL    HW122586   4.034   0.212   5.965  0.3078 -2.6306 -0.8671
 3651SOL    HW222587   3.954   0.314   5.881  1.9239  0.4152  2.5736
 3652SOL     OW22588   0.378   4.523   4.911 -0.0487 -0.4350  0.0389
 3652SOL    HW122589   0.340   4.442   4.876  1.8011 -1.2872  0.0385
 3652SOL    HW222590   0.298   4.576   4.910  0.8500  0.9349  0.7286
 3653SOL     OW22591   2.242   3.454   3.378  0.0202 -0.1482 -0.0550
 3653SOL    HW122592   2.272   3.379   3.326 -2.3434 -2.6853  2.2604
 3653SOL    HW222593   2.150   3.465   3.354 -0.0030 -0.2179  0.0032
 3654SOL     OW22594   3.558   1.453   3.875 -0.2536  0.7150  0.6457
 3654SOL    HW122595   3.594   1.505   3.947  1.3725 -0.5608  0.7433
 3654SOL    HW222596   3.623   1.438   3.807 -1.7863 -0.1058 -0.6464
 3655SOL     OW22597   3.341   3.176   2.460 -0.5405 -0.2006 -0.3165
 3655SOL    HW122598   3.330   3.087   2.427  1.6389 -0.4236 -0.4636
 3655SOL    HW222599   3.344   3.222   2.376  0.5355 -0.5522 -0.4657
 3656SOL     OW22600   2.748   3.490  14.941 -0.0795 -0.2739  0.2629
 3656SOL    HW122601   2.661   3.526  14.926  0.0140 -0.1777 -0.0351
 3656SOL    HW222602   2.728   3.397  14.947 -1.5347  0.3475  5.3372
 3657SOL     OW22603   1.157   2.950   8.068 -0.1883 -0.6374 -0.3042
 3657SOL    HW122604   1.117   2.866   8.046  0.0040 -1.1342  1.2069
 3657SOL    HW222605   1.243   2.926   8.101 -1.0246 -2.5506  0.4502
 3658SOL     OW22606   0.293   1.072   7.514  0.3745  0.4860  0.1558
 3658SOL    HW122607   0.388   1.078   7.504  0.3242  1.4437  0.3335
 3658SOL    HW222608   0.273   1.098   7.603  0.0521  0.4929  0.0807
 3659SOL     OW22609   4.499   1.364   9.806 -0.1166  0.4353 -0.5367
 3659SOL    HW122610   4.587   1.388   9.837 -0.4363  0.0163  0.6759
 3659SOL    HW222611   4.530   1.311   9.733  1.5980 -2.3791  2.2332
 3660SOL     OW22612   1.583   4.616   8.636 -0.0371  0.5241 -0.6346
 3660SOL    HW122613   1.530   4.539   8.656 -0.7398  0.7160 -1.7879
 3660SOL    HW222614   1.664   4.579   8.673  0.3429  1.6511 -0.3361
 3661SOL     OW22615   0.527   2.711   9.399 -0.3272 -0.0519 -0.1440
 3661SOL    HW122616   0.461   2.645   9.378  0.3284  0.0274 -2.4511
 3661SOL    HW222617   0.533   2.697   9.493 -0.0490 -1.7048 -0.4166
 3662SOL     OW22618   0.345   3.756  11.076  0.6470  0.3096  0.4806
 3662SOL    HW122619   0.369   3.786  11.163 -0.3192 -0.0664  0.8772
 3662SOL    HW222620   0.276   3.692  11.090  1.2588 -0.3619  0.4598
 3663SOL     OW22621   3.379   4.070   8.805 -0.2354  0.1476 -0.5862
 3663SOL    HW122622   3.316   4.141   8.798  0.8134  1.2734  1.4033
 3663SOL    HW222623   3.463   4.117   8.802  0.8243 -1.6707  0.4521
 3664SOL     OW22624   1.664   1.114   7.269  0.1579 -0.5523  0.1301
 3664SOL    HW122625   1.580   1.127   7.227  1.6287 -0.3862 -2.7378
 3664SOL    HW222626   1.718   1.164   7.208 -0.3012 -0.4060 -0.1560
 3665SOL     OW22627   1.036   4.188   1.271 -0.3844 -0.2952 -0.6105
 3665SOL    HW122628   0.964   4.239   1.233 -1.0571  0.0285  1.1342
 3665SOL    HW222629   1.074   4.152   1.190 -1.5075 -0.0099 -1.2699
 3666SOL     OW22630   3.144   1.181   9.795 -0.2265  0.2352  0.1374
 3666SOL    HW122631   3.057   1.151   9.820 -0.0569 -0.0460  0.3896
 3666SOL    HW222632   3.190   1.193   9.879  0.1340 -1.1378  0.1323
 3667SOL     OW22633   3.637   1.561  12.183 -0.4569  0.2260 -0.5294
 3667SOL    HW122634   3.609   1.516  12.103  0.3930 -0.7923 -0.2485
 3667SOL    HW222635   3.547   1.576  12.212 -0.5724  1.8091 -1.7062
 3668SOL     OW22636   2.473   2.222   3.057 -0.5339 -0.5178 -0.1684
 3668SOL    HW122637   2.486   2.134   3.092 -0.0825  0.4603  2.1549
 3668SOL    HW222638   2.564   2.254   3.053 -0.5466 -0.5541 -0.7883
 3669SOL     OW22639   2.721   0.509  17.547  0.8246 -0.3358 -0.3299
 3669SOL    HW122640   2.774   0.535  17.473 -2.3493  0.0862 -2.4346
 3669SOL    HW222641   2.777   0.442  17.588 -0.7359  0.5258  3.2272
 3670SOL     OW22642   0.067   0.443   7.683 -0.3689 -0.2867  0.1759
 3670SOL    HW122643   0.005   0.447   7.611 -0.4649 -0.0957  0.2681
 3670SOL    HW222644   0.051   0.529   7.722  0.3393 -0.6549  1.2688
 3671SOL     OW22645   2.794   4.304  15.603 -0.4533  0.5600  0.1930
 3671SOL    HW122646   2.806   4.278  15.694  1.5126  2.1899  0.4176
 3671SOL    HW222647   2.700   4.292  15.592 -0.3526 -0.9533  1.1234
 3672SOL     OW22648   3.054   4.580   6.379 -0.1354  0.8248  0.3363
 3672SOL    HW122649   3.058   4.578   6.284 -1.3239  2.8350  0.2500
 3672SOL    HW222650   2.995   4.655   6.389  0.0721  1.1073 -0.5301
 3673SOL     OW22651   2.579   0.342  16.015  0.2730  0.5105  0.3634
 3673SOL    HW122652   2.548   0.275  15.954 -0.1228 -1.2466  2.4702
 3673SOL    HW222653   2.498   0.362  16.062  0.0380  0.3573  0.0188
 3674SOL     OW22654   3.036   2.902   3.822 -0.2520  0.4852  0.4189
 3674SOL    HW122655   2.965   2.852   3.862  0.1964 -1.8814 -1.7361
 3674SOL    HW222656   3.004   2.939   3.739 -1.2554 -0.7100  0.2822
 3675SOL     OW22657   0.640   0.593  10.339 -0.3554 -0.1340  0.6491
 3675SOL    HW122658   0.641   0.498  10.330 -1.6072  0.1173 -2.1447
 3675SOL    HW222659   0.573   0.590  10.408 -1.1502  1.4582 -0.0400
 3676SOL     OW22660   3.691   1.325   8.909  0.1604  0.3750 -0.1163
 3676SOL    HW122661   3.692   1.420   8.897  2.1201  0.3441 -0.0720
 3676SOL    HW222662   3.674   1.275   8.829  0.9892  2.3690 -1.5307
 3677SOL     OW22663   0.734   0.278   2.850  0.0583  0.1669 -0.0097
 3677SOL    HW122664   0.708   0.228   2.772  0.2780  0.7090 -0.4206
 3677SOL    HW222665   0.674   0.256   2.922 -0.0419  0.5266  0.0153
 3678SOL     OW22666   1.553   3.281  11.590  0.2184 -0.0121  0.2611
 3678SOL    HW122667   1.594   3.194  11.598  3.6753  1.6894  1.2132
 3678SOL    HW222668   1.464   3.257  11.567  0.4414 -0.2922 -0.3020
 3679SOL     OW22669   3.909   0.846  13.985  0.3479 -0.1042  0.2495
 3679SOL    HW122670   3.826   0.876  14.022 -0.1720 -1.8051  0.4581
 3679SOL    HW222671   3.894   0.757  13.952  0.2761  0.6174 -1.6227
 3680SOL     OW22672   0.823   2.879  16.589  0.3722 -0.0576 -0.1549
 3680SOL    HW122673   0.829   2.849  16.498  0.8880 -1.0095  0.1996
 3680SOL    HW222674   0.755   2.825  16.628  0.1526  1.4316  1.5159
 3681SOL     OW22675   2.577   3.978   1.466  0.3261 -0.7321 -0.1311
 3681SOL    HW122676   2.664   3.950   1.494 -0.5067 -1.2048  1.9657
 3681SOL    HW222677   2.597   4.027   1.386  0.8995  1.2072  1.1784
 3682SOL     OW22678   1.562   2.409   8.381 -0.2569 -0.4521 -0.2899
 3682SOL    HW122679   1.654   2.418   8.405 -0.5946  0.6259  0.6381
 3682SOL    HW222680   1.564   2.328   8.330  3.0715 -0.9325  0.6391
 3683SOL     OW22681   0.360   4.479   4.584 -0.1630  0.6936 -0.1381
 3683SOL    HW122682   0.304   4.550   4.615 -1.6394  0.4193 -2.1472
 3683SOL    HW222683   0.336   4.414   4.650 -1.9972  1.0504 -0.4486
 3684SOL     OW22684   3.475   3.890   7.179 -0.4023 -0.1781  0.1109
 3684SOL    HW122685   3.494   3.810   7.129  1.1316  0.5535 -0.4895
 3684SOL    HW222686   3.382   3.887   7.200 -0.6631  0.6497 -1.0017
 3685SOL     OW22687   3.989   3.917   7.969 -0.3030 -0.0774  0.2586
 3685SOL    HW122688   3.947   3.931   8.054  0.1685  0.4512  0.3979
 3685SOL    HW222689   3.923   3.945   7.907 -0.6547 -0.2127  0.5695
 3686SOL     OW22690   1.909   0.813   2.196 -0.1256 -0.5306  1.0687
 3686SOL    HW122691   1.971   0.759   2.245 -0.4710 -0.0992  1.9809
 3686SOL    HW222692   1.849   0.748   2.161 -0.2255 -0.0150  0.2730
 3687SOL     OW22693   4.037   3.450   0.255 -0.8610 -0.6332  0.2830
 3687SOL    HW122694   3.972   3.512   0.289 -0.5739 -0.4143  0.4345
 3687SOL    HW222695   3.993   3.365   0.262 -2.3005  0.2770  2.2367
 3688SOL     OW22696   1.976   1.258  13.995 -0.3269 -0.3130  0.3604
 3688SOL    HW122697   1.970   1.185  14.056 -0.1675  0.2964  1.0998
 3688SOL    HW222698   1.913   1.319  14.033  0.3751  1.7702 -1.7594
 3689SOL     OW22699   4.027   0.026   7.254 -0.4950 -0.4458  0.2525
 3689SOL    HW122700   3.955   0.052   7.312 -1.7341 -1.6250 -0.7526
 3689SOL    HW222701   3.992   0.067   7.174 -0.7004  0.8610  1.0111
 3690SOL     OW22702   2.771   4.273   7.069  0.3039 -0.3871  0.8019
 3690SOL    HW122703   2.761   4.193   7.016  1.2731 -1.0883  1.6764
 3690SOL    HW222704   2.760   4.340   7.001 -1.2431 -0.2929  1.1508
 3691SOL     OW22705   4.279   2.875   7.933 -0.2296  0.0104 -0.3451
 3691SOL    HW122706   4.266   2.930   7.856  1.1354  0.5293 -0.2076
 3691SOL    HW222707   4.203   2.817   7.927 -0.0498 -0.2629  0.0143
 3692SOL     OW22708   2.473   2.910   5.992 -0.5783  0.0572  0.0137
 3692SOL    HW122709   2.384   2.945   5.979 -0.1643  0.7609 -0.9048
 3692SOL    HW222710   2.523   2.934   5.914 -0.8678 -0.0710 -0.2161
 3693SOL     OW22711   1.646   1.686   6.258  0.5819  0.3679 -0.1825
 3693SOL    HW122712   1.648   1.666   6.164 -0.3426  0.2786 -0.1801
 3693SOL    HW222713   1.583   1.622   6.292  0.3581  1.6062  1.7510
 3694SOL     OW22714   1.778   4.703   3.013  0.4940 -0.4446 -0.2721
 3694SOL    HW122715   1.868   4.681   3.040  1.9988  1.3548 -3.9025
 3694SOL    HW222716   1.798   0.060   2.994 -0.0515 -0.2925 -0.1125
 3695SOL     OW22717   2.475   3.956  16.295  0.5108  0.1003  0.5213
 3695SOL    HW122718   2.420   4.017  16.343 -0.3763 -0.4749  0.2357
 3695SOL    HW222719   2.535   3.923  16.362  0.3397 -0.4127  0.4284
 3696SOL     OW22720   1.212   2.108   4.223  0.0225  0.5480  0.2697
 3696SOL    HW122721   1.222   2.186   4.168  2.2271  1.4058  1.8882
 3696SOL    HW222722   1.181   2.159   4.298  0.4862  0.8490  0.2551
 3697SOL     OW22723   4.453   4.285  13.726 -0.4327 -0.5658  0.4300
 3697SOL    HW122724   4.385   4.312  13.788 -0.6614 -1.1001  0.4106
 3697SOL    HW222725   4.506   4.237  13.790 -0.4926  1.1313  1.7580
 3698SOL     OW22726   0.860   3.500   8.823  0.4996  0.3689 -0.3258
 3698SOL    HW122727   0.910   3.422   8.800 -2.1948 -1.3812 -0.1891
 3698SOL    HW222728   0.819   3.472   8.904  1.1060 -2.2103 -0.9136
 3699SOL     OW22729   3.974   0.136   8.277 -0.9394  0.6353 -0.0317
 3699SOL    HW122730   4.046   0.073   8.279 -0.2192  1.4464 -0.3544
 3699SOL    HW222731   4.019   0.199   8.220 -4.1362  0.4672 -2.7928
 3700SOL     OW22732   4.403   3.187   7.728  0.2986 -0.2527  1.0124
 3700SOL    HW122733   4.351   3.267   7.725  0.3167 -0.1700  2.7287
 3700SOL    HW222734   4.480   3.216   7.778  0.0683 -1.8481  2.2757
 3701SOL     OW22735   2.271   1.699   1.993  0.1343 -0.3119  0.3813
 3701SOL    HW122736   2.188   1.699   2.041 -0.0225 -1.6911  0.1061
 3701SOL    HW222737   2.244   1.747   1.915  1.0248 -1.7648 -0.8160
 3702SOL     OW22738   3.118   0.030   4.529 -0.1258 -0.5132 -0.6749
 3702SOL    HW122739   3.122   0.050   4.436 -0.7448  0.3055 -0.5256
 3702SOL    HW222740   3.210   0.018   4.551  0.1053 -0.2382 -1.5028
 3703SOL     OW22741   4.528   2.432   6.350 -0.1310 -0.7032 -0.0777
 3703SOL    HW122742   4.456   2.398   6.296  0.0502  1.9832 -1.9822
 3703SOL    HW222743   4.476   2.504   6.387  2.0073  1.6270 -1.6640
 3704SOL     OW22744   1.499   4.144   6.662 -0.1096 -0.0242  0.0746
 3704SOL    HW122745   1.470   4.212   6.723 -1.2486 -2.3548  2.1109
 3704SOL    HW222746   1.431   4.127   6.597  0.0322 -1.2008  0.2335
 3705SOL     OW22747   4.262   0.859   9.782 -0.1802  0.4395 -0.4406
 3705SOL    HW122748   4.341   0.906   9.811 -0.2361 -0.0465  0.4980
 3705SOL    HW222749   4.293   0.770   9.801  0.2606  1.0634  1.7627
 3706SOL     OW22750   3.408   0.526   1.926  0.0886  0.2442  0.1622
 3706SOL    HW122751   3.454   0.609   1.914 -0.2139 -0.0019 -2.6340
 3706SOL    HW222752   3.328   0.550   1.973  0.8474  2.5234  0.2485
 3707SOL     OW22753   3.336   2.793   4.729 -0.0252  0.4256 -0.3514
 3707SOL    HW122754   3.368   2.882   4.712 -1.9600  1.3425  0.7915
 3707SOL    HW222755   3.242   2.805   4.725 -0.1199 -0.5390 -0.9569
 3708SOL     OW22756   4.644   2.525   1.132 -0.7198 -0.7397 -0.4235
 3708SOL    HW122757   4.576   2.541   1.197 -1.1377  3.0891 -1.8567
 3708SOL    HW222758   4.701   2.600   1.148  0.0401 -1.2391 -0.7864
 3709SOL     OW22759   3.029   0.531   2.276 -0.0600 -0.3507 -0.8686
 3709SOL    HW122760   3.044   0.624   2.259  4.3869 -1.0218 -0.5088
 3709SOL    HW222761   2.933   0.535   2.280 -0.0018 -2.7307  2.7483
 3710SOL     OW22762   0.024   2.923   2.967 -0.0249 -0.1325  0.2431
 3710SOL    HW122763   4.682   2.872   2.943  0.5098 -1.1831  0.7576
 3710SOL    HW222764   4.727   3.006   3.002 -1.2702 -0.6941  0.4462
 3711SOL     OW22765   0.781   4.339   1.721  0.0078  0.0360  0.1244
 3711SOL    HW122766   0.853   4.352   1.660 -1.9193 -0.1909 -2.1719
 3711SOL    HW222767   0.712   4.380   1.669  1.3938  2.2674  0.0505
 3712SOL     OW22768   3.064   0.167   5.991  0.1624  0.2818  0.1355
 3712SOL    HW122769   3.024   0.160   5.904  1.5449 -0.6270 -0.4267
 3712SOL    HW222770   3.155   0.192   5.974 -0.7631  2.1703 -1.9682
 3713SOL     OW22771   1.070   3.248   8.760  0.1313  0.3132 -0.1727
 3713SOL    HW122772   1.080   3.162   8.802 -0.8685  1.1411  1.7429
 3713SOL    HW222773   1.160   3.279   8.769  0.7261 -0.7460 -2.3927
 3714SOL     OW22774   3.691   1.857   6.615  0.0743  0.1361  0.0186
 3714SOL    HW122775   3.627   1.881   6.681  0.8610 -0.2668  0.9207
 3714SOL    HW222776   3.777   1.870   6.654 -0.3380 -0.1961  1.0480
 3715SOL     OW22777   0.087   4.298   7.094  0.0657  0.2850 -0.2666
 3715SOL    HW122778   0.004   4.256   7.117 -0.2773  0.4615 -1.1882
 3715SOL    HW222779   0.058   4.388   7.081 -1.3391  0.1042  1.6430
 3716SOL     OW22780   0.701   0.954   6.887 -0.3810  0.4730 -0.4994
 3716SOL    HW122781   0.626   0.949   6.946  0.0265  0.5325  0.0208
 3716SOL    HW222782   0.730   1.037   6.925 -1.7828  1.2998 -1.2237
 3717SOL     OW22783   1.191   0.003   4.897  0.2756  0.4317  0.1069
 3717SOL    HW122784   1.286   0.007   4.890  0.4523 -4.3413 -0.0424
 3717SOL    HW222785   1.163   0.094   4.900 -1.7208 -0.0465 -3.8154
 3718SOL     OW22786   0.691   0.460  14.291 -0.0088 -0.0723 -0.5353
 3718SOL    HW122787   0.674   0.532  14.230  0.3463  1.1058  0.7672
 3718SOL    HW222788   0.763   0.486  14.349 -1.1714  0.3298  0.7305
 3719SOL     OW22789   4.123   1.884   7.628 -0.3283  0.0867  0.4352
 3719SOL    HW122790   4.081   1.920   7.550 -2.1445 -0.2801  1.2266
 3719SOL    HW222791   4.210   1.855   7.603 -1.1586 -0.9598 -1.2714
 3720SOL     OW22792   0.816   3.270   5.957  0.2176  0.1147  0.3534
 3720SOL    HW122793   0.723   3.266   5.934  0.1070 -1.4695  1.0362
 3720SOL    HW222794   0.840   3.362   5.951  0.4194  0.0410  0.0484
 3721SOL     OW22795   1.340   2.560  15.704 -0.3346  0.0845  0.1090
 3721SOL    HW122796   1.330   2.645  15.747 -0.2136  0.7309 -1.1473
 3721SOL    HW222797   1.382   2.582  15.621  1.0516 -0.3589  0.6932
 3722SOL     OW22798   3.038   1.299   4.059  0.0732  0.0964 -0.3199
 3722SOL    HW122799   3.064   1.388   4.083 -0.9299  0.1386  0.5803
 3722SOL    HW222800   3.109   1.283   3.997 -0.0261 -0.4610 -0.2888
 3723SOL     OW22801   3.378   0.426   7.341 -0.4379 -0.0352  0.5121
 3723SOL    HW122802   3.335   0.432   7.427  1.7809  2.6961  1.4238
 3723SOL    HW222803   3.316   0.480   7.292  1.2114  0.1025 -1.4015
 3724SOL     OW22804   0.708   0.973   5.402  0.0492 -0.2700  0.5813
 3724SOL    HW122805   0.767   1.040   5.366  0.1449 -0.2874  0.7064
 3724SOL    HW222806   0.620   1.010   5.396  0.1195 -0.0003  1.1915
 3725SOL     OW22807   1.663   2.383   4.697 -0.1437  0.0429 -0.5941
 3725SOL    HW122808   1.660   2.289   4.715  1.2209  0.1108 -0.0467
 3725SOL    HW222809   1.692   2.413   4.783  0.3029  0.4104 -0.8706
 3726SOL     OW22810   4.425   0.561   8.468  0.0488  0.2029  0.5602
 3726SOL    HW122811   4.474   0.542   8.548  1.6790 -0.1474 -0.5186
 3726SOL    HW222812   4.398   0.471   8.451  1.2020  0.3596 -2.0044
 3727SOL     OW22813   2.375   0.401   2.363  0.0772 -0.0381 -0.0434
 3727SOL    HW122814   2.361   0.308   2.347  0.7935 -0.4247  1.5734
 3727SOL    HW222815   2.467   0.408   2.338 -0.2787  0.4778 -1.2103
 3728SOL     OW22816   0.691   1.133  11.428 -0.6257  0.4088  0.3530
 3728SOL    HW122817   0.659   1.043  11.430 -0.5543  0.3882  0.5933
 3728SOL    HW222818   0.627   1.167  11.490  0.0041 -0.9458  1.7348
 3729SOL     OW22819   1.817   3.658   7.021  0.0122 -0.1895 -0.3213
 3729SOL    HW122820   1.872   3.725   6.979 -0.3123 -0.7746 -1.6784
 3729SOL    HW222821   1.770   3.636   6.941 -1.0559  1.1707 -0.0702
 3730SOL     OW22822   0.804   3.719   6.417  0.9560  0.0376  0.6689
 3730SOL    HW122823   0.721   3.724   6.464  0.3321  1.6511 -0.5955
 3730SOL    HW222824   0.855   3.794   6.447  1.2715  0.4465 -0.9139
 3731SOL     OW22825   3.426   2.013   4.699  0.1865 -0.6768  0.4284
 3731SOL    HW122826   3.368   2.078   4.739  1.8036  0.4481  0.9322
 3731SOL    HW222827   3.375   1.932   4.691 -0.0484 -0.4592 -0.3167
 3732SOL     OW22828   2.886   0.910  10.505  0.0262 -0.1953 -0.1606
 3732SOL    HW122829   2.812   0.871  10.551  0.1528 -0.0714  0.1475
 3732SOL    HW222830   2.839   0.943  10.429  0.1760 -1.7754 -0.9421
 3733SOL     OW22831   3.960   3.768   1.246  0.1463  0.7292  0.2511
 3733SOL    HW122832   3.939   3.680   1.213 -0.9271  0.7440  0.8883
 3733SOL    HW222833   3.993   3.802   1.163 -3.8003  0.7036 -1.3367
 3734SOL     OW22834   2.850   1.237   2.396  0.7498 -0.4270 -0.5379
 3734SOL    HW122835   2.915   1.307   2.408 -0.8822  1.2986 -1.7294
 3734SOL    HW222836   2.864   1.198   2.482  0.5486  1.7095  0.4579
 3735SOL     OW22837   3.061   1.730  12.117 -0.6212 -0.0318  0.0520
 3735SOL    HW122838   2.974   1.690  12.114 -0.7598  0.1953  1.0117
 3735SOL    HW222839   3.049   1.753  12.209 -0.7526  3.7546 -0.9146
 3736SOL     OW22840   1.569   3.279   6.459 -0.8357  0.9210  0.2838
 3736SOL    HW122841   1.651   3.325   6.443 -0.3897  0.1567  0.3824
 3736SOL    HW222842   1.595   3.236   6.540 -1.2055  0.1494 -0.0045
 3737SOL     OW22843   0.141   3.267   2.925  0.3872 -0.1792 -0.1901
 3737SOL    HW122844   0.231   3.246   2.901  1.0827  2.5775  0.0388
 3737SOL    HW222845   0.124   3.242   3.016 -0.7905  0.0210 -0.3545
 3738SOL     OW22846   1.566   0.598  13.000 -0.3720  0.0426  0.0426
 3738SOL    HW122847   1.483   0.565  12.966  0.6300 -0.2354 -2.1145
 3738SOL    HW222848   1.552   0.612  13.094  0.3918  1.4272 -0.0453
 3739SOL     OW22849   2.866   4.683   5.416 -0.0132 -0.2202  0.5047
 3739SOL    HW122850   2.885   4.684   5.510  2.6953  0.7067 -0.0472
 3739SOL    HW222851   2.790   0.007   5.412  1.6527  1.9460  0.9593
 3740SOL     OW22852   4.161   2.032   4.920  0.0329 -0.7417  0.1887
 3740SOL    HW122853   4.129   1.946   4.892  0.3280 -0.3471 -1.3324
 3740SOL    HW222854   4.256   2.026   4.909 -0.0654  0.3818 -1.2105
 3741SOL     OW22855   2.980   3.458   3.535 -0.4974 -0.2378  0.1016
 3741SOL    HW122856   2.924   3.535   3.527  0.7720  0.5377 -1.3224
 3741SOL    HW222857   2.912   3.391   3.541  0.4218 -0.9705  2.2987
 3742SOL     OW22858   0.866   4.488   2.954  0.4461 -0.0235  0.1944
 3742SOL    HW122859   0.958   4.461   2.950  0.2119 -0.7555 -0.2850
 3742SOL    HW222860   0.830   4.469   2.868 -1.7880  0.8901  0.9280
 3743SOL     OW22861   0.754   3.351   0.305  0.4461 -0.1723  0.2098
 3743SOL    HW122862   0.772   3.373   0.396  1.1861  0.9901 -0.2236
 3743SOL    HW222863   0.670   3.398   0.299  0.4138 -0.5643 -2.2831
 3744SOL     OW22864   2.400   1.113   9.394  0.0180 -0.0830 -0.4468
 3744SOL    HW122865   2.320   1.064   9.377  0.1169 -0.7298  0.8968
 3744SOL    HW222866   2.448   1.087   9.316 -0.7278 -0.2462 -0.8552
 3745SOL     OW22867   2.857   2.457   5.621  0.0393 -0.3211  0.2437
 3745SOL    HW122868   2.800   2.531   5.641 -0.0080 -0.1722 -0.4626
 3745SOL    HW222869   2.799   2.423   5.554 -2.0957  2.5704  0.6291
 3746SOL     OW22870   1.463   2.076   1.238  0.2648 -0.0605  0.0852
 3746SOL    HW122871   1.471   2.130   1.159  0.1394 -0.0644  0.0707
 3746SOL    HW222872   1.539   2.017   1.232  0.5433  0.2623  0.4511
 3747SOL     OW22873   0.388   0.704   5.822 -0.3716  0.2361 -0.0370
 3747SOL    HW122874   0.360   0.766   5.755 -0.0980  0.3294 -0.0644
 3747SOL    HW222875   0.370   0.757   5.899 -0.1738  0.3034 -0.0379
 3748SOL     OW22876   3.812   1.598  17.035 -0.0069  0.4033 -0.1627
 3748SOL    HW122877   3.854   1.616  16.950  0.1231 -1.6163 -0.5159
 3748SOL    HW222878   3.742   1.663  17.032  1.8696  2.4285 -0.6188
 3749SOL     OW22879   3.046   4.722   8.984 -0.1984 -0.7529 -0.7247
 3749SOL    HW122880   2.955   4.725   8.955 -0.8485 -0.9356  1.2566
 3749SOL    HW222881   3.027   4.726   9.078 -0.7408  0.0288 -0.8738
 3750SOL     OW22882   0.664   3.439   2.807 -0.1299  0.1676  0.2803
 3750SOL    HW122883   0.702   3.521   2.837 -1.2314  0.7110  0.1842
 3750SOL    HW222884   0.726   3.376   2.843  0.5570  0.5756 -0.1917
 3751SOL     OW22885   3.894   0.695   0.368 -0.0554  0.0932 -0.0600
 3751SOL    HW122886   3.845   0.634   0.314  0.2527 -2.1934  2.2196
 3751SOL    HW222887   3.930   0.759   0.306  2.6849 -1.4671 -0.1063
 3752SOL     OW22888   2.795   1.629  12.089  0.3336 -0.1255  0.1548
 3752SOL    HW122889   2.826   1.540  12.102 -0.3983 -0.3698  0.2471
 3752SOL    HW222890   2.702   1.619  12.110 -0.6532  1.3745 -3.4730
 3753SOL     OW22891   0.038   1.585   6.384 -0.6506 -0.4183  0.1639
 3753SOL    HW122892   0.015   1.608   6.294 -1.5634  2.2414  1.0558
 3753SOL    HW222893   0.004   1.499   6.406  1.9035 -0.0291  5.7250
 3754SOL     OW22894   3.583   4.719   4.890 -0.0163  0.3905 -0.5006
 3754SOL    HW122895   3.668   4.683   4.914  0.4986  1.0692 -1.3335
 3754SOL    HW222896   3.588   0.072   4.927 -1.0146 -0.9134  2.7478
 3755SOL     OW22897   0.928   0.519  16.850  0.0443  0.3574 -0.1670
 3755SOL    HW122898   1.008   0.492  16.806 -0.3456  1.0126 -1.2966
 3755SOL    HW222899   0.883   0.434  16.848  1.6621 -0.4925  0.0295
 3756SOL     OW22900   4.172   3.495   3.206  0.2785  0.4411  0.0636
 3756SOL    HW122901   4.076   3.488   3.203  0.3583  0.1936 -1.6727
 3756SOL    HW222902   4.183   3.408   3.243 -1.4199  0.4959  0.6892
 3757SOL     OW22903   1.802   3.816   4.785 -0.1372  0.3273  0.0581
 3757SOL    HW122904   1.729   3.760   4.812 -0.6017  0.3070 -1.2202
 3757SOL    HW222905   1.875   3.777   4.833 -0.8190 -0.0584  0.8029
 3758SOL     OW22906   4.081   1.923  12.647  0.2085  0.0926  0.5470
 3758SOL    HW122907   4.106   1.831  12.635 -1.9687 -0.3772 -0.3013
 3758SOL    HW222908   4.075   1.930  12.742  0.7773  0.7004  0.5390
 3759SOL     OW22909   1.181   2.212   1.422 -0.1806 -0.5175 -0.4335
 3759SOL    HW122910   1.217   2.273   1.358  0.3070 -0.1759  0.1628
 3759SOL    HW222911   1.088   2.229   1.414  0.2238  0.9381 -1.9940
 3760SOL     OW22912   0.755   1.334  17.243 -0.0439 -0.0495 -0.3433
 3760SOL    HW122913   0.728   1.255  17.289  0.7582  0.2296  0.6073
 3760SOL    HW222914   0.730   1.404  17.303 -1.0785 -0.3602 -0.4153
 3761SOL     OW22915   0.286   0.038   4.069  0.5584 -0.1720  0.3793
 3761SOL    HW122916   0.252   0.092   3.997  0.1482  1.6724  1.9684
 3761SOL    HW222917   0.379   0.050   4.052  0.7943  0.0732  1.8993
 3762SOL     OW22918   0.317   4.336  14.510  0.1969  0.0695  0.5153
 3762SOL    HW122919   0.287   4.423  14.537  2.3135  1.4439 -1.5603
 3762SOL    HW222920   0.231   4.300  14.487  0.0161  0.6378  0.2998
 3763SOL     OW22921   1.441   4.199  17.200  0.3084  0.0403 -0.1147
 3763SOL    HW122922   1.495   4.203  17.279  1.2040  1.8750 -0.8106
 3763SOL    HW222923   1.492   4.134  17.150  1.2042  0.4437  0.2637
 3764SOL     OW22924   0.511   4.014   0.147  0.3101 -0.5945 -0.0095
 3764SOL    HW122925   0.486   3.923   0.129 -2.7091  0.1730  0.2032
 3764SOL    HW222926   0.460   4.057   0.079  0.3442  0.1986  0.4708
 3765SOL     OW22927   3.238   0.958   7.786  0.0697  0.2757  0.1936
 3765SOL    HW122928   3.254   0.916   7.701 -2.5592  0.2084 -0.2520
 3765SOL    HW222929   3.284   0.895   7.841  1.0946  2.9135  2.3485
 3766SOL     OW22930   2.965   3.045   2.693  0.4209 -0.5709  0.1306
 3766SOL    HW122931   2.969   2.950   2.701  0.4852 -0.6606 -1.0216
 3766SOL    HW222932   2.900   3.058   2.624  0.0937  1.4947  0.8137
 3767SOL     OW22933   1.984   0.788  17.144  0.5582 -0.2743 -0.2842
 3767SOL    HW122934   2.011   0.712  17.092  1.1600  0.7533 -1.4607
 3767SOL    HW222935   1.898   0.810  17.107  0.6170 -1.8438 -1.3738
 3768SOL     OW22936   1.103   3.680  17.395  0.3697  0.0504 -0.2132
 3768SOL    HW122937   1.100   3.776  17.400  1.1572  0.1757 -2.0393
 3768SOL    HW222938   1.151   3.667  17.313  0.5676 -2.4080  0.3030
 3769SOL     OW22939   2.278   4.017   1.039  0.4506 -0.3791  0.5259
 3769SOL    HW122940   2.239   4.041   0.955  2.2780 -3.1771 -1.1532
 3769SOL    HW222941   2.223   3.945   1.067 -1.5414  1.2779  0.8397
 3770SOL     OW22942   3.447   1.441  11.707 -0.1674  0.4551 -0.0398
 3770SOL    HW122943   3.453   1.419  11.614  1.5182  1.1227 -0.0886
 3770SOL    HW222944   3.409   1.529  11.704 -0.7890  0.1822 -0.1409
 3771SOL     OW22945   3.699   2.583   2.260  0.3671  0.4411  0.9868
 3771SOL    HW122946   3.764   2.633   2.211 -0.6122  1.4212  0.6897
 3771SOL    HW222947   3.693   2.504   2.206  0.6338  1.1016  0.0127
 3772SOL     OW22948   3.328   4.644   5.998  0.4051 -0.3968 -0.0903
 3772SOL    HW122949   3.388   4.593   6.052  1.9670  1.2714 -0.2316
 3772SOL    HW222950   3.388   4.655   5.924 -0.7402 -0.9618 -1.1002
 3773SOL     OW22951   2.113   1.113   4.684  0.5645 -0.0421 -0.2136
 3773SOL    HW122952   2.071   1.183   4.634  1.3440  1.0030  0.5746
 3773SOL    HW222953   2.051   1.041   4.679 -0.9592  1.2090  0.6362
 3774SOL     OW22954   2.370   1.497   4.508  0.6136 -0.4599  0.3086
 3774SOL    HW122955   2.337   1.425   4.454 -0.7166 -1.6148  2.7018
 3774SOL    HW222956   2.290   1.513   4.558  0.0954 -0.4384 -0.5152
 3775SOL     OW22957   0.548   3.564   8.788 -0.1898 -0.0623  0.3919
 3775SOL    HW122958   0.553   3.596   8.878 -1.1513  3.1752 -0.7035
 3775SOL    HW222959   0.466   3.602   8.755 -0.3963 -1.5491 -0.7511
 3776SOL     OW22960   3.507   4.581  11.626  0.0684  0.4555  0.0586
 3776SOL    HW122961   3.549   4.663  11.652  0.4253  0.1884  0.3369
 3776SOL    HW222962   3.426   4.616  11.591 -0.3051 -2.0690 -1.6151
 3777SOL     OW22963   2.981   3.318  15.155  0.5435  0.2173 -0.1759
 3777SOL    HW122964   2.950   3.406  15.132 -0.3472 -0.3472 -1.1584
 3777SOL    HW222965   2.920   3.262  15.106  1.5884  0.7214 -2.0711
 3778SOL     OW22966   4.402   4.673  12.771 -0.1007  0.4462 -0.1129
 3778SOL    HW122967   4.419   4.579  12.772  0.6458  0.5663 -1.1632
 3778SOL    HW222968   4.439   4.700  12.687  1.1883  2.7475  1.2157
 3779SOL     OW22969   2.837   0.782  13.679 -0.3172 -0.3049  0.3813
 3779SOL    HW122970   2.755   0.800  13.634  0.1565  0.4983 -0.1696
 3779SOL    HW222971   2.898   0.816  13.613  0.2041 -0.3740  0.8232
 3780SOL     OW22972   2.253   2.260   4.626  0.7846  0.4924  0.1247
 3780SOL    HW122973   2.263   2.297   4.538 -2.2520 -1.2373 -0.9672
 3780SOL    HW222974   2.335   2.211   4.634  0.0718 -0.7535 -0.0424
 3781SOL     OW22975   4.081   2.466   8.021 -1.0684  0.1060  0.1261
 3781SOL    HW122976   4.152   2.429   7.969 -0.4551  1.3634  0.0714
 3781SOL    HW222977   4.019   2.393   8.015 -1.0290  0.0784  0.0496
 3782SOL     OW22978   3.283   3.375   2.660 -0.2724 -0.7069  0.3470
 3782SOL    HW122979   3.310   3.304   2.601  2.2904  0.9613 -0.4980
 3782SOL    HW222980   3.349   3.370   2.729  1.2396  0.3369 -1.0073
 3783SOL     OW22981   0.230   0.461   5.876  0.2911  0.3215  0.4328
 3783SOL    HW122982   0.136   0.460   5.861  0.1159  2.0814  1.3941
 3783SOL    HW222983   0.242   0.543   5.829  1.7084 -0.7259 -1.0342
 3784SOL     OW22984   0.712   2.287   3.768  0.3625  0.0678 -0.0501
 3784SOL    HW122985   0.768   2.285   3.846 -2.1550 -0.5226  1.7467
 3784SOL    HW222986   0.627   2.266   3.807  0.5953 -1.4380 -0.3599
 3785SOL     OW22987   0.181   1.451   9.221  0.3991  0.2218 -0.3011
 3785SOL    HW122988   0.247   1.396   9.264  0.4986  1.2039  0.7979
 3785SOL    HW222989   0.194   1.518   9.288 -1.1657 -1.8723  2.0833
 3786SOL     OW22990   2.537   2.591  10.703 -0.4234  0.1782 -0.3375
 3786SOL    HW122991   2.497   2.556  10.623 -0.8280 -0.1590  0.0125
 3786SOL    HW222992   2.547   2.681  10.673  0.2905  0.5001  0.8689
 3787SOL     OW22993   4.111   4.322   0.559 -0.2406 -0.1450 -0.2145
 3787SOL    HW122994   4.193   4.345   0.516  0.7627 -1.2227  1.1184
 3787SOL    HW222995   4.071   4.409   0.558  0.2812  0.1053  0.5400
 3788SOL     OW22996   3.518   3.531   9.288 -0.2194 -0.4167 -0.2225
 3788SOL    HW122997   3.584   3.576   9.340 -0.0820  1.5323 -2.0656
 3788SOL    HW222998   3.520   3.444   9.328 -0.2304 -0.3206 -0.0141
 3789SOL     OW22999   2.517   2.931   5.686 -0.0819  0.1691 -0.6556
 3789SOL    HW123000   2.516   2.990   5.610  0.6080  0.1336 -0.6936
 3789SOL    HW223001   2.596   2.963   5.728  0.3873 -1.5277 -0.2786
 3790SOL     OW23002   2.055   4.004   4.630  0.3928  0.4571  0.3030
 3790SOL    HW123003   2.069   4.018   4.536 -0.7479  0.1317  0.0871
 3790SOL    HW223004   2.140   3.964   4.650  0.7235  0.8940 -0.2236
 3791SOL     OW23005   3.051   3.453   3.886  0.0478  0.1857 -0.1848
 3791SOL    HW123006   3.104   3.376   3.908  0.9678  0.5834 -1.0164
 3791SOL    HW223007   3.105   3.486   3.815  0.1184  1.4756  0.4657
 3792SOL     OW23008   4.290   1.937   8.381  0.3897  0.1363 -0.1038
 3792SOL    HW123009   4.322   1.871   8.319 -0.6546  0.6909 -1.2293
 3792SOL    HW223010   4.235   1.982   8.317 -1.0865 -1.6057 -0.0726
 3793SOL     OW23011   0.038   1.844   3.998  0.3850 -0.1450  0.4526
 3793SOL    HW123012   0.042   1.750   4.015  0.9000 -0.5593 -2.0126
 3793SOL    HW223013   0.122   1.849   3.952 -0.9005  2.7773 -1.5174
 3794SOL     OW23014   1.531   3.227  16.731 -0.1854 -0.0591  0.1020
 3794SOL    HW123015   1.603   3.254  16.674 -1.2654  0.4338 -1.0272
 3794SOL    HW223016   1.450   3.259  16.692 -1.1550 -0.3052  1.9033
 3795SOL     OW23017   1.102   4.609   4.668 -0.0435 -0.8974 -0.2098
 3795SOL    HW123018   1.134   4.650   4.748  1.6888  1.9726 -2.3538
 3795SOL    HW223019   1.009   4.591   4.684 -1.0035  2.1401 -2.3291
 3796SOL     OW23020   1.524   4.166   2.171 -0.7190 -0.0944  0.0359
 3796SOL    HW123021   1.496   4.075   2.185 -0.7299 -0.2933 -1.2148
 3796SOL    HW223022   1.617   4.154   2.190 -0.3455  0.2034 -1.6285
 3797SOL     OW23023   1.580   3.475  11.404 -0.0009 -0.0648  0.3733
 3797SOL    HW123024   1.496   3.518  11.392 -1.3606 -2.9874 -0.4373
 3797SOL    HW223025   1.556   3.428  11.484  0.5640  2.1169  1.8159
 3798SOL     OW23026   0.736   3.594   8.085 -0.1771 -0.2055  0.3127
 3798SOL    HW123027   0.745   3.616   8.178  0.7965  1.8031 -0.2530
 3798SOL    HW223028   0.694   3.674   8.052 -0.2625 -0.0339  0.8338
 3799SOL     OW23029   2.817   3.819   7.472  0.3683  0.1350 -0.7204
 3799SOL    HW123030   2.802   3.872   7.393  0.8860 -1.3899 -1.8403
 3799SOL    HW223031   2.889   3.865   7.515  0.0312 -1.2547  1.3086
 3800SOL     OW23032   2.697   4.486   3.234  0.5031 -0.4318  0.1114
 3800SOL    HW123033   2.690   4.391   3.228 -1.6552 -0.2743 -0.1119
 3800SOL    HW223034   2.779   4.511   3.192  0.2331 -0.1280 -0.2440
 3801SOL     OW23035   0.561   0.308  11.571 -0.4577 -0.7878  0.1023
 3801SOL    HW123036   0.471   0.292  11.599 -1.1578 -0.0093 -1.7033
 3801SOL    HW223037   0.615   0.289  11.648  1.2426 -0.7209 -1.0687
 3802SOL     OW23038   0.893   3.544   5.482 -0.6287 -0.3320  0.2050
 3802SOL    HW123039   0.834   3.595   5.428  1.1118  1.3650 -0.0544
 3802SOL    HW223040   0.972   3.542   5.428 -1.3774 -1.2459 -0.8532
 3803SOL     OW23041   4.341   4.421   2.581 -0.0453 -0.0330  0.9542
 3803SOL    HW123042   4.321   4.398   2.490  4.3004 -2.5174  0.6258
 3803SOL    HW223043   4.338   4.345   2.639 -0.4216 -1.5908 -1.1323
 3804SOL     OW23044   0.951   4.553   5.910 -0.4816 -0.1169  0.5815
 3804SOL    HW123045   0.873   4.498   5.918 -0.5623  0.0249  0.7704
 3804SOL    HW223046   0.918   4.637   5.941  1.4967  0.4498  1.1939
 3805SOL     OW23047   0.454   3.659   4.246 -0.0317  0.2006  0.1250
 3805SOL    HW123048   0.398   3.647   4.169  0.5411  0.2195 -0.2928
 3805SOL    HW223049   0.424   3.741   4.285  1.5282  0.6311  0.4193
 3806SOL     OW23050   1.906   4.604  13.945  0.2661 -0.1549 -0.0412
 3806SOL    HW123051   1.825   4.614  13.995 -0.5296 -0.6738 -1.2308
 3806SOL    HW223052   1.945   4.538  14.003 -0.6860 -1.5541 -0.9731
 3807SOL     OW23053   1.125   4.489  17.288  0.1435 -0.3090  0.4866
 3807SOL    HW123054   1.110   4.494  17.383 -2.2622 -1.1526  0.1332
 3807SOL    HW223055   1.128   4.399  17.257  0.1438 -0.1244 -0.0447
 3808SOL     OW23056   4.619   1.168   4.262 -0.5884 -0.1491  0.1617
 3808SOL    HW123057   4.588   1.091   4.214  0.8241 -0.7120  0.1443
 3808SOL    HW223058   4.559   1.236   4.233 -0.8292 -0.7984 -0.8494
 3809SOL     OW23059   4.411   1.655   8.897 -0.0215 -0.2665  0.5128
 3809SOL    HW123060   4.506   1.644   8.902 -0.0283 -0.6817 -0.2982
 3809SOL    HW223061   4.387   1.709   8.973 -0.8907 -1.1814  0.8884
 3810SOL     OW23062   4.136   3.726   6.202  0.2668  0.4231  0.0149
 3810SOL    HW123063   4.208   3.685   6.251 -0.7032 -1.7369 -0.3830
 3810SOL    HW223064   4.106   3.652   6.150  0.6982 -0.3812  0.9007
 3811SOL     OW23065   4.667   1.209  11.066 -0.3027 -0.2602  0.2419
 3811SOL    HW123066   4.627   1.128  11.097  1.0264 -0.9887  0.0436
 3811SOL    HW223067   4.665   1.245  11.155  0.8243  2.2914 -0.7607
 3812SOL     OW23068   2.296   0.505   7.898  0.0113  0.4641  0.1803
 3812SOL    HW123069   2.384   0.500   7.861 -0.1488 -0.5572 -0.0534
 3812SOL    HW223070   2.311   0.456   7.978 -0.6601 -0.5943 -0.3377
 3813SOL     OW23071   0.490   4.688   2.199 -0.1032 -0.2372 -0.1013
 3813SOL    HW123072   0.583   4.684   2.222  0.2757 -1.7731 -1.9097
 3813SOL    HW223073   0.469   0.046   2.200 -1.4018 -0.5487  0.7583
 3814SOL     OW23074   1.346   4.711  17.474  0.3081 -0.3907  0.6701
 3814SOL    HW123075   1.294   0.014  17.403  2.3143  0.0244 -0.5866
 3814SOL    HW223076   1.282   4.657  17.521 -1.5465  1.1725 -0.0682
 3815SOL     OW23077   2.171   0.386   5.973  0.0801  0.5230 -0.0703
 3815SOL    HW123078   2.231   0.320   6.009  0.0046  1.3617  1.6109
 3815SOL    HW223079   2.213   0.407   5.890  0.6220 -0.5868 -0.0815
 3816SOL     OW23080   4.352   0.764   1.751 -0.1098  0.7250  0.2266
 3816SOL    HW123081   4.384   0.674   1.744  1.7669  1.3280  0.9828
 3816SOL    HW223082   4.410   0.819   1.698 -1.2018 -2.2469 -4.0165
 3817SOL     OW23083   0.741   3.995   2.109  0.0105 -0.4379 -0.4972
 3817SOL    HW123084   0.658   3.973   2.150  0.9335 -2.3114  0.3402
 3817SOL    HW223085   0.719   4.088   2.096 -0.1900 -0.5041 -0.6354
 3818SOL     OW23086   4.428   0.149  17.614  0.1744 -0.4700 -0.0349
 3818SOL    HW123087   4.511   0.103  17.631  0.5695 -0.6288 -2.4892
 3818SOL    HW223088   4.463   0.235  17.592 -1.7441 -0.3344 -2.4572
 3819SOL     OW23089   2.663   2.813   9.234  0.3388  0.2183 -0.7389
 3819SOL    HW123090   2.706   2.897   9.244  1.8336 -0.6989  0.5656
 3819SOL    HW223091   2.737   2.761   9.200 -1.9180 -1.3244 -3.3339
 3820SOL     OW23092   3.131   0.608  11.656  0.2314  0.5390 -0.1502
 3820SOL    HW123093   3.181   0.689  11.659  0.0345  0.6159  1.2064
 3820SOL    HW223094   3.053   0.647  11.617  0.7856  1.1338 -0.6633
 3821SOL     OW23095   2.688   2.402   2.131  0.2447  0.3047  0.3857
 3821SOL    HW123096   2.775   2.429   2.160  0.6840 -0.4228 -0.2505
 3821SOL    HW223097   2.637   2.418   2.210  0.0328 -1.7169  0.6572
 3822SOL     OW23098   2.003   4.422   7.593  0.1362  0.1142 -0.0745
 3822SOL    HW123099   2.059   4.443   7.518  1.1694  1.5817  1.1058
 3822SOL    HW223100   1.939   4.366   7.549 -0.4429  0.7784 -0.0682
 3823SOL     OW23101   3.150   1.500  12.486 -0.0309  0.0894  0.3835
 3823SOL    HW123102   3.100   1.444  12.426  0.4956  0.7946 -0.6964
 3823SOL    HW223103   3.143   1.587  12.447  1.2949  0.0525  0.0671
 3824SOL     OW23104   1.429   2.993  15.061  0.3112 -0.0595  0.1110
 3824SOL    HW123105   1.413   2.923  15.125 -1.7965 -2.9890 -3.6100
 3824SOL    HW223106   1.375   2.965  14.987  2.3772  0.2717 -1.5424
 3825SOL     OW23107   2.047   1.161   9.899  0.2310  0.2643 -0.3339
 3825SOL    HW123108   1.964   1.114   9.901 -0.0576  0.9195  2.2642
 3825SOL    HW223109   2.098   1.099   9.950 -0.3192  1.0597  1.1759
 3826SOL     OW23110   1.463   4.328   4.369  0.5787 -0.1506  0.0683
 3826SOL    HW123111   1.463   4.298   4.460  1.6171 -0.4785 -0.0475
 3826SOL    HW223112   1.532   4.271   4.335  0.7319  0.1063 -0.0518
 3827SOL     OW23113   2.895   2.050   3.906  0.2325 -0.5308 -0.1985
 3827SOL    HW123114   2.839   2.027   3.831  0.2282  0.8603 -0.6225
 3827SOL    HW223115   2.965   2.094   3.857  1.8085 -1.2421  1.4482
 3828SOL     OW23116   3.517   0.681   2.399 -0.1677  0.1871  0.1018
 3828SOL    HW123117   3.585   0.726   2.349 -1.5998 -0.6968 -2.6391
 3828SOL    HW223118   3.449   0.663   2.335 -1.0517 -0.5353  1.2280
 3829SOL     OW23119   1.323   1.163   7.790  0.3634 -0.2218 -0.2195
 3829SOL    HW123120   1.362   1.080   7.762 -0.6796 -0.2820 -1.5266
 3829SOL    HW223121   1.374   1.228   7.742 -0.3535  1.4530  1.2679
 3830SOL     OW23122   4.578   0.592   7.555 -0.7640  0.0172 -0.0395
 3830SOL    HW123123   4.579   0.686   7.574 -1.4879 -0.1613  0.9040
 3830SOL    HW223124   4.485   0.588   7.531 -0.9329  1.9635  0.2840
 3831SOL     OW23125   0.045   0.485  14.641 -0.6036  0.4087 -0.2157
 3831SOL    HW123126   0.046   0.509  14.548 -0.0997  0.9856 -0.0641
 3831SOL    HW223127   0.127   0.442  14.664  0.4010  2.3235 -0.2033
 3832SOL     OW23128   0.301   1.630  17.723 -0.4370 -0.1724 -0.6602
 3832SOL    HW123129   0.282   1.555  17.666 -0.6106  1.7052 -3.0260
 3832SOL    HW223130   0.254   1.703  17.684  1.1896  1.6410  0.8217
 3833SOL     OW23131   3.537   1.167   9.509  0.1142 -0.5167 -0.2103
 3833SOL    HW123132   3.533   1.141   9.417 -0.0422  2.9564 -1.1946
 3833SOL    HW223133   3.621   1.209   9.525  0.7286 -1.6428 -0.4750
 3834SOL     OW23134   3.129   1.139   4.276 -0.5749  0.3014  0.2245
 3834SOL    HW123135   3.098   1.191   4.202  4.8817 -0.9290 -2.9136
 3834SOL    HW223136   3.042   1.107   4.298 -0.9252  0.9562 -0.1892
 3835SOL     OW23137   1.696   2.946   6.475 -0.0124 -0.2012 -0.0296
 3835SOL    HW123138   1.770   2.949   6.536  0.5506 -0.9670 -0.6623
 3835SOL    HW223139   1.632   2.991   6.530  1.2469  3.1939 -1.3417
 3836SOL     OW23140   3.589   3.474   7.293 -0.2686 -0.5171  0.4736
 3836SOL    HW123141   3.645   3.526   7.235 -0.8922 -1.1284 -0.6781
 3836SOL    HW223142   3.562   3.410   7.227 -0.3839 -0.0771  0.0931
 3837SOL     OW23143   0.144   3.011   6.810 -0.0260  0.0841 -0.0457
 3837SOL    HW123144   0.071   3.021   6.871 -0.8071  0.6174 -1.0747
 3837SOL    HW223145   0.199   3.077   6.853  0.2724 -1.7335  2.3700
 3838SOL     OW23146   0.234   3.345   6.615 -0.3824 -0.0815  0.5128
 3838SOL    HW123147   0.227   3.437   6.640  1.1225  0.4500 -0.9855
 3838SOL    HW223148   0.223   3.344   6.520  0.0243  1.8935  0.4541
 3839SOL     OW23149   4.032   3.201   7.164 -0.0938  0.4684 -0.2937
 3839SOL    HW123150   4.039   3.251   7.082 -0.7221  2.0524  0.6298
 3839SOL    HW223151   4.041   3.262   7.237  2.0424 -1.2932  0.8923
 3840SOL     OW23152   2.013   4.048   3.102 -0.4855  0.0986 -0.5821
 3840SOL    HW123153   2.091   4.037   3.049  1.8457 -0.1191  2.9139
 3840SOL    HW223154   2.039   4.119   3.161 -0.8054  0.3872 -0.7885
 3841SOL     OW23155   2.786   4.328   9.535  0.2566  0.2837  0.0187
 3841SOL    HW123156   2.878   4.326   9.561  0.2664 -2.7043 -0.2629
 3841SOL    HW223157   2.742   4.261   9.588 -1.7931 -0.2848 -2.3780
 3842SOL     OW23158   2.560   1.064   9.976 -0.3704  0.4201  0.6995
 3842SOL    HW123159   2.498   1.137   9.983 -2.2684 -0.8993 -2.3613
 3842SOL    HW223160   2.555   1.052   9.881  0.4037  4.5242  0.1527
 3843SOL     OW23161   3.399   1.478   2.916  0.2552 -0.7729 -0.1380
 3843SOL    HW123162   3.356   1.398   2.886 -1.9129  0.8947 -1.4755
 3843SOL    HW223163   3.335   1.532   2.964 -2.5059 -2.0455 -2.3620
 3844SOL     OW23164   2.196   4.320   5.702  0.0042 -0.1322  0.1130
 3844SOL    HW123165   2.110   4.358   5.718  1.2442  3.7349 -2.4495
 3844SOL    HW223166   2.205   4.340   5.609  1.2168 -1.9701 -0.1659
 3845SOL     OW23167   1.887   3.787   3.921  0.0667  0.1989 -0.7537
 3845SOL    HW123168   1.894   3.756   3.830  4.0661  0.0812 -0.3819
 3845SOL    HW223169   1.963   3.745   3.960  1.7849  3.9354 -0.0843
 3846SOL     OW23170   3.600   1.937   7.608  0.2213 -0.1479 -0.4156
 3846SOL    HW123171   3.638   1.988   7.537 -0.8761  1.5680  0.2269
 3846SOL    HW223172   3.653   1.961   7.684  2.6783 -1.4108 -1.7494
 3847SOL     OW23173   2.903   1.711  12.364  0.2300 -0.2089 -0.5187
 3847SOL    HW123174   2.843   1.781  12.390 -0.9988 -1.9030  1.2180
 3847SOL    HW223175   2.857   1.628  12.373  0.9042 -0.5123  0.2187
 3848SOL     OW23176   4.407   3.610   9.414 -0.2147 -0.3228  0.3322
 3848SOL    HW123177   4.318   3.578   9.402 -0.5431  0.2818  1.1352
 3848SOL    HW223178   4.446   3.553   9.481  0.0046  1.3552  1.6346
 3849SOL     OW23179   2.504   4.547   7.561  0.2747 -0.0256 -0.0389
 3849SOL    HW123180   2.443   4.616   7.589 -0.0179 -0.3691  0.1784
 3849SOL    HW223181   2.463   4.465   7.587 -0.2818  0.6401  1.1966
 3850SOL     OW23182   0.069   3.960   1.470  0.5484  0.2852 -0.0364
 3850SOL    HW123183   0.004   3.995   1.409 -1.1870 -2.0433  0.4334
 3850SOL    HW223184   0.026   4.008   1.540  1.1502 -0.0356  0.5428
 3851SOL     OW23185   2.031   2.222   2.316  0.3669  0.1855  0.0611
 3851SOL    HW123186   1.967   2.166   2.359  1.6672 -0.7641  0.7107
 3851SOL    HW223187   2.042   2.284   2.388 -1.5771 -0.6273  1.0557
 3852SOL     OW23188   0.920   2.191  14.759 -0.8530  1.0979  0.1384
 3852SOL    HW123189   0.842   2.137  14.748 -0.0702 -0.0870  0.2967
 3852SOL    HW223190   0.924   2.251  14.685 -0.0179 -1.2381 -1.7000
 3853SOL     OW23191   0.876   2.034  11.794 -0.1175 -0.2765  0.2205
 3853SOL    HW123192   0.826   2.079  11.726 -0.9166  0.4522  1.2964
 3853SOL    HW223193   0.964   2.066  11.773 -0.4642 -0.5765 -1.6322
 3854SOL     OW23194   3.113   3.318   4.458  0.4875  0.6097  0.3005
 3854SOL    HW123195   3.104   3.324   4.553  0.6670  0.9108  0.2961
 3854SOL    HW223196   3.107   3.223   4.447 -1.4942  0.9682 -1.7735
 3855SOL     OW23197   2.622   0.546   1.771  0.1248  0.0339  0.1089
 3855SOL    HW123198   2.626   0.475   1.835 -0.7297  0.5074  0.7041
 3855SOL    HW223199   2.548   0.531   1.712 -0.2283 -0.0549  0.5664
 3856SOL     OW23200   4.237   1.613   5.131  0.0714  0.6857  0.3573
 3856SOL    HW123201   4.199   1.566   5.206  1.0484  0.2207  0.5614
 3856SOL    HW223202   4.322   1.638   5.166  0.5873 -0.4443 -0.1092
 3857SOL     OW23203   4.293   1.232   3.930 -0.1826 -0.0612  0.1123
 3857SOL    HW123204   4.325   1.254   3.843 -3.6137  3.6669 -0.1906
 3857SOL    HW223205   4.230   1.160   3.928 -0.3464 -0.0140  3.0335
 3858SOL     OW23206   2.129   3.564  13.715  0.0854 -0.2234  0.3510
 3858SOL    HW123207   2.170   3.501  13.775  0.8338  2.7518  2.9413
 3858SOL    HW223208   2.187   3.640  13.715 -1.0674  0.6585 -0.3332
 3859SOL     OW23209   1.169   1.192   8.320 -0.0041 -0.1096  0.4572
 3859SOL    HW123210   1.238   1.184   8.385  1.1151 -1.8256 -0.9407
 3859SOL    HW223211   1.093   1.172   8.375 -1.4415  0.7089 -1.2359
 3860SOL     OW23212   3.636   0.034   6.151 -0.1117  0.2562 -0.1934
 3860SOL    HW123213   3.709   0.063   6.205  0.0628 -0.5255 -0.0155
 3860SOL    HW223214   3.559   0.067   6.198  0.3778  2.0445 -0.6491
 3861SOL     OW23215   3.553   0.314   4.858  0.2288 -0.3801 -0.7510
 3861SOL    HW123216   3.601   0.387   4.898  0.9846 -1.1012 -0.3482
 3861SOL    HW223217   3.618   0.283   4.795  0.2559  0.8049 -1.2962
 3862SOL     OW23218   2.840   1.581   6.543 -0.2307 -0.5314 -0.1527
 3862SOL    HW123219   2.912   1.521   6.564  0.8265 -0.4801 -3.6559
 3862SOL    HW223220   2.852   1.659   6.597  1.6461 -0.2165 -1.0274
 3863SOL     OW23221   2.673   3.612  17.329  0.0862  0.5009 -0.5516
 3863SOL    HW123222   2.719   3.694  17.344 -1.1739  1.1868 -0.4513
 3863SOL    HW223223   2.732   3.553  17.376  0.3534 -0.5589 -2.2106
 3864SOL     OW23224   3.988   0.405  10.552  0.0088 -0.1550 -0.1467
 3864SOL    HW123225   3.951   0.468  10.489  0.1540 -0.4644 -0.5405
 3864SOL    HW223226   4.046   0.458  10.606  2.2245 -0.7087 -1.9533
 3865SOL     OW23227   0.541   3.236   7.434  0.3344 -0.1821 -0.6217
 3865SOL    HW123228   0.491   3.318   7.437 -0.2553 -0.6146  1.3102
 3865SOL    HW223229   0.553   3.223   7.340  0.1155  3.0343 -1.1088
 3866SOL     OW23230   3.502   4.071  15.783 -0.7635 -0.0532 -0.3417
 3866SOL    HW123231   3.563   4.000  15.762  0.0640  0.3304  0.7712
 3866SOL    HW223232   3.511   4.122  15.702 -0.5813  1.3323  0.5560
 3867SOL     OW23233   1.623   0.768   5.055 -0.5961  0.3876  0.1718
 3867SOL    HW123234   1.686   0.696   5.055 -0.0671  0.8319  1.9516
 3867SOL    HW223235   1.684   0.838   5.080 -0.0739 -0.2399  0.6563
 3868SOL     OW23236   4.354   3.520   5.244  0.5586 -0.3407 -0.2426
 3868SOL    HW123237   4.399   3.458   5.302  0.2131 -0.8116 -0.4781
 3868SOL    HW223238   4.322   3.575   5.316 -1.1044 -1.4114 -0.1570
 3869SOL     OW23239   3.956   0.261  15.857 -0.0443  0.0778 -0.1813
 3869SOL    HW123240   4.015   0.315  15.911 -2.1204  1.9980  0.1361
 3869SOL    HW223241   3.962   0.318  15.780  2.5240  2.1699  1.5357
 3870SOL     OW23242   1.573   3.103   7.319 -0.0381  0.2065  0.0324
 3870SOL    HW123243   1.514   3.124   7.247  1.5172  0.2303 -1.2390
 3870SOL    HW223244   1.657   3.092   7.274  0.9308  3.0319  1.1624
 3871SOL     OW23245   1.485   4.710  12.430 -0.2108  0.4299 -0.6127
 3871SOL    HW123246   1.533   0.030  12.492  2.1243 -1.2371 -0.9245
 3871SOL    HW223247   1.564   4.686  12.381  1.1744  0.9159  1.3972
 3872SOL     OW23248   1.032   4.698   3.298 -0.3602 -0.2507 -0.2257
 3872SOL    HW123249   1.120   4.691   3.261 -0.4198  0.4914 -0.5151
 3872SOL    HW223250   0.998   0.029   3.238  0.1129 -0.6278 -0.9165
 3873SOL     OW23251   3.300   1.795   5.243  0.8912 -0.1188 -0.0585
 3873SOL    HW123252   3.241   1.727   5.276 -0.5567  1.1987  0.1115
 3873SOL    HW223253   3.382   1.746   5.242 -0.2373 -1.9889 -3.9907
 3874SOL     OW23254   1.865   3.659   7.660 -0.0976  0.2298  0.1862
 3874SOL    HW123255   1.874   3.664   7.756  1.6264 -1.3676  0.0965
 3874SOL    HW223256   1.947   3.629   7.621  0.9772  1.0590  1.8035
 3875SOL     OW23257   2.741   1.531   2.262 -0.8459  0.1936 -0.3839
 3875SOL    HW123258   2.694   1.511   2.343  0.7619 -2.6038 -0.1227
 3875SOL    HW223259   2.677   1.495   2.201  0.8408  1.1490 -2.7124
 3876SOL     OW23260   1.453   2.538   3.522  0.6251 -0.5667 -0.1870
 3876SOL    HW123261   1.468   2.484   3.444 -2.5911 -1.3469 -0.3018
 3876SOL    HW223262   1.371   2.496   3.548  0.3711 -0.7861 -1.3325
 3877SOL     OW23263   0.999   4.209   5.739 -0.0023  0.5295 -0.3184
 3877SOL    HW123264   0.922   4.155   5.758 -1.4465  1.8566 -2.3943
 3877SOL    HW223265   0.977   4.247   5.654  2.0977 -0.5254 -1.3522
 3878SOL     OW23266   4.137   1.679   8.229  0.4476 -0.4995 -0.0110
 3878SOL    HW123267   4.140   1.602   8.285 -2.7001  0.3633  1.3518
 3878SOL    HW223268   4.228   1.679   8.200  0.8409 -1.0964  1.2298
 3879SOL     OW23269   1.263   3.252   4.634 -0.5992  0.2815  0.5382
 3879SOL    HW123270   1.312   3.243   4.715 -1.0094  1.1486  0.8845
 3879SOL    HW223271   1.226   3.163   4.629 -1.8554  0.9537 -2.2156
 3880SOL     OW23272   1.084   0.669   4.675 -0.2182  0.3474 -0.4314
 3880SOL    HW123273   1.133   0.722   4.739  0.2878  0.6681 -1.0808
 3880SOL    HW223274   1.010   0.628   4.720  1.2470 -0.7716  0.9465
 3881SOL     OW23275   4.388   4.295   9.123  0.1645 -0.2816  0.2540
 3881SOL    HW123276   4.296   4.319   9.121  0.6822  1.6686 -0.7721
 3881SOL    HW223277   4.395   4.215   9.175  2.9672 -0.0478  0.2596
 3882SOL     OW23278   1.069   4.544   7.075  0.3789 -0.1127  0.0992
 3882SOL    HW123279   1.014   4.470   7.052 -0.1440  1.0269 -2.3032
 3882SOL    HW223280   1.063   4.610   7.006 -0.5757 -2.5223 -2.1137
 3883SOL     OW23281   0.190   2.780  10.009  0.2819  0.2412  0.4022
 3883SOL    HW123282   0.100   2.748  10.005  0.1053  0.5692  1.6551
 3883SOL    HW223283   0.194   2.814   9.920  0.2230 -1.6294 -0.2922
 3884SOL     OW23284   4.684   0.060   1.806  0.0420  0.9114  0.4478
 3884SOL    HW123285   4.605   0.035   1.852 -1.0145  0.1323 -1.7717
 3884SOL    HW223286   0.023   0.019   1.852 -0.0873  0.7702  0.5273
 3885SOL     OW23287   4.250   0.714   5.148  0.0543 -0.2081 -0.5388
 3885SOL    HW123288   4.189   0.678   5.212  1.0808 -0.8802  0.0472
 3885SOL    HW223289   4.208   0.678   5.069  1.8371 -2.4057 -0.4701
 3886SOL     OW23290   1.326   0.654   0.822  0.1074  0.0269  0.2580
 3886SOL    HW123291   1.410   0.694   0.799  0.1564 -1.3933 -2.0316
 3886SOL    HW223292   1.301   0.612   0.740 -0.4145  3.0481 -1.1157
 3887SOL     OW23293   0.675   4.660   4.534 -0.2047  0.2769 -0.2052
 3887SOL    HW123294   0.660   4.720   4.461 -0.1172 -0.3245 -0.7122
 3887SOL    HW223295   0.606   4.594   4.529  0.4619 -0.3384 -1.2233
 3888SOL     OW23296   3.456   1.883  12.164  0.0293  0.4164 -0.1842
 3888SOL    HW123297   3.536   1.886  12.217 -0.2029  1.4033  0.1207
 3888SOL    HW223298   3.389   1.912  12.226  1.0681 -2.3202  2.2236
 3889SOL     OW23299   0.791   3.730   8.613  0.5510  0.4191  0.0842
 3889SOL    HW123300   0.771   3.766   8.699 -2.5310 -2.4544  0.5561
 3889SOL    HW223301   0.760   3.641   8.628  0.1049  0.7877  1.2438
 3890SOL     OW23302   3.850   2.172  10.771 -0.6267 -0.5507  0.1890
 3890SOL    HW123303   3.761   2.135  10.765  0.2626 -2.9001  1.2774
 3890SOL    HW223304   3.881   2.113  10.702  0.4470 -0.0519  0.2510
 3891SOL     OW23305   3.861   4.349   5.862 -0.8340  0.2580  0.0566
 3891SOL    HW123306   3.833   4.429   5.905 -0.2809  0.9221 -0.8192
 3891SOL    HW223307   3.902   4.379   5.781 -1.0182 -0.0902 -0.1675
 3892SOL     OW23308   2.602   0.180   6.181 -0.2178 -0.1061  0.4525
 3892SOL    HW123309   2.558   0.119   6.239 -1.6288 -0.4377 -0.9659
 3892SOL    HW223310   2.571   0.262   6.218  3.4670  1.0689  0.9315
 3893SOL     OW23311   3.323   1.039   9.113  0.5315 -0.2221  0.4592
 3893SOL    HW123312   3.286   1.099   9.048  1.1780  0.0492  0.3381
 3893SOL    HW223313   3.263   1.067   9.182  1.6700 -1.9026  2.1577
 3894SOL     OW23314   4.536   3.560   3.285 -0.5226  0.1932 -0.1281
 3894SOL    HW123315   4.518   3.607   3.204  2.0341 -1.2364 -1.5288
 3894SOL    HW223316   4.631   3.571   3.285 -0.5457  0.3933  0.3198
 3895SOL     OW23317   0.003   2.003   4.711  0.5039  0.1462 -0.5620
 3895SOL    HW123318   0.020   2.086   4.667  3.8866  0.1508  0.7561
 3895SOL    HW223319   4.658   1.980   4.663  0.1846  0.6154 -0.2619
 3896SOL     OW23320   2.454   2.357   1.511 -0.2356  0.9827  0.0089
 3896SOL    HW123321   2.520   2.289   1.524  0.0886  1.5518  1.3356
 3896SOL    HW223322   2.373   2.306   1.510 -0.1961  0.9326 -1.7558
 3897SOL     OW23323   0.843   2.498   8.169 -0.0042  0.5809  0.2465
 3897SOL    HW123324   0.766   2.550   8.192 -0.5236 -0.9599  2.0406
 3897SOL    HW223325   0.828   2.487   8.075 -3.5836 -1.3377  1.0489
 3898SOL     OW23326   1.108   3.651   3.981 -0.1692 -0.1578 -0.3737
 3898SOL    HW123327   1.021   3.637   4.020 -0.7378  0.5543 -1.3874
 3898SOL    HW223328   1.093   3.734   3.935 -0.7256  0.1785  0.4008
 3899SOL     OW23329   3.932   4.298   1.540 -0.2654  0.0066 -0.0466
 3899SOL    HW123330   3.949   4.308   1.633  0.9815 -0.5278 -0.2085
 3899SOL    HW223331   4.014   4.272   1.498 -0.0145  1.0339 -0.1956
 3900SOL     OW23332   0.345   1.355  14.846  0.0054 -0.0204  0.0989
 3900SOL    HW123333   0.389   1.280  14.887 -1.9610 -0.9702  0.4865
 3900SOL    HW223334   0.371   1.339  14.755 -0.7971 -0.9158  0.0285
 3901SOL     OW23335   3.517   2.776   2.357 -0.0661 -0.4352 -0.1260
 3901SOL    HW123336   3.591   2.735   2.313  1.5271  1.7681  0.4722
 3901SOL    HW223337   3.558   2.796   2.441 -0.7957 -0.2765  0.1941
 3902SOL     OW23338   1.225   0.002   7.222 -0.5807  0.3786  0.4433
 3902SOL    HW123339   1.212   4.666   7.159  0.0323  1.1265 -0.5180
 3902SOL    HW223340   1.306   0.039   7.186 -0.2985  0.0135  0.7105
 3903SOL     OW23341   2.031   0.443   8.812  0.0849  0.4989  0.0379
 3903SOL    HW123342   2.055   0.446   8.905  0.2063  0.2079  0.0187
 3903SOL    HW223343   2.099   0.494   8.767  1.1484 -1.8146 -0.9958
 3904SOL     OW23344   2.727   2.946  17.520  0.3346 -0.5233 -0.2086
 3904SOL    HW123345   2.790   2.953  17.592 -0.8210  1.1341  0.6405
 3904SOL    HW223346   2.769   3.015  17.467 -1.5929  0.7810 -0.0068
 3905SOL     OW23347   2.628   0.791  10.546  0.4803 -0.0351  0.4652
 3905SOL    HW123348   2.645   0.709  10.591 -0.6067 -2.3679 -3.4331
 3905SOL    HW223349   2.552   0.770  10.492  0.5565 -0.5181  0.5452
 3906SOL     OW23350   1.054   0.938   4.191  0.2607  0.1628 -0.4370
 3906SOL    HW123351   1.128   0.986   4.156  0.4421 -0.6908 -1.2151
 3906SOL    HW223352   0.981   0.998   4.173 -0.0549 -0.1469 -0.2009
 3907SOL     OW23353   1.556   4.460   1.719  1.2277 -0.2520 -0.0091
 3907SOL    HW123354   1.585   4.397   1.785 -2.1974 -0.4749  1.2411
 3907SOL    HW223355   1.595   4.420   1.640 -2.1156 -3.1389 -0.1639
 3908SOL     OW23356   0.353   3.750   8.715  0.2080  0.4060  0.4986
 3908SOL    HW123357   0.384   3.827   8.762 -1.6187  2.4539 -1.6597
 3908SOL    HW223358   0.264   3.783   8.706 -0.9931 -2.1199  3.2567
 3909SOL     OW23359   4.722   2.501   6.558 -0.1303  0.7437  0.0139
 3909SOL    HW123360   0.030   2.435   6.613 -0.4092 -0.2498 -0.9826
 3909SOL    HW223361   4.683   2.444   6.492  1.9619 -0.7533  0.0624
 3910SOL     OW23362   1.312   4.127   2.780 -0.2072 -0.1339 -0.2929
 3910SOL    HW123363   1.356   4.165   2.855 -2.0471 -0.1236  0.7783
 3910SOL    HW223364   1.287   4.214   2.749 -0.9788 -0.4442 -0.5598
 3911SOL     OW23365   0.696   2.446   3.239  0.1262 -0.0292 -0.3622
 3911SOL    HW123366   0.740   2.530   3.256 -1.3287  0.4632  1.0126
 3911SOL    HW223367   0.673   2.410   3.324 -0.3498  1.6118  0.2134
 3912SOL     OW23368   2.706   3.749   0.624  0.7365 -0.4856  0.1833
 3912SOL    HW123369   2.685   3.758   0.717  1.3999 -0.1774  0.3056
 3912SOL    HW223370   2.797   3.724   0.635  1.1089  0.0314 -1.6025
 3913SOL     OW23371   2.685   3.314   7.544  0.3792  0.7933 -0.5871
 3913SOL    HW123372   2.693   3.235   7.490 -0.6620  0.0792  0.3093
 3913SOL    HW223373   2.771   3.313   7.586  0.3521  0.7884 -0.5312
 3914SOL     OW23374   3.169   1.540   9.503 -0.0849  0.2502 -0.5592
 3914SOL    HW123375   3.111   1.498   9.566 -0.4698 -0.9248 -1.7054
 3914SOL    HW223376   3.147   1.485   9.428  0.8937 -1.0673  0.1266
 3915SOL     OW23377   1.191   3.877   2.767  0.0935 -0.0649  0.7910
 3915SOL    HW123378   1.204   3.972   2.770 -1.7617  0.1632  1.6714
 3915SOL    HW223379   1.246   3.846   2.839 -1.0337 -1.2203  1.1565
 3916SOL     OW23380   4.730   0.713  13.890  0.6969  0.0314  0.1856
 3916SOL    HW123381   0.026   0.626  13.916  1.6006 -0.3101 -2.0971
 3916SOL    HW223382   0.080   0.751  13.867  0.5272 -1.0589 -2.1864
 3917SOL     OW23383   1.980   1.739   8.591 -0.0002 -0.3281  0.4290
 3917SOL    HW123384   1.984   1.714   8.683 -1.0406 -0.0856  0.5374
 3917SOL    HW223385   1.961   1.831   8.608 -1.7744 -0.2584 -2.0367
 3918SOL     OW23386   1.867   4.577   9.084 -0.0793  0.0306  0.0179
 3918SOL    HW123387   1.796   4.534   9.036  0.3967  0.7041 -1.2969
 3918SOL    HW223388   1.821   4.598   9.165 -0.5812 -0.1263 -0.2243
 3919SOL     OW23389   1.126   4.592  17.651  0.1494  0.3023  0.1259
 3919SOL    HW123390   1.169   4.506  17.655 -1.4290 -0.3508  2.8483
 3919SOL    HW223391   1.033   4.575  17.635 -0.2170  3.0981 -0.6437
 3920SOL     OW23392   3.445   2.492   5.435  0.4322  0.0630  0.1577
 3920SOL    HW123393   3.360   2.506   5.478  0.2477  2.2361 -0.9217
 3920SOL    HW223394   3.419   2.531   5.352 -1.0402 -0.3574  0.4152
 3921SOL     OW23395   3.098   1.855   4.053  0.3665 -0.6445  0.2962
 3921SOL    HW123396   3.168   1.920   4.053  0.0239 -0.2637 -0.5680
 3921SOL    HW223397   3.064   1.859   3.963 -0.6440 -0.5629  0.6795
 3922SOL     OW23398   4.088   1.700   9.614  0.1149 -0.3533  0.7116
 3922SOL    HW123399   4.003   1.671   9.647 -0.6498 -0.4098 -1.2829
 3922SOL    HW223400   4.147   1.666   9.682 -0.0919 -0.0517  1.0396
 3923SOL     OW23401   2.470   0.311  10.219 -0.1324 -0.0993  0.2875
 3923SOL    HW123402   2.491   0.247  10.286  0.3930 -0.0648  0.1602
 3923SOL    HW223403   2.504   0.388  10.265  1.7045 -0.2854 -0.7663
 3924SOL     OW23404   3.769   1.854  11.963  0.2712  0.3375 -0.0916
 3924SOL    HW123405   3.860   1.862  11.989  1.0158  0.7241 -2.7743
 3924SOL    HW223406   3.732   1.856  12.051  1.4622  1.7502  0.3734
 3925SOL     OW23407   3.195   3.415   8.241  0.0002 -0.4795 -0.6284
 3925SOL    HW123408   3.244   3.369   8.173 -0.1709  0.1177 -1.1493
 3925SOL    HW223409   3.206   3.362   8.320  3.0297 -0.8231 -1.2970
 3926SOL     OW23410   3.878   1.988   8.650 -0.2764 -0.0846  0.3446
 3926SOL    HW123411   3.972   1.972   8.643 -0.5751 -1.4395 -0.5942
 3926SOL    HW223412   3.861   1.976   8.744  0.0929  0.4059  0.4739
 3927SOL     OW23413   4.382   2.519   6.943 -0.5231 -0.4173 -0.2067
 3927SOL    HW123414   4.454   2.493   6.886  0.0452  0.0960  0.2747
 3927SOL    HW223415   4.309   2.525   6.881  0.1305  0.4205 -0.9064
 3928SOL     OW23416   1.275   0.280   7.611 -0.2564  0.0263  0.0890
 3928SOL    HW123417   1.227   0.208   7.652  1.0388 -0.5587  0.5795
 3928SOL    HW223418   1.253   0.266   7.519 -0.5017 -1.6153  0.3904
 3929SOL     OW23419   0.958   2.919   3.193  0.4328  0.1129  0.6320
 3929SOL    HW123420   1.022   2.987   3.173 -1.4480  1.7874  0.3162
 3929SOL    HW223421   0.879   2.971   3.207 -1.5742 -3.1975  1.4719
 3930SOL     OW23422   2.569   2.649   4.539 -0.0928  0.3882 -0.2775
 3930SOL    HW123423   2.529   2.736   4.540  2.0954  1.4061 -1.5474
 3930SOL    HW223424   2.550   2.618   4.627  1.2780  0.9612  0.2191
 3931SOL     OW23425   2.071   3.447   1.869  0.1302  0.2845 -0.1404
 3931SOL    HW123426   2.132   3.503   1.916 -0.2727 -1.0724  2.0343
 3931SOL    HW223427   2.107   3.454   1.781 -1.3411  0.1865 -0.7512
 3932SOL     OW23428   1.671   0.132   1.294 -0.1769  0.1570  0.4860
 3932SOL    HW123429   1.748   0.189   1.298 -0.3178  0.0794  4.0812
 3932SOL    HW223430   1.602   0.196   1.277  2.3776  2.8400  0.2720
 3933SOL     OW23431   4.428   2.898  13.350  0.8030  0.3615  0.0927
 3933SOL    HW123432   4.511   2.903  13.302  0.8606 -0.0429  0.1511
 3933SOL    HW223433   4.437   2.824  13.409  2.8160 -0.6533 -1.5178
 3934SOL     OW23434   0.543   0.361   3.733 -0.1508 -0.8984  0.1190
 3934SOL    HW123435   0.575   0.272   3.747  1.8359 -0.6121 -2.6029
 3934SOL    HW223436   0.582   0.409   3.805 -0.6707  1.1652 -0.9825
 3935SOL     OW23437   4.558   1.942   9.377  0.1427  0.6451  0.0876
 3935SOL    HW123438   4.477   1.890   9.375  0.5380  0.0254  0.2414
 3935SOL    HW223439   4.580   1.938   9.470  0.6095  1.5928  0.0193
 3936SOL     OW23440   3.593   4.446   2.970  0.3158 -0.1512  0.3160
 3936SOL    HW123441   3.681   4.412   2.953  0.5779  0.5684  0.1929
 3936SOL    HW223442   3.591   4.509   2.897 -0.4003  0.5702  0.9651
 3937SOL     OW23443   2.638   2.177   1.680  0.0495 -0.4778 -0.7095
 3937SOL    HW123444   2.711   2.215   1.729 -2.5911  1.9719  1.3496
 3937SOL    HW223445   2.577   2.152   1.749  2.0582  3.3626  2.4281
 3938SOL     OW23446   0.353   0.529   3.642 -0.3364  0.4502 -0.1533
 3938SOL    HW123447   0.433   0.480   3.661 -0.5257 -0.6572 -2.1496
 3938SOL    HW223448   0.283   0.466   3.623  0.2580  0.1061 -1.1985
 3939SOL     OW23449   2.213   1.941  13.046  0.4197 -0.1828 -0.3183
 3939SOL    HW123450   2.294   1.993  13.047 -0.8952  1.8712 -0.1606
 3939SOL    HW223451   2.176   1.966  12.961  0.3567 -0.1831 -0.2904
 3940SOL     OW23452   2.362   1.492   3.792  1.1901  0.7349  0.6478
 3940SOL    HW123453   2.395   1.506   3.703 -1.0427 -0.5097 -0.3967
 3940SOL    HW223454   2.360   1.580   3.830  1.3120  0.0614  2.2076
 3941SOL     OW23455   1.080   2.370  12.093 -0.7284  0.1299 -0.6390
 3941SOL    HW123456   1.103   2.304  12.158 -1.7283 -0.4805 -0.9183
 3941SOL    HW223457   1.012   2.415  12.142 -0.5176  0.8025 -0.9605
 3942SOL     OW23458   2.794   1.753   6.164 -0.0275 -0.4194 -1.1459
 3942SOL    HW123459   2.708   1.724   6.194  0.1381  0.7863  0.4769
 3942SOL    HW223460   2.847   1.673   6.163 -0.1987 -0.5678  1.6965
 3943SOL     OW23461   0.338   4.601   4.317 -0.9648  0.3264 -0.3668
 3943SOL    HW123462   0.373   4.532   4.261 -0.2311  1.2996 -1.1057
 3943SOL    HW223463   0.357   4.566   4.404  2.6770  0.4447 -1.1211
 3944SOL     OW23464   4.732   4.063   7.899  0.0415  0.2786  0.3581
 3944SOL    HW123465   4.691   4.094   7.980 -1.6964 -2.6806  0.6157
 3944SOL    HW223466   4.734   4.146   7.852 -5.2598 -0.3478 -0.9218
 3945SOL     OW23467   1.603   3.461   8.491  0.5413 -0.3789  0.3821
 3945SOL    HW123468   1.672   3.498   8.546  0.9089 -0.9377  0.3014
 3945SOL    HW223469   1.588   3.534   8.431 -1.4514  0.1392  1.4967
 3946SOL     OW23470   1.718   2.851   3.065  0.2696  0.1566  0.2503
 3946SOL    HW123471   1.649   2.915   3.050  1.7266  2.0940  1.7638
 3946SOL    HW223472   1.677   2.794   3.130 -2.4201  1.9964  0.1757
 3947SOL     OW23473   4.686   3.815   1.118  0.4820 -0.0282  0.5889
 3947SOL    HW123474   4.680   3.723   1.093 -2.6762  0.2596  0.3258
 3947SOL    HW223475   0.046   3.829   1.107  1.0013 -2.9234  1.3899
 3948SOL     OW23476   3.623   3.096   1.326  0.2060 -0.1278 -0.0213
 3948SOL    HW123477   3.637   3.103   1.420  0.5780 -0.1501 -0.0764
 3948SOL    HW223478   3.621   3.186   1.292 -1.2540  0.7974  2.5218
 3949SOL     OW23479   4.179   0.000   3.677  0.5051  0.2490 -0.1731
 3949SOL    HW123480   4.201   4.656   3.628  0.7266 -0.6822  1.4261
 3949SOL    HW223481   4.128   4.702   3.751 -1.0422  1.8455 -0.5424
 3950SOL     OW23482   2.937   2.225   1.416  0.5128 -0.2762 -0.2866
 3950SOL    HW123483   2.943   2.214   1.321  2.8355  0.8542 -0.2754
 3950SOL    HW223484   3.006   2.289   1.435  0.4294 -0.1550 -0.3911
 3951SOL     OW23485   1.399   4.380  13.903  0.4538  0.1330 -0.6259
 3951SOL    HW123486   1.400   4.467  13.944  1.4582 -0.7443  1.2138
 3951SOL    HW223487   1.308   4.360  13.880  0.2012  0.1447  0.3614
 3952SOL     OW23488   1.194   3.455   9.423  1.1497  0.1549  0.5613
 3952SOL    HW123489   1.125   3.478   9.361  1.5659  0.5845  0.2501
 3952SOL    HW223490   1.192   3.360   9.410 -0.7104  0.1063  1.3051
 3953SOL     OW23491   3.891   2.367   2.598  0.3568 -0.2119 -0.4535
 3953SOL    HW123492   3.910   2.275   2.616  1.9730  0.0362 -0.9262
 3953SOL    HW223493   3.929   2.380   2.511  0.3337 -2.9454 -0.8675
 3954SOL     OW23494   1.339   1.509   1.838  0.3543  0.0408  0.3095
 3954SOL    HW123495   1.252   1.548   1.832  0.8122  1.2321  1.3725
 3954SOL    HW223496   1.370   1.486   1.751  0.8446 -0.4422  0.6044
 3955SOL     OW23497   3.299   2.679   8.842 -0.2396  0.2029  0.1258
 3955SOL    HW123498   3.296   2.661   8.748  0.7635 -3.7829  0.8574
 3955SOL    HW223499   3.212   2.713   8.863 -0.7033 -0.6195 -0.4338
 3956SOL     OW23500   2.443   1.010   7.376 -0.0679  0.1770  0.0318
 3956SOL    HW123501   2.534   1.031   7.394  0.6880 -1.1117 -2.2997
 3956SOL    HW223502   2.434   1.053   7.290 -1.3630  0.3285  0.2432
 3957SOL     OW23503   0.596   1.955   2.015  0.6606  0.1569 -0.0821
 3957SOL    HW123504   0.535   2.028   2.004  0.5614 -0.3624 -2.9427
 3957SOL    HW223505   0.638   1.986   2.096  2.4732 -2.8183  0.1189
 3958SOL     OW23506   0.628   0.569   4.697 -0.2318  0.2845 -0.3693
 3958SOL    HW123507   0.709   0.519   4.681 -0.6457 -0.5391  0.0938
 3958SOL    HW223508   0.633   0.639   4.633  2.2846 -0.9479 -1.5593
 3959SOL     OW23509   1.344   2.876   7.226 -0.2043  0.3182  0.2285
 3959SOL    HW123510   1.385   2.859   7.311 -0.5123  0.7542  0.4690
 3959SOL    HW223511   1.425   2.857   7.179  0.5772  2.4859  0.6941
 3960SOL     OW23512   1.044   3.945  17.305  0.8782  0.2372  0.2990
 3960SOL    HW123513   1.119   3.937  17.246 -0.0441 -2.0261 -0.5888
 3960SOL    HW223514   0.992   4.006  17.253 -1.2986 -1.7761  0.1053
 3961SOL     OW23515   1.246   0.923   3.912  0.0931  0.4101 -0.0627
 3961SOL    HW123516   1.155   0.915   3.882  0.7364 -0.9151 -1.6478
 3961SOL    HW223517   1.244   1.019   3.911  1.6082  0.4778  3.0774
 3962SOL     OW23518   3.041   1.968   8.968  0.4268 -0.4171  0.0423
 3962SOL    HW123519   3.042   1.940   8.876 -0.4712 -1.5215  0.3719
 3962SOL    HW223520   3.131   1.980   8.999  0.0004  1.3475  0.5821
 3963SOL     OW23521   2.615   1.573   8.900 -0.0954  0.3199 -0.2898
 3963SOL    HW123522   2.693   1.566   8.845  0.4262  0.9019  0.3702
 3963SOL    HW223523   2.642   1.596   8.989 -1.1031 -0.1727  0.1477
 3964SOL     OW23524   4.335   4.074  14.474 -0.4006 -0.6872 -0.1411
 3964SOL    HW123525   4.373   4.161  14.475 -0.8449 -0.4653 -1.8471
 3964SOL    HW223526   4.263   4.087  14.411  0.4185  1.2071 -0.6838
 3965SOL     OW23527   1.506   3.947  13.769  0.5344 -0.3769  0.7235
 3965SOL    HW123528   1.424   3.991  13.792  0.4475  0.5068 -1.2905
 3965SOL    HW223529   1.508   3.893  13.848  2.3993  1.6430  2.0246
 3966SOL     OW23530   0.996   4.504   3.472  0.0311  0.4640 -0.2979
 3966SOL    HW123531   1.002   4.593   3.438  2.3205 -0.2070 -1.6584
 3966SOL    HW223532   1.004   4.453   3.391 -2.2638  1.7457 -1.3203
 3967SOL     OW23533   0.446   3.428   8.046 -0.5547  0.2793  0.0971
 3967SOL    HW123534   0.472   3.492   7.979  2.9405 -1.9953 -0.7315
 3967SOL    HW223535   0.510   3.443   8.115  0.3289  0.9947 -0.8718
 3968SOL     OW23536   1.506   0.406  17.544  0.2127 -0.2090  0.6833
 3968SOL    HW123537   1.509   0.313  17.566  2.8453 -0.2090  0.2750
 3968SOL    HW223538   1.417   0.427  17.572  0.2147  0.5058  0.1776
 3969SOL     OW23539   4.614   3.485   8.505 -0.1212 -0.4283 -0.5502
 3969SOL    HW123540   4.656   3.404   8.535  3.2128  0.8416 -1.8459
 3969SOL    HW223541   4.523   3.455   8.502 -0.9239  2.1856 -2.7362
 3970SOL     OW23542   0.270   1.842   6.841 -0.2845 -0.4010  0.0821
 3970SOL    HW123543   0.186   1.879   6.815  0.3157  0.4804 -0.5870
 3970SOL    HW223544   0.283   1.777   6.773  0.7972 -0.1822  0.0777
 3971SOL     OW23545   4.394   3.871   1.054 -0.0600 -0.0600  0.1797
 3971SOL    HW123546   4.447   3.819   1.114  0.8992 -0.1842 -0.7734
 3971SOL    HW223547   4.461   3.935   1.030  0.4955 -0.1927  1.4052
 3972SOL     OW23548   0.016   1.594   6.933  0.3919  0.1042 -0.0154
 3972SOL    HW123549   4.711   1.507   6.920  0.0555  0.4465 -1.2488
 3972SOL    HW223550   4.670   1.646   6.929  0.0122 -0.3775  1.3639
 3973SOL     OW23551   1.689   3.546   3.812 -0.0240 -0.4620 -0.1652
 3973SOL    HW123552   1.728   3.594   3.739  1.1592 -2.5679 -0.9173
 3973SOL    HW223553   1.733   3.589   3.886 -1.5199  1.2731 -0.2981
 3974SOL     OW23554   2.202   4.321   9.299 -0.0022 -0.2863 -0.1240
 3974SOL    HW123555   2.200   4.348   9.390  2.1795  2.1909 -0.7879
 3974SOL    HW223556   2.168   4.393   9.246  0.0993 -0.2241 -0.1051
 3975SOL     OW23557   2.214   1.293   0.945 -0.3048 -0.0944 -0.1412
 3975SOL    HW123558   2.180   1.377   0.974 -2.4786 -1.4790  1.3969
 3975SOL    HW223559   2.231   1.260   1.034  1.1574  0.7265 -0.1228
 3976SOL     OW23560   3.896   1.596   1.924 -0.4354 -0.2570  0.4004
 3976SOL    HW123561   3.829   1.634   1.981 -0.1226  3.0471 -1.3978
 3976SOL    HW223562   3.838   1.591   1.847 -0.9903  1.9153  0.6819
 3977SOL     OW23563   0.247   2.126   9.586 -0.1579  0.0926 -0.0309
 3977SOL    HW123564   0.272   2.216   9.608  1.9233 -0.7503  0.9982
 3977SOL    HW223565   0.170   2.129   9.644  0.1582 -1.9228  0.4946
 3978SOL     OW23566   2.806   4.442   4.213  0.3904  0.2900  0.3288
 3978SOL    HW123567   2.893   4.464   4.180  0.9167 -2.0719  0.1506
 3978SOL    HW223568   2.808   4.346   4.206  0.9190  0.3043  0.3004
 3979SOL     OW23569   3.565   2.225   7.033 -0.3733  0.8943  0.3420
 3979SOL    HW123570   3.629   2.285   6.996  0.3071 -1.5808 -2.4782
 3979SOL    HW223571   3.565   2.261   7.122 -0.7443 -0.5278  0.9156
 3980SOL     OW23572   3.847   2.366   1.682  0.7027 -0.0059 -0.0035
 3980SOL    HW123573   3.871   2.295   1.622 -0.0460 -1.3912  1.3364
 3980SOL    HW223574   3.775   2.328   1.732 -0.2443  2.0534  0.1989
 3981SOL     OW23575   2.477   1.398   5.426  0.0108  0.2783  0.0274
 3981SOL    HW123576   2.508   1.317   5.385  1.5883  0.9793 -0.1579
 3981SOL    HW223577   2.525   1.470   5.385  1.4613  0.1524  1.5170
 3982SOL     OW23578   3.711   1.020   1.765  0.1778 -0.1631  0.3751
 3982SOL    HW123579   3.641   1.081   1.789  0.8495  0.6102  0.3508
 3982SOL    HW223580   3.734   0.983   1.851  0.6189  0.7173  0.6301
 3983SOL     OW23581   0.679   4.267   2.108 -0.2041 -0.0202  0.2410
 3983SOL    HW123582   0.609   4.273   2.174  0.7119  1.6393  1.0557
 3983SOL    HW223583   0.749   4.314   2.152 -1.1990 -1.6636  3.6665
 3984SOL     OW23584   1.663   2.171   4.915 -0.1238 -0.4717  0.0965
 3984SOL    HW123585   1.665   2.133   4.827  1.7002  1.6895 -0.8168
 3984SOL    HW223586   1.756   2.183   4.936  0.0421 -2.6805  0.6131
 3985SOL     OW23587   1.458   0.407   0.446  0.0021  0.1536  0.2948
 3985SOL    HW123588   1.553   0.390   0.442 -0.0772 -0.4079  0.7292
 3985SOL    HW223589   1.423   0.429   0.360  0.6194 -1.4164 -0.3745
 3986SOL     OW23590   3.202   3.122   7.787 -0.1852  0.2474  0.2834
 3986SOL    HW123591   3.113   3.088   7.796 -0.5810  1.1556 -0.1780
 3986SOL    HW223592   3.252   3.043   7.765 -2.4483 -0.7135 -1.2897
 3987SOL     OW23593   2.974   2.500   6.696  0.2596 -0.5022  0.2794
 3987SOL    HW123594   3.047   2.453   6.655  1.4417  1.0432  0.6172
 3987SOL    HW223595   2.979   2.584   6.651 -0.0198 -1.2779 -1.1916
 3988SOL     OW23596   1.812   1.815  16.727 -0.0759  0.3189 -0.1091
 3988SOL    HW123597   1.853   1.829  16.642 -0.2174  0.0531 -0.2200
 3988SOL    HW223598   1.801   1.720  16.729 -1.2311  0.4397 -0.7401
 3989SOL     OW23599   1.294   1.792   6.525 -0.8923  0.1714 -0.2877
 3989SOL    HW123600   1.285   1.803   6.430  3.4344 -2.4619 -0.9839
 3989SOL    HW223601   1.225   1.729   6.543 -0.3536 -0.7839 -1.5121
 3990SOL     OW23602   1.802   4.115   4.704  0.9105 -0.2539 -0.1752
 3990SOL    HW123603   1.786   4.021   4.703  1.7791 -0.4475  2.1498
 3990SOL    HW223604   1.897   4.122   4.712  0.8566  0.8371 -0.5322
 3991SOL     OW23605   2.616   2.531  16.592  0.3368  0.1517 -0.2914
 3991SOL    HW123606   2.599   2.624  16.580  0.4809  0.5160  2.1914
 3991SOL    HW223607   2.704   2.528  16.555  0.8784  0.5283  0.9682
 3992SOL     OW23608   3.142   0.380  12.601  0.3750  0.6710 -0.4808
 3992SOL    HW123609   3.048   0.398  12.602  0.5391  1.5012  0.1078
 3992SOL    HW223610   3.155   0.296  12.645  0.4264 -0.4120 -2.5150
 3993SOL     OW23611   2.825   0.082  12.158  0.1742 -0.2348  0.2971
 3993SOL    HW123612   2.857   0.156  12.107  1.1176 -0.3722  0.7075
 3993SOL    HW223613   2.907   0.056  12.199  1.1888  1.7390 -0.5057
 3994SOL     OW23614   3.809   4.515  11.130  0.2857  0.4685 -0.3322
 3994SOL    HW123615   3.765   4.481  11.051 -1.1247 -0.9538  1.0528
 3994SOL    HW223616   3.894   4.535  11.092 -0.0533 -0.0292 -1.3741
 3995SOL     OW23617   2.465   3.399   9.483  0.5469  0.6813  0.6699
 3995SOL    HW123618   2.453   3.307   9.507 -1.7463  0.9550  0.5781
 3995SOL    HW223619   2.554   3.423   9.509  1.3166 -2.7628  1.2228
 3996SOL     OW23620   3.251   4.235   5.651 -0.2338 -0.3041  0.0979
 3996SOL    HW123621   3.237   4.154   5.602 -0.3605 -0.9181  1.1472
 3996SOL    HW223622   3.304   4.268   5.580  0.1508 -4.3095 -1.4803
 3997SOL     OW23623   4.452   2.386  13.026  0.7563  0.1193  0.3468
 3997SOL    HW123624   4.357   2.378  13.017  1.2022 -1.0353 -3.3556
 3997SOL    HW223625   4.461   2.428  13.111  0.8089  0.6845  0.0628
 3998SOL     OW23626   4.508   4.081  11.224 -0.4234  0.3122 -0.7068
 3998SOL    HW123627   4.413   4.090  11.215 -0.5123 -0.2193 -0.2929
 3998SOL    HW223628   4.523   4.002  11.172  0.5085 -1.0885  1.7053
 3999SOL     OW23629   1.107   1.902   1.514  0.4561  0.3916  0.9587
 3999SOL    HW123630   1.180   1.903   1.452 -0.3636  0.4728 -0.0033
 3999SOL    HW223631   1.089   1.996   1.518  0.6168  0.3606  2.7294
 4000SOL     OW23632   2.371   3.609  15.664 -0.3117  0.2707 -0.3160
 4000SOL    HW123633   2.357   3.534  15.722  0.2001  0.9275  0.6467
 4000SOL    HW223634   2.335   3.675  15.723 -1.0531 -0.0931 -0.3608
 4001SOL     OW23635   2.203   4.316   3.807 -0.9383  0.1158 -0.2195
 4001SOL    HW123636   2.180   4.409   3.805 -1.7981 -0.0503  1.7480
 4001SOL    HW223637   2.176   4.286   3.720  1.7280 -0.0172 -0.9923
 4002SOL     OW23638   3.770   4.617   4.494  0.1144  0.0194 -0.0307
 4002SOL    HW123639   3.722   4.696   4.520  0.1289 -0.9500  2.9337
 4002SOL    HW223640   3.758   4.614   4.399 -0.2536 -0.8452  0.0483
 4003SOL     OW23641   1.291   4.096   3.149  0.0063 -0.0508  0.2655
 4003SOL    HW123642   1.261   4.078   3.238 -2.2060 -0.0956 -0.4922
 4003SOL    HW223643   1.359   4.160   3.167 -0.7561  0.5025  1.1765
 4004SOL     OW23644   3.493   0.298   5.581 -0.6562  0.5060  0.3440
 4004SOL    HW123645   3.530   0.255   5.504 -2.0759 -0.1231  0.0177
 4004SOL    HW223646   3.456   0.223   5.628 -3.5384  0.9686 -1.1462
 4005SOL     OW23647   3.859   0.366   8.515 -0.2379  0.0795  0.1754
 4005SOL    HW123648   3.928   0.338   8.454  0.9613  1.6031  0.8307
 4005SOL    HW223649   3.835   0.450   8.477  1.8231  1.1602  1.2814
 4006SOL     OW23650   0.294   2.484   9.403  0.0445 -0.5461  0.6921
 4006SOL    HW123651   0.365   2.447   9.349  0.1227  0.3768  0.1720
 4006SOL    HW223652   0.309   2.427   9.479  1.2850  0.6415  1.3422
 4007SOL     OW23653   4.696   1.194   4.817  0.2763 -0.4726 -0.2132
 4007SOL    HW123654   4.720   1.238   4.898 -0.9756  0.5649 -0.4045
 4007SOL    HW223655   4.701   1.266   4.753  2.2708 -0.0439  0.4305
 4008SOL     OW23656   2.166   0.638   1.679  0.3482  0.2236 -0.0927
 4008SOL    HW123657   2.089   0.687   1.711  1.1132  0.8604  0.7901
 4008SOL    HW223658   2.211   0.703   1.626  1.4732 -0.0509  0.5310
 4009SOL     OW23659   0.524   3.709   0.090 -0.3000  0.1457  0.0137
 4009SOL    HW123660   0.580   3.659   0.031 -2.4177 -0.8314 -1.1634
 4009SOL    HW223661   0.564   3.681   0.173 -0.1673 -0.2345 -0.1781
 4010SOL     OW23662   1.119   2.177  10.238  0.2899 -0.3108  0.0194
 4010SOL    HW123663   1.126   2.139  10.151 -0.4247 -1.3575  0.4194
 4010SOL    HW223664   1.115   2.095  10.287  1.5884 -0.2863  0.1676
 4011SOL     OW23665   2.364   1.262   9.953 -0.2808 -0.0296  0.1593
 4011SOL    HW123666   2.383   1.351   9.926 -2.4474  1.0119  2.0721
 4011SOL    HW223667   2.304   1.243   9.880 -0.8814  2.8074 -0.0774
 4012SOL     OW23668   2.901   1.847  15.998  0.2808  0.0744 -0.5375
 4012SOL    HW123669   2.808   1.848  15.976  0.1868 -0.8365 -0.1919
 4012SOL    HW223670   2.896   1.788  16.074  0.1276  0.0521 -0.5653
 4013SOL     OW23671   2.251   1.135   6.122  0.2109  0.5224 -0.2626
 4013SOL    HW123672   2.182   1.201   6.127  0.4935  0.8411 -0.5424
 4013SOL    HW223673   2.222   1.076   6.191  1.6241  2.5953  2.0948
 4014SOL     OW23674   3.840   2.005   5.210  0.0103 -0.3719 -0.0130
 4014SOL    HW123675   3.852   2.021   5.304 -1.2901 -2.8677  0.5891
 4014SOL    HW223676   3.840   1.909   5.208  0.0596 -0.3184 -1.9503
 4015SOL     OW23677   0.414   1.839   5.177 -0.2080 -0.5310  0.5780
 4015SOL    HW123678   0.476   1.821   5.248  0.7485 -1.7025 -0.5410
 4015SOL    HW223679   0.387   1.748   5.165 -2.1052 -0.0393  1.1478
 4016SOL     OW23680   4.636   0.311   0.128 -0.1118 -0.4107  0.2309
 4016SOL    HW123681   4.655   0.286   0.218  0.5672 -0.7638 -0.0043
 4016SOL    HW223682   4.541   0.320   0.135 -0.0137  3.2519 -2.7533
 4017SOL     OW23683   4.553   0.315   7.879 -0.5042 -0.1664  0.5279
 4017SOL    HW123684   4.476   0.320   7.935 -0.4387 -2.5013  0.8415
 4017SOL    HW223685   4.512   0.336   7.795 -0.8653 -0.7880  0.5432
 4018SOL     OW23686   2.739   2.973   5.440  0.7412  0.9047 -0.6530
 4018SOL    HW123687   2.753   3.038   5.509  1.9373  0.8725 -0.8718
 4018SOL    HW223688   2.788   2.899   5.477 -1.0791  0.4272  0.7964
 4019SOL     OW23689   4.591   3.239   4.058 -0.1951 -0.3874  0.2170
 4019SOL    HW123690   4.652   3.306   4.026  0.8300 -1.4203  0.0267
 4019SOL    HW223691   4.506   3.261   4.021 -1.2732 -0.1020  2.8693
 4020SOL     OW23692   2.498   3.261   3.819  0.4649  0.0760  0.2676
 4020SOL    HW123693   2.588   3.234   3.803  0.4585 -0.2983  0.8817
 4020SOL    HW223694   2.447   3.187   3.853 -1.0444  0.9810 -0.0198
 4021SOL     OW23695   0.362   2.641   7.015  0.0538  0.4953  0.1246
 4021SOL    HW123696   0.364   2.546   7.028  2.4468 -0.0818 -4.2402
 4021SOL    HW223697   0.416   2.675   7.086 -1.0998  2.1187  0.2137
 4022SOL     OW23698   0.389   0.948   1.615  0.2515  0.4618  0.0211
 4022SOL    HW123699   0.368   0.888   1.543 -0.9092  2.9511 -1.7208
 4022SOL    HW223700   0.309   1.000   1.615 -1.7672 -2.6519  2.3467
 4023SOL     OW23701   4.493   1.920   1.955  0.1640 -0.4313  0.3949
 4023SOL    HW123702   4.476   1.871   2.035 -1.2117 -2.4713 -1.1580
 4023SOL    HW223703   4.495   1.854   1.886 -0.3293 -0.0742  0.0364
 4024SOL     OW23704   1.912   1.198   5.121 -0.3967  0.1326  0.4939
 4024SOL    HW123705   2.003   1.182   5.094 -0.8447  0.8547 -1.4783
 4024SOL    HW223706   1.927   1.221   5.212 -2.9450  1.1821  0.6418
 4025SOL     OW23707   1.809   3.737  14.691 -0.1726  0.0659  0.1014
 4025SOL    HW123708   1.781   3.695  14.772 -0.1049 -0.8248 -0.3415
 4025SOL    HW223709   1.782   3.676  14.622 -0.6093 -0.1190  0.4404
 4026SOL     OW23710   1.452   2.527  12.236 -0.3813 -0.2047  0.4935
 4026SOL    HW123711   1.534   2.482  12.214 -0.0617  1.3439 -1.5359
 4026SOL    HW223712   1.389   2.510  12.166  0.3180 -0.4441 -0.0759
 4027SOL     OW23713   4.440   3.561   4.329  0.1766  0.0806 -0.7161
 4027SOL    HW123714   4.418   3.543   4.238 -1.5096  0.7820 -0.4435
 4027SOL    HW223715   4.438   3.657   4.322  1.2107  0.0221 -1.8695
 4028SOL     OW23716   2.387   3.152   9.566 -0.2352  0.2910 -0.5157
 4028SOL    HW123717   2.302   3.108   9.579  0.9416 -1.5168  1.1217
 4028SOL    HW223718   2.397   3.119   9.477  2.3744 -3.2031  1.0873
 4029SOL     OW23719   1.326   0.118   5.399 -0.0875  0.2942  0.2625
 4029SOL    HW123720   1.264   0.057   5.359  1.7337  0.0215 -2.1812
 4029SOL    HW223721   1.314   0.195   5.343 -0.1967  0.2142  0.1771
 4030SOL     OW23722   3.985   1.031   7.054  0.0195 -0.7760 -0.4403
 4030SOL    HW123723   4.068   0.986   7.068  1.0430  1.5305  0.7729
 4030SOL    HW223724   3.930   0.952   7.048 -1.8583  0.4112  0.9151
 4031SOL     OW23725   1.734   0.334   7.592 -0.0986  0.0098 -0.4700
 4031SOL    HW123726   1.679   0.386   7.533  0.6268  0.4163 -0.7873
 4031SOL    HW223727   1.701   0.246   7.574  0.2195 -0.6799  2.3832
 4032SOL     OW23728   3.053   3.342   4.747  1.0686  0.4223 -0.2957
 4032SOL    HW123729   2.980   3.402   4.763 -0.4469 -1.8453  1.3838
 4032SOL    HW223730   3.002   3.266   4.717 -1.0605  0.6815  2.6936
 4033SOL     OW23731   2.788   2.622  10.214 -0.1775 -0.3782 -0.0824
 4033SOL    HW123732   2.787   2.620  10.118 -0.5933 -1.0302 -0.0643
 4033SOL    HW223733   2.694   2.619  10.228 -0.2063  0.4783 -0.1095
 4034SOL     OW23734   4.384   3.092  13.827 -0.0082 -0.2463 -0.3769
 4034SOL    HW123735   4.315   3.026  13.832  1.2853 -1.4712  1.0166
 4034SOL    HW223736   4.457   3.041  13.793 -0.9628 -1.4587 -0.5856
 4035SOL     OW23737   0.165   3.339   5.708  0.5289 -0.1542  0.1695
 4035SOL    HW123738   0.256   3.367   5.692 -0.0382  1.6086  0.0112
 4035SOL    HW223739   0.169   3.244   5.704  0.0366 -0.0899 -1.8071
 4036SOL     OW23740   1.695   1.659   8.745  0.0451  0.4382 -0.4476
 4036SOL    HW123741   1.664   1.744   8.715  0.2093  1.2386  1.6427
 4036SOL    HW223742   1.778   1.693   8.777  0.9405 -1.6424 -0.5292
 4037SOL     OW23743   4.418   0.378   7.647 -0.0983 -0.1520  0.0647
 4037SOL    HW123744   4.470   0.413   7.575 -1.3228  1.4363 -0.0356
 4037SOL    HW223745   4.332   0.380   7.606  0.6783  2.3377 -1.4480
 4038SOL     OW23746   2.812   0.057   6.919  0.2185 -0.1897 -0.0651
 4038SOL    HW123747   2.892   0.074   6.869  1.4416  0.8745  2.2539
 4038SOL    HW223748   2.749   0.119   6.884  1.3624 -0.3133 -2.3734
 4039SOL     OW23749   3.962   2.308   8.668  0.4663 -0.1684  0.8966
 4039SOL    HW123750   4.026   2.285   8.601 -0.8144 -1.9185  0.2964
 4039SOL    HW223751   4.017   2.308   8.746  1.4982 -0.3557  0.1676
 4040SOL     OW23752   1.236   0.673   8.667  0.1604  0.2979 -0.7326
 4040SOL    HW123753   1.302   0.605   8.678  0.0946  0.1076 -1.5668
 4040SOL    HW223754   1.238   0.704   8.758 -2.2855  0.3104 -0.6959
 4041SOL     OW23755   2.124   2.652   9.928 -0.0179 -0.5877  0.2953
 4041SOL    HW123756   2.185   2.645  10.001  1.4378  1.9174 -0.7082
 4041SOL    HW223757   2.049   2.606   9.966  0.6420 -1.2123  0.8454
 4042SOL     OW23758   2.276   2.940  13.929 -0.6002 -0.0237 -0.4911
 4042SOL    HW123759   2.217   2.933  14.004  1.7917 -1.5189  1.2362
 4042SOL    HW223760   2.210   2.944  13.860 -1.1638  0.9771  0.1047
 4043SOL     OW23761   0.890   1.321   0.135 -0.3948 -0.3296  0.2032
 4043SOL    HW123762   0.859   1.249   0.079 -0.1891  0.3336 -0.7583
 4043SOL    HW223763   0.812   1.339   0.188  0.6738 -0.3727  1.7968
 4044SOL     OW23764   1.987   1.434   9.771 -0.2700  0.5564  0.2324
 4044SOL    HW123765   2.039   1.371   9.821  1.4127 -0.3569 -2.6482
 4044SOL    HW223766   2.030   1.438   9.686 -0.1717 -2.2414  0.1557
 4045SOL     OW23767   3.658   4.450  12.164  0.0968  0.2182 -0.1081
 4045SOL    HW123768   3.652   4.476  12.256  2.2855  1.7462 -0.4152
 4045SOL    HW223769   3.659   4.354  12.172  0.9425  0.4717  2.5695
 4046SOL     OW23770   2.123   0.370   1.555 -0.8091  0.2291  0.0701
 4046SOL    HW123771   2.125   0.461   1.584  0.5552  0.4462 -0.6768
 4046SOL    HW223772   2.104   0.380   1.462  1.0262 -1.7566 -0.5188
 4047SOL     OW23773   2.596   2.746  14.579 -0.2845  0.2077  0.2581
 4047SOL    HW123774   2.593   2.775  14.670 -1.3816 -1.2850  0.7092
 4047SOL    HW223775   2.606   2.651  14.585 -0.3432  0.1405 -0.6595
 4048SOL     OW23776   1.837   4.198  10.785  0.2962  0.4750 -0.0659
 4048SOL    HW123777   1.804   4.184  10.696  1.3994  0.2294 -0.4345
 4048SOL    HW223778   1.803   4.121  10.830  1.8954 -0.1643  0.0237
 4049SOL     OW23779   2.146   3.551  10.738  0.0157 -0.6923 -0.1836
 4049SOL    HW123780   2.131   3.606  10.661  1.5729  2.1781  1.5608
 4049SOL    HW223781   2.234   3.586  10.751 -0.8875  1.9969 -1.4844
 4050SOL     OW23782   1.159   3.547   5.336 -0.0738  0.1971  0.3820
 4050SOL    HW123783   1.167   3.458   5.302 -1.8639 -0.3084  1.2683
 4050SOL    HW223784   1.199   3.598   5.265 -0.8183 -0.2231 -0.3469
 4051SOL     OW23785   2.250   3.164  15.927  0.9432 -0.0495  0.4573
 4051SOL    HW123786   2.174   3.180  15.982 -0.2765  0.0948 -1.2635
 4051SOL    HW223787   2.270   3.076  15.957  0.9689 -0.2986 -0.2856
 4052SOL     OW23788   3.658   2.036   2.105 -0.2258 -0.1895  0.2518
 4052SOL    HW123789   3.589   2.090   2.143  0.7749  2.2841 -1.4547
 4052SOL    HW223790   3.728   2.100   2.093  1.5089 -2.2409 -0.5725
 4053SOL     OW23791   3.336   1.103   0.545  0.1871 -0.4658 -0.2761
 4053SOL    HW123792   3.244   1.106   0.519  0.0254  1.2185  0.4937
 4053SOL    HW223793   3.362   1.014   0.522  0.8857 -0.9741  2.5485
 4054SOL     OW23794   0.986   1.961   5.221  0.0031  0.2168  0.0447
 4054SOL    HW123795   1.075   1.948   5.252  0.5685 -0.0992 -1.7204
 4054SOL    HW223796   0.945   1.932   5.303 -0.0407 -1.5196 -0.5803
 4055SOL     OW23797   1.625   3.184   6.737 -0.0410  0.7960 -0.4252
 4055SOL    HW123798   1.636   3.161   6.829 -0.8830  1.1088 -0.2520
 4055SOL    HW223799   1.545   3.141   6.707 -0.1566  1.5544 -1.2296
 4056SOL     OW23800   2.262   3.278   0.206  0.3358  0.0514  0.1488
 4056SOL    HW123801   2.238   3.192   0.239  1.3540  1.2685  3.9620
 4056SOL    HW223802   2.313   3.256   0.128  2.2564 -0.7566  1.6536
 4057SOL     OW23803   3.295   1.692   6.613  0.6836 -0.0035 -0.4814
 4057SOL    HW123804   3.261   1.700   6.524  0.7867  1.2776 -0.4012
 4057SOL    HW223805   3.275   1.781   6.644  0.8797 -0.1449  0.0580
 4058SOL     OW23806   3.505   2.519   2.842  0.1505  0.6845 -0.3954
 4058SOL    HW123807   3.572   2.574   2.880  2.6374 -2.6888  0.1363
 4058SOL    HW223808   3.430   2.578   2.829 -0.5843 -0.2816 -0.5919
 4059SOL     OW23809   4.176   4.646   5.950 -0.4309 -0.5348  0.0001
 4059SOL    HW123810   4.116   4.610   6.015  0.4194 -1.2629  0.3807
 4059SOL    HW223811   4.263   4.639   5.989 -1.4523  0.2741  2.4426
 4060SOL     OW23812   0.919   1.760  16.573  0.6659 -0.1670 -0.3172
 4060SOL    HW123813   0.879   1.735  16.490  0.0205 -0.2191  0.0126
 4060SOL    HW223814   0.893   1.696  16.639  1.9844  0.5227  0.8679
 4061SOL     OW23815   4.469   0.041   8.293 -0.0354 -0.0310 -0.3832
 4061SOL    HW123816   4.524   0.107   8.335 -0.0830 -1.3575  1.7642
 4061SOL    HW223817   4.511   4.698   8.327  0.2182  0.0247 -0.5705
 4062SOL     OW23818   3.567   1.848   9.235  0.0222  0.6992  0.1305
 4062SOL    HW123819   3.555   1.903   9.312  0.2495  1.6741 -0.5371
 4062SOL    HW223820   3.583   1.917   9.171 -0.0006  0.3524 -0.2500
 4063SOL     OW23821   1.361   1.855   2.505 -0.2262  0.5159  0.1713
 4063SOL    HW123822   1.286   1.868   2.565  1.0487 -1.4963  2.2036
 4063SOL    HW223823   1.429   1.877   2.569 -1.5222 -0.0878  1.7613
 4064SOL     OW23824   2.173   2.979   9.497  0.1142  0.2310  0.4699
 4064SOL    HW123825   2.084   3.015   9.504 -0.9689 -1.8220 -2.6374
 4064SOL    HW223826   2.169   2.923   9.574 -1.9042 -1.0154 -0.5202
 4065SOL     OW23827   3.338   1.142  17.339  0.4234  0.1129  0.2999
 4065SOL    HW123828   3.399   1.144  17.412 -0.9002  0.8094  1.3894
 4065SOL    HW223829   3.402   1.133  17.269 -1.3964  2.2435 -1.6537
 4066SOL     OW23830   1.106   3.275   6.015  0.4100 -0.0420  0.1404
 4066SOL    HW123831   1.072   3.276   5.925  0.9728  0.4720 -0.0629
 4066SOL    HW223832   1.031   3.279   6.074  0.9306 -0.3485  0.8257
 4067SOL     OW23833   3.148   3.010  17.542  0.4243 -0.2818  0.0994
 4067SOL    HW123834   3.196   3.084  17.580 -0.0969  0.2008 -0.1829
 4067SOL    HW223835   3.140   3.035  17.450  0.2278 -0.9980 -0.0757
 4068SOL     OW23836   1.735   4.466   2.441 -0.0577  0.8179 -0.5681
 4068SOL    HW123837   1.647   4.434   2.458  0.3826  0.4441  1.0541
 4068SOL    HW223838   1.781   4.393   2.483  0.7658 -0.4985 -3.7792
 4069SOL     OW23839   3.074   1.090   0.757  0.0725  0.5072  0.0459
 4069SOL    HW123840   3.159   1.118   0.792  0.0899  1.1350 -0.5024
 4069SOL    HW223841   3.108   1.051   0.676  2.2045 -0.1159  1.2203
 4070SOL     OW23842   2.334   1.924  17.694 -0.2323  0.4430 -0.1308
 4070SOL    HW123843   2.323   2.018  17.681 -0.6702  0.3546 -0.3981
 4070SOL    HW223844   2.427   1.916  17.675 -0.2911 -0.0294 -0.2134
 4071SOL     OW23845   1.437   4.361   5.725  0.5405 -0.1246  0.3897
 4071SOL    HW123846   1.356   4.408   5.707  0.5843  0.2782  1.2028
 4071SOL    HW223847   1.428   4.359   5.821  0.2030 -0.8528  0.3399
 4072SOL     OW23848   0.464   1.062   9.223  0.1972  0.5858  0.3306
 4072SOL    HW123849   0.507   1.112   9.154  1.3690  1.3599  1.6225
 4072SOL    HW223850   0.376   1.101   9.222  0.8414  1.9973  0.3587
 4073SOL     OW23851   0.503   1.757   6.301 -0.0773 -0.2895  0.2904
 4073SOL    HW123852   0.441   1.830   6.292  1.1353  0.6321 -0.5194
 4073SOL    HW223853   0.444   1.689   6.333  2.3839 -1.7181  1.7218
 4074SOL     OW23854   2.472   0.904   3.011 -0.0091  0.0305 -0.5345
 4074SOL    HW123855   2.387   0.929   2.975 -1.1367 -0.4654  1.7534
 4074SOL    HW223856   2.482   0.815   2.976  0.3125 -0.1062 -0.0871
 4075SOL     OW23857   1.317   1.190   3.827  0.4478  0.4942  0.2713
 4075SOL    HW123858   1.227   1.221   3.837 -0.3018 -1.3476 -0.8623
 4075SOL    HW223859   1.357   1.240   3.898  0.0330 -1.3955  1.8246
 4076SOL     OW23860   0.405   0.698   1.806  0.3068  0.2912 -0.3353
 4076SOL    HW123861   0.395   0.789   1.780 -0.1506  0.0647 -0.9400
 4076SOL    HW223862   0.486   0.670   1.763 -0.6231 -2.0405 -0.5566
 4077SOL     OW23863   0.753   1.635  11.734 -0.1061 -0.9492  0.2519
 4077SOL    HW123864   0.841   1.621  11.769  1.3540  0.5855 -2.8019
 4077SOL    HW223865   0.774   1.683  11.653  1.5962 -1.4135  0.4212
 4078SOL     OW23866   1.666   4.140  11.995  0.2071  0.2274 -0.0602
 4078SOL    HW123867   1.591   4.081  11.997  0.8431 -0.5860  0.2414
 4078SOL    HW223868   1.721   4.097  11.929 -2.5732 -2.0505 -0.9138
 4079SOL     OW23869   2.833   4.236   3.900  0.6631  0.4828 -0.3919
 4079SOL    HW123870   2.749   4.279   3.914  0.6570 -0.7802  3.4492
 4079SOL    HW223871   2.864   4.211   3.987  0.5492 -3.0374 -1.3358
 4080SOL     OW23872   3.507   0.544   9.411 -0.0553 -1.1445  0.1356
 4080SOL    HW123873   3.597   0.578   9.416 -0.8793  1.1806 -0.7110
 4080SOL    HW223874   3.518   0.474   9.475  0.5669 -0.8405  0.3607
 4081SOL     OW23875   0.009   1.681   2.079 -0.0834  0.1918  0.1263
 4081SOL    HW123876   4.679   1.744   2.110  0.7288 -0.2240  2.6602
 4081SOL    HW223877   4.688   1.610   2.050 -1.8488 -0.2564  4.7075
 4082SOL     OW23878   4.194   3.225   3.251 -0.3007  0.6585 -0.1433
 4082SOL    HW123879   4.288   3.239   3.267 -0.5334  1.0100  0.8979
 4082SOL    HW223880   4.163   3.170   3.323  1.9154  1.7812  1.6799
 4083SOL     OW23881   3.195   2.951   6.152 -0.1525 -0.1779 -0.1399
 4083SOL    HW123882   3.214   2.915   6.239  1.3836 -0.4224 -0.5801
 4083SOL    HW223883   3.162   3.039   6.170  0.5520  0.0967 -0.1974
 4084SOL     OW23884   0.315   2.956   8.552  0.3931  0.4192 -0.4515
 4084SOL    HW123885   0.375   2.894   8.592 -0.7867 -1.2047 -1.2015
 4084SOL    HW223886   0.236   2.932   8.601  1.0802 -2.1509 -0.6046
 4085SOL     OW23887   3.811   1.991   5.664  0.5953  0.4984 -0.1689
 4085SOL    HW123888   3.721   2.023   5.675  0.2009  0.0942 -2.2001
 4085SOL    HW223889   3.828   1.958   5.752 -2.0104 -1.6139 -0.4559
 4086SOL     OW23890   3.879   1.165   6.433 -0.5416  0.2789 -0.2084
 4086SOL    HW123891   3.910   1.209   6.354  0.4695 -1.9470 -1.0495
 4086SOL    HW223892   3.964   1.136   6.466 -0.4998  2.0329  1.2643
 4087SOL     OW23893   3.023   3.938   1.443 -0.0524  0.1737  0.1602
 4087SOL    HW123894   3.096   3.882   1.414  0.0632  0.6405 -0.4572
 4087SOL    HW223895   3.072   3.998   1.498 -0.1753  1.4090 -1.0746
 4088SOL     OW23896   4.463   1.375   9.479 -0.1778 -0.0260 -0.1953
 4088SOL    HW123897   4.471   1.297   9.534  2.2041  0.9439  0.8340
 4088SOL    HW223898   4.556   1.395   9.491  0.1610 -3.0559  2.4586
 4089SOL     OW23899   4.016   3.893   4.026 -0.1789 -0.3988  0.7224
 4089SOL    HW123900   3.963   3.884   3.946  0.6787 -0.8222  0.1994
 4089SOL    HW223901   3.958   3.858   4.094  0.4131 -1.3778  0.7228
 4090SOL     OW23902   0.227   1.027   3.658  0.4057 -0.3613  0.7182
 4090SOL    HW123903   0.218   1.088   3.584 -0.8446 -1.4160 -0.0029
 4090SOL    HW223904   0.252   0.944   3.618 -2.0480 -0.8626  0.2210
 4091SOL     OW23905   1.145   1.572   8.040  0.2026  0.0261 -0.5303
 4091SOL    HW123906   1.108   1.607   8.120  0.9530  0.0482 -0.1864
 4091SOL    HW223907   1.161   1.481   8.067  2.7730 -0.4126 -3.4439
 4092SOL     OW23908   0.496   2.340  10.080 -0.2148  0.1832  0.0273
 4092SOL    HW123909   0.510   2.383  10.164 -2.3735  0.7550  0.1081
 4092SOL    HW223910   0.552   2.263  10.087 -2.0528 -1.0297  1.4311
 4093SOL     OW23911   4.501   2.588   4.812 -0.4109 -0.3439  0.7452
 4093SOL    HW123912   4.428   2.618   4.758  0.4044  0.9827  0.3982
 4093SOL    HW223913   4.504   2.493   4.794  1.6575 -0.3475  1.1532
 4094SOL     OW23914   3.060   1.214   6.273  0.4772 -0.2122 -0.3157
 4094SOL    HW123915   3.098   1.137   6.231  0.2848 -0.4291 -0.0889
 4094SOL    HW223916   2.995   1.180   6.334 -0.4107  1.2172 -0.4563
 4095SOL     OW23917   2.068   2.968   6.910 -0.1373  0.2823  0.0400
 4095SOL    HW123918   2.033   2.882   6.933  0.3508 -0.0192 -0.3557
 4095SOL    HW223919   2.067   2.994   7.002  2.9641 -0.9359  0.4136
 4096SOL     OW23920   4.552   0.718   3.360  0.0254  0.5029 -0.6449
 4096SOL    HW123921   4.604   0.716   3.280  0.6699 -0.5952 -0.2027
 4096SOL    HW223922   4.481   0.776   3.332 -0.2836  0.8505  0.8633
 4097SOL     OW23923   2.573   1.968   5.102 -0.4244 -0.0404 -0.1072
 4097SOL    HW123924   2.633   1.934   5.035  0.4966 -0.2833  0.8474
 4097SOL    HW223925   2.486   1.933   5.084 -0.8761  0.2812  1.4617
 4098SOL     OW23926   2.022   4.034   6.338 -0.2118 -0.7535 -0.2322
 4098SOL    HW123927   1.946   4.025   6.396 -1.4587  2.0478 -1.4477
 4098SOL    HW223928   2.059   4.115   6.374 -1.0887 -1.2122  1.7057
 4099SOL     OW23929   2.121   3.057   2.743 -0.1149 -0.5817  0.5168
 4099SOL    HW123930   2.133   2.990   2.676 -0.1230 -1.0689  1.0048
 4099SOL    HW223931   2.210   3.050   2.779  0.4642 -0.8608 -0.9385
 4100SOL     OW23932   2.549   2.435   2.367 -0.0128  0.0314 -0.3502
 4100SOL    HW123933   2.492   2.376   2.418 -0.0123  1.4812  1.3342
 4100SOL    HW223934   2.564   2.497   2.439 -1.5253 -0.6865  0.5959
 4101SOL     OW23935   1.100   3.193   3.942  0.1923  0.3452  0.3971
 4101SOL    HW123936   1.135   3.205   4.031  1.3370  1.5413 -0.2116
 4101SOL    HW223937   1.009   3.221   3.950 -0.0312 -0.1187 -0.5452
 4102SOL     OW23938   1.351   3.286   5.751  0.4880  0.7408  0.1804
 4102SOL    HW123939   1.352   3.235   5.832 -2.5343 -0.2480 -0.4024
 4102SOL    HW223940   1.438   3.326   5.758  0.5521  0.8179 -1.1031
 4103SOL     OW23941   1.052   1.219   3.858  0.5600  0.0686  0.3070
 4103SOL    HW123942   1.001   1.138   3.866  1.4334 -0.2340  2.8459
 4103SOL    HW223943   0.984   1.279   3.888 -0.4533 -1.1678  0.4940
 4104SOL     OW23944   2.485   1.808   8.843 -0.3865 -0.0610 -0.0919
 4104SOL    HW123945   2.496   1.717   8.815 -3.4304 -0.3293 -0.3583
 4104SOL    HW223946   2.557   1.841   8.789  0.7031 -2.8811 -0.3390
 4105SOL     OW23947   1.200   1.562   9.012 -0.0805  0.0456 -0.1699
 4105SOL    HW123948   1.170   1.651   8.993 -2.5517 -0.4518  1.3122
 4105SOL    HW223949   1.174   1.519   8.930  1.9609  1.3535 -1.5033
 4106SOL     OW23950   0.652   1.651  12.928 -0.0678  0.0993  0.0185
 4106SOL    HW123951   0.739   1.675  12.960  0.7939 -0.7243 -1.7289
 4106SOL    HW223952   0.660   1.674  12.835 -1.9898  1.8459  0.2713
 4107SOL     OW23953   2.531   2.108   9.014  0.1705 -0.1745  0.0890
 4107SOL    HW123954   2.567   2.100   8.925 -0.0722  1.0830 -0.1182
 4107SOL    HW223955   2.570   2.028   9.050 -1.1668 -1.1630 -0.6731
 4108SOL     OW23956   1.966   2.563   5.431 -0.0202  0.3514  0.2427
 4108SOL    HW123957   1.921   2.479   5.425  0.4100  0.2596 -1.6215
 4108SOL    HW223958   2.005   2.550   5.517 -1.4215 -0.1190  0.8187
 4109SOL     OW23959   1.804   0.540   8.727 -0.0475  0.3958 -0.0590
 4109SOL    HW123960   1.794   0.469   8.664 -0.4789 -0.1685  0.6421
 4109SOL    HW223961   1.892   0.509   8.747 -1.0921 -1.8516  0.9982
 4110SOL     OW23962   1.450   3.958   3.991  0.3005  0.5659  0.3389
 4110SOL    HW123963   1.537   3.970   4.031  0.8546  0.8528 -0.9568
 4110SOL    HW223964   1.477   3.899   3.922  2.1710 -0.5294  1.9969
 4111SOL     OW23965   0.025   2.971   5.252 -0.0494  0.1681  0.6485
 4111SOL    HW123966   0.070   2.977   5.168  1.4480  0.0599  1.4412
 4111SOL    HW223967   4.675   2.931   5.236  1.5972 -2.2413 -2.0623
 4112SOL     OW23968   1.291   2.194   2.168  0.0602 -0.2457  0.0438
 4112SOL    HW123969   1.301   2.098   2.171  0.7042 -0.2745 -2.5471
 4112SOL    HW223970   1.373   2.219   2.210  1.3567 -0.8923 -2.0806
 4113SOL     OW23971   2.671   2.292   3.687 -0.8608 -0.1894  0.1028
 4113SOL    HW123972   2.710   2.377   3.671  0.8025 -0.5043  2.4470
 4113SOL    HW223973   2.578   2.308   3.669 -0.6703  0.3330 -0.3964
 4114SOL     OW23974   0.284   0.669   2.035 -0.2496  0.0701  0.1551
 4114SOL    HW123975   0.343   0.608   2.078  2.7235  1.8236 -1.4284
 4114SOL    HW223976   0.329   0.679   1.950 -1.6681 -0.1339 -0.6196
 4115SOL     OW23977   1.242   4.044  14.245 -0.1014  0.1906 -0.3561
 4115SOL    HW123978   1.196   4.128  14.247 -0.1155  0.1804 -0.2667
 4115SOL    HW223979   1.186   3.989  14.299 -0.7138  2.5832  1.4695
 4116SOL     OW23980   0.003   1.390   4.644  0.4217 -0.3070  0.1745
 4116SOL    HW123981   4.663   1.439   4.609  0.7850 -1.1257 -1.7144
 4116SOL    HW223982   0.061   1.462   4.669  3.1774 -2.2525 -0.6419
 4117SOL     OW23983   2.918   3.592  15.127 -0.2509  0.0274  0.2451
 4117SOL    HW123984   2.981   3.658  15.099 -2.2555  1.2442 -1.4369
 4117SOL    HW223985   2.865   3.573  15.049 -0.7137 -1.2913  0.8815
 4118SOL     OW23986   0.447   2.085  10.410 -0.2601  0.2110  0.3920
 4118SOL    HW123987   0.401   2.012  10.452 -0.0384 -0.0512  0.1791
 4118SOL    HW223988   0.410   2.161  10.456  1.9080  0.3682  1.8469
 4119SOL     OW23989   0.425   2.146   2.874  0.1917 -0.1538  0.0385
 4119SOL    HW123990   0.344   2.114   2.913 -0.9896  1.2980 -1.2599
 4119SOL    HW223991   0.491   2.140   2.944 -0.6873 -2.4280  0.6994
 4120SOL     OW23992   4.005   2.200   6.867 -0.6898  0.0804  0.4759
 4120SOL    HW123993   4.002   2.176   6.960  3.3526  2.6449  1.2887
 4120SOL    HW223994   4.081   2.151   6.835 -1.1581 -0.1155 -0.3125
 4121SOL     OW23995   1.121   4.358   3.007 -0.1854 -0.5869  0.6354
 4121SOL    HW123996   1.205   4.314   2.991 -0.6518 -1.8330  1.5474
 4121SOL    HW223997   1.071   4.277   2.998  0.3364 -1.0002  1.4278
 4122SOL     OW23998   0.779   3.342  14.881 -1.3436 -0.3500  0.4397
 4122SOL    HW123999   0.748   3.418  14.830  1.5166 -1.0004 -2.2449
 4122SOL    HW224000   0.835   3.382  14.947  1.8320 -3.5379 -0.3656
 4123SOL     OW24001   3.466   2.868   6.060  0.0042 -0.8150 -0.0892
 4123SOL    HW124002   3.395   2.906   6.112  1.1504  0.4336  0.5521
 4123SOL    HW224003   3.539   2.904   6.110 -0.9505  0.0812  0.6725
 4124SOL     OW24004   0.401   0.796   6.527  0.1149 -0.2671  0.4458
 4124SOL    HW124005   0.307   0.804   6.514  0.0633 -0.7578  0.5371
 4124SOL    HW224006   0.405   0.701   6.524 -1.2535 -0.2383 -2.3586
 4125SOL     OW24007   4.489   4.294   6.017  0.4116 -0.1302 -0.3171
 4125SOL    HW124008   4.452   4.346   5.946 -0.5777 -1.1451 -0.5440
 4125SOL    HW224009   4.539   4.370   6.047 -0.0424 -0.1629  0.5245
 4126SOL     OW24010   0.326   1.117   9.942  0.0841  0.2141  0.6892
 4126SOL    HW124011   0.388   1.189   9.957 -0.7518  0.8825  0.9639
 4126SOL    HW224012   0.351   1.063  10.016  1.5602 -1.5531 -1.1044
 4127SOL     OW24013   2.230   2.988   8.801 -0.1711  0.0735 -0.1471
 4127SOL    HW124014   2.204   3.056   8.739 -0.0246  0.1190 -0.1595
 4127SOL    HW224015   2.241   3.036   8.883 -1.0696  1.0942 -0.6222
 4128SOL     OW24016   0.892   0.169   9.430  0.4917  0.0484  0.0215
 4128SOL    HW124017   0.833   0.137   9.362 -2.2996 -0.2436  2.5725
 4128SOL    HW224018   0.921   0.086   9.468  2.1580  1.3347  1.5470
 4129SOL     OW24019   1.597   0.523   4.655  0.0763  0.3734 -0.7663
 4129SOL    HW124020   1.505   0.522   4.627  0.3535 -2.0397 -1.5889
 4129SOL    HW224021   1.648   0.530   4.575  0.0271 -1.8962 -0.9982
 4130SOL     OW24022   1.853   0.082   7.247 -0.5197  0.1718  0.1926
 4130SOL    HW124023   1.897   0.147   7.303 -0.7004  1.4903 -1.1774
 4130SOL    HW224024   1.829   0.022   7.318 -2.1828 -0.3079 -0.7770
 4131SOL     OW24025   4.327   3.799  12.065  0.2910 -0.1774  0.2256
 4131SOL    HW124026   4.257   3.834  12.010  2.1869 -0.1378 -2.1676
 4131SOL    HW224027   4.361   3.876  12.110  1.1977  0.3123 -1.2754
 4132SOL     OW24028   4.562   3.855   7.851  0.1451  0.2394  0.1238
 4132SOL    HW124029   4.625   3.905   7.903 -1.4946 -1.0080  3.3521
 4132SOL    HW224030   4.601   3.851   7.764 -1.0435  0.6262 -0.4241
 4133SOL     OW24031   4.011   1.267   9.506 -0.0446  0.2802 -0.2631
 4133SOL    HW124032   4.028   1.229   9.592 -1.3705  0.5803  0.1292
 4133SOL    HW224033   4.094   1.312   9.495  0.5451 -0.7051  0.1230
 4134SOL     OW24034   2.646   2.945   3.540 -0.2418  0.1536  0.2437
 4134SOL    HW124035   2.589   2.988   3.476  0.4151  0.6517 -0.0029
 4134SOL    HW224036   2.597   2.923   3.619 -2.2306  0.8784 -0.7833
 4135SOL     OW24037   0.843   3.023   2.245  0.3743 -0.6592 -0.0399
 4135SOL    HW124038   0.824   2.949   2.186  0.3972 -0.9284  0.2948
 4135SOL    HW224039   0.926   2.991   2.279 -0.4449 -0.6124  1.9687
 4136SOL     OW24040   3.792   2.675   4.166  0.5206 -0.6297  0.6808
 4136SOL    HW124041   3.764   2.583   4.166  1.7292 -0.9891 -1.6401
 4136SOL    HW224042   3.773   2.698   4.257  1.3831 -0.8505  0.9161
 4137SOL     OW24043   3.916   2.677   5.120 -0.2909  0.8376  0.0797
 4137SOL    HW124044   3.961   2.721   5.048 -1.2814  3.0730  0.8446
 4137SOL    HW224045   3.965   2.596   5.108  0.9052  1.7560 -1.2617
 4138SOL     OW24046   0.683   1.705   2.656 -0.0520  0.6808  0.2289
 4138SOL    HW124047   0.706   1.664   2.573 -0.2092  0.5284  0.2582
 4138SOL    HW224048   0.589   1.703   2.638  0.1392  0.1217 -0.6978
 4139SOL     OW24049   0.901   3.835   7.313  0.1872 -0.3841 -0.0249
 4139SOL    HW124050   0.929   3.904   7.373 -0.7716 -1.0129  1.1498
 4139SOL    HW224051   0.952   3.763   7.349  0.7847 -0.1813 -0.4682
 4140SOL     OW24052   4.639   3.994   3.882  0.0885  0.0466 -0.1991
 4140SOL    HW124053   4.645   4.086   3.910  0.5692  0.7001 -2.3990
 4140SOL    HW224054   4.723   3.967   3.845  0.4199  0.8083 -0.0129
 4141SOL     OW24055   2.426   2.418   8.977 -0.3618  0.2291  0.0798
 4141SOL    HW124056   2.340   2.383   9.000 -0.5403  0.5618 -0.0773
 4141SOL    HW224057   2.409   2.454   8.890  0.9483  2.6624  0.8359
 4142SOL     OW24058   3.121   3.775   6.535  0.2124 -0.0568 -0.6436
 4142SOL    HW124059   3.128   3.722   6.615  1.0224  3.7832  1.8200
 4142SOL    HW224060   3.181   3.844   6.563  1.1274 -1.1449  0.0987
 4143SOL     OW24061   0.818   1.705  12.494  0.0924 -0.3178 -0.1798
 4143SOL    HW124062   0.779   1.674  12.413 -2.0353  0.6770  0.4486
 4143SOL    HW224063   0.824   1.621  12.539  1.4181 -1.3807 -2.3547
 4144SOL     OW24064   2.301   2.151   4.884 -0.4692  0.8925 -0.6409
 4144SOL    HW124065   2.271   2.207   4.811 -1.0985  0.1739 -0.9380
 4144SOL    HW224066   2.301   2.198   4.967 -0.8948 -0.2268 -0.0097
 4145SOL     OW24067   3.438   3.209  16.739 -0.1931 -0.1611 -0.0724
 4145SOL    HW124068   3.458   3.123  16.702 -0.7290 -0.3689  0.1252
 4145SOL    HW224069   3.488   3.267  16.681  2.3319  0.3294  2.5839
 4146SOL     OW24070   3.784   0.568   0.787  0.2709 -0.4263  0.1820
 4146SOL    HW124071   3.763   0.496   0.846 -0.4238 -0.6207 -0.3047
 4146SOL    HW224072   3.749   0.525   0.709 -0.2616  0.3851 -0.0286
 4147SOL     OW24073   1.861   2.153  10.606  0.2583 -0.4076 -0.1031
 4147SOL    HW124074   1.817   2.101  10.674  1.9907 -0.4201  1.0118
 4147SOL    HW224075   1.951   2.150  10.639  0.8844  0.5415 -1.7267
 4148SOL     OW24076   2.442   2.264   9.875  0.3147  0.2439 -0.4027
 4148SOL    HW124077   2.400   2.215   9.946 -0.2126  0.0071 -0.8719
 4148SOL    HW224078   2.533   2.236   9.888 -0.1887 -0.9824  0.5233
 4149SOL     OW24079   2.607   3.759   3.604  0.3728 -0.0692  0.8490
 4149SOL    HW124080   2.614   3.825   3.673 -2.0785 -1.0388  2.0221
 4149SOL    HW224081   2.516   3.781   3.585  0.7809  0.8503 -0.0111
 4150SOL     OW24082   2.455   0.564   8.182  0.7111 -0.8893  0.7106
 4150SOL    HW124083   2.547   0.577   8.159  0.4814  0.7892  0.7550
 4150SOL    HW224084   2.430   0.656   8.178 -1.5979 -1.5069  0.8475
 4151SOL     OW24085   1.757   3.926   3.505  0.4227  0.1106 -0.4992
 4151SOL    HW124086   1.749   4.019   3.530 -0.2665  0.2753 -1.3146
 4151SOL    HW224087   1.693   3.913   3.434 -0.2937 -1.1352  0.3732
 4152SOL     OW24088   0.439   1.739   7.072 -0.4152  0.5527 -0.0008
 4152SOL    HW124089   0.426   1.782   6.988 -2.3558 -1.8253 -0.9284
 4152SOL    HW224090   0.371   1.671   7.077 -0.8284  0.9243 -0.6503
 4153SOL     OW24091   4.682   4.287   3.680 -0.5317 -0.1277  0.3711
 4153SOL    HW124092   4.662   4.373   3.716 -0.6186  0.2157 -0.5130
 4153SOL    HW224093   4.611   4.267   3.619 -0.6886 -1.7951  1.0789
 4154SOL     OW24094   3.711   1.281   3.044 -0.5698  0.4042  0.2353
 4154SOL    HW124095   3.727   1.331   3.124 -0.0874 -0.2016  0.5195
 4154SOL    HW224096   3.772   1.315   2.978  1.1086  0.9462  2.0631
 4155SOL     OW24097   2.716   4.599   3.583  0.2915  0.4274 -0.0390
 4155SOL    HW124098   2.812   4.600   3.586  0.2847 -1.2008  0.5556
 4155SOL    HW224099   2.700   4.664   3.514 -0.8757 -0.3167 -0.4648
 4156SOL     OW24100   2.690   3.203   6.709 -0.6000  0.1240 -0.3194
 4156SOL    HW124101   2.742   3.130   6.742  2.1794  1.9786 -0.6092
 4156SOL    HW224102   2.606   3.190   6.754 -1.2122 -1.8969 -2.0537
 4157SOL     OW24103   3.965   4.163   5.315 -0.1093 -0.5296 -0.0585
 4157SOL    HW124104   3.950   4.256   5.299  0.0265 -0.4866  0.0562
 4157SOL    HW224105   4.055   4.167   5.349 -0.7728  2.1748  1.4252
 4158SOL     OW24106   4.679   1.378  15.612  0.2882  0.3611  0.5725
 4158SOL    HW124107   0.029   1.333  15.609 -1.2658 -2.5630  1.1027
 4158SOL    HW224108   4.636   1.330  15.541 -0.2672 -0.7637  1.6682
 4159SOL     OW24109   4.295   3.772   2.011  0.2520 -0.2935  0.0185
 4159SOL    HW124110   4.318   3.703   1.948  0.4343 -0.0151 -0.2208
 4159SOL    HW224111   4.205   3.750   2.035  0.8816  0.1000  2.7104
 4160SOL     OW24112   2.531   4.362   3.541 -0.1851 -0.5039  0.4818
 4160SOL    HW124113   2.580   4.322   3.468  0.0081  0.7343 -0.0676
 4160SOL    HW224114   2.604   4.411   3.579  0.5099 -0.6068 -0.6927
 4161SOL     OW24115   0.422   3.848  12.654  0.0505 -0.0713 -0.5978
 4161SOL    HW124116   0.413   3.843  12.749 -2.9349  1.1219 -0.8412
 4161SOL    HW224117   0.439   3.942  12.644 -0.4820 -0.1345 -2.1011
 4162SOL     OW24118   2.281   3.978  11.961 -0.4967 -0.5954  0.1023
 4162SOL    HW124119   2.277   3.966  11.866 -0.7327 -1.0791  0.1685
 4162SOL    HW224120   2.195   3.953  11.995 -0.3892 -0.6160  0.3607
 4163SOL     OW24121   3.949   4.066   3.010  0.0325 -0.2678 -0.0163
 4163SOL    HW124122   4.040   4.078   3.037 -0.1675  1.2277 -0.0011
 4163SOL    HW224123   3.908   4.077   3.096  0.0777 -1.0476  0.1050
 4164SOL     OW24124   2.838   2.055  14.042  0.4148 -0.2054 -0.4577
 4164SOL    HW124125   2.902   1.990  14.013  2.8266  1.5073  1.0282
 4164SOL    HW224126   2.868   2.128  13.989  0.5034 -0.4678 -0.7674
 4165SOL     OW24127   3.805   0.838   7.040 -0.0676  0.2227 -0.4159
 4165SOL    HW124128   3.788   0.745   7.024 -1.0346  0.4225 -0.5199
 4165SOL    HW224129   3.717   0.875   7.041 -0.1394  0.0101  1.2418
 4166SOL     OW24130   3.288   2.593   4.113  0.2336 -0.0277  0.1457
 4166SOL    HW124131   3.196   2.586   4.089  0.4746  1.0845 -1.1423
 4166SOL    HW224132   3.321   2.554   4.032 -2.5629 -1.2088 -0.4059
 4167SOL     OW24133   1.866   3.497  15.516  0.5878 -0.0527 -0.0913
 4167SOL    HW124134   1.960   3.483  15.502  0.6213 -0.6287  0.6942
 4167SOL    HW224135   1.855   3.474  15.609  0.6823 -0.7762 -0.2589
 4168SOL     OW24136   0.595   2.303  16.105 -0.9083  0.1707 -0.0245
 4168SOL    HW124137   0.530   2.373  16.097 -2.6075 -1.1465  2.3508
 4168SOL    HW224138   0.614   2.287  16.013 -0.3639  1.2562 -0.0999
 4169SOL     OW24139   1.304   0.380   5.284 -0.1190  0.4213 -0.1552
 4169SOL    HW124140   1.228   0.383   5.226 -1.2930  0.9140  1.4454
 4169SOL    HW224141   1.372   0.386   5.216 -0.5964  1.9080 -0.5062
 4170SOL     OW24142   2.296   3.277   0.505 -0.1356  0.1358 -0.0217
 4170SOL    HW124143   2.210   3.234   0.496 -0.6007  1.3141 -1.2371
 4170SOL    HW224144   2.315   3.289   0.412  0.2920 -0.2325  0.0193
 4171SOL     OW24145   4.052   2.812   1.164  0.1719  0.4278  0.5011
 4171SOL    HW124146   4.125   2.813   1.225  0.3499  2.1222  0.2664
 4171SOL    HW224147   3.987   2.770   1.220  0.4602 -0.4682  0.1626
 4172SOL     OW24148   2.852   0.869   4.631  0.3095  0.6407  0.1131
 4172SOL    HW124149   2.784   0.869   4.564  1.5194  2.1665 -1.0980
 4172SOL    HW224150   2.792   0.881   4.705  1.8345  0.7303  1.3350
 4173SOL     OW24151   2.325   0.282   3.161 -0.3189  0.1950  0.6529
 4173SOL    HW124152   2.393   0.347   3.181  0.8322 -0.2522 -1.9161
 4173SOL    HW224153   2.360   0.239   3.083 -0.7586 -1.7489  1.5362
 4174SOL     OW24154   1.815   2.469   4.915  0.2965  0.3529 -0.5743
 4174SOL    HW124155   1.899   2.463   4.961  1.5222  0.9782 -2.7034
 4174SOL    HW224156   1.769   2.535   4.967 -1.4855  0.4430 -2.2742
 4175SOL     OW24157   0.311   2.346  16.022  0.4518 -0.4996 -0.0503
 4175SOL    HW124158   0.300   2.398  15.943  0.8675 -0.0137  0.2091
 4175SOL    HW224159   0.347   2.414  16.079 -0.7048  0.5537 -0.5775
 4176SOL     OW24160   0.163   1.668   8.759 -0.1841  0.3733  0.2175
 4176SOL    HW124161   0.166   1.741   8.696 -0.5504  1.6669  1.7089
 4176SOL    HW224162   0.220   1.701   8.829 -1.7870  0.7429  1.3399
 4177SOL     OW24163   0.755   3.437  16.957 -0.8366  0.6074  0.4837
 4177SOL    HW124164   0.686   3.465  16.897 -1.5544 -0.3251  0.8823
 4177SOL    HW224165   0.768   3.351  16.918  0.6459  2.0303 -2.1413
 4178SOL     OW24166   3.175   4.046   2.441 -0.1383  0.0336  0.1111
 4178SOL    HW124167   3.115   4.120   2.451  1.2455  0.9758  1.4863
 4178SOL    HW224168   3.121   3.975   2.477 -0.0367 -0.2553 -0.3208
 4179SOL     OW24169   2.621   1.327   4.669 -0.1798  0.0509  0.3579
 4179SOL    HW124170   2.526   1.340   4.673  0.0724  2.2854 -0.7035
 4179SOL    HW224171   2.647   1.415   4.641  0.5052  1.3247  5.0774
 4180SOL     OW24172   3.155   2.295   5.759 -0.6922  0.6366  0.1389
 4180SOL    HW124173   3.157   2.379   5.713 -0.5105  0.0501 -0.9230
 4180SOL    HW224174   3.207   2.303   5.839 -0.8494 -0.4601  0.3491
 4181SOL     OW24175   1.034   4.248   7.573 -0.0730  0.2883 -0.2633
 4181SOL    HW124176   1.014   4.273   7.663 -1.2888 -0.2122 -0.3914
 4181SOL    HW224177   0.971   4.179   7.557  0.6447  0.0288 -1.9809
 4182SOL     OW24178   3.090   0.374  14.227 -0.1218  0.3624  1.2699
 4182SOL    HW124179   3.026   0.323  14.278 -1.0904 -1.4752 -1.7919
 4182SOL    HW224180   3.120   0.304  14.169 -0.9037 -0.0570  1.3672
 4183SOL     OW24181   3.648   1.778  13.901  0.4789 -0.0233 -0.4806
 4183SOL    HW124182   3.704   1.735  13.966 -1.5379 -1.5703  0.2381
 4183SOL    HW224183   3.566   1.730  13.913  0.6537 -0.5174 -1.2662
 4184SOL     OW24184   2.559   2.225   5.202 -0.2202 -0.6720 -0.2681
 4184SOL    HW124185   2.583   2.132   5.193  0.8365 -0.4088 -0.2129
 4184SOL    HW224186   2.465   2.230   5.187 -0.1943  2.1357  0.5636
 4185SOL     OW24187   3.450   1.797   2.030 -0.1365 -0.2142 -0.1296
 4185SOL    HW124188   3.430   1.704   2.023  3.0724 -0.9261 -0.1357
 4185SOL    HW224189   3.483   1.802   2.120  0.3456  0.9084 -0.3715
 4186SOL     OW24190   3.610   1.673   2.920  0.1606  0.5591 -0.1653
 4186SOL    HW124191   3.543   1.728   2.960 -0.1088 -0.7223  1.1515
 4186SOL    HW224192   3.567   1.589   2.931  0.4730  0.7312  2.3787
 4187SOL     OW24193   1.391   3.257   8.410 -0.0497 -0.0076 -0.2564
 4187SOL    HW124194   1.351   3.202   8.477  0.0155  0.0840 -0.1419
 4187SOL    HW224195   1.439   3.328   8.451  0.7885  0.2436 -1.6601
 4188SOL     OW24196   4.383   3.946   1.756  0.2840 -0.4901  0.1672
 4188SOL    HW124197   4.314   3.917   1.696  1.1505  0.2034 -1.1616
 4188SOL    HW224198   4.385   3.867   1.809 -0.2818 -1.0408 -0.6221
 4189SOL     OW24199   0.154   4.447  13.998 -0.0899 -0.2593 -0.7206
 4189SOL    HW124200   0.203   4.368  13.979 -1.8572 -1.0785 -1.9229
 4189SOL    HW224201   0.095   4.459  13.923 -2.5783 -2.0258  0.9484
 4190SOL     OW24202   1.087   0.287   0.416 -0.0711 -0.2097 -0.4625
 4190SOL    HW124203   1.016   0.246   0.365 -0.2618 -1.1637  0.5930
 4190SOL    HW224204   1.042   0.331   0.489  0.1970 -0.6542 -0.0365
 4191SOL     OW24205   3.120   1.307  13.739  0.0126 -0.4077  0.3265
 4191SOL    HW124206   3.055   1.248  13.703  1.5522 -2.3841  0.7442
 4191SOL    HW224207   3.081   1.332  13.823  0.6563  1.1773  0.1620
 4192SOL     OW24208   3.136   1.921   2.628  0.5483  0.0415  0.1296
 4192SOL    HW124209   3.142   1.862   2.553 -0.7784 -0.0546  0.1094
 4192SOL    HW224210   3.212   1.886   2.676  0.3579 -0.6436 -0.0641
 4193SOL     OW24211   2.372   3.848   4.002  0.2113  0.6183  0.5849
 4193SOL    HW124212   2.432   3.774   4.012 -1.1876 -0.8872 -2.1488
 4193SOL    HW224213   2.410   3.896   3.929 -2.6027 -0.8103 -1.8519
 4194SOL     OW24214   0.316   4.065   1.786 -0.1256  0.8214  0.0515
 4194SOL    HW124215   0.398   4.109   1.807  0.1053  1.0310 -1.2514
 4194SOL    HW224216   0.359   3.980   1.779 -1.6526  0.1463 -1.1830
 4195SOL     OW24217   0.283   2.299   1.660  0.0592  0.1828  0.2323
 4195SOL    HW124218   0.311   2.360   1.592 -1.7189 -0.0566 -0.6926
 4195SOL    HW224219   0.216   2.249   1.613  0.4904 -1.8635  1.7682
 4196SOL     OW24220   2.306   1.405   9.164 -0.0673 -0.0242 -0.1384
 4196SOL    HW124221   2.400   1.391   9.161  0.2652  2.1060  0.3723
 4196SOL    HW224222   2.301   1.452   9.248  0.3989  0.4861 -0.3979
 4197SOL     OW24223   3.721   1.590   1.701  0.0521 -0.6655 -0.0879
 4197SOL    HW124224   3.712   1.529   1.628 -0.6413  0.1663 -0.6995
 4197SOL    HW224225   3.638   1.637   1.704  0.7936  0.6460 -0.3065
 4198SOL     OW24226   4.542   1.673   5.476  0.5133  0.2364  0.0289
 4198SOL    HW124227   4.505   1.608   5.416 -1.1604  1.0784  0.1420
 4198SOL    HW224228   4.472   1.682   5.541  0.0389 -0.1550 -0.4213
 4199SOL     OW24229   0.488   2.299   9.237 -0.7634  0.0448  0.8306
 4199SOL    HW124230   0.488   2.353   9.159  1.8264 -1.2712 -0.0523
 4199SOL    HW224231   0.466   2.210   9.209  0.8373 -0.1728  0.2644
 4200SOL     OW24232   4.091   0.531   2.289 -0.0102  0.3839 -0.9142
 4200SOL    HW124233   4.046   0.490   2.215  2.0216 -1.4214 -1.1399
 4200SOL    HW224234   4.179   0.524   2.253 -0.0317  1.8214 -1.2394
 4201SOL     OW24235   2.377   3.273  11.284 -0.6282 -0.0842  0.2135
 4201SOL    HW124236   2.286   3.282  11.313 -1.1176 -0.3810 -1.2657
 4201SOL    HW224237   2.373   3.287  11.190  2.6688  0.0760  0.0836
 4202SOL     OW24238   3.367   1.749   9.900  0.2753  0.1316 -0.2639
 4202SOL    HW124239   3.365   1.821   9.837  0.2291 -1.6683 -2.3080
 4202SOL    HW224240   3.375   1.676   9.839  0.7642  0.2114 -0.2953
 4203SOL     OW24241   4.628   4.555   8.315 -0.0797  0.0830  0.0036
 4203SOL    HW124242   4.654   4.488   8.380  0.9567  0.1589 -0.3239
 4203SOL    HW224243   4.700   4.539   8.254 -1.4603 -0.7791 -1.3898
 4204SOL     OW24244   0.069   0.023   2.893 -0.3117 -0.0651 -0.4728
 4204SOL    HW124245   4.716   4.725   2.911  0.2409 -2.3830 -2.0766
 4204SOL    HW224246   0.116   4.714   2.963 -0.3393 -0.3862 -0.6576
 4205SOL     OW24247   3.545   0.781   7.889  0.3201 -0.1277  0.2623
 4205SOL    HW124248   3.549   0.850   7.955 -0.8088 -0.3819  0.5905
 4205SOL    HW224249   3.470   0.728   7.915  0.1768  0.8731  1.8677
 4206SOL     OW24250   3.117   2.306   4.220 -0.0233  0.1858 -0.2288
 4206SOL    HW124251   3.178   2.279   4.289 -1.0177 -2.5855 -0.4269
 4206SOL    HW224252   3.046   2.246   4.244 -1.0311  1.6910  0.5749
 4207SOL     OW24253   1.867   1.996   5.963 -0.7488  0.0862 -0.3439
 4207SOL    HW124254   1.820   2.043   6.032  1.0926  0.6070  0.5386
 4207SOL    HW224255   1.956   2.001   5.996 -0.9123 -1.2798  0.3229
 4208SOL     OW24256   4.651   4.416   4.615  0.3112 -0.3815  0.2099
 4208SOL    HW124257   4.586   4.480   4.644 -0.3828 -1.0556  0.1308
 4208SOL    HW224258   4.681   4.470   4.541  1.9922 -0.5847  0.7356
 4209SOL     OW24259   4.561   4.597   2.263 -0.2140  0.5651 -0.1715
 4209SOL    HW124260   4.623   4.545   2.313  1.4925  3.4430  0.7254
 4209SOL    HW224261   4.477   4.566   2.296  1.1415 -2.4941  0.3537
 4210SOL     OW24262   1.830   4.412  15.921 -0.3371  0.3561 -0.1829
 4210SOL    HW124263   1.860   4.463  15.846 -3.4815  0.9347 -1.0344
 4210SOL    HW224264   1.911   4.397  15.971  0.2785  0.5379 -1.1345
 4211SOL     OW24265   1.192   2.454   7.978  0.1123 -0.1487  0.5083
 4211SOL    HW124266   1.133   2.438   7.905 -1.3192  1.2689  1.3779
 4211SOL    HW224267   1.163   2.411   8.058  0.3376 -0.4983  0.4074
 4212SOL     OW24268   1.553   4.538  14.283  0.2116  0.2872 -0.5908
 4212SOL    HW124269   1.614   4.551  14.355 -1.7208  1.1054  0.8853
 4212SOL    HW224270   1.602   4.464  14.247 -1.0730 -0.1809 -1.3872
 4213SOL     OW24271   4.625   0.334   4.466 -0.4164 -0.0888  0.3445
 4213SOL    HW124272   4.685   0.405   4.487 -0.7471  0.2488  0.1466
 4213SOL    HW224273   4.578   0.312   4.546  1.5193  0.2822  1.5665
 4214SOL     OW24274   1.051   2.431  16.461  0.4394 -0.1071 -0.1438
 4214SOL    HW124275   1.049   2.365  16.531  2.4860 -0.5526 -0.4926
 4214SOL    HW224276   1.145   2.449  16.454 -0.1658  1.9075 -3.1238
 4215SOL     OW24277   3.132   4.625   7.929 -0.1213  0.1642  0.2583
 4215SOL    HW124278   3.122   4.532   7.948  0.5129  0.1096  0.3201
 4215SOL    HW224279   3.094   4.650   8.013 -1.0910 -2.4785  0.5889
 4216SOL     OW24280   0.947   2.724   2.565  0.1115 -0.0853  0.0583
 4216SOL    HW124281   0.905   2.811   2.565 -0.6283 -0.4389  0.6171
 4216SOL    HW224282   1.038   2.750   2.548  0.4034 -2.2329 -1.5470
 4217SOL     OW24283   0.677   2.616   6.172  0.2472  0.1283  0.0525
 4217SOL    HW124284   0.612   2.674   6.134 -0.8224  0.2060  2.0177
 4217SOL    HW224285   0.729   2.673   6.229  0.7742 -1.5165  1.2570
 4218SOL     OW24286   1.676   4.712   7.842  0.1463 -0.0946  0.5572
 4218SOL    HW124287   1.679   0.047   7.907 -0.5391 -0.7514  1.3061
 4218SOL    HW224288   1.763   4.701   7.804 -0.9584 -1.3290 -1.6256
 4219SOL     OW24289   1.265   4.651   0.353 -0.6110 -0.0366 -0.3371
 4219SOL    HW124290   1.237   4.687   0.437 -0.2489  1.2344 -0.7585
 4219SOL    HW224291   1.215   4.570   0.349 -0.8040  0.0248  1.0250
 4220SOL     OW24292   4.662   0.761   3.124 -0.2615 -0.4444  0.2716
 4220SOL    HW124293   4.607   0.831   3.088 -1.8676 -1.3416  1.0240
 4220SOL    HW224294   0.006   0.804   3.158 -1.5972  0.0610  2.7024
 4221SOL     OW24295   0.827   0.225   0.332  0.2369  0.0641 -0.8076
 4221SOL    HW124296   0.860   0.238   0.243  0.2305 -0.9485 -0.9641
 4221SOL    HW224297   0.760   0.160   0.310 -1.1493  1.1497  0.2644
 4222SOL     OW24298   1.684   0.040   3.798  0.2034 -0.2001 -0.5342
 4222SOL    HW124299   1.642   0.010   3.879 -0.1802 -0.2011 -0.7298
 4222SOL    HW224300   1.624   0.015   3.727 -0.2383  0.5099 -0.4194
 4223SOL     OW24301   0.396   3.067   4.781 -0.9663  0.1712  0.2159
 4223SOL    HW124302   0.403   3.119   4.702  0.0557 -0.7137 -0.2708
 4223SOL    HW224303   0.432   3.124   4.849 -2.1381  0.8083  0.3074
 4224SOL     OW24304   0.375   3.731   3.902 -0.4272  0.2886 -0.5263
 4224SOL    HW124305   0.293   3.772   3.875 -0.1682  0.8697 -0.4329
 4224SOL    HW224306   0.422   3.751   3.821 -0.4880  0.0838 -0.6124
 4225SOL     OW24307   0.708   4.652   5.179  0.2974 -0.6839  0.2630
 4225SOL    HW124308   0.692   4.607   5.261 -0.7503 -1.8254 -0.5716
 4225SOL    HW224309   0.719   4.584   5.113  0.5716  0.4836 -0.9035
 4226SOL     OW24310   3.133   0.972   3.733 -0.1818 -0.6843  0.1578
 4226SOL    HW124311   3.107   1.031   3.662 -0.8718  1.0110  1.8073
 4226SOL    HW224312   3.137   0.886   3.692  0.9902 -0.0560 -1.0649
 4227SOL     OW24313   3.706   0.023  16.037  0.1735 -0.1442 -0.1513
 4227SOL    HW124314   3.719   4.728  16.127  1.3270  1.0708  0.0832
 4227SOL    HW224315   3.664   0.107  16.055  0.7096  0.1851 -0.4226
 4228SOL     OW24316   2.736   0.378   5.508  0.3149  0.4538 -0.7780
 4228SOL    HW124317   2.691   0.306   5.464  0.8931 -0.0497 -0.5340
 4228SOL    HW224318   2.825   0.346   5.496  0.1645 -0.3110  0.1665
 4229SOL     OW24319   3.497   3.778   6.492 -0.0567 -0.2815  0.4408
 4229SOL    HW124320   3.495   3.720   6.569  1.9207 -0.4071  0.3985
 4229SOL    HW224321   3.506   3.702   6.435  0.1210  0.8434 -1.0115
 4230SOL     OW24322   0.291   3.439   3.220 -0.6147  0.6780  0.5002
 4230SOL    HW124323   0.357   3.420   3.154 -0.9514 -1.7628  0.8580
 4230SOL    HW224324   0.228   3.368   3.206  0.7659 -0.2608 -0.9907
 4231SOL     OW24325   3.562   3.744   2.345  0.5634  0.2122  0.3573
 4231SOL    HW124326   3.577   3.813   2.409 -1.7943 -0.5308  1.7234
 4231SOL    HW224327   3.487   3.706   2.391 -0.1242  0.4491 -0.5790
 4232SOL     OW24328   0.151   3.747   7.821 -0.4301 -0.4348 -0.1642
 4232SOL    HW124329   0.118   3.657   7.822 -0.5350 -0.3787  2.1710
 4232SOL    HW224330   0.102   3.778   7.745 -1.3139 -1.1035  0.1278
 4233SOL     OW24331   2.115   2.365   6.450 -0.4459  0.0170  0.8072
 4233SOL    HW124332   2.123   2.295   6.385  0.6759  0.8309  0.0766
 4233SOL    HW224333   2.122   2.310   6.528  2.6467 -0.0714  0.4393
 4234SOL     OW24334   3.135   1.572   5.282 -0.5022 -0.4357  0.1615
 4234SOL    HW124335   3.070   1.520   5.329 -1.0429  0.2842  0.2116
 4234SOL    HW224336   3.117   1.536   5.195 -1.1206  4.8017 -1.8628
 4235SOL     OW24337   0.501   0.702  17.310 -0.4088 -0.0827  0.0643
 4235SOL    HW124338   0.511   0.785  17.356 -0.4794  0.7720 -1.4347
 4235SOL    HW224339   0.593   0.698  17.287  0.2352  1.1295  2.3903
 4236SOL     OW24340   4.693   3.635   0.606 -0.3681 -0.2222  0.3537
 4236SOL    HW124341   4.707   3.729   0.607 -2.4065  0.0674  1.0323
 4236SOL    HW224342   0.007   3.603   0.682 -1.5791 -0.3959  1.0704
 4237SOL     OW24343   2.402   2.900   8.075 -0.1426  0.2972  0.3340
 4237SOL    HW124344   2.321   2.883   8.123 -0.8933  0.4984 -0.8669
 4237SOL    HW224345   2.358   2.928   7.995  2.7736  2.3329 -0.5584
 4238SOL     OW24346   4.169   1.220   7.517 -0.1138  0.3177 -1.0072
 4238SOL    HW124347   4.170   1.173   7.600 -1.8925  0.0195 -1.1475
 4238SOL    HW224348   4.101   1.174   7.468  0.4679  0.4083 -1.9055
 4239SOL     OW24349   4.191   4.018  17.634 -0.7106 -0.0783 -0.0113
 4239SOL    HW124350   4.186   4.025  17.729  1.2311 -0.6628  0.1353
 4239SOL    HW224351   4.119   4.079  17.619 -0.7207 -0.4110 -1.2831
 4240SOL     OW24352   1.730   0.480   3.145 -0.1454 -0.3092 -0.3340
 4240SOL    HW124353   1.691   0.465   3.231 -0.7816 -1.2197 -0.7703
 4240SOL    HW224354   1.653   0.522   3.106 -0.0346  0.1993 -0.0072
 4241SOL     OW24355   1.888   1.642   5.102  0.4335 -0.9596 -0.2424
 4241SOL    HW124356   1.894   1.732   5.069  1.8439 -1.2138 -0.6974
 4241SOL    HW224357   1.885   1.588   5.024  0.5002 -0.8756 -0.3039
 4242SOL     OW24358   0.210   3.925  16.739  0.6784  0.1573  0.3517
 4242SOL    HW124359   0.229   4.017  16.757 -1.8042  0.8262 -0.4409
 4242SOL    HW224360   0.237   3.917  16.647  0.3747  0.2532  0.2541
 4243SOL     OW24361   2.022   0.097  17.369 -0.2660 -0.2310 -0.4918
 4243SOL    HW124362   2.074   0.069  17.444  0.7787  1.1184 -0.7137
 4243SOL    HW224363   1.935   0.088  17.410  0.3326 -0.0453  0.8288
 4244SOL     OW24364   2.203   0.012   8.043 -0.0228  0.2376 -0.3514
 4244SOL    HW124365   2.122   4.709   8.010 -1.9295  1.7324  2.5463
 4244SOL    HW224366   2.271   4.728   7.979  2.1964  2.5389  1.3200
 4245SOL     OW24367   3.423   1.949  12.542 -0.9811  0.0188 -0.0004
 4245SOL    HW124368   3.339   1.902  12.548 -1.7381  1.0322 -3.2090
 4245SOL    HW224369   3.385   2.036  12.537 -3.4214 -0.8712  2.7643
 4246SOL     OW24370   2.997   2.002   5.042 -0.3949 -0.2182  0.5990
 4246SOL    HW124371   3.000   1.946   5.120  3.1187  1.1006  1.4252
 4246SOL    HW224372   3.092   2.018   5.037 -0.3898 -0.6554 -0.7174
 4247SOL     OW24373   1.889   2.656   8.208  0.3737 -0.1824  0.8516
 4247SOL    HW124374   1.851   2.568   8.209 -0.2540  0.0868 -0.2596
 4247SOL    HW224375   1.876   2.678   8.300  0.3960  1.2270  0.5205
 4248SOL     OW24376   1.156   0.842  10.324  0.3189 -0.5309  0.1334
 4248SOL    HW124377   1.126   0.776  10.386 -0.9457 -0.5185 -0.4495
 4248SOL    HW224378   1.152   0.790  10.243 -0.3443 -0.0549 -0.1401
 4249SOL     OW24379   1.163   2.409   3.835 -0.1610 -0.3898  0.3308
 4249SOL    HW124380   1.190   2.499   3.819 -2.0112  0.3955  1.5720
 4249SOL    HW224381   1.168   2.378   3.745  1.2044 -4.4225  1.7990
 4250SOL     OW24382   4.311   3.112   3.508 -0.1385  0.2019 -0.8827
 4250SOL    HW124383   4.312   3.143   3.598 -0.4910 -0.2097 -0.7392
 4250SOL    HW224384   4.218   3.097   3.490 -0.2072  0.5708 -0.8377
 4251SOL     OW24385   3.601   3.465   0.980 -0.3592  0.0543 -0.1094
 4251SOL    HW124386   3.652   3.453   0.899  5.3574  0.5274  3.4056
 4251SOL    HW224387   3.573   3.555   0.967  0.3620  0.0640 -1.6497
 4252SOL     OW24388   2.124   0.438   1.267 -0.8052  0.2727 -0.3979
 4252SOL    HW124389   2.116   0.454   1.173 -1.4394  0.8994 -0.2321
 4252SOL    HW224390   2.217   0.414   1.272  0.1635  3.8437 -1.5982
 4253SOL     OW24391   0.606   0.354   5.927 -0.6891 -0.3085  0.2142
 4253SOL    HW124392   0.598   0.419   5.857 -2.0301 -0.2913  0.3968
 4253SOL    HW224393   0.651   0.287   5.875 -2.0004 -1.4627  0.5726
 4254SOL     OW24394   4.529   3.847   9.481  0.1955  0.2298  0.7111
 4254SOL    HW124395   4.494   3.758   9.484  0.7807 -0.0708 -1.2526
 4254SOL    HW224396   4.498   3.899   9.554  1.6716 -0.0626  1.5525
 4255SOL     OW24397   0.325   2.607   2.585 -0.4041  0.6217 -0.1604
 4255SOL    HW124398   0.381   2.594   2.508 -0.0111  0.5484  0.1372
 4255SOL    HW224399   0.359   2.547   2.651  0.2754  0.8669 -0.2860
 4256SOL     OW24400   1.840   3.445   4.388  0.2029  0.2147 -0.2198
 4256SOL    HW124401   1.911   3.430   4.326 -0.1164  3.2527 -1.3130
 4256SOL    HW224402   1.886   3.494   4.456 -0.8026  2.0147 -0.8510
 4257SOL     OW24403   4.717   2.904   3.651 -0.4589  0.0062  0.3505
 4257SOL    HW124404   4.654   2.936   3.715  0.7779 -0.0333  1.5896
 4257SOL    HW224405   4.670   2.915   3.568  0.7093 -0.3030 -0.3634
 4258SOL     OW24406   0.334   0.730   2.496  0.4742 -0.1556  0.2911
 4258SOL    HW124407   0.407   0.790   2.482  1.0660 -0.6502  1.2356
 4258SOL    HW224408   0.280   0.784   2.554 -0.1372 -2.7979  2.1628
 4259SOL     OW24409   4.115   1.110   2.884  1.0064  0.0249 -0.6090
 4259SOL    HW124410   4.121   1.026   2.929 -1.9863  0.5465  0.7601
 4259SOL    HW224411   4.179   1.097   2.814 -0.5669  1.3954 -2.3241
 4260SOL     OW24412   3.181   2.087   6.213 -0.2943  0.4883  0.4015
 4260SOL    HW124413   3.113   2.029   6.249  1.2609 -1.7162 -0.2351
 4260SOL    HW224414   3.221   2.115   6.295  1.1614  1.6778 -0.7233
 4261SOL     OW24415   0.224   2.859  17.319  0.2301  0.4618  0.1208
 4261SOL    HW124416   0.151   2.908  17.280 -0.1876  0.8619  1.4277
 4261SOL    HW224417   0.189   2.845  17.407 -0.4049  1.7481  0.0750
 4262SOL     OW24418   0.571   4.015  11.255 -0.0390  0.5397  0.5071
 4262SOL    HW124419   0.631   4.052  11.190 -0.3982  0.2464  0.0112
 4262SOL    HW224420   0.629   3.957  11.304 -0.6135  0.6907  1.3754
 4263SOL     OW24421   1.254   4.142  16.268 -0.1454 -0.0398  0.3356
 4263SOL    HW124422   1.251   4.146  16.172  0.9311  2.6835  0.3991
 4263SOL    HW224423   1.343   4.107  16.277 -0.7176 -1.3725  0.7496
 4264SOL     OW24424   3.290   2.775   3.825  0.1394  0.2179 -0.1238
 4264SOL    HW124425   3.205   2.816   3.840  0.1057 -0.7039  2.1497
 4264SOL    HW224426   3.351   2.848   3.815 -0.0738  0.3570 -0.3990
 4265SOL     OW24427   2.198   2.749   4.669  0.1911 -0.5156  0.1904
 4265SOL    HW124428   2.112   2.714   4.647 -0.5396  1.0605  0.5089
 4265SOL    HW224429   2.240   2.668   4.694  0.5486 -0.2843  0.3340
 4266SOL     OW24430   2.237   1.137   3.416  0.0513 -0.6974  0.2521
 4266SOL    HW124431   2.199   1.205   3.472  0.7856 -0.6714  0.7274
 4266SOL    HW224432   2.295   1.100   3.483 -1.5930  1.5056  2.9079
 4267SOL     OW24433   0.053   2.962  10.166 -0.0666 -0.7205  0.0413
 4267SOL    HW124434   0.109   2.885  10.157  0.4718 -0.4585  1.1817
 4267SOL    HW224435   0.051   2.995  10.076 -2.5263 -1.7109 -0.2731
 4268SOL     OW24436   1.507   1.152   8.866 -0.1896 -0.8662 -0.2622
 4268SOL    HW124437   1.572   1.092   8.828  2.5063  2.6537 -1.2419
 4268SOL    HW224438   1.567   1.217   8.903 -0.1006  0.3614 -2.5644
 4269SOL     OW24439   4.302   2.275   6.250  0.1301 -0.3857 -0.4568
 4269SOL    HW124440   4.215   2.303   6.220  0.4179 -0.7445 -1.6478
 4269SOL    HW224441   4.346   2.271   6.165  1.3288 -1.6291  0.2350
 4270SOL     OW24442   0.865   2.427  12.940 -0.1274 -0.2337  0.0130
 4270SOL    HW124443   0.921   2.397  13.012 -0.4527  0.1963  0.4452
 4270SOL    HW224444   0.903   2.510  12.913  3.7198 -1.6455  1.0165
 4271SOL     OW24445   1.121   0.257   4.949 -0.3796 -0.3758  0.0003
 4271SOL    HW124446   1.097   0.272   5.040  2.2335 -1.9841  0.9308
 4271SOL    HW224447   1.037   0.251   4.903 -0.8664 -0.8568  0.9743
 4272SOL     OW24448   2.401   2.752  11.959  0.1543 -0.5127 -0.2802
 4272SOL    HW124449   2.425   2.805  11.883  3.6557 -1.1600  0.3685
 4272SOL    HW224450   2.373   2.821  12.020  0.1125 -0.5910 -0.2118
 4273SOL     OW24451   1.637   4.416   7.656 -0.2053  0.1675  0.2805
 4273SOL    HW124452   1.651   4.323   7.677 -2.1517 -0.3318 -0.5996
 4273SOL    HW224453   1.624   4.447   7.746 -0.4871 -0.7545  0.5657
 4274SOL     OW24454   4.723   0.160   1.392 -0.0897  0.3059  0.1033
 4274SOL    HW124455   0.049   0.224   1.428  0.2565  0.5555 -0.9037
 4274SOL    HW224456   4.645   0.212   1.373 -0.1394  0.3003  0.2980
 4275SOL     OW24457   1.699   2.300   1.402 -0.4804 -0.2058 -0.1722
 4275SOL    HW124458   1.617   2.252   1.416 -0.1476 -0.4399  0.9228
 4275SOL    HW224459   1.752   2.221   1.388 -2.0457 -1.6871  2.1692
 4276SOL     OW24460   1.074   1.121   7.688 -0.3506 -0.4465  0.5160
 4276SOL    HW124461   1.036   1.161   7.766  0.3516  1.3643 -0.0722
 4276SOL    HW224462   1.164   1.153   7.695 -0.3075 -0.5714  0.5341
 4277SOL     OW24463   3.759   2.946   6.129  0.3397  0.1270  0.5622
 4277SOL    HW124464   3.829   2.880   6.134  2.1458  1.7833 -3.4754
 4277SOL    HW224465   3.770   2.971   6.038 -1.1706 -0.5032  0.2145
 4278SOL     OW24466   0.805   3.515   4.718 -0.0263 -0.1398 -0.2998
 4278SOL    HW124467   0.848   3.475   4.794 -2.2269 -0.2509  0.8918
 4278SOL    HW224468   0.743   3.451   4.682  0.5421 -0.8790  0.0336
 4279SOL     OW24469   0.441   3.734   2.112 -0.2747 -0.4262 -0.5300
 4279SOL    HW124470   0.369   3.674   2.133  0.6448 -0.6359  2.0327
 4279SOL    HW224471   0.431   3.741   2.017 -0.3387  0.2186 -0.4794
 4280SOL     OW24472   2.336   0.274   8.855 -0.7502 -0.4498  0.4428
 4280SOL    HW124473   2.363   0.328   8.781 -2.0042  1.3624  1.3274
 4280SOL    HW224474   2.425   0.269   8.890 -0.4790  2.5323  0.1756
 4281SOL     OW24475   0.151   4.256  12.244 -0.3925  0.3877  0.0321
 4281SOL    HW124476   0.059   4.283  12.241  0.0462  1.8815 -0.2924
 4281SOL    HW224477   0.198   4.335  12.217 -2.3923  1.2733 -0.8365
 4282SOL     OW24478   1.266   1.096   8.742  0.1429  0.0160 -0.2180
 4282SOL    HW124479   1.343   1.120   8.794 -0.0102 -0.7398  0.3512
 4282SOL    HW224480   1.249   1.011   8.781  1.7353  0.3306  1.1726
 4283SOL     OW24481   4.192   3.903   6.439 -0.3492 -0.3100  0.5438
 4283SOL    HW124482   4.133   3.856   6.379  1.4317 -0.4328 -1.1335
 4283SOL    HW224483   4.207   3.980   6.383  0.5355 -1.4291 -0.7670
 4284SOL     OW24484   1.367   4.135   6.996 -0.6339 -0.6848  0.6315
 4284SOL    HW124485   1.399   4.049   6.969 -0.8171 -0.4411 -0.3697
 4284SOL    HW224486   1.272   4.126   7.010 -1.2436  0.2874 -2.9383
 4285SOL     OW24487   3.513   0.206   6.322 -0.1227 -0.2658 -0.1787
 4285SOL    HW124488   3.437   0.239   6.370 -0.1560  0.1089 -0.4863
 4285SOL    HW224489   3.582   0.232   6.383 -1.0114  1.1652  0.2268
 4286SOL     OW24490   1.096   1.295   3.116 -0.3970  0.0279  0.3659
 4286SOL    HW124491   1.167   1.357   3.127  2.6779 -3.4190  0.0597
 4286SOL    HW224492   1.037   1.317   3.188  0.2845  0.5159  0.7700
 4287SOL     OW24493   4.354   1.792   3.702  0.2425 -0.4294 -0.1819
 4287SOL    HW124494   4.332   1.749   3.619 -0.4178 -1.2522  0.4131
 4287SOL    HW224495   4.322   1.881   3.688  1.5675 -0.3604 -2.7186
 4288SOL     OW24496   2.379   3.501   2.874  0.3353  0.0030  0.3286
 4288SOL    HW124497   2.363   3.503   2.969 -0.6875  0.1234  0.1502
 4288SOL    HW224498   2.306   3.444   2.849  0.4333  0.6472 -1.3720
 4289SOL     OW24499   3.912   1.245   1.366 -0.3634  0.2991 -0.0793
 4289SOL    HW124500   3.893   1.155   1.341 -0.8698  0.0509  1.2030
 4289SOL    HW224501   3.859   1.282   1.294 -1.1046 -0.6048 -0.0001
 4290SOL     OW24502   4.280   2.343   7.300  0.1055  0.1991  0.4842
 4290SOL    HW124503   4.226   2.380   7.371  0.2333  2.3446 -0.5469
 4290SOL    HW224504   4.325   2.412   7.253 -0.6817  0.6329  0.3707
 4291SOL     OW24505   4.561   2.748   7.207 -0.5609 -0.0255 -0.4359
 4291SOL    HW124506   4.631   2.726   7.146  1.0357 -2.0152  2.0870
 4291SOL    HW224507   4.609   2.732   7.289  2.4109  0.3378 -2.1052
 4292SOL     OW24508   0.401   4.021   7.604 -0.1954  0.1869  0.3663
 4292SOL    HW124509   0.444   3.946   7.645  1.1741 -0.0619 -1.4928
 4292SOL    HW224510   0.369   3.988   7.519  2.2511 -0.9029 -0.1323
 4293SOL     OW24511   0.934   1.449   6.995  0.3138  0.5304 -0.1479
 4293SOL    HW124512   1.013   1.453   7.049  0.1800  0.5407  0.0485
 4293SOL    HW224513   0.866   1.490   7.049  1.5827  2.9927 -0.3973
 4294SOL     OW24514   1.971   0.648  14.117  0.4172  0.0227  0.0091
 4294SOL    HW124515   1.919   0.719  14.079 -0.4579 -1.1165 -0.9323
 4294SOL    HW224516   1.910   0.611  14.181 -0.6473  1.4724 -0.1776
 4295SOL     OW24517   2.156   3.729   2.217 -0.4792 -0.4688 -0.1228
 4295SOL    HW124518   2.127   3.794   2.153  1.3584 -0.1801 -0.6606
 4295SOL    HW224519   2.071   3.701   2.251  0.1427 -1.6590  0.4234
 4296SOL     OW24520   1.826   3.265   8.488  0.4526 -0.4284  0.1150
 4296SOL    HW124521   1.880   3.344   8.497 -1.5840  1.3416 -2.8107
 4296SOL    HW224522   1.737   3.301   8.486  0.0691 -1.3966 -0.1104
 4297SOL     OW24523   2.666   0.671   9.018 -0.2658  0.1429  0.0153
 4297SOL    HW124524   2.665   0.619   9.098 -0.5669  0.1841  0.0397
 4297SOL    HW224525   2.577   0.658   8.985  0.3698  0.2237 -1.7248
 4298SOL     OW24526   3.786   3.888   6.989  0.0321 -0.1090  0.1746
 4298SOL    HW124527   3.759   3.877   6.898 -0.8695 -3.5867  0.8744
 4298SOL    HW224528   3.814   3.980   6.987  2.7941 -0.9272  0.5064
 4299SOL     OW24529   3.405   3.086   8.961  0.5377 -0.5625  0.2100
 4299SOL    HW124530   3.412   3.000   9.002 -1.9112 -0.9803 -0.2645
 4299SOL    HW224531   3.357   3.140   9.024 -1.6039 -2.1547 -0.0681
 4300SOL     OW24532   0.379   3.365   1.527  0.4852 -0.1885  0.2043
 4300SOL    HW124533   0.307   3.400   1.474  0.1878  1.3380  1.6293
 4300SOL    HW224534   0.448   3.427   1.504 -1.7004  2.3771  0.5397
 4301SOL     OW24535   4.227   1.462   9.446  0.6361 -0.4712  0.1333
 4301SOL    HW124536   4.317   1.442   9.473  0.3599  0.2272  1.5918
 4301SOL    HW224537   4.240   1.436   9.355  0.4012 -2.1223  0.5664
 4302SOL     OW24538   3.240   2.232  11.493  0.4453 -0.2788  0.3216
 4302SOL    HW124539   3.296   2.166  11.452 -1.3497 -1.7247  0.2008
 4302SOL    HW224540   3.167   2.190  11.540  1.4219 -1.5328  0.6915
 4303SOL     OW24541   3.699   4.461   8.367  0.1786 -0.0847  0.0752
 4303SOL    HW124542   3.655   4.525   8.424  1.5870 -0.3830  1.4952
 4303SOL    HW224543   3.785   4.457   8.410 -0.6905  0.9989  1.9613
 4304SOL     OW24544   1.040   1.208   1.283 -0.2722 -0.9189 -0.5312
 4304SOL    HW124545   0.973   1.210   1.351  1.2397  1.0182  0.8693
 4304SOL    HW224546   0.994   1.271   1.228  0.7195  0.0759 -0.2060
 4305SOL     OW24547   0.974   4.120   8.037  1.1241 -0.6971 -0.3644
 4305SOL    HW124548   0.924   4.145   8.115  1.3290 -1.7959  0.1140
 4305SOL    HW224549   1.012   4.038   8.067  0.0924 -1.4073 -0.9816
 4306SOL     OW24550   0.600   3.166   6.908 -0.2003  0.2298 -0.2255
 4306SOL    HW124551   0.625   3.074   6.914  0.3825  0.4128  0.1886
 4306SOL    HW224552   0.678   3.196   6.861 -0.2189  0.8487  0.1429
 4307SOL     OW24553   0.101   4.105   1.128  0.1648  0.2204 -0.3483
 4307SOL    HW124554   0.192   4.083   1.108 -0.0685 -1.7415  0.7125
 4307SOL    HW224555   0.061   4.022   1.155  2.4549 -1.4693 -2.1509
 4308SOL     OW24556   2.527   1.118   2.452 -0.7492 -0.3902  0.1243
 4308SOL    HW124557   2.583   1.090   2.380  0.1183  0.6886  0.3754
 4308SOL    HW224558   2.476   1.190   2.414 -1.6491 -1.8435 -1.3936
 4309SOL     OW24559   2.359   2.693   3.140  0.2711  0.2813 -0.0979
 4309SOL    HW124560   2.359   2.599   3.126  0.0805  0.2351  0.1934
 4309SOL    HW224561   2.327   2.707   3.230  0.6348 -0.7584  0.1909
 4310SOL     OW24562   3.733   3.038  16.093  0.3600  0.1720 -0.6710
 4310SOL    HW124563   3.669   3.087  16.041 -1.2665 -0.3688  0.8375
 4310SOL    HW224564   3.680   2.985  16.153 -0.1112  0.7030 -0.6132
 4311SOL     OW24565   2.035   4.154  10.439 -0.0461 -0.2660  0.2055
 4311SOL    HW124566   2.037   4.218  10.368  1.1614 -2.2853 -1.5973
 4311SOL    HW224567   2.024   4.205  10.520  3.0379 -1.0531  1.1284
 4312SOL     OW24568   0.210   3.949   8.051  0.4621 -0.4636 -0.4057
 4312SOL    HW124569   0.217   3.912   7.963 -0.2794 -0.7136 -0.3600
 4312SOL    HW224570   0.137   4.008   8.029  0.5051 -0.7254 -1.2675
 4313SOL     OW24571   3.931   2.083   2.691 -0.2644  0.1005 -0.5564
 4313SOL    HW124572   3.896   2.019   2.753 -0.4137 -0.6495 -1.4227
 4313SOL    HW224573   4.021   2.050   2.682 -0.5533 -1.5958  2.7332
 4314SOL     OW24574   2.666   2.999  14.776  0.5269 -0.0264  0.7588
 4314SOL    HW124575   2.602   2.993  14.705  0.7308  0.0326  0.5718
 4314SOL    HW224576   2.736   3.057  14.746  1.0226 -1.1126 -0.2025
 4315SOL     OW24577   3.007   1.642   1.340  0.1400 -0.3390 -0.0655
 4315SOL    HW124578   2.990   1.734   1.358  1.8574 -0.3524  1.6687
 4315SOL    HW224579   3.042   1.638   1.251 -3.5031 -0.7335 -1.4553
 4316SOL     OW24580   0.918   3.572   7.897  0.1258 -0.2522  0.6467
 4316SOL    HW124581   0.872   3.561   7.980 -2.7940 -2.8661 -1.3506
 4316SOL    HW224582   0.993   3.514   7.908  0.9076  0.8076  0.8887
 4317SOL     OW24583   1.719   3.099   1.822  0.0726 -0.0466 -0.3838
 4317SOL    HW124584   1.732   3.069   1.912 -0.8422 -0.0964 -0.2744
 4317SOL    HW224585   1.664   3.029   1.788 -2.5055  1.5097  0.5789
 4318SOL     OW24586   3.239   0.700   7.000  0.0993  0.2844  0.5762
 4318SOL    HW124587   3.186   0.638   6.949  2.0310 -2.3114  1.7054
 4318SOL    HW224588   3.328   0.672   6.979 -0.2041  1.0048 -1.6522
 4319SOL     OW24589   2.268   4.016   2.570  0.1791  0.8046  0.6333
 4319SOL    HW124590   2.194   4.076   2.577 -1.7766 -1.5625  0.2440
 4319SOL    HW224591   2.317   4.052   2.644 -2.2847  1.0708  2.1211
 4320SOL     OW24592   0.841   4.606   4.729  0.3108  0.3090 -0.2181
 4320SOL    HW124593   0.783   4.601   4.653  2.3078  1.5598 -1.8284
 4320SOL    HW224594   0.794   4.676   4.774  0.6406  0.6204 -0.3606
 4321SOL     OW24595   2.228   2.724   3.376 -0.1764  0.0987  0.2498
 4321SOL    HW124596   2.138   2.691   3.384 -0.6718  1.7459  1.5686
 4321SOL    HW224597   2.208   2.815   3.401 -0.9919 -0.5928  2.0946
 4322SOL     OW24598   3.852   1.140   9.065  0.7962 -0.2180 -0.2037
 4322SOL    HW124599   3.840   1.162   9.158  0.9069  0.6117 -0.3875
 4322SOL    HW224600   3.799   1.210   9.026  0.0068  0.5282  2.1913
 4323SOL     OW24601   3.725   4.350   6.631 -0.4064  0.1096  0.7911
 4323SOL    HW124602   3.805   4.308   6.663 -0.8001 -1.5958 -0.4499
 4323SOL    HW224603   3.661   4.279   6.641 -0.5447  0.0406 -0.5806
 4324SOL     OW24604   0.169   0.936   7.042 -0.0484  0.0508 -0.6078
 4324SOL    HW124605   0.250   0.919   6.994  0.5324 -0.5573  0.5781
 4324SOL    HW224606   0.214   0.934   7.126  0.2055  1.8584 -0.6992
 4325SOL     OW24607   3.292   4.670   9.209 -0.0951 -0.0211  0.2194
 4325SOL    HW124608   3.217   4.616   9.185  0.3174  0.3794 -2.0587
 4325SOL    HW224609   3.310   4.656   9.302  1.2403 -0.9827 -0.1848
 4326SOL     OW24610   4.202   2.738   2.758  0.1401  0.6130 -0.2588
 4326SOL    HW124611   4.189   2.769   2.669 -1.1094 -3.1531 -1.3961
 4326SOL    HW224612   4.150   2.658   2.763  0.3682  0.3396 -2.5849
 4327SOL     OW24613   4.247   3.404  16.221 -0.0522 -0.0179  0.0101
 4327SOL    HW124614   4.248   3.441  16.309  0.6131  0.6725 -0.2912
 4327SOL    HW224615   4.330   3.428  16.180  1.6676 -0.2003  3.4114
 4328SOL     OW24616   2.822   4.218   3.136  0.6692 -0.0152 -0.3134
 4328SOL    HW124617   2.868   4.250   3.059 -0.2664 -0.0244 -0.8865
 4328SOL    HW224618   2.853   4.128   3.135  0.2202 -0.1719 -0.7738
 4329SOL     OW24619   4.011   1.357   5.926  0.0813 -0.1429  0.1539
 4329SOL    HW124620   4.079   1.309   5.878  0.6050  0.4959  0.2615
 4329SOL    HW224621   3.980   1.427   5.869  2.6006  1.3451  0.5802
 4330SOL     OW24622   3.677   3.646   5.374 -0.0237 -0.0310  0.0849
 4330SOL    HW124623   3.771   3.633   5.360  0.1406  0.6197  0.5666
 4330SOL    HW224624   3.667   3.605   5.460 -1.6043 -0.7437 -0.4385
 4331SOL     OW24625   1.892   0.915   5.074  0.1989  0.6314  0.1942
 4331SOL    HW124626   1.896   1.003   5.111  0.8096  1.5601 -2.0417
 4331SOL    HW224627   1.965   0.877   5.123  1.4597  3.3097  0.3782
 4332SOL     OW24628   4.578   1.861   6.888 -0.4708 -0.1622 -0.0551
 4332SOL    HW124629   4.528   1.840   6.967 -1.2158 -0.8779 -0.7088
 4332SOL    HW224630   4.539   1.799   6.826  1.5678 -1.0845 -0.4164
 4333SOL     OW24631   1.794   0.277  11.830 -0.2803  0.1909  0.4294
 4333SOL    HW124632   1.885   0.248  11.841 -0.7676 -0.4379  2.8034
 4333SOL    HW224633   1.782   0.329  11.909 -0.5376 -0.4187  0.7919
 4334SOL     OW24634   0.124   3.919   6.458  0.3830  0.0079 -0.3495
 4334SOL    HW124635   0.186   3.988   6.479  1.2857 -1.0659  0.4720
 4334SOL    HW224636   0.040   3.961   6.476  1.4059  0.8517  2.4250
 4335SOL     OW24637   4.249   0.172  12.327 -0.8337  0.1720  0.1719
 4335SOL    HW124638   4.268   0.252  12.279 -0.0018  0.4055  0.8920
 4335SOL    HW224639   4.302   0.111  12.276 -0.9189  0.2190  0.0271
 4336SOL     OW24640   4.479   1.602   8.514 -0.4911 -0.2629 -0.0189
 4336SOL    HW124641   4.556   1.656   8.533 -1.3634  1.4878 -1.4055
 4336SOL    HW224642   4.520   1.516   8.519 -1.1305 -0.6688 -1.8075
 4337SOL     OW24643   3.914   2.749   4.420 -0.0159  0.4399 -0.1796
 4337SOL    HW124644   3.933   2.678   4.482  0.2741  1.5315  0.9847
 4337SOL    HW224645   3.895   2.820   4.481  0.2689  1.3446 -1.1518
 4338SOL     OW24646   3.756   0.697   4.232 -0.2534  0.0343 -0.1072
 4338SOL    HW124647   3.794   0.706   4.320  0.7351 -0.7388 -0.4537
 4338SOL    HW224648   3.820   0.751   4.186  0.1637 -0.6764 -0.3532
 4339SOL     OW24649   4.314   4.389   4.777  0.2056  0.1115  0.3135
 4339SOL    HW124650   4.288   4.298   4.762 -1.1885  0.5896 -0.2049
 4339SOL    HW224651   4.237   4.433   4.741 -1.5902 -2.5576  0.8796
 4340SOL     OW24652   4.219   0.498  16.301  0.0482  0.0329  0.4773
 4340SOL    HW124653   4.308   0.465  16.305  0.0476 -0.1813 -1.2158
 4340SOL    HW224654   4.177   0.448  16.231  2.4445 -2.7706  1.0519
 4341SOL     OW24655   4.240   2.408  15.788  0.2315  0.0743  0.0274
 4341SOL    HW124656   4.154   2.403  15.830 -0.1573  2.0079 -0.5656
 4341SOL    HW224657   4.242   2.315  15.762 -0.6694  0.3206 -0.9285
 4342SOL     OW24658   4.699   3.038  11.848 -0.0445 -0.0927  0.3529
 4342SOL    HW124659   4.701   2.944  11.830 -0.2289 -0.3947  1.9130
 4342SOL    HW224660   0.049   3.062  11.811 -0.2709 -0.0371 -0.1214
 4343SOL     OW24661   3.537   2.881   7.478 -0.0261  0.6283 -0.0349
 4343SOL    HW124662   3.567   2.930   7.401 -0.8289  1.8951  0.4585
 4343SOL    HW224663   3.448   2.907   7.502 -0.8989 -1.0123 -1.5139
 4344SOL     OW24664   3.317   2.128  11.116  0.3201  0.3599  0.5435
 4344SOL    HW124665   3.347   2.211  11.154  0.8988 -0.0962  1.0886
 4344SOL    HW224666   3.228   2.145  11.086  0.1424 -1.9823 -0.3157
 4345SOL     OW24667   3.977   2.203   2.357  0.1910  0.3647  0.6379
 4345SOL    HW124668   3.925   2.162   2.288  0.2286  0.3075  0.6441
 4345SOL    HW224669   4.032   2.265   2.309 -1.2354  1.8630  0.9005
 4346SOL     OW24670   1.440   2.223   3.741  0.1523 -0.6571 -0.1273
 4346SOL    HW124671   1.460   2.259   3.828  2.8640  1.7915 -1.7580
 4346SOL    HW224672   1.353   2.255   3.714  1.8206  2.5775 -1.7705
 4347SOL     OW24673   0.433   2.465   2.786 -0.9401  0.3667  0.6048
 4347SOL    HW124674   0.364   2.451   2.850 -1.0876  1.4944  0.6997
 4347SOL    HW224675   0.506   2.487   2.845  0.6289 -1.6233 -0.5839
 4348SOL     OW24676   0.903   3.669   5.164 -0.0078 -0.1185 -0.0740
 4348SOL    HW124677   0.966   3.718   5.112 -0.5376 -0.4327 -1.0175
 4348SOL    HW224678   0.859   3.739   5.213  0.9718  0.1907  0.3561
 4349SOL     OW24679   0.878   4.424  17.114  0.4228  0.2682  0.2047
 4349SOL    HW124680   0.936   4.491  17.077  0.0904  0.6879  0.4533
 4349SOL    HW224681   0.938   4.391  17.181  0.5046  0.3444  0.1698
 4350SOL     OW24682   1.660   1.038   3.644 -0.1130 -0.3743 -0.1208
 4350SOL    HW124683   1.661   1.124   3.688 -1.8493 -0.1792 -0.4592
 4350SOL    HW224684   1.754   1.021   3.641 -0.5759 -2.9362  0.2637
 4351SOL     OW24685   0.038   4.695   1.212 -0.4301  0.2848 -0.1079
 4351SOL    HW124686   0.010   4.631   1.277 -1.5247  0.8329 -0.0368
 4351SOL    HW224687   0.027   0.042   1.261  0.0216  0.7192 -0.7382
 4352SOL     OW24688   1.654   4.489   3.752 -0.0963  0.5162 -0.4356
 4352SOL    HW124689   1.722   4.490   3.819  1.8131  0.2153 -2.3611
 4352SOL    HW224690   1.685   4.558   3.692 -0.4382  0.2814 -0.8742
 4353SOL     OW24691   2.477   2.910   6.282  0.2488  0.3162  0.1898
 4353SOL    HW124692   2.491   2.906   6.187 -2.6299 -1.2876 -0.1442
 4353SOL    HW224693   2.562   2.920   6.325 -0.1399 -0.2899  1.0861
 4354SOL     OW24694   3.221   0.888  16.830 -0.4393  0.2784 -0.3152
 4354SOL    HW124695   3.128   0.897  16.852 -0.8797 -0.8315 -1.7384
 4354SOL    HW224696   3.226   0.901  16.736  1.0312  0.9558 -0.1374
 4355SOL     OW24697   2.184   3.037  15.411 -0.1776 -0.0644 -0.0873
 4355SOL    HW124698   2.209   3.071  15.497 -1.1278 -0.5699  0.3786
 4355SOL    HW224699   2.130   2.963  15.437  3.9152 -1.7093  3.7612
 4356SOL     OW24700   3.994   1.719   1.425 -0.2769 -0.0364  0.0439
 4356SOL    HW124701   3.966   1.808   1.404 -0.4757 -0.3649 -1.0765
 4356SOL    HW224702   4.062   1.717   1.358 -2.1578 -2.8975 -1.7610
 4357SOL     OW24703   0.180   4.040  12.983 -0.7580 -0.1188  0.0592
 4357SOL    HW124704   0.150   4.054  12.893 -0.5866  1.4039  0.2393
 4357SOL    HW224705   0.257   3.988  12.962 -1.0244  0.0498 -1.3315
 4358SOL     OW24706   1.994   4.523   1.191 -0.2193  0.4498  0.5905
 4358SOL    HW124707   1.993   4.618   1.179  3.2675  0.3064 -0.7221
 4358SOL    HW224708   1.901   4.506   1.205  0.0115 -1.7620 -0.6528
 4359SOL     OW24709   3.959   0.997   6.781 -0.7352 -0.1209  0.2515
 4359SOL    HW124710   3.989   1.029   6.866  0.3496  1.9816 -0.9224
 4359SOL    HW224711   3.875   1.043   6.770 -0.2193  1.2530  1.9700
 4360SOL     OW24712   1.706   4.664   1.849  0.3335  0.5795 -0.2330
 4360SOL    HW124713   1.766   4.619   1.790 -1.2269 -1.6954 -0.0993
 4360SOL    HW224714   1.625   4.631   1.809  0.7368 -0.0490 -0.5330
 4361SOL     OW24715   4.465   2.582   5.848  0.1208  0.1031 -0.2210
 4361SOL    HW124716   4.464   2.584   5.752 -2.0425  0.6987 -0.2018
 4361SOL    HW224717   4.388   2.526   5.862  0.7832 -0.3443  1.6131
 4362SOL     OW24718   1.257   0.746   3.552  0.0805  0.0215  0.1594
 4362SOL    HW124719   1.330   0.790   3.595  2.9247 -2.3629 -2.2488
 4362SOL    HW224720   1.305   0.720   3.473 -2.4223 -4.2997  0.0651
 4363SOL     OW24721   3.782   0.579   9.457 -0.2655  0.2781 -0.3361
 4363SOL    HW124722   3.763   0.584   9.551 -2.3208 -1.0369 -0.6756
 4363SOL    HW224723   3.815   0.667   9.441  0.2662  0.5083  1.9699
 4364SOL     OW24724   3.044   4.644  17.670  0.1513 -0.2466  0.6655
 4364SOL    HW124725   3.061   4.680   0.019 -0.2168 -0.1955  0.7165
 4364SOL    HW224726   3.056   4.552  17.692  1.2217  0.2360  2.1113
 4365SOL     OW24727   0.895   3.403   7.042 -0.1750 -0.2433  0.0200
 4365SOL    HW124728   0.810   3.443   7.061 -0.9885 -0.9992 -2.1003
 4365SOL    HW224729   0.954   3.462   7.089  0.6560 -0.4773 -0.7279
 4366SOL     OW24730   2.534   1.832   5.916 -0.6249 -0.0590  0.1712
 4366SOL    HW124731   2.591   1.769   5.872  1.0096  1.0663  0.6607
 4366SOL    HW224732   2.462   1.834   5.853 -1.2810 -1.6731  0.8799
 4367SOL     OW24733   3.730   3.883   3.526 -0.3072  0.0156  0.4860
 4367SOL    HW124734   3.659   3.866   3.464 -1.0765  0.4505  1.2375
 4367SOL    HW224735   3.717   3.815   3.592  0.9414 -1.3018 -0.6278
 4368SOL     OW24736   1.638   2.800   6.819 -0.3889  0.3294  0.1791
 4368SOL    HW124737   1.691   2.727   6.788  0.0060  0.5541  0.3302
 4368SOL    HW224738   1.691   2.871   6.782  1.9327 -1.2637  0.4758
 4369SOL     OW24739   3.221   2.831   6.406  0.0100 -0.0483  0.7162
 4369SOL    HW124740   3.273   2.904   6.440  1.8896  0.1032 -2.5565
 4369SOL    HW224741   3.289   2.764   6.406  0.7732  0.7188  1.3597
 4370SOL     OW24742   0.340   2.790   6.110 -0.1738  0.4717 -0.5434
 4370SOL    HW124743   0.424   2.817   6.073 -0.0920  2.0712  0.7948
 4370SOL    HW224744   0.299   2.877   6.114 -0.2581  0.4805 -1.4415
 4371SOL     OW24745   1.175   0.009  14.438  0.1561 -0.9329 -0.1999
 4371SOL    HW124746   1.095   0.019  14.387  0.0923  0.2887  0.1401
 4371SOL    HW224747   1.241   0.049  14.381  0.5279 -2.7625 -1.0730
 4372SOL     OW24748   4.207   0.225   4.590  0.1666  0.0676  0.4501
 4372SOL    HW124749   4.150   0.169   4.538  0.0708 -2.0403  2.7867
 4372SOL    HW224750   4.165   0.257   4.670 -1.4350  0.6344 -0.6171
 4373SOL     OW24751   0.436   2.935   7.102 -0.0717  0.5715  0.4782
 4373SOL    HW124752   0.440   2.855   7.154  1.7951  2.2815  3.0001
 4373SOL    HW224753   0.498   2.914   7.032 -0.0572  1.4933  0.2088
 4374SOL     OW24754   4.113   2.355   2.169  0.0797  0.1271 -0.7624
 4374SOL    HW124755   4.208   2.356   2.156  0.3511 -0.7493  1.1529
 4374SOL    HW224756   4.081   2.444   2.155 -2.6128 -0.7619 -0.2783
 4375SOL     OW24757   4.277   0.805  15.653  0.1511 -0.4429 -0.5349
 4375SOL    HW124758   4.197   0.839  15.694 -0.1906 -0.9551 -0.7751
 4375SOL    HW224759   4.352   0.845  15.697 -2.2495  1.8354  1.5223
 4376SOL     OW24760   4.273   2.562   9.361 -0.2702  0.2218  0.8596
 4376SOL    HW124761   4.368   2.559   9.347 -0.5894 -2.8750 -0.5632
 4376SOL    HW224762   4.257   2.655   9.343 -1.0292 -0.1325 -0.3395
 4377SOL     OW24763   1.080   1.099   6.491 -0.2825  0.0083 -0.0328
 4377SOL    HW124764   0.986   1.109   6.478 -0.7542 -3.7951  0.4284
 4377SOL    HW224765   1.089   1.020   6.545  2.1316  0.6014  0.4325
 4378SOL     OW24766   0.601   2.633   1.893  0.2171  0.3267  0.0880
 4378SOL    HW124767   0.519   2.616   1.939 -0.0029  0.7284 -0.1563
 4378SOL    HW224768   0.599   2.573   1.818 -1.1378  0.6290 -0.1206
 4379SOL     OW24769   1.091   1.686   3.655  0.1197 -0.2065 -0.3302
 4379SOL    HW124770   1.018   1.631   3.683 -0.5671  1.3233  0.9336
 4379SOL    HW224771   1.148   1.672   3.731  2.1402  3.3182 -1.1891
 4380SOL     OW24772   4.477   0.204  17.218 -0.0464 -0.2973 -0.7120
 4380SOL    HW124773   4.464   0.121  17.172 -1.0614 -1.3704  1.4923
 4380SOL    HW224774   4.437   0.203  17.306  1.7669  3.1082  0.1565
 4381SOL     OW24775   2.039   0.222   4.827 -0.0941 -0.2464  0.0434
 4381SOL    HW124776   2.120   0.246   4.873 -1.1916  2.2607  0.6293
 4381SOL    HW224777   2.024   0.300   4.775 -0.3339 -0.4244 -0.1537
 4382SOL     OW24778   0.627   2.893   7.813 -0.3499  0.1639 -0.3081
 4382SOL    HW124779   0.721   2.911   7.806 -0.0582 -1.6944 -1.1475
 4382SOL    HW224780   0.585   2.972   7.779 -0.3901 -0.3198 -1.3830
 4383SOL     OW24781   2.181   4.046   5.716 -0.2442  0.1993  0.1715
 4383SOL    HW124782   2.175   4.134   5.754 -0.3798  1.2027 -2.1714
 4383SOL    HW224783   2.115   3.990   5.756 -0.0529  1.0702  1.6964
 4384SOL     OW24784   4.458   0.232   3.971  0.0365  0.1733 -0.6184
 4384SOL    HW124785   4.429   0.207   4.058  0.5829 -0.5018 -0.6269
 4384SOL    HW224786   4.421   0.320   3.965 -0.3389  0.0186 -0.5539
 4385SOL     OW24787   0.782   4.159  11.163 -0.1790  0.3888 -0.1272
 4385SOL    HW124788   0.875   4.138  11.166 -0.2635 -0.0548 -0.8328
 4385SOL    HW224789   0.786   4.245  11.207  1.4847 -0.5685  1.6077
 4386SOL     OW24790   1.451   0.949   5.736  0.5393 -0.2780  0.3344
 4386SOL    HW124791   1.378   0.898   5.701 -1.2599  0.3509  3.1742
 4386SOL    HW224792   1.522   0.921   5.677  0.4122  0.1408 -0.0168
 4387SOL     OW24793   3.959   2.761   1.711 -0.1389  0.3773 -0.4662
 4387SOL    HW124794   3.997   2.688   1.759 -1.6271  1.7326  2.7651
 4387SOL    HW224795   3.937   2.812   1.789  0.9362  0.3573 -0.1558
 4388SOL     OW24796   0.423   2.261   0.306 -0.6311  0.2027 -0.3337
 4388SOL    HW124797   0.448   2.348   0.336  1.5698 -0.1931 -1.0236
 4388SOL    HW224798   0.439   2.201   0.380 -1.8952 -1.3987 -1.3608
 4389SOL     OW24799   3.512   2.793   8.636  0.3025 -0.0001  0.6099
 4389SOL    HW124800   3.488   2.748   8.717 -1.4177  3.1669  1.8339
 4389SOL    HW224801   3.608   2.788   8.644  0.4083 -0.2567 -0.7004
 4390SOL     OW24802   1.314   3.528  11.334 -0.0145 -0.8679  0.2808
 4390SOL    HW124803   1.288   3.555  11.246  0.0827  1.5623  0.9862
 4390SOL    HW224804   1.256   3.453  11.345  1.9701 -2.2235  1.2815
 4391SOL     OW24805   1.855   1.617   2.544 -0.1292 -0.3369 -0.0256
 4391SOL    HW124806   1.854   1.678   2.617  0.1175 -0.7260  0.2995
 4391SOL    HW224807   1.856   1.534   2.593  0.7239  0.1980  0.8403
 4392SOL     OW24808   0.265   3.692   5.626  0.1409 -0.1051  0.2938
 4392SOL    HW124809   0.197   3.714   5.563  2.8566  3.2112 -1.4490
 4392SOL    HW224810   0.235   3.744   5.701 -1.1679  0.9437 -0.9585
 4393SOL     OW24811   2.095   2.524   2.308 -0.1319  0.3729 -0.6392
 4393SOL    HW124812   2.008   2.486   2.298 -1.3670  2.0005  3.7423
 4393SOL    HW224813   2.094   2.591   2.241  1.8301 -0.9960 -2.0200
 4394SOL     OW24814   0.075   1.311  15.997 -0.0177  0.0011 -0.6532
 4394SOL    HW124815   0.081   1.336  16.089  0.3811  2.5838 -1.3676
 4394SOL    HW224816   0.162   1.329  15.961  0.8769 -1.6145  0.6882
 4395SOL     OW24817   2.323   0.668  16.220 -0.0775 -0.4717 -0.0763
 4395SOL    HW124818   2.274   0.716  16.153  0.2838 -1.0067 -0.7281
 4395SOL    HW224819   2.321   0.581  16.180 -0.8388 -1.3215  1.7842
 4396SOL     OW24820   2.993   3.320   2.448 -0.2453  0.1359  0.5287
 4396SOL    HW124821   3.074   3.283   2.482  1.0786 -0.1753 -3.0068
 4396SOL    HW224822   2.956   3.233   2.431  0.8716  0.2590 -2.4743
 4397SOL     OW24823   0.827   1.337   1.195  0.0681  0.3135 -0.4018
 4397SOL    HW124824   0.764   1.266   1.210  1.5735 -0.8386  0.3964
 4397SOL    HW224825   0.772   1.403   1.152  0.0316 -1.2180 -2.7288
 4398SOL     OW24826   3.643   2.353   5.039  1.0610 -0.1133  0.6170
 4398SOL    HW124827   3.719   2.386   5.087  0.0879  1.8392  0.8253
 4398SOL    HW224828   3.626   2.272   5.087 -1.7730 -0.6195 -1.3009
 4399SOL     OW24829   2.550   0.175   7.973 -0.0178  0.6534  0.3136
 4399SOL    HW124830   2.627   0.124   7.999 -0.1185 -1.5758 -3.7962
 4399SOL    HW224831   2.495   0.171   8.051 -0.6761 -0.3402 -0.1865
 4400SOL     OW24832   3.771   0.916   0.502 -0.3716  0.1703 -0.2996
 4400SOL    HW124833   3.694   0.939   0.450  1.0595  2.9658 -1.1717
 4400SOL    HW224834   3.809   0.837   0.464  0.1109  0.7487 -1.0293
 4401SOL     OW24835   2.915   3.059   2.366  0.1890  0.2506 -0.0096
 4401SOL    HW124836   2.891   2.967   2.378 -0.2526  0.2491 -0.9156
 4401SOL    HW224837   2.930   3.066   2.272  0.7370 -0.0691  0.0563
 4402SOL     OW24838   1.040   4.183  13.203 -0.2277 -0.4515 -0.5530
 4402SOL    HW124839   1.036   4.200  13.109 -0.1585 -1.7675 -0.8029
 4402SOL    HW224840   1.118   4.234  13.226 -0.9112  1.1835 -1.8767
 4403SOL     OW24841   1.233   2.013   7.435  0.6871  0.5626 -0.4551
 4403SOL    HW124842   1.284   1.959   7.376  1.2673 -0.2402  0.7673
 4403SOL    HW224843   1.216   2.082   7.372  1.0843  1.1762  0.1010
 4404SOL     OW24844   2.235   1.054   8.442  0.9721 -0.3043 -0.3703
 4404SOL    HW124845   2.198   1.077   8.527  2.3937  0.0853  0.1463
 4404SOL    HW224846   2.205   0.963   8.442  1.9369 -0.6246 -0.8006
 4405SOL     OW24847   2.803   0.719   2.204 -0.7666  0.2907  0.2497
 4405SOL    HW124848   2.859   0.796   2.194 -0.4351  0.1648  1.1179
 4405SOL    HW224849   2.718   0.744   2.170 -1.0644  0.0747  0.8364
 4406SOL     OW24850   1.682   1.638  16.441 -0.0343 -0.1788 -0.5108
 4406SOL    HW124851   1.626   1.685  16.503 -1.4320 -0.9099 -1.2183
 4406SOL    HW224852   1.761   1.611  16.489 -1.0171 -2.4343 -0.1625
 4407SOL     OW24853   0.510   0.077   1.141  1.0863  0.4206  0.0206
 4407SOL    HW124854   0.553   0.133   1.205  0.0197  0.1506  0.9850
 4407SOL    HW224855   0.441   0.033   1.192  0.2600 -0.7207 -2.0625
 4408SOL     OW24856   3.241   4.495   4.815  0.3804  0.1200 -0.3283
 4408SOL    HW124857   3.270   4.544   4.892 -1.0075  2.3390 -1.2222
 4408SOL    HW224858   3.192   4.563   4.768  3.2931  0.7576 -2.4401
 4409SOL     OW24859   0.087   1.012   4.121 -0.2413  0.8787  0.1766
 4409SOL    HW124860   0.160   1.073   4.135 -1.0031  1.7418  0.3957
 4409SOL    HW224861   0.127   0.930   4.149 -1.0185  0.6575  0.6361
 4410SOL     OW24862   3.839   2.926   7.920 -0.4041 -0.1836  0.0418
 4410SOL    HW124863   3.897   3.000   7.937 -1.7670  1.3061 -1.8900
 4410SOL    HW224864   3.893   2.866   7.868 -3.5855 -1.0038 -2.3074
 4411SOL     OW24865   0.039   0.108   4.134 -0.2604  0.4287 -0.4141
 4411SOL    HW124866   0.131   0.088   4.117 -0.3971  1.9018 -2.9108
 4411SOL    HW224867   0.003   0.036   4.082 -1.0549 -1.0762  2.2208
 4412SOL     OW24868   3.840   4.481  16.875 -1.1943 -0.2951 -0.0195
 4412SOL    HW124869   3.861   4.557  16.822 -2.0241  0.7122  1.1062
 4412SOL    HW224870   3.847   4.524  16.960 -1.2554 -1.3642  0.5289
 4413SOL     OW24871   1.041   1.530   1.443 -0.1887  0.0863 -0.5532
 4413SOL    HW124872   1.125   1.570   1.419  0.1786 -0.5017 -0.2533
 4413SOL    HW224873   0.995   1.609   1.470  2.0036  0.1227  3.0017
 4414SOL     OW24874   2.817   0.580   7.524 -0.4884 -1.0033 -0.6091
 4414SOL    HW124875   2.892   0.612   7.575 -0.4853  2.1345 -2.6434
 4414SOL    HW224876   2.835   0.487   7.508 -1.1213 -0.9617 -1.5564
 4415SOL     OW24877   4.449   0.733   2.887 -0.2189 -0.2116 -0.1324
 4415SOL    HW124878   4.544   0.743   2.880 -0.2646  0.8751  0.8280
 4415SOL    HW224879   4.450   0.644   2.923  0.1175  0.0160  0.4258
 4416SOL     OW24880   0.508   1.488   7.894  0.5293  0.3181 -0.3570
 4416SOL    HW124881   0.595   1.500   7.933 -0.5337  1.7644  1.5447
 4416SOL    HW224882   0.534   1.430   7.822 -1.4054 -0.4464 -0.4585
 4417SOL     OW24883   1.036   2.550   4.330  0.4193 -0.1156  0.1699
 4417SOL    HW124884   1.121   2.559   4.286  0.6381 -0.5605  0.5043
 4417SOL    HW224885   1.023   2.618   4.396 -0.0543  1.2344 -1.2960
 4418SOL     OW24886   0.417   4.647  11.531 -0.1988  0.6798 -0.0745
 4418SOL    HW124887   0.496   4.698  11.513  1.1527 -0.9936  1.1208
 4418SOL    HW224888   0.373   4.656  11.446  0.4480 -2.0558 -0.7050
 4419SOL     OW24889   3.418   2.385   6.634 -0.1379  0.0484 -0.1490
 4419SOL    HW124890   3.330   2.392   6.598 -0.2071 -2.4217 -0.3968
 4419SOL    HW224891   3.413   2.331   6.712 -0.7368  2.9117  1.8072
 4420SOL     OW24892   0.560   1.179   8.425 -0.4893  0.3525  0.0631
 4420SOL    HW124893   0.506   1.257   8.410 -0.4815 -0.1257 -2.2934
 4420SOL    HW224894   0.522   1.155   8.510 -0.4272 -1.3309 -0.3962
 4421SOL     OW24895   3.648   0.702   7.503  0.1554  0.3652  0.3777
 4421SOL    HW124896   3.562   0.721   7.466  1.7977  3.1066 -2.0187
 4421SOL    HW224897   3.648   0.608   7.524 -0.0532  0.8135  2.3422
 4422SOL     OW24898   3.363   0.446  15.460 -0.1902  0.0500  0.2437
 4422SOL    HW124899   3.288   0.387  15.470 -1.0588  0.7707 -2.0124
 4422SOL    HW224900   3.434   0.382  15.452 -1.0430 -1.0291  1.1057
 4423SOL     OW24901   3.373   4.306   3.656 -0.2027  0.2611  0.0168
 4423SOL    HW124902   3.307   4.242   3.679  1.1278 -1.0013  0.3166
 4423SOL    HW224903   3.435   4.254   3.605 -1.9294 -0.7751 -1.0218
 4424SOL     OW24904   3.524   1.934   4.952  0.1337  0.1069 -0.0771
 4424SOL    HW124905   3.573   1.852   4.950 -1.1354 -0.6456  0.1123
 4424SOL    HW224906   3.503   1.954   4.861  0.3896 -1.8687 -0.5557
 4425SOL     OW24907   1.659   1.264   2.832 -0.1450  0.0624  0.0703
 4425SOL    HW124908   1.744   1.257   2.877 -0.5695  2.0729  1.1674
 4425SOL    HW224909   1.599   1.262   2.907 -2.4069 -0.0287 -1.7569
 4426SOL     OW24910   2.428   2.651   6.389  0.2341 -0.1201 -0.1782
 4426SOL    HW124911   2.443   2.745   6.376  0.0477 -0.2587 -1.4287
 4426SOL    HW224912   2.375   2.640   6.310  0.1039 -0.2627 -0.0694
 4427SOL     OW24913   1.890   3.115   0.693 -0.2656  0.2897  0.0065
 4427SOL    HW124914   1.939   3.053   0.639 -1.0539  0.0998 -0.4900
 4427SOL    HW224915   1.940   3.190   0.660  1.7981 -0.4037  1.5912
 4428SOL     OW24916   1.136   0.459   5.526  0.3479  0.3243 -0.0052
 4428SOL    HW124917   1.094   0.518   5.463 -1.8606 -1.4629 -0.1683
 4428SOL    HW224918   1.209   0.424   5.474 -0.3542 -0.0967 -0.6935
 4429SOL     OW24919   4.202   4.308   8.571  0.2726  0.2312 -0.2466
 4429SOL    HW124920   4.295   4.290   8.586  0.7822  1.5183 -1.8112
 4429SOL    HW224921   4.154   4.249   8.629 -2.7933  1.0146 -2.0084
 4430SOL     OW24922   4.432   1.314   6.675 -0.5222 -0.2740  0.5616
 4430SOL    HW124923   4.460   1.301   6.584  2.0213 -1.9419  1.5904
 4430SOL    HW224924   4.339   1.292   6.681 -0.3895 -0.7165  1.0140
 4431SOL     OW24925   0.729   2.879   4.890 -0.0458  0.1852 -0.0411
 4431SOL    HW124926   0.680   2.815   4.941  2.4657 -2.0041 -0.3532
 4431SOL    HW224927   0.772   2.820   4.828 -0.1570 -1.7233  1.7017
 4432SOL     OW24928   1.062   3.235   7.694 -0.0657  0.1221  0.3992
 4432SOL    HW124929   1.072   3.292   7.770 -1.3064 -0.9842  1.3929
 4432SOL    HW224930   0.983   3.182   7.707  0.2562 -0.5478 -0.4336
 4433SOL     OW24931   1.688   2.538   0.240 -0.2302  0.1230  0.0807
 4433SOL    HW124932   1.727   2.518   0.155 -0.7314 -1.3743  0.2046
 4433SOL    HW224933   1.635   2.464   0.270  0.5995 -0.3401  0.4214
 4434SOL     OW24934   3.183   0.120   8.187  0.3733  0.3004  0.1974
 4434SOL    HW124935   3.146   0.204   8.214 -2.2337 -0.5559 -0.6886
 4434SOL    HW224936   3.246   0.152   8.122  0.3164  0.7542  0.3701
 4435SOL     OW24937   2.940   3.386  14.327  0.1874  0.1698  0.2795
 4435SOL    HW124938   2.956   3.480  14.337 -1.5727  0.2892  2.1961
 4435SOL    HW224939   2.917   3.368  14.418 -1.3325 -3.1107 -0.7535
 4436SOL     OW24940   0.924   2.573   9.684  0.2952  0.2891  0.1272
 4436SOL    HW124941   0.919   2.535   9.771 -0.0152 -1.1697 -0.5225
 4436SOL    HW224942   1.017   2.594   9.677 -0.1286  2.2416  0.3406
 4437SOL     OW24943   0.528   4.051   7.166  0.3845  0.0133 -0.1913
 4437SOL    HW124944   0.542   4.138   7.203 -1.5613  1.3637 -2.6001
 4437SOL    HW224945   0.443   4.060   7.121 -0.4690 -0.2886  1.3615
 4438SOL     OW24946   1.050   1.266  17.262  0.1304 -0.4444  0.0441
 4438SOL    HW124947   1.070   1.333  17.197 -0.1990 -2.4006 -2.0749
 4438SOL    HW224948   0.955   1.277  17.272 -0.1121 -0.1318 -2.6635
 4439SOL     OW24949   3.792   2.719  15.961 -0.6009 -0.1131 -0.1726
 4439SOL    HW124950   3.832   2.765  15.888 -1.2662  1.5837  0.5413
 4439SOL    HW224951   3.839   2.756  16.036 -0.9271  1.3555 -0.7089
 4440SOL     OW24952   1.482   0.672   6.977  0.2345  0.3943  0.3527
 4440SOL    HW124953   1.552   0.693   6.915 -0.0140 -0.8397 -0.3301
 4440SOL    HW224954   1.531   0.657   7.058 -1.9596 -0.9092  1.4138
 4441SOL     OW24955   4.045   3.482   2.261 -0.0997 -0.2177  1.1708
 4441SOL    HW124956   4.000   3.465   2.344  0.6225 -1.6665  1.2666
 4441SOL    HW224957   4.130   3.438   2.262 -0.4322 -0.8623  0.8845
 4442SOL     OW24958   2.150   1.863   6.773  1.2037  0.3453 -0.6244
 4442SOL    HW124959   2.116   1.902   6.854 -2.0875 -0.7618 -1.4619
 4442SOL    HW224960   2.145   1.770   6.795 -0.8427  1.0712  2.0745
 4443SOL     OW24961   3.327   3.903   2.718 -0.1172 -0.1651 -0.0718
 4443SOL    HW124962   3.311   3.976   2.657 -0.5455 -0.9965 -0.9646
 4443SOL    HW224963   3.381   3.954   2.778 -2.4345  0.9187  1.0931
 4444SOL     OW24964   2.924   2.015   1.620  0.3244 -0.2876  0.0025
 4444SOL    HW124965   2.902   1.961   1.544 -0.2500 -0.9452  0.6409
 4444SOL    HW224966   2.918   2.099   1.574  0.5331 -0.0403  0.4231
 4445SOL     OW24967   1.487   3.175   4.017  0.4416 -0.1089  0.3526
 4445SOL    HW124968   1.489   3.268   3.992  1.0762 -0.4073 -0.7033
 4445SOL    HW224969   1.402   3.175   4.062  0.5840 -2.9578  0.5965
 4446SOL     OW24970   0.851   0.429   4.490 -0.0643 -0.2492  0.4055
 4446SOL    HW124971   0.910   0.416   4.416  0.4148  1.4900  0.4909
 4446SOL    HW224972   0.869   0.349   4.541  1.1610 -0.0799  0.2385
 4447SOL     OW24973   1.296   3.645   4.619  0.2227 -0.0779  0.1942
 4447SOL    HW124974   1.276   3.668   4.528 -2.1561 -0.4081  0.6393
 4447SOL    HW224975   1.328   3.555   4.606  0.3283  0.3541 -2.4878
 4448SOL     OW24976   4.604   3.912   3.558 -0.5873  0.5710 -0.1711
 4448SOL    HW124977   4.547   3.879   3.628 -1.7521  1.7854 -0.5640
 4448SOL    HW224978   4.687   3.865   3.565 -1.6322 -1.0085  1.6980
 4449SOL     OW24979   1.970   0.361   8.423 -0.3229 -0.0150 -0.2031
 4449SOL    HW124980   2.050   0.323   8.460  0.2628 -0.1934 -1.6254
 4449SOL    HW224981   1.905   0.330   8.486 -0.6389 -0.7501 -0.8899
 4450SOL     OW24982   3.489   2.062   2.942  0.0610  0.2615  0.0461
 4450SOL    HW124983   3.486   2.151   2.977 -2.3913 -0.0510  0.5908
 4450SOL    HW224984   3.515   2.020   3.025 -1.5395 -0.9147 -0.0358
 4451SOL     OW24985   4.013   3.395  10.986 -0.1288  0.4147  0.0695
 4451SOL    HW124986   3.933   3.371  11.031 -0.9875  2.5276 -0.3405
 4451SOL    HW224987   3.999   3.344  10.906 -1.8298  0.0044  0.6271
 4452SOL     OW24988   3.055   2.121  13.290 -0.0207  0.6614 -1.2794
 4452SOL    HW124989   3.032   2.028  13.284 -3.3298  1.4694 -0.9842
 4452SOL    HW224990   3.151   2.125  13.289  0.0839 -1.6916  0.2179
 4453SOL     OW24991   1.539   1.471   8.527 -0.6172  0.2792 -0.1598
 4453SOL    HW124992   1.492   1.391   8.504 -0.7629  0.5614 -0.8590
 4453SOL    HW224993   1.625   1.468   8.484 -1.5531 -0.8483 -1.9785
 4454SOL     OW24994   2.302   0.814   1.529 -0.8568 -0.4502 -0.3685
 4454SOL    HW124995   2.242   0.857   1.468 -2.1820 -1.1624  0.4316
 4454SOL    HW224996   2.362   0.882   1.560 -0.1905 -1.1920 -0.0313
 4455SOL     OW24997   2.318   1.015  10.843  0.6534 -0.1042  0.0723
 4455SOL    HW124998   2.375   0.950  10.803 -0.2279 -0.3538 -0.7932
 4455SOL    HW224999   2.299   0.978  10.929  1.5299 -0.6794  0.0091
 4456SOL     OW25000   0.118   1.782   3.549 -0.3392  0.1969  0.3796
 4456SOL    HW125001   0.082   1.869   3.565  0.3625  0.6049 -0.2564
 4456SOL    HW225002   0.057   1.752   3.482 -0.8270  0.8117  0.5465
 4457SOL     OW25003   4.714   1.282  15.357 -0.2974  0.3473  0.1362
 4457SOL    HW125004   0.054   1.339  15.341  0.9719 -1.1295  0.7366
 4457SOL    HW225005   4.639   1.340  15.346 -1.7721 -1.1045  2.5346
 4458SOL     OW25006   0.911   2.889   5.529  0.0561  0.7426  0.2597
 4458SOL    HW125007   0.947   2.801   5.529 -0.0938  0.6871 -1.1647
 4458SOL    HW225008   0.988   2.944   5.510  1.0316 -0.8666 -0.3839
 4459SOL     OW25009   1.149   4.251  17.176  0.3146 -0.3616  0.1958
 4459SOL    HW125010   1.233   4.213  17.150  0.6191  0.6084 -0.2564
 4459SOL    HW225011   1.079   4.191  17.150 -0.3131  0.6192 -0.4201
 4460SOL     OW25012   3.411   1.609   9.647  0.6084  0.8465  0.2404
 4460SOL    HW125013   3.464   1.590   9.570 -1.0382  1.3206 -0.9959
 4460SOL    HW225014   3.332   1.615   9.593 -0.1920 -3.4591  0.9125
 4461SOL     OW25015   4.208   2.900   5.334  0.5350 -0.0266  0.1717
 4461SOL    HW125016   4.173   2.938   5.253 -1.5737 -0.6438  0.8009
 4461SOL    HW225017   4.296   2.882   5.302  0.2369 -0.9599 -0.1319
 4462SOL     OW25018   4.091   4.520   7.950  0.1212 -0.0038  0.2476
 4462SOL    HW125019   4.167   4.507   8.007  0.4378 -0.7553 -0.3551
 4462SOL    HW225020   4.042   4.449   7.991  2.8698 -1.6597  0.7024
 4463SOL     OW25021   4.373   4.565   7.632  0.1780 -0.3664 -0.5514
 4463SOL    HW125022   4.301   4.595   7.576  0.2246  3.9757  1.7619
 4463SOL    HW225023   4.340   4.581   7.720 -0.3829  1.6425 -1.1171
 4464SOL     OW25024   3.522   1.382   8.257 -0.7352  0.3451 -0.5130
 4464SOL    HW125025   3.570   1.438   8.317  1.8702  0.2171 -2.4998
 4464SOL    HW225026   3.547   1.295   8.290  3.2810  1.7307  0.0405
 4465SOL     OW25027   0.087   4.515  11.487 -0.0271  0.5221  0.1575
 4465SOL    HW125028   0.004   4.509  11.534  1.1769 -0.6969  2.1257
 4465SOL    HW225029   0.111   4.423  11.492  0.6055  0.4580 -4.3643
 4466SOL     OW25030   3.387   1.172   8.494  0.0724  0.2357  0.0500
 4466SOL    HW125031   3.295   1.177   8.470 -0.6757 -1.1519  2.6223
 4466SOL    HW225032   3.387   1.097   8.553  1.3471 -0.9349 -1.4485
 4467SOL     OW25033   2.478   0.766  17.161  0.1715 -0.0937 -0.5697
 4467SOL    HW125034   2.437   0.704  17.222  0.2841  0.0078 -0.3940
 4467SOL    HW225035   2.394   0.802  17.130 -0.0203  1.1566  1.3808
 4468SOL     OW25036   0.083   1.845   5.203 -0.0957  0.4227 -0.0517
 4468SOL    HW125037   0.052   1.754   5.205  2.9422 -0.6917 -3.4209
 4468SOL    HW225038   0.108   1.856   5.112  1.7921 -0.4812  0.3559
 4469SOL     OW25039   4.716   4.287   5.002  0.0278  0.2005 -0.2481
 4469SOL    HW125040   0.060   4.249   5.040 -0.4170  0.8333  1.3187
 4469SOL    HW225041   4.668   4.207   4.982  1.1570 -0.1883 -1.4255
 4470SOL     OW25042   0.063   2.986   8.246  0.4318  0.4424 -0.1099
 4470SOL    HW125043   0.141   2.959   8.198 -0.9243 -1.6612 -1.1387
 4470SOL    HW225044   0.039   2.907   8.295 -0.0221  1.1181  0.7691
 4471SOL     OW25045   2.148   1.930   6.082 -0.7615  0.0644 -0.9145
 4471SOL    HW125046   2.220   1.889   6.131 -1.4133 -0.6795 -0.5871
 4471SOL    HW225047   2.083   1.862   6.100 -1.5935  1.2674  0.6379
 4472SOL     OW25048   2.531   3.340   2.322 -0.9252 -0.3689  0.1242
 4472SOL    HW125049   2.458   3.371   2.376  0.8630  5.0094 -0.5088
 4472SOL    HW225050   2.559   3.257   2.361 -0.9509  0.8541  2.7482
 4473SOL     OW25051   0.962   4.120   4.815 -0.5053 -0.6777  0.7476
 4473SOL    HW125052   1.012   4.194   4.850 -0.9217  0.2177 -0.5435
 4473SOL    HW225053   1.040   4.073   4.784 -0.8233  0.5976 -2.0434
 4474SOL     OW25054   3.829   4.249   1.831 -0.6579  0.0995 -0.1434
 4474SOL    HW125055   3.781   4.239   1.913  1.8222 -2.6543  0.9563
 4474SOL    HW225056   3.755   4.256   1.771 -0.6346 -1.1685 -0.3060
 4475SOL     OW25057   0.747   1.529   8.007  0.0494  0.4709 -1.2755
 4475SOL    HW125058   0.778   1.467   8.074  2.7249  2.4067 -0.7234
 4475SOL    HW225059   0.793   1.611   8.023 -1.8031  1.7337 -2.3713
 4476SOL     OW25060   2.215   4.301   3.130 -0.0048  0.8127  0.6191
 4476SOL    HW125061   2.196   4.343   3.214 -1.9496  0.8134  0.1913
 4476SOL    HW225062   2.264   4.227   3.165  0.3536 -0.2834 -2.1725
 4477SOL     OW25063   1.242   4.220   4.239  0.3093 -0.3375 -0.2510
 4477SOL    HW125064   1.313   4.256   4.292 -0.3390  0.3859  0.1312
 4477SOL    HW225065   1.243   4.124   4.250 -0.5008 -0.4048 -0.7941
 4478SOL     OW25066   3.086   3.963   0.131  0.2040  0.2643 -0.5079
 4478SOL    HW125067   3.117   3.966   0.222 -2.4151 -0.9354  0.4231
 4478SOL    HW225068   3.015   3.901   0.147 -1.3410  1.5689 -2.3288
 4479SOL     OW25069   2.286   3.659   5.022 -0.2842 -0.4542 -0.1406
 4479SOL    HW125070   2.198   3.680   4.993 -0.3386 -1.3493 -0.6221
 4479SOL    HW225071   2.301   3.724   5.091 -0.9532  0.4223 -0.8227
 4480SOL     OW25072   0.009   0.422   5.150  0.1465 -0.1437  0.3211
 4480SOL    HW125073   4.691   0.449   5.226  2.6086  0.2862  1.8707
 4480SOL    HW225074   4.689   0.363   5.099 -1.2963  0.4560  1.1674
 4481SOL     OW25075   2.599   3.472  12.110 -0.1617  0.3148  0.0723
 4481SOL    HW125076   2.632   3.559  12.133  0.7753 -0.8970  3.2932
 4481SOL    HW225077   2.579   3.444  12.199  1.0464 -1.3500 -0.1880
 4482SOL     OW25078   1.283   1.113  17.211 -0.2083 -0.0015 -0.2926
 4482SOL    HW125079   1.248   1.101  17.123  2.4287 -2.1114 -1.0503
 4482SOL    HW225080   1.207   1.163  17.242 -0.7231 -0.3628 -0.9719
 4483SOL     OW25081   3.622   3.643  15.044  0.4498 -0.0466  0.2390
 4483SOL    HW125082   3.593   3.605  14.961 -0.4022  1.9237 -0.3624
 4483SOL    HW225083   3.713   3.664  15.023 -0.3415  1.3554 -1.7513
 4484SOL     OW25084   2.736   4.029   6.944  0.0673 -0.0685  0.3459
 4484SOL    HW125085   2.787   3.973   6.885  0.1441  0.3993 -0.0351
 4484SOL    HW225086   2.654   4.050   6.899 -0.0302  1.6878  1.3637
 4485SOL     OW25087   3.602   1.486  11.414  0.3332  0.0122  0.1962
 4485SOL    HW125088   3.530   1.550  11.420 -0.4126 -0.8490  0.4130
 4485SOL    HW225089   3.562   1.405  11.446  1.1172 -0.3736  0.1843
 4486SOL     OW25090   3.369   4.612   4.330 -0.1498 -0.2515  0.1233
 4486SOL    HW125091   3.286   4.657   4.312  1.8662  3.7396  0.8444
 4486SOL    HW225092   3.435   4.682   4.327  2.0309 -2.2800  1.0474
 4487SOL     OW25093   1.418   0.014   7.748  0.1862 -0.8088  0.6708
 4487SOL    HW125094   1.386   4.663   7.775  0.2165 -1.1213 -0.3047
 4487SOL    HW225095   1.507   0.016   7.785  0.7720  2.0545 -0.8906
 4488SOL     OW25096   3.535   3.523   5.139 -0.3811  0.0023  0.2218
 4488SOL    HW125097   3.549   3.588   5.207  1.9291  2.3642 -2.5039
 4488SOL    HW225098   3.624   3.498   5.115 -0.0126 -0.1716  1.7710
 4489SOL     OW25099   1.138   3.642   6.702  0.3085 -0.1458  0.4181
 4489SOL    HW125100   1.137   3.609   6.792  1.1011  0.2356  0.5637
 4489SOL    HW225101   1.104   3.561   6.664 -0.3154 -1.1767  3.1507
 4490SOL     OW25102   4.301   3.523   8.988 -0.3187  0.4069 -0.8693
 4490SOL    HW125103   4.297   3.616   9.010 -2.3915  0.1427 -0.1173
 4490SOL    HW225104   4.209   3.497   8.994  0.4634 -1.7616  1.6535
 4491SOL     OW25105   0.551   3.282   6.616  0.5384  0.0776 -0.1990
 4491SOL    HW125106   0.479   3.344   6.619  0.0550 -0.4308 -1.2470
 4491SOL    HW225107   0.507   3.203   6.648  0.0556 -0.0426 -1.1521
 4492SOL     OW25108   4.567   4.084   1.019 -0.6361  0.3017 -0.3008
 4492SOL    HW125109   4.510   4.119   1.087  0.6505  1.5165  0.1240
 4492SOL    HW225110   4.646   4.128   1.049 -1.3958  0.9082  0.7844
 4493SOL     OW25111   3.543   0.291   0.802  0.1446  0.6178  0.6292
 4493SOL    HW125112   3.621   0.321   0.755  0.5981 -2.2864 -0.4756
 4493SOL    HW225113   3.542   0.343   0.883 -1.7088  0.3765  0.7512
 4494SOL     OW25114   0.124   3.871   3.781 -0.0919 -0.1618  1.1629
 4494SOL    HW125115   0.102   3.787   3.741  0.7560 -1.2256  2.9346
 4494SOL    HW225116   0.179   3.911   3.714 -0.7262 -1.6213 -0.2363
 4495SOL     OW25117   1.147   0.920   5.574  0.1594  0.1992 -0.4125
 4495SOL    HW125118   1.122   0.853   5.511  2.4444 -0.3320 -0.7370
 4495SOL    HW225119   1.152   0.862   5.650  1.1255 -0.5652 -1.0654
 4496SOL     OW25120   3.679   0.468   3.316  0.0350  0.0560  0.0859
 4496SOL    HW125121   3.764   0.508   3.301  0.7675 -1.7131 -0.5328
 4496SOL    HW225122   3.706   0.410   3.388 -1.2676 -0.3739  0.2397
 4497SOL     OW25123   2.142   0.464   5.453 -0.0753 -0.9721 -0.0535
 4497SOL    HW125124   2.126   0.503   5.539  0.8548  1.0284 -0.7929
 4497SOL    HW225125   2.209   0.519   5.414 -0.7160 -1.6195 -2.0476
 4498SOL     OW25126   0.120   1.027   1.379 -0.0408  0.1909  0.7067
 4498SOL    HW125127   0.120   1.087   1.453 -0.9830  0.7847  0.2204
 4498SOL    HW225128   0.194   1.064   1.331  0.7547 -0.7057  1.2270
 4499SOL     OW25129   3.792   0.548   2.704  0.7609 -0.1329  0.3276
 4499SOL    HW125130   3.803   0.572   2.613 -1.6915 -0.0819  0.0563
 4499SOL    HW225131   3.876   0.506   2.722  1.2168  0.3883 -0.6355
 4500SOL     OW25132   0.752   1.604   7.129  0.0261 -0.6811  0.2058
 4500SOL    HW125133   0.720   1.660   7.200 -2.0617  0.6952 -1.8632
 4500SOL    HW225134   0.684   1.537   7.136  1.9121 -2.3260  2.8940
 4501SOL     OW25135   1.207   3.777   9.014  0.5960 -0.7337  0.6771
 4501SOL    HW125136   1.289   3.787   8.965  0.1861 -0.7484 -0.0081
 4501SOL    HW225137   1.215   3.683   9.033  2.4317 -0.6623  0.2573
 4502SOL     OW25138   1.771   0.757   8.914  0.4147 -0.6806  0.3461
 4502SOL    HW125139   1.778   0.689   8.847 -0.9148 -1.0397  0.5899
 4502SOL    HW225140   1.731   0.828   8.863 -0.2214  0.4546  2.4537
 4503SOL     OW25141   3.721   4.493   7.349  0.0434  0.5397  0.3156
 4503SOL    HW125142   3.769   4.556   7.402 -0.9177  1.8833 -0.4190
 4503SOL    HW225143   3.732   4.522   7.259  1.9994  0.3912  0.4996
 4504SOL     OW25144   0.704   3.020   7.189  0.0671 -0.0252 -0.3464
 4504SOL    HW125145   0.695   2.972   7.107  0.2931 -0.0209 -0.3749
 4504SOL    HW225146   0.616   3.044   7.219 -1.2754 -5.0289 -0.3837
 4505SOL     OW25147   3.852   0.209   2.012  0.4867 -0.1488  0.5259
 4505SOL    HW125148   3.768   0.234   1.972 -0.4504 -0.2209  2.4649
 4505SOL    HW225149   3.843   0.114   2.024 -0.6655 -0.2810 -1.2834
 4506SOL     OW25150   2.855   1.268   7.831 -0.4102 -0.0063  0.2631
 4506SOL    HW125151   2.871   1.345   7.777 -1.0525  0.4880  0.7854
 4506SOL    HW225152   2.934   1.222   7.802 -1.6626 -0.7359 -1.9834
 4507SOL     OW25153   2.289   3.573   2.020  0.0575 -0.2136 -0.5141
 4507SOL    HW125154   2.239   3.605   2.095 -0.0058 -1.5811  0.0344
 4507SOL    HW225155   2.302   3.658   1.979  1.6696  0.0839  0.5961
 4508SOL     OW25156   1.992   0.697   1.205  0.1693 -0.2566  0.6039
 4508SOL    HW125157   2.051   0.630   1.168  1.0852  1.0073 -0.2309
 4508SOL    HW225158   2.058   0.765   1.193  1.8037 -2.1869 -1.4860
 4509SOL     OW25159   0.127   0.089   8.228  0.4002 -0.1567  0.4461
 4509SOL    HW125160   0.205   0.140   8.209 -1.1031  1.0898 -2.3626
 4509SOL    HW225161   0.087   0.146   8.294 -1.8571 -0.0182 -1.0737
 4510SOL     OW25162   1.924   0.308   9.683 -0.0955 -0.1377 -1.1088
 4510SOL    HW125163   1.952   0.217   9.696 -0.1674 -0.1065 -0.7365
 4510SOL    HW225164   1.994   0.357   9.726 -1.7130 -0.1850  1.5406
 4511SOL     OW25165   4.646   3.670   8.299  0.7255 -0.3137  0.4232
 4511SOL    HW125166   4.709   3.633   8.237  2.2631  0.8171  1.2823
 4511SOL    HW225167   4.656   3.626   8.383  2.2350  3.2886  2.1581
 4512SOL     OW25168   1.408   1.536   8.757  0.0385  0.0146 -0.1323
 4512SOL    HW125169   1.477   1.546   8.823  0.7606  1.1243 -1.0561
 4512SOL    HW225170   1.467   1.518   8.684  1.0563 -0.6134  0.8376
 4513SOL     OW25171   3.732   1.524  10.523  0.6111 -0.5342 -0.1416
 4513SOL    HW125172   3.655   1.542  10.469  0.0407 -0.7896  0.5781
 4513SOL    HW225173   3.688   1.486  10.600 -0.8002  2.9582  0.7650
 4514SOL     OW25174   2.068   0.093   9.120 -0.3789  0.0249 -0.0428
 4514SOL    HW125175   2.016   0.168   9.147  0.1139  0.6640 -0.8662
 4514SOL    HW225176   2.018   0.020   9.157 -0.5668  0.7028  1.0169
 4515SOL     OW25177   3.218   1.963   3.172 -0.0663 -0.4931  0.4839
 4515SOL    HW125178   3.265   1.954   3.256  2.3521  0.6837 -0.7526
 4515SOL    HW225179   3.191   2.054   3.170  1.8240  0.0419 -0.6919
 4516SOL     OW25180   4.042   1.704   6.599 -0.0785  0.2321  0.0867
 4516SOL    HW125181   3.985   1.777   6.625 -2.3521 -1.4730 -0.0871
 4516SOL    HW225182   3.984   1.628   6.604  0.3345 -0.0453  0.5842
 4517SOL     OW25183   3.958   3.673   5.379 -0.0665  0.2135  0.4311
 4517SOL    HW125184   4.033   3.730   5.393  0.9188 -0.6955 -1.1041
 4517SOL    HW225185   3.994   3.589   5.409  3.1684  1.3665 -0.2076
 4518SOL     OW25186   0.779   1.562   6.341  0.1424 -0.0542 -0.4430
 4518SOL    HW125187   0.823   1.647   6.337  3.2326 -1.7314 -2.4088
 4518SOL    HW225188   0.840   1.519   6.281 -0.6452  0.9480 -1.9650
 4519SOL     OW25189   4.597   1.431  15.872  0.7259  0.2091 -0.0301
 4519SOL    HW125190   4.632   1.404  15.787  0.7634 -3.2058  1.0749
 4519SOL    HW225191   4.673   1.409  15.926  0.1522  0.3010  0.8215
 4520SOL     OW25192   0.999   3.520   9.224 -0.3724  0.3335  0.4091
 4520SOL    HW125193   0.910   3.556   9.218 -1.2141 -1.9857 -1.2657
 4520SOL    HW225194   1.043   3.537   9.140  0.0239  0.8867  0.7361
 4521SOL     OW25195   0.579   4.300   8.155  0.1382 -0.4431 -0.3015
 4521SOL    HW125196   0.576   4.228   8.092 -0.2753  0.7033 -1.5959
 4521SOL    HW225197   0.647   4.259   8.208  0.1592 -0.2722 -0.1981
 4522SOL     OW25198   3.643   3.392  17.695 -0.4584  0.6783  0.6174
 4522SOL    HW125199   3.685   3.400  17.609  0.2275  1.4092  1.0187
 4522SOL    HW225200   3.631   3.483  17.723 -1.0597  0.6175  0.5613
 4523SOL     OW25201   2.102   4.276  10.842  0.0720 -0.0938 -0.1538
 4523SOL    HW125202   2.098   4.279  10.746  0.8252  0.2915 -0.1735
 4523SOL    HW225203   2.012   4.248  10.856  0.4206 -1.5007 -0.7429
 4524SOL     OW25204   0.740   3.894   0.508  0.7263  0.2905  0.5221
 4524SOL    HW125205   0.748   3.914   0.601  0.7884 -1.5952  0.9059
 4524SOL    HW225206   0.657   3.847   0.502  0.0561  1.4546  0.4865
 4525SOL     OW25207   4.634   2.086   4.027 -0.4591  0.0157 -0.4462
 4525SOL    HW125208   4.718   2.131   4.029 -0.4382 -0.0659  0.6288
 4525SOL    HW225209   4.676   2.001   4.036  1.4068  0.9373 -0.4046
 4526SOL     OW25210   2.700   2.360   8.751 -1.0499 -0.1714  0.2376
 4526SOL    HW125211   2.650   2.424   8.700 -0.1339  0.3043 -0.0706
 4526SOL    HW225212   2.646   2.347   8.829  0.8058 -0.2892  1.5068
 4527SOL     OW25213   3.207   3.649  16.057  0.1015  0.0253 -0.0853
 4527SOL    HW125214   3.284   3.628  16.005 -0.0596  0.9629 -0.6934
 4527SOL    HW225215   3.146   3.666  15.985  0.3419  0.1437 -0.2614
 4528SOL     OW25216   2.981   1.133  12.212  0.4236 -0.0432 -0.0871
 4528SOL    HW125217   3.045   1.117  12.281  0.6427 -0.8914 -0.4988
 4528SOL    HW225218   2.908   1.079  12.243  0.1333  1.0030  1.0655
 4529SOL     OW25219   2.602   1.603   6.690  0.5791  0.3050 -0.4271
 4529SOL    HW125220   2.565   1.687   6.719  2.7638  0.4272  1.9903
 4529SOL    HW225221   2.656   1.637   6.618 -0.9095  3.0199 -0.2770
 4530SOL     OW25222   0.019   2.189   9.720  0.3921 -0.6915  0.5848
 4530SOL    HW125223   4.704   2.108   9.712  0.1661 -0.7232  2.3286
 4530SOL    HW225224   0.020   2.196   9.815  0.1711 -1.0559  0.6159
 4531SOL     OW25225   0.942   0.072  14.294  0.1867 -0.1387  0.3765
 4531SOL    HW125226   0.918   0.027  14.213  0.7964 -1.5972  1.0076
 4531SOL    HW225227   0.940   0.165  14.273  0.4235 -0.0288  0.8529
 4532SOL     OW25228   0.400   3.038   6.556  0.6357  0.3027  0.7985
 4532SOL    HW125229   0.305   3.036   6.568  0.9909 -1.0436  3.2463
 4532SOL    HW225230   0.418   2.950   6.589 -1.4001 -0.2441  0.4390
 4533SOL     OW25231   0.058   0.730   7.910  0.2060 -0.3588 -0.1868
 4533SOL    HW125232   0.063   0.708   8.002 -0.5444 -2.8278 -0.7436
 4533SOL    HW225233   4.698   0.716   7.903  0.0670  0.8805 -0.8419
 4534SOL     OW25234   4.605   3.098   5.691  0.1507  0.0632  0.1676
 4534SOL    HW125235   4.541   3.169   5.702  0.0770  0.1311 -0.7298
 4534SOL    HW225236   4.603   3.089   5.596 -0.0104 -0.8002  0.2507
 4535SOL     OW25237   1.603   3.160   0.681  0.2141 -0.3625  0.5070
 4535SOL    HW125238   1.698   3.151   0.669  0.2599  2.2112 -0.9578
 4535SOL    HW225239   1.591   3.252   0.658  3.3351 -0.2593 -0.6688
 4536SOL     OW25240   3.460   2.350   4.807 -0.4938 -0.1819 -0.7676
 4536SOL    HW125241   3.388   2.289   4.824  0.9112 -2.0624 -1.5775
 4536SOL    HW225242   3.487   2.361   4.899 -0.3360  0.1331 -0.8527
 4537SOL     OW25243   2.978   0.015   7.742 -0.6023 -0.0539 -0.2679
 4537SOL    HW125244   2.890   4.720   7.764  0.4464 -1.3632  2.1448
 4537SOL    HW225245   3.028   4.692   7.799  1.5128  1.0634 -0.9592
 4538SOL     OW25246   0.915   2.500   3.984 -0.3265 -0.6980 -0.3120
 4538SOL    HW125247   0.924   2.530   3.893  3.2267  1.2050  0.6977
 4538SOL    HW225248   0.998   2.453   3.992  1.1129  1.9674  0.1782
 4539SOL     OW25249   0.621   1.784   5.358  0.2816 -0.4112  0.0574
 4539SOL    HW125250   0.696   1.740   5.399  1.0917 -0.8659 -1.8661
 4539SOL    HW225251   0.645   1.876   5.358 -0.5092 -0.2082 -1.2548
 4540SOL     OW25252   3.369   3.240  15.728  0.1692 -0.8788 -0.0177
 4540SOL    HW125253   3.324   3.323  15.745 -3.5021 -2.4759 -1.8906
 4540SOL    HW225254   3.350   3.216  15.638 -2.5169 -0.0580  0.3108
 4541SOL     OW25255   4.470   0.866   2.357  1.0091  0.6882 -0.2639
 4541SOL    HW125256   4.455   0.840   2.448  2.1059 -1.5784 -0.7237
 4541SOL    HW225257   4.415   0.944   2.354 -0.2736 -0.3659 -4.1346
 4542SOL     OW25258   2.910   3.953   4.159  0.3233  0.8332 -0.2869
 4542SOL    HW125259   2.919   3.940   4.253  0.7750  2.0111 -0.1588
 4542SOL    HW225260   2.949   3.873   4.123  0.4505  0.3541  0.9118
 4543SOL     OW25261   2.463   0.336   9.173 -0.1195  0.3407 -0.2198
 4543SOL    HW125262   2.467   0.371   9.084  0.2242 -1.9501 -1.1141
 4543SOL    HW225263   2.511   0.406   9.216 -1.1432  0.9668 -0.0960
 4544SOL     OW25264   2.420   3.792   3.345 -0.0633 -0.1018  0.3042
 4544SOL    HW125265   2.335   3.814   3.382 -0.1404 -2.0604  1.3321
 4544SOL    HW225266   2.405   3.796   3.251  1.7086 -0.1149  0.0188
 4545SOL     OW25267   0.591   0.944   2.109  0.6435  0.2544 -0.4605
 4545SOL    HW125268   0.625   0.854   2.107 -0.2640 -0.0006 -3.8321
 4545SOL    HW225269   0.556   0.963   2.022  1.5471  0.0707 -0.8625
 4546SOL     OW25270   0.899   3.442  15.100  0.9014  0.2158 -0.0383
 4546SOL    HW125271   0.909   3.409  15.190 -0.7089 -0.0810  0.0355
 4546SOL    HW225272   0.846   3.520  15.114  1.7179  0.2817  2.8434
 4547SOL     OW25273   0.532   1.315   1.523  0.1611 -0.3051 -0.2581
 4547SOL    HW125274   0.625   1.296   1.533  0.2545 -0.3293 -1.1522
 4547SOL    HW225275   0.521   1.371   1.600  2.3594 -0.4899  0.1916
 4548SOL     OW25276   3.025   4.489  12.714  0.0758  0.7538  0.8300
 4548SOL    HW125277   2.991   4.402  12.733  1.8259 -0.0182  0.4200
 4548SOL    HW225278   2.985   4.512  12.631 -0.0024  2.4811  1.3360
 4549SOL     OW25279   0.656   0.211   6.823 -0.1649  0.6921  0.2083
 4549SOL    HW125280   0.670   0.291   6.874 -3.0136  0.8738  0.7062
 4549SOL    HW225281   0.579   0.172   6.865 -0.8266  0.0455 -1.6325
 4550SOL     OW25282   2.576   2.129   5.517  0.6980 -0.6148 -0.4957
 4550SOL    HW125283   2.604   2.211   5.475  0.7257 -0.2589  0.2134
 4550SOL    HW225284   2.506   2.164   5.572  0.4756 -0.4504 -0.8787
 4551SOL     OW25285   1.378   3.463   4.839 -0.4970  0.0532  0.7748
 4551SOL    HW125286   1.337   3.541   4.802  0.6574  0.3698  0.1658
 4551SOL    HW225287   1.309   3.453   4.905 -1.2968 -0.2659 -0.1050
 4552SOL     OW25288   2.697   4.505   7.379 -0.0308 -0.2386 -0.2712
 4552SOL    HW125289   2.654   4.505   7.465  0.4220  0.1748 -0.0436
 4552SOL    HW225290   2.631   4.533   7.316  0.5766  1.4399 -0.1631
 4553SOL     OW25291   0.236   2.150  10.194  0.3477 -0.4355  0.6207
 4553SOL    HW125292   0.312   2.130  10.248  0.1234  0.2873  1.2047
 4553SOL    HW225293   0.274   2.218  10.138  1.7234 -0.7717  1.1563
 4554SOL     OW25294   0.552   4.511   5.756  0.1300  0.0570 -0.1781
 4554SOL    HW125295   0.499   4.457   5.698  2.0596 -3.5596  1.4489
 4554SOL    HW225296   0.623   4.547   5.702 -0.3160 -2.4202 -2.4188
 4555SOL     OW25297   0.227   1.206   6.428  0.2973 -0.0741  0.0153
 4555SOL    HW125298   0.240   1.177   6.518 -0.4065  1.3249  0.5679
 4555SOL    HW225299   0.132   1.216   6.430  0.3847  0.9661 -1.0296
 4556SOL     OW25300   2.044   1.751  13.126  0.3097  0.2490  0.6253
 4556SOL    HW125301   2.086   1.832  13.098  0.9302  0.3535  1.8570
 4556SOL    HW225302   2.095   1.737  13.206  1.6588 -0.3943 -0.3446
 4557SOL     OW25303   3.439   1.734   1.681 -0.0401 -0.1771 -0.2871
 4557SOL    HW125304   3.380   1.692   1.619 -0.3116 -0.6293  0.2775
 4557SOL    HW225305   3.389   1.734   1.763 -0.8017  1.3653 -0.7587
 4558SOL     OW25306   0.262   0.136   4.394  0.2418 -0.0652 -0.2062
 4558SOL    HW125307   0.263   0.198   4.322  3.3616 -1.2662 -1.2033
 4558SOL    HW225308   0.281   0.050   4.356  0.3851 -0.1348  0.0204
 4559SOL     OW25309   0.043   2.601  13.149 -0.6706 -0.4909  0.1188
 4559SOL    HW125310   0.052   2.513  13.113 -0.9328 -0.4134 -0.1317
 4559SOL    HW225311   4.690   2.596  13.188 -0.3915 -1.1033  0.6716
 4560SOL     OW25312   2.439   0.285   7.417  0.3671 -0.1737  0.0597
 4560SOL    HW125313   2.449   0.290   7.512  1.0845 -0.7294  0.0123
 4560SOL    HW225314   2.489   0.355   7.375 -0.5542 -0.8451 -2.1048
 4561SOL     OW25315   3.117   1.383   9.300  0.2474 -0.1286 -0.2118
 4561SOL    HW125316   3.069   1.385   9.217  1.6668 -1.1692 -1.0575
 4561SOL    HW225317   3.206   1.369   9.269  1.1793  2.3805  1.2898
 4562SOL     OW25318   2.820   2.719   4.219  0.4195  0.4600  0.3007
 4562SOL    HW125319   2.910   2.707   4.188  0.7027  2.3017  0.3811
 4562SOL    HW225320   2.805   2.636   4.263  0.0033 -0.0371 -0.8117
 4563SOL     OW25321   1.073   1.602   6.583  0.3120  0.2087 -0.1890
 4563SOL    HW125322   1.096   1.516   6.548 -2.2226 -0.0078 -1.3702
 4563SOL    HW225323   0.995   1.576   6.633  1.2415 -0.8458  0.7043
 4564SOL     OW25324   2.743   3.134   2.552  0.0155 -0.5573  0.0927
 4564SOL    HW125325   2.781   3.105   2.469  1.5619  0.0161  0.5999
 4564SOL    HW225326   2.658   3.090   2.557 -0.2307 -0.1508 -0.5746
 4565SOL     OW25327   2.680   3.784  12.736 -0.3963  0.1150  0.0914
 4565SOL    HW125328   2.694   3.703  12.687 -0.1054  0.3439 -0.2061
 4565SOL    HW225329   2.653   3.838  12.661  2.2872  2.0687  0.5509
 4566SOL     OW25330   4.245   4.127   4.453  0.2962  0.2391 -0.1502
 4566SOL    HW125331   4.235   4.081   4.370  1.2709  2.4238 -1.4757
 4566SOL    HW225332   4.256   4.219   4.428  0.0161  0.5775  0.9530
 4567SOL     OW25333   0.640   2.101   6.743  0.2027 -0.1489 -0.3298
 4567SOL    HW125334   0.645   2.080   6.836 -1.4899  2.2534  0.3307
 4567SOL    HW225335   0.578   2.035   6.714 -0.0408  0.5606 -1.4140
 4568SOL     OW25336   3.407   0.341  15.056 -0.7373  0.6209  0.2378
 4568SOL    HW125337   3.456   0.423  15.061 -0.4232  0.4302  0.3006
 4568SOL    HW225338   3.322   0.375  15.028 -1.4747 -1.0352  0.4755
 4569SOL     OW25339   1.439   0.898   2.556 -0.3272  0.1161  0.3061
 4569SOL    HW125340   1.502   0.966   2.581 -0.9597  1.4133 -1.6339
 4569SOL    HW225341   1.462   0.832   2.621 -1.3154  1.6935  2.2742
 4570SOL     OW25342   0.356   3.327   9.611 -0.6338  0.0717  0.2024
 4570SOL    HW125343   0.275   3.376   9.620  0.0858  1.7272 -2.4067
 4570SOL    HW225344   0.388   3.348   9.524 -1.5561 -1.4702 -0.5100
 4571SOL     OW25345   0.613   0.020   2.958  1.3209 -0.1709  0.1190
 4571SOL    HW125346   0.573   0.009   2.872  2.5383 -2.5417 -0.1370
 4571SOL    HW225347   0.707   0.024   2.943  1.4563  0.7279  1.2057
 4572SOL     OW25348   3.221   0.970  10.348  0.0980  0.4129 -0.4052
 4572SOL    HW125349   3.267   1.012  10.421  1.0486  2.7001 -2.3047
 4572SOL    HW225350   3.147   1.029  10.335 -0.1362  0.6143  1.7899
 4573SOL     OW25351   4.249   4.397  14.822  0.3153  0.4907 -0.1405
 4573SOL    HW125352   4.246   4.458  14.748  2.8375 -1.1152 -1.5491
 4573SOL    HW225353   4.242   4.312  14.779  0.6265 -0.7942  2.3483
 4574SOL     OW25354   2.262   2.290   1.946  0.3424  0.1580  0.1791
 4574SOL    HW125355   2.276   2.306   2.040  1.2118 -0.5846  0.1788
 4574SOL    HW225356   2.351   2.297   1.912  0.0996  0.3769 -0.4026
 4575SOL     OW25357   3.229   2.867   9.276  0.3845  0.0906 -0.3851
 4575SOL    HW125358   3.317   2.896   9.250  0.6933 -0.1736  0.3766
 4575SOL    HW225359   3.248   2.783   9.317  2.5132 -0.1791 -1.9015
 4576SOL     OW25360   0.975   3.916   7.058  0.1543  0.1400 -0.1000
 4576SOL    HW125361   0.981   3.915   7.154 -2.4932  1.7799  0.0846
 4576SOL    HW225362   0.897   3.865   7.039  0.3910 -0.2637  0.0019
 4577SOL     OW25363   3.255   4.577  17.066  0.0116  0.3537 -0.3304
 4577SOL    HW125364   3.189   4.598  17.132 -2.0477 -0.2454 -2.1908
 4577SOL    HW225365   3.339   4.589  17.111  1.2079  0.2429 -2.5294
 4578SOL     OW25366   0.520   3.934   8.878  0.1219  0.2243 -0.0197
 4578SOL    HW125367   0.553   3.997   8.943  0.1592 -1.0764  1.2148
 4578SOL    HW225368   0.564   3.958   8.797  0.0303 -1.1578 -0.4713
 4579SOL     OW25369   3.860   2.371   4.836  0.5334  0.5028  0.8077
 4579SOL    HW125370   3.840   2.456   4.797  0.9266  0.5208  0.6440
 4579SOL    HW225371   3.899   2.387   4.921 -0.3367  0.3504  1.2399
 4580SOL     OW25372   3.038   1.231  17.037  0.0031 -0.4562 -0.1629
 4580SOL    HW125373   3.055   1.181  17.116 -0.9050  0.1137  0.3951
 4580SOL    HW225374   3.110   1.293  17.035  1.0608 -1.6689  0.6443
 4581SOL     OW25375   1.095   3.684   6.111  0.2424  0.0690 -0.4031
 4581SOL    HW125376   1.046   3.621   6.163 -1.3079 -0.7418 -2.8778
 4581SOL    HW225377   1.169   3.695   6.170 -1.5542  1.1478  1.6710
 4582SOL     OW25378   2.951   4.284   5.555 -0.3250  0.1518 -0.0023
 4582SOL    HW125379   2.951   4.295   5.459 -0.1270  4.0301  0.4505
 4582SOL    HW225380   3.041   4.257   5.570 -0.6023 -1.1774 -0.6643
 4583SOL     OW25381   3.172   3.635   8.905 -0.3297 -0.5004 -0.1361
 4583SOL    HW125382   3.126   3.657   8.824  0.5516  1.9688  0.0299
 4583SOL    HW225383   3.244   3.698   8.904  1.5340 -2.6869 -2.0827
 4584SOL     OW25384   3.729   4.193   1.367  0.0148  0.2084 -0.1856
 4584SOL    HW125385   3.778   4.220   1.445 -1.8337  0.0026  1.0582
 4584SOL    HW225386   3.769   4.111   1.337 -2.7531 -1.4834  0.7516
 4585SOL     OW25387   0.773   0.518   3.608  0.2410 -0.3622  0.6092
 4585SOL    HW125388   0.857   0.473   3.602  2.1050  3.1260  0.9394
 4585SOL    HW225389   0.718   0.441   3.624 -0.3790 -0.5865 -2.7437
 4586SOL     OW25390   0.620   2.656   5.002 -0.5981  0.1550  0.1214
 4586SOL    HW125391   0.547   2.601   5.029 -1.7533  0.9273 -1.4456
 4586SOL    HW225392   0.693   2.596   5.018 -1.0582 -0.6699 -0.9650
 4587SOL     OW25393   3.569   1.019   8.070  0.1491  0.6801  0.2128
 4587SOL    HW125394   3.555   0.959   8.142  1.3025 -1.1185 -1.0744
 4587SOL    HW225395   3.482   1.060   8.071 -0.2497 -0.2219  2.8176
 4588SOL     OW25396   2.776   1.102   8.027 -0.3239  0.1036  0.1727
 4588SOL    HW125397   2.823   1.146   7.956  1.0334  1.6550  2.0413
 4588SOL    HW225398   2.687   1.118   7.996  0.0538  0.4963 -0.7048
 4589SOL     OW25399   3.460   4.518   3.775 -0.1271  0.2384  0.4229
 4589SOL    HW125400   3.421   4.446   3.726  2.4449 -0.7436 -0.1722
 4589SOL    HW225401   3.443   4.496   3.867 -3.5843  1.8202  0.1745
 4590SOL     OW25402   4.264   0.342   7.942  0.2791  0.0819 -0.4939
 4590SOL    HW125403   4.189   0.295   7.907  0.6204 -0.7685 -0.0822
 4590SOL    HW225404   4.285   0.290   8.020  1.4008 -0.9208 -1.4516
 4591SOL     OW25405   0.213   0.850  16.809  0.3431  0.3575  0.9439
 4591SOL    HW125406   0.189   0.942  16.801 -2.6392 -0.3221  2.3063
 4591SOL    HW225407   0.308   0.862  16.813  0.2907  0.7590  0.9355
 4592SOL     OW25408   3.357   0.574  12.614  0.6840 -0.1372  0.0426
 4592SOL    HW125409   3.279   0.547  12.566  0.9920  0.5675 -0.8562
 4592SOL    HW225410   3.407   0.625  12.550 -1.4505 -0.9746 -2.2975
 4593SOL     OW25411   2.270   3.068   6.179  0.0812  0.5011  0.0130
 4593SOL    HW125412   2.328   3.012   6.231  1.9123  2.2106 -0.2090
 4593SOL    HW225413   2.278   3.152   6.224  1.1879 -0.7747  2.2236
 4594SOL     OW25414   1.198   4.501   5.705  0.7451 -0.1853 -0.2467
 4594SOL    HW125415   1.176   4.583   5.749  1.6160  0.0738 -0.2948
 4594SOL    HW225416   1.117   4.451   5.721 -0.1533  1.0918 -0.7971
 4595SOL     OW25417   3.330   1.967   1.092  0.4651  0.0719 -0.0949
 4595SOL    HW125418   3.303   2.037   1.151  1.7528  0.7956 -0.3652
 4595SOL    HW225419   3.417   2.002   1.073 -0.7043  2.2051 -1.6707
 4596SOL     OW25420   4.690   3.179   9.404 -0.1976 -0.0822  0.0754
 4596SOL    HW125421   0.046   3.200   9.382 -0.5890  0.6731 -0.8069
 4596SOL    HW225422   4.691   3.141   9.492  1.6814 -2.1629 -0.8569
 4597SOL     OW25423   3.674   2.541   1.784  0.3244  0.3532  0.1291
 4597SOL    HW125424   3.762   2.528   1.820 -0.0456 -0.8438  0.5877
 4597SOL    HW225425   3.636   2.453   1.787 -0.7694  0.8785  1.4375
 4598SOL     OW25426   2.859   1.784   5.856  0.3205  0.1218  0.0373
 4598SOL    HW125427   2.937   1.826   5.819  0.4814  1.0558  1.4260
 4598SOL    HW225428   2.858   1.847   5.928  1.4018 -1.6159  1.5564
 4599SOL     OW25429   1.802   0.408   4.805 -0.1278  0.3314 -0.3015
 4599SOL    HW125430   1.785   0.454   4.887 -1.3502 -0.1743 -0.2688
 4599SOL    HW225431   1.736   0.444   4.745 -1.7707 -1.3916  0.4845
 4600SOL     OW25432   1.971   2.593  10.298  0.5212 -0.0348 -0.2799
 4600SOL    HW125433   1.923   2.613  10.218  0.9045  0.7704 -0.3090
 4600SOL    HW225434   1.933   2.656  10.360 -0.2672  0.1762 -0.9700
 4601SOL     OW25435   4.292   2.696  15.842  0.1173 -0.1586  1.3033
 4601SOL    HW125436   4.348   2.617  15.844  0.2455 -0.1057 -0.8798
 4601SOL    HW225437   4.359   2.764  15.846 -0.2054  0.4213 -3.4182
 4602SOL     OW25438   3.030   1.727   7.410 -0.5058  0.0277 -0.6000
 4602SOL    HW125439   3.084   1.801   7.437 -1.4983  0.3674  0.4628
 4602SOL    HW225440   3.051   1.705   7.320 -0.4121 -0.4696 -0.4551
 4603SOL     OW25441   0.577   3.277   7.161 -0.3622  0.0200 -0.0670
 4603SOL    HW125442   0.582   3.230   7.078 -0.3005  0.3738 -0.2641
 4603SOL    HW225443   0.605   3.363   7.128  1.1988 -1.1870 -1.8887
 4604SOL     OW25444   4.242   4.383   6.207 -0.5835  0.3401 -0.1643
 4604SOL    HW125445   4.254   4.465   6.255 -0.7194  1.2260 -1.6222
 4604SOL    HW225446   4.325   4.343   6.230  0.5941  1.6951 -2.0830
 4605SOL     OW25447   1.803   3.213   5.724  0.2361  0.2564 -0.6594
 4605SOL    HW125448   1.880   3.239   5.672 -0.0550  2.4412  0.0055
 4605SOL    HW225449   1.839   3.142   5.778  0.7366  1.9632  1.2525
 4606SOL     OW25450   1.558   0.744   8.601 -0.5877 -0.1723  0.4302
 4606SOL    HW125451   1.499   0.675   8.570 -0.0448 -0.9779  1.2130
 4606SOL    HW225452   1.560   0.716   8.692  0.7982 -0.4460  0.3109
 4607SOL     OW25453   4.692   0.749  14.839  0.2808 -0.3987 -0.2603
 4607SOL    HW125454   4.645   0.665  14.842  0.5794 -0.5232  0.8149
 4607SOL    HW225455   4.670   0.770  14.748 -1.5245  2.3633  0.8237
 4608SOL     OW25456   2.582   4.134   8.648  0.3426 -0.3661 -0.0659
 4608SOL    HW125457   2.634   4.215   8.641 -1.3304  0.5359 -2.2762
 4608SOL    HW225458   2.495   4.173   8.655  1.1031  1.8666 -2.8445
 4609SOL     OW25459   2.935   2.540   2.866 -0.3107  0.3924 -0.4951
 4609SOL    HW125460   3.011   2.495   2.903 -1.5090  0.9962  2.7615
 4609SOL    HW225461   2.917   2.498   2.782 -1.2915 -0.4675  0.1502
 4610SOL     OW25462   4.375   3.151   1.885  0.2548 -0.3829 -0.0592
 4610SOL    HW125463   4.287   3.122   1.861  0.2136 -0.5423  0.2822
 4610SOL    HW225464   4.427   3.073   1.867 -0.6264 -1.3397  1.5865
 4611SOL     OW25465   2.095   3.591   4.043  0.6780  0.4174  0.0985
 4611SOL    HW125466   2.163   3.523   4.047 -1.6275 -1.9124 -1.0472
 4611SOL    HW225467   2.114   3.626   3.956 -1.0858  0.2164 -0.3649
 4612SOL     OW25468   2.087   3.088  14.236 -0.5391 -0.3183  0.0443
 4612SOL    HW125469   2.168   3.082  14.185  0.0724  1.9475  0.7410
 4612SOL    HW225470   2.118   3.137  14.312  1.9597  1.3995 -2.0421
 4613SOL     OW25471   3.582   1.356  10.714  0.3419 -0.0287 -0.3044
 4613SOL    HW125472   3.518   1.424  10.695  0.4974 -0.3145 -1.7963
 4613SOL    HW225473   3.590   1.363  10.810  0.8374 -1.2749 -0.2594
 4614SOL     OW25474   4.057   0.179   3.529  0.0113 -0.2468  0.1778
 4614SOL    HW125475   4.106   0.098   3.543  1.7931  0.6458 -0.9356
 4614SOL    HW225476   3.997   0.192   3.603 -1.0857 -1.2701 -0.5390
 4615SOL     OW25477   0.948   1.989   8.022 -0.2267 -0.6186 -0.3407
 4615SOL    HW125478   0.930   1.895   8.022 -0.0458 -0.6598  0.5615
 4615SOL    HW225479   1.043   1.984   8.033 -0.1326  1.7163 -0.0902
 4616SOL     OW25480   4.181   0.848  12.742 -0.3164  0.3177  0.0446
 4616SOL    HW125481   4.253   0.795  12.775 -0.0144  0.4661 -0.3692
 4616SOL    HW225482   4.236   0.918  12.706  1.1290 -1.0312 -0.3245
 4617SOL     OW25483   4.542   1.188   2.280  0.6749 -0.3600  0.0850
 4617SOL    HW125484   4.548   1.263   2.340 -2.1251  1.3360 -1.7336
 4617SOL    HW225485   4.619   1.140   2.310 -0.6783 -0.2826  3.6808
 4618SOL     OW25486   4.334   2.262  14.163  0.2236  0.0126 -0.1182
 4618SOL    HW125487   4.348   2.168  14.162  0.6554  0.0778  0.0912
 4618SOL    HW225488   4.320   2.284  14.071  1.1755 -1.3342 -0.5789
 4619SOL     OW25489   3.460   4.337   4.866  0.0741  0.0107  0.8029
 4619SOL    HW125490   3.384   4.395   4.869 -2.0531 -2.7899  1.6580
 4619SOL    HW225491   3.452   4.312   4.774 -1.3189 -0.6384  1.0993
 4620SOL     OW25492   4.389   0.962   6.626  0.3159  0.0753 -0.1453
 4620SOL    HW125493   4.377   1.019   6.702 -1.6004  1.2047 -1.2827
 4620SOL    HW225494   4.298   0.942   6.604  0.4178 -1.0403  0.4675
 4621SOL     OW25495   0.133   0.788   6.141  0.4358 -0.2207  0.2172
 4621SOL    HW125496   0.220   0.777   6.178  0.0461 -0.4728  1.0639
 4621SOL    HW225497   0.076   0.740   6.203 -2.2337 -1.7991 -3.4558
 4622SOL     OW25498   2.909   4.406  14.178  0.0820  0.2036  0.2349
 4622SOL    HW125499   2.919   4.339  14.110  1.3942  0.0858  0.5456
 4622SOL    HW225500   2.900   4.363  14.263  0.5828  1.6084  1.0022
 4623SOL     OW25501   3.931   4.656   5.482  0.4872 -0.3234  0.6201
 4623SOL    HW125502   3.986   4.704   5.544 -0.9267 -2.0020  3.1704
 4623SOL    HW225503   3.891   4.724   5.427 -1.0957 -0.8859  1.0684
 4624SOL     OW25504   3.249   1.125   9.548 -0.3603 -0.0749  0.0789
 4624SOL    HW125505   3.340   1.138   9.522 -0.5667  0.5249 -0.3526
 4624SOL    HW225506   3.253   1.167   9.634 -2.3601 -0.0738  0.1662
 4625SOL     OW25507   1.454   2.012   9.009 -0.0520 -0.3021 -0.4899
 4625SOL    HW125508   1.422   2.012   8.918 -0.9207  0.7512 -0.1731
 4625SOL    HW225509   1.371   2.015   9.057 -0.1212  1.2751 -0.7073
 4626SOL     OW25510   4.623   2.556   8.948  0.0574 -0.3551 -0.0599
 4626SOL    HW125511   4.625   2.626   8.882  0.9769  0.9039  1.2896
 4626SOL    HW225512   4.531   2.567   8.971  0.2529  2.0453 -0.3438
 4627SOL     OW25513   4.640   3.323   5.838  0.1916  0.8407 -0.3749
 4627SOL    HW125514   4.705   3.283   5.781 -0.7416 -0.1676 -0.7166
 4627SOL    HW225515   4.627   3.398   5.779  0.8528  0.2832 -1.2269
 4628SOL     OW25516   4.212   1.046   9.266 -0.0085  0.1087  0.2152
 4628SOL    HW125517   4.167   1.082   9.342 -1.2712 -1.7310  0.3261
 4628SOL    HW225518   4.152   1.053   9.192 -1.3698  3.2542  1.6247
 4629SOL     OW25519   0.263   4.071   6.245  0.2625 -0.5745  0.6824
 4629SOL    HW125520   0.198   4.003   6.230  0.1430 -0.3388  0.1256
 4629SOL    HW225521   0.220   4.145   6.203 -0.1751 -1.2971 -0.1533
 4630SOL     OW25522   3.936   3.275   9.369 -0.1695  0.3970 -0.0626
 4630SOL    HW125523   3.917   3.208   9.434 -1.8680 -1.3092 -2.2970
 4630SOL    HW225524   3.988   3.344   9.411  1.6101 -1.8242  1.3976
 4631SOL     OW25525   4.113   0.471   8.190 -0.5134  0.0679  0.3144
 4631SOL    HW125526   4.125   0.498   8.281  0.3612 -1.5314  0.6735
 4631SOL    HW225527   4.161   0.388   8.185  2.2689  1.6491  0.9646
 4632SOL     OW25528   1.332   1.241   1.953  0.3213  0.3748  0.2758
 4632SOL    HW125529   1.302   1.314   1.899  0.5261 -0.5386 -1.0998
 4632SOL    HW225530   1.425   1.236   1.929  0.6817 -0.1743  1.8241
 4633SOL     OW25531   2.056   1.578   9.105 -0.0246 -0.8029  0.1837
 4633SOL    HW125532   2.044   1.649   9.169  0.4216 -1.9583  1.5670
 4633SOL    HW225533   2.147   1.565   9.135 -0.4102 -2.1307  0.7772
 4634SOL     OW25534   2.153   2.501   9.703  0.3816 -0.1483 -0.1161
 4634SOL    HW125535   2.154   2.566   9.773  1.0501  0.1261 -0.3752
 4634SOL    HW225536   2.245   2.473   9.697  0.9140  1.5522  0.3037
 4635SOL     OW25537   4.147   2.054   7.831 -0.0630  0.1408 -0.0826
 4635SOL    HW125538   4.137   1.996   7.756  0.4712 -0.2966  0.1839
 4635SOL    HW225539   4.092   2.132   7.822 -0.3785 -0.0994 -0.2550
 4636SOL     OW25540   0.858   1.758   8.114  0.0081 -0.5477  0.1333
 4636SOL    HW125541   0.923   1.733   8.180  0.8697  1.0989 -0.0818
 4636SOL    HW225542   0.779   1.750   8.167  0.6786  1.3382  1.4166
 4637SOL     OW25543   1.168   0.345  16.517 -0.0379 -0.0463 -0.0601
 4637SOL    HW125544   1.156   0.397  16.437 -0.4788 -1.1618 -0.7275
 4637SOL    HW225545   1.218   0.273  16.479 -0.5721 -0.5858  0.2522
 4638SOL     OW25546   0.958   3.508   6.349  0.3366  0.1272  0.3672
 4638SOL    HW125547   1.032   3.560   6.382  1.0903 -0.9725  0.4074
 4638SOL    HW225548   0.887   3.568   6.369 -1.3485 -1.5225 -0.6992
 4639SOL     OW25549   2.218   2.295  15.212  0.4135 -0.2190  0.0186
 4639SOL    HW125550   2.306   2.258  15.205  1.3647  2.3714 -1.6633
 4639SOL    HW225551   2.199   2.283  15.305  0.6929  0.6916  0.1999
 4640SOL     OW25552   4.315   1.485   7.519  0.1942  0.2607  0.6588
 4640SOL    HW125553   4.399   1.443   7.537  0.1765 -0.2371 -0.3801
 4640SOL    HW225554   4.255   1.410   7.518 -0.9034  1.1500 -0.3245
 4641SOL     OW25555   2.628   0.282   4.078 -0.5530 -0.2637 -0.5191
 4641SOL    HW125556   2.577   0.361   4.094  2.4317  1.3924  0.7072
 4641SOL    HW225557   2.711   0.316   4.112  0.7542 -2.5265 -1.4149
 4642SOL     OW25558   2.766   2.385  10.720  0.0949 -0.2448 -0.0868
 4642SOL    HW125559   2.701   2.455  10.720  0.3422 -0.0175 -0.1448
 4642SOL    HW225560   2.799   2.410  10.634 -0.4043  3.4301  0.7879
 4643SOL     OW25561   3.996   0.575   6.721  0.4885  0.1385 -0.3333
 4643SOL    HW125562   3.953   0.658   6.703 -0.7547 -0.1769  1.1225
 4643SOL    HW225563   4.073   0.586   6.664  0.0689 -1.1689 -1.1496
 4644SOL     OW25564   2.370   1.745  11.262 -0.3457 -0.1253 -0.1868
 4644SOL    HW125565   2.296   1.797  11.231 -0.8824 -1.3972 -1.0136
 4644SOL    HW225566   2.449   1.793  11.237 -1.6807  2.1872  0.0714
 4645SOL     OW25567   2.259   4.026   2.944 -0.5918  0.4857 -0.5644
 4645SOL    HW125568   2.326   4.072   2.995  1.6269 -2.7703 -0.5423
 4645SOL    HW225569   2.300   4.043   2.859 -1.9928  0.8261 -1.1680
 4646SOL     OW25570   2.175   3.186   1.897  0.1935  0.3663 -0.7298
 4646SOL    HW125571   2.172   3.275   1.862 -2.1717  1.2981  1.7537
 4646SOL    HW225572   2.261   3.154   1.872  0.5361 -0.1756  1.0933
 4647SOL     OW25573   1.710   4.057   5.598 -0.4781  0.2914 -0.2800
 4647SOL    HW125574   1.615   4.067   5.608 -0.0257  2.7728  1.6495
 4647SOL    HW225575   1.737   4.107   5.522  2.3290  1.3409  1.4150
 4648SOL     OW25576   1.702   4.300   4.918 -0.3417  0.1522 -0.4455
 4648SOL    HW125577   1.723   4.228   4.858 -2.3888 -0.2294 -0.6948
 4648SOL    HW225578   1.627   4.267   4.968 -0.6809  2.2560  0.4226
 4649SOL     OW25579   3.243   0.508   9.515 -0.4392 -0.6848 -0.1491
 4649SOL    HW125580   3.261   0.546   9.601 -2.0741 -1.7324  0.6566
 4649SOL    HW225581   3.327   0.520   9.471 -1.9505  1.2414 -2.4803
 4650SOL     OW25582   4.676   0.317   1.738  0.8924 -0.6720  0.6984
 4650SOL    HW125583   4.661   0.224   1.757 -0.4812 -0.9384 -1.7158
 4650SOL    HW225584   0.033   0.322   1.714 -0.0976 -0.8549 -3.0796
 4651SOL     OW25585   1.746   3.521   9.647 -0.0888 -0.3819 -0.2906
 4651SOL    HW125586   1.692   3.458   9.694 -1.2838 -0.3209 -1.6050
 4651SOL    HW225587   1.736   3.587   9.716  2.0468  0.3072 -0.6162
 4652SOL     OW25588   0.528   0.089   3.989  0.0481  0.5392 -0.2942
 4652SOL    HW125589   0.576   0.170   3.968  2.3619 -0.8523 -0.4350
 4652SOL    HW225590   0.559   0.033   3.918 -0.0336 -1.5753  1.3530
 4653SOL     OW25591   1.621   3.634   4.899  0.5457  0.5094 -0.5357
 4653SOL    HW125592   1.665   3.565   4.949 -0.0626  1.1793  0.9115
 4653SOL    HW225593   1.553   3.574   4.868  1.0144 -0.9380  1.2126
 4654SOL     OW25594   3.614   0.289   3.015  0.1382  0.0605  0.1386
 4654SOL    HW125595   3.588   0.291   2.923 -1.5994 -1.7789  0.5715
 4654SOL    HW225596   3.707   0.309   3.016 -0.5049  3.0494 -0.9185
 4655SOL     OW25597   1.836   4.423   7.183  0.0330  0.3018  0.4381
 4655SOL    HW125598   1.906   4.488   7.180  0.7356 -0.5256 -1.0118
 4655SOL    HW225599   1.855   4.379   7.266 -2.2721 -1.6165 -0.0364
 4656SOL     OW25600   3.208   2.680   7.289  0.0057  0.0440 -0.4555
 4656SOL    HW125601   3.293   2.652   7.253  0.7138  0.5337  0.8302
 4656SOL    HW225602   3.199   2.624   7.366  1.1968  1.8222  0.9815
 4657SOL     OW25603   1.103   3.889   3.862  0.2545  0.4125  0.1233
 4657SOL    HW125604   1.038   3.943   3.907 -0.5335 -2.5169  2.5475
 4657SOL    HW225605   1.181   3.943   3.848  0.4016 -0.1256 -1.0862
 4658SOL     OW25606   4.576   1.600   1.521  0.6754  0.6307  0.3767
 4658SOL    HW125607   4.664   1.580   1.488 -0.4889 -3.6943 -0.0934
 4658SOL    HW225608   4.539   1.513   1.513  0.7397  0.3978  2.6791
 4659SOL     OW25609   4.150   4.609  12.051 -0.1092 -0.4033  0.3579
 4659SOL    HW125610   4.078   4.653  12.096 -1.7232 -1.9943 -0.7122
 4659SOL    HW225611   4.220   4.656  12.096  1.0750 -1.8914  0.0541
 4660SOL     OW25612   3.033   0.687   4.539  0.1135 -0.0266 -0.3712
 4660SOL    HW125613   2.948   0.707   4.576  0.0737  2.1764 -1.6659
 4660SOL    HW225614   3.089   0.698   4.616 -0.1992  0.6164 -0.2407
 4661SOL     OW25615   4.528   0.868   7.488  0.3882  0.1998 -0.2718
 4661SOL    HW125616   4.589   0.872   7.414  1.5479  0.2551  0.6861
 4661SOL    HW225617   4.524   0.960   7.514  1.4763 -0.0959  0.9673
 4662SOL     OW25618   3.620   3.602  16.668 -0.0062 -0.2734 -0.4629
 4662SOL    HW125619   3.555   3.544  16.628 -2.2722  1.8512  0.1647
 4662SOL    HW225620   3.703   3.565  16.637 -0.8667 -2.5641 -0.0266
 4663SOL     OW25621   4.109   0.181   9.132 -0.1109  0.1561 -0.1815
 4663SOL    HW125622   4.035   0.222   9.176  0.9001  0.0851  1.6127
 4663SOL    HW225623   4.085   0.215   9.046 -1.1454  0.2716  0.1610
 4664SOL     OW25624   0.654   2.621   8.323  0.4834 -0.2976  0.2067
 4664SOL    HW125625   0.627   2.587   8.409  0.1587 -1.0489 -0.1977
 4664SOL    HW225626   0.608   2.704   8.310  3.2161  1.1295 -0.2416
 4665SOL     OW25627   1.680   2.740   4.108  0.4869  0.2601 -0.4600
 4665SOL    HW125628   1.666   2.818   4.162 -1.8746 -0.3652 -0.1791
 4665SOL    HW225629   1.594   2.724   4.070  0.6699  1.8142 -1.5530
 4666SOL     OW25630   1.535   4.667   3.150 -0.0628 -0.0324 -0.4001
 4666SOL    HW125631   1.520   0.015   3.106  0.1001  1.7964  3.0178
 4666SOL    HW225632   1.628   4.655   3.129 -0.3063  2.1388 -2.6462
 4667SOL     OW25633   1.774   2.507  15.634  0.1201  0.4372 -0.1167
 4667SOL    HW125634   1.774   2.415  15.661 -1.6797  0.9351  1.6499
 4667SOL    HW225635   1.791   2.552  15.716  0.9763 -0.4877  0.2105
 4668SOL     OW25636   3.671   2.555   9.483 -0.1937  0.3970  0.1141
 4668SOL    HW125637   3.762   2.531   9.500 -0.0824  1.1061  0.5392
 4668SOL    HW225638   3.642   2.601   9.562 -0.2963  2.1448 -0.9433
 4669SOL     OW25639   0.553   3.887   4.807 -0.3239  0.6092 -0.2013
 4669SOL    HW125640   0.528   3.870   4.898 -0.8643  1.6084 -0.1545
 4669SOL    HW225641   0.636   3.840   4.809 -0.9650 -0.5790 -1.7703
 4670SOL     OW25642   3.211   4.592   0.965  0.2155 -0.5333 -0.5931
 4670SOL    HW125643   3.283   4.651   0.942 -0.4458  0.5622  0.1831
 4670SOL    HW225644   3.245   4.537   1.036  3.2595  0.8362 -0.9860
 4671SOL     OW25645   3.354   2.932   8.164  0.7342 -0.0184  0.2475
 4671SOL    HW125646   3.396   2.894   8.087 -2.2281  0.1112 -1.4411
 4671SOL    HW225647   3.396   2.892   8.240  0.4303 -2.5443 -0.8941
 4672SOL     OW25648   0.946   0.397  15.236  0.0840 -0.5764 -0.1210
 4672SOL    HW125649   1.035   0.432  15.233  0.4925 -1.4571  1.5305
 4672SOL    HW225650   0.896   0.469  15.273 -0.6935 -1.2870  0.2144
 4673SOL     OW25651   2.984   1.395   7.369  0.4629  0.8658 -0.0781
 4673SOL    HW125652   2.960   1.342   7.446 -2.5225 -0.0738 -1.6314
 4673SOL    HW225653   3.075   1.369   7.359 -0.3072 -1.1587 -1.6870
 4674SOL     OW25654   0.077   2.608   2.445 -0.7047 -0.0181 -0.4397
 4674SOL    HW125655   0.098   2.537   2.384 -0.6637 -0.8728  0.5591
 4674SOL    HW225656   0.157   2.606   2.498 -1.7270 -0.5186  1.1005
 4675SOL     OW25657   4.688   1.424   7.218  0.3967  0.0680  0.4048
 4675SOL    HW125658   0.024   1.475   7.257 -0.7712  1.7043  0.3728
 4675SOL    HW225659   4.716   1.334   7.237  1.4769  0.1690 -0.7993
 4676SOL     OW25660   0.926   3.154   7.256  0.5262 -0.1598  0.0844
 4676SOL    HW125661   0.999   3.095   7.237  0.7255  0.9692 -2.5640
 4676SOL    HW225662   0.859   3.116   7.200 -1.7445 -0.0770  2.7341
 4677SOL     OW25663   1.031   3.403  17.242 -0.0849 -0.6474  0.4499
 4677SOL    HW125664   0.955   3.367  17.287 -0.1993  0.3194  1.0429
 4677SOL    HW225665   1.039   3.331  17.180 -0.7836 -0.0343 -0.3630
 4678SOL     OW25666   2.373   0.991   2.187 -0.5756  0.0788 -0.1036
 4678SOL    HW125667   2.468   0.995   2.184 -0.6387  1.4774 -0.2221
 4678SOL    HW225668   2.362   0.909   2.236  0.7478  0.1905  0.3724
 4679SOL     OW25669   0.459   2.402   4.621 -0.1447  0.1873 -0.5694
 4679SOL    HW125670   0.501   2.477   4.579  0.1163  0.8486  0.8730
 4679SOL    HW225671   0.374   2.444   4.632  0.5498  0.9099  1.9673
 4680SOL     OW25672   3.629   1.725   8.053 -0.4034 -0.6162  0.1473
 4680SOL    HW125673   3.617   1.662   7.982  1.1277  0.0096 -0.6698
 4680SOL    HW225674   3.710   1.698   8.097  0.5959 -1.2330 -2.1121
 4681SOL     OW25675   1.690   0.277   3.633 -0.6167 -0.0924  0.2175
 4681SOL    HW125676   1.702   0.303   3.725 -0.2693 -0.0340  0.1547
 4681SOL    HW225677   1.702   0.183   3.647 -2.2530  0.0276  2.4163
 4682SOL     OW25678   2.738   4.626  12.703 -0.5844 -0.0724  0.0897
 4682SOL    HW125679   2.769   4.575  12.777 -0.4746  2.1167  1.5534
 4682SOL    HW225680   2.665   4.677  12.739 -0.2222  0.9553 -0.6270
 4683SOL     OW25681   4.255   0.085   5.007  0.0351  0.2973  0.7610
 4683SOL    HW125682   4.281   0.009   5.058 -3.0142 -0.7710  0.6810
 4683SOL    HW225683   4.326   0.089   4.942 -0.1547  0.6082  0.5713
 4684SOL     OW25684   4.564   1.308  14.367 -0.3728 -0.1079  0.1735
 4684SOL    HW125685   4.565   1.316  14.272  0.5047 -3.1177 -0.0668
 4684SOL    HW225686   4.541   1.398  14.390  1.4002  0.3136  0.3091
 4685SOL     OW25687   3.835   1.918   2.458  0.1036 -0.3827 -0.5865
 4685SOL    HW125688   3.902   1.882   2.400 -0.3175 -0.6156 -0.9338
 4685SOL    HW225689   3.866   2.005   2.481 -0.9437 -0.3869  0.8589
 4686SOL     OW25690   2.034   3.441   0.327  0.2517  0.6882  0.7005
 4686SOL    HW125691   2.020   3.381   0.400 -0.3717 -1.3305 -1.0818
 4686SOL    HW225692   2.089   3.387   0.270 -2.0535  0.3728 -1.2307
 4687SOL     OW25693   1.208   2.778   2.561 -0.4661 -0.0015 -0.0838
 4687SOL    HW125694   1.284   2.724   2.585 -0.0321  0.8974  0.5519
 4687SOL    HW225695   1.237   2.854   2.511 -1.6191 -0.7845 -1.9419
 4688SOL     OW25696   3.374   1.767   3.060 -0.1400 -0.1462  0.4333
 4688SOL    HW125697   3.315   1.695   3.080 -1.1857  0.6765  0.3474
 4688SOL    HW225698   3.322   1.848   3.064  1.0602  0.6855 -0.5538
 4689SOL     OW25699   0.081   1.367   4.106 -0.0526  0.2619  0.0520
 4689SOL    HW125700   0.035   1.428   4.048  2.4699  1.1670 -0.9791
 4689SOL    HW225701   0.018   1.296   4.120  0.1858 -0.1611 -1.0229
 4690SOL     OW25702   0.129   1.453   5.985  0.8742  0.6761  0.3081
 4690SOL    HW125703   0.135   1.547   6.002 -1.5775  0.4756  2.3634
 4690SOL    HW225704   0.046   1.433   6.030  0.7286 -0.0537 -0.2889
 4691SOL     OW25705   4.568   2.214  14.847 -0.3081  0.2883  0.0140
 4691SOL    HW125706   4.565   2.289  14.787 -2.1442 -1.6594 -2.3233
 4691SOL    HW225707   4.598   2.141  14.793 -1.2704 -0.4597  0.5018
 4692SOL     OW25708   3.686   2.310   8.865 -0.1589  0.4502  0.6720
 4692SOL    HW125709   3.642   2.246   8.809  1.9794 -0.0684 -0.3939
 4692SOL    HW225710   3.751   2.338   8.800 -1.7527  0.9118 -0.7362
 4693SOL     OW25711   1.356   2.430   8.530 -0.1802  0.0941 -0.4875
 4693SOL    HW125712   1.420   2.433   8.460 -3.1553  2.2978 -3.1218
 4693SOL    HW225713   1.289   2.364   8.513  0.4834 -1.2455  2.0427
 4694SOL     OW25714   1.613   2.077   3.265 -0.0108  0.0117 -0.0495
 4694SOL    HW125715   1.631   2.105   3.354 -1.1012  0.2813  0.0871
 4694SOL    HW225716   1.590   1.984   3.268 -1.9850  0.4908  0.0859
 4695SOL     OW25717   0.287   4.137   1.481 -0.0869  0.0594 -0.3030
 4695SOL    HW125718   0.236   4.059   1.458 -0.1799 -0.2856  1.0800
 4695SOL    HW225719   0.262   4.150   1.572  0.4865  0.5900 -0.2261
 4696SOL     OW25720   1.873   1.012   1.561 -0.0050 -0.1758 -0.1052
 4696SOL    HW125721   1.787   1.035   1.595  0.1211  1.1982 -0.7458
 4696SOL    HW225722   1.914   0.981   1.642 -1.7258 -1.7771  0.1398
 4697SOL     OW25723   1.847   2.432   2.267 -0.0164 -0.5581 -0.4336
 4697SOL    HW125724   1.861   2.341   2.241  0.6199 -0.5753 -0.0430
 4697SOL    HW225725   1.754   2.433   2.291  0.3410 -0.9524  1.0163
 4698SOL     OW25726   0.865   1.951   0.937  0.2560 -0.9307 -0.2042
 4698SOL    HW125727   0.900   1.929   1.024 -0.8380  0.3811  0.5623
 4698SOL    HW225728   0.901   2.039   0.928 -0.6224 -0.7985 -2.2429
 4699SOL     OW25729   0.161   0.871   3.267 -0.1386 -0.1556  0.3340
 4699SOL    HW125730   0.110   0.857   3.347 -0.0448 -0.1759  0.3902
 4699SOL    HW225731   0.249   0.884   3.300 -0.1138 -0.3747  0.3536
 4700SOL     OW25732   4.471   3.548   3.545 -0.0623 -0.5011  0.1808
 4700SOL    HW125733   4.511   3.589   3.468 -1.0579  0.4318  0.1680
 4700SOL    HW225734   4.501   3.458   3.532 -1.0153 -0.8781  0.5773
 4701SOL     OW25735   0.306   2.106   5.528 -0.1947  0.3204 -0.1188
 4701SOL    HW125736   0.283   2.197   5.546 -0.9368  0.0967  0.0537
 4701SOL    HW225737   0.400   2.113   5.547 -0.8312  0.5339  2.9324
 4702SOL     OW25738   2.124   1.942  15.476  0.6079  0.2891  0.2996
 4702SOL    HW125739   2.054   1.878  15.477  1.1253 -0.2655  1.2001
 4702SOL    HW225740   2.150   1.936  15.385  0.3086  2.9835  0.0223
 4703SOL     OW25741   3.780   2.663   6.440  0.0044 -0.4335  0.0356
 4703SOL    HW125742   3.721   2.652   6.515  0.1304 -0.8044  0.0829
 4703SOL    HW225743   3.821   2.577   6.434  2.7265  0.8578  0.1870
 4704SOL     OW25744   1.056   0.153   6.473 -0.6102  0.3046  0.6037
 4704SOL    HW125745   1.110   0.085   6.513 -1.1101 -1.3089 -1.4391
 4704SOL    HW225746   0.996   0.180   6.543 -1.4442  2.0854 -0.7785
 4705SOL     OW25747   3.921   0.851   9.459 -0.2617  0.6584 -0.6429
 4705SOL    HW125748   3.969   0.823   9.381 -0.5520  0.4580 -0.7483
 4705SOL    HW225749   3.997   0.887   9.506  0.3429  0.2413 -1.3113
 4706SOL     OW25750   3.610   3.003   6.857  0.2740  0.0528 -0.4263
 4706SOL    HW125751   3.622   2.979   6.765 -0.8612  3.0907 -1.3603
 4706SOL    HW225752   3.685   3.057   6.882  1.0520 -1.4212  0.4653
 4707SOL     OW25753   3.092   3.971   1.780 -0.3855  0.0432  0.5394
 4707SOL    HW125754   3.159   3.946   1.843 -0.3267  0.4689  0.6483
 4707SOL    HW225755   3.014   3.971   1.835 -1.0761  0.5609 -0.4384
 4708SOL     OW25756   3.432   0.857   2.759 -0.6175  0.2238 -0.3533
 4708SOL    HW125757   3.494   0.799   2.802 -0.3803  2.1430  1.9092
 4708SOL    HW225758   3.489   0.933   2.745 -1.1896  0.9789  1.4355
 4709SOL     OW25759   0.468   4.132   3.730  0.1702 -0.0161  0.2262
 4709SOL    HW125760   0.411   4.209   3.725  0.1564 -0.2909 -3.9891
 4709SOL    HW225761   0.407   4.067   3.694 -0.5933  0.9431 -0.2113
 4710SOL     OW25762   0.802   0.773   6.325 -0.0739 -0.0743  0.4020
 4710SOL    HW125763   0.781   0.806   6.413  0.3521  1.3342 -0.0225
 4710SOL    HW225764   0.759   0.837   6.269 -0.8756  0.1957  1.3171
 4711SOL     OW25765   1.080   3.858   8.707  0.6517  0.0668  0.2079
 4711SOL    HW125766   1.003   3.846   8.763  0.9578 -0.2550  0.5579
 4711SOL    HW225767   1.155   3.846   8.766 -0.2903 -0.6448  1.2521
 4712SOL     OW25768   1.330   3.276  16.959  0.1383 -0.1512 -0.2628
 4712SOL    HW125769   1.261   3.219  16.925 -0.7437  1.7137 -1.6437
 4712SOL    HW225770   1.404   3.239  16.911  1.7189  0.5303  1.6685
 4713SOL     OW25771   3.151   3.975   8.310 -0.0257 -0.0924 -0.1782
 4713SOL    HW125772   3.190   3.989   8.397 -1.3766  2.3454  0.0343
 4713SOL    HW225773   3.092   3.904   8.333 -0.1309  0.0514 -0.0072
 4714SOL     OW25774   2.295   2.276  17.464  0.2837  0.6183 -0.3863
 4714SOL    HW125775   2.377   2.276  17.415 -0.5722  0.7010 -1.8092
 4714SOL    HW225776   2.329   2.254  17.551  2.1101 -1.5394 -1.6653
 4715SOL     OW25777   2.978   3.246   6.874 -0.1634  0.2350  0.2824
 4715SOL    HW125778   3.011   3.260   6.785 -0.4348 -1.1452 -0.0289
 4715SOL    HW225779   2.937   3.332   6.880 -1.3085 -0.2630 -0.4753
 4716SOL     OW25780   0.208   4.717   1.494  0.1674 -0.1506  0.0051
 4716SOL    HW125781   0.174   0.071   1.503  3.1121  0.7377  2.0358
 4716SOL    HW225782   0.181   4.661   1.567  0.7175  0.8019  0.9337
 4717SOL     OW25783   3.004   0.222   9.248 -0.4425  0.3887  0.6221
 4717SOL    HW125784   3.071   0.259   9.191  0.7972 -0.0005  1.8414
 4717SOL    HW225785   2.990   0.298   9.304 -2.2549  0.6367 -0.1667
 4718SOL     OW25786   0.716   3.795   6.169 -0.2497 -0.0772 -0.4665
 4718SOL    HW125787   0.630   3.753   6.170 -1.0141  1.5112  3.2320
 4718SOL    HW225788   0.741   3.764   6.257 -2.1059  1.2991  0.5451
 4719SOL     OW25789   3.284   4.344   2.406 -0.4475  0.7379  0.6049
 4719SOL    HW125790   3.313   4.404   2.474  2.9815  1.5216 -1.5262
 4719SOL    HW225791   3.217   4.293   2.452  0.9770 -2.0612 -0.4136
 4720SOL     OW25792   3.329   3.040   5.433 -0.2997  0.3889  0.2007
 4720SOL    HW125793   3.370   2.979   5.494 -1.2023  0.6144  1.0467
 4720SOL    HW225794   3.291   3.107   5.490  1.1673  0.4915  1.0462
 4721SOL     OW25795   3.251   1.674  17.452 -0.6515  0.1382 -0.3139
 4721SOL    HW125796   3.184   1.733  17.418 -1.7048 -1.0378 -0.3179
 4721SOL    HW225797   3.238   1.682  17.546  2.8453 -1.5822  0.3089
 4722SOL     OW25798   2.112   2.906  11.646 -0.7651 -0.5100  0.3037
 4722SOL    HW125799   2.203   2.913  11.618 -1.8800  2.4172 -2.5729
 4722SOL    HW225800   2.116   2.828  11.701 -1.3536  1.4737  3.1653
 4723SOL     OW25801   1.991   2.201   1.462 -0.4845 -0.3303  0.3470
 4723SOL    HW125802   1.930   2.134   1.433 -1.1848  0.0649  0.9272
 4723SOL    HW225803   1.926   2.266   1.487  1.5516  1.7315  0.2909
 4724SOL     OW25804   3.681   3.454   2.859  0.8866 -0.1191 -0.0876
 4724SOL    HW125805   3.739   3.380   2.879 -1.3613 -2.3577 -1.7937
 4724SOL    HW225806   3.744   3.519   2.827 -2.3161  2.0162 -2.0616
 4725SOL     OW25807   0.029   0.448   8.032  0.0444  0.1693  0.0880
 4725SOL    HW125808   4.713   0.404   7.964  0.8202 -0.4768 -0.0652
 4725SOL    HW225809   4.721   0.419   8.112 -1.7693  1.4675 -0.4062
 4726SOL     OW25810   2.874   4.186   4.496 -0.0044  0.1068 -0.1314
 4726SOL    HW125811   2.804   4.220   4.552 -1.2758 -1.1810 -0.9346
 4726SOL    HW225812   2.946   4.212   4.554  0.3120 -0.7246 -0.1531
 4727SOL     OW25813   2.547   0.433   3.190  0.0540 -0.3397  0.6190
 4727SOL    HW125814   2.574   0.483   3.266 -0.4865  2.5927 -1.1375
 4727SOL    HW225815   2.611   0.459   3.124 -1.7956  2.7355  0.0542
 4728SOL     OW25816   3.073   4.300  12.249  0.6593  0.1931 -0.2488
 4728SOL    HW125817   3.159   4.300  12.207  1.6580 -1.5969  1.8298
 4728SOL    HW225818   3.062   4.205  12.245 -1.2126  0.4211 -0.6508
 4729SOL     OW25819   2.533   1.664   6.117  0.2263 -0.3936 -0.2711
 4729SOL    HW125820   2.523   1.729   6.047  0.0808 -1.4574 -1.2401
 4729SOL    HW225821   2.539   1.581   6.070 -1.3179 -0.1255 -0.9569
 4730SOL     OW25822   0.709   1.798   6.748 -0.1092  0.2125 -0.0913
 4730SOL    HW125823   0.684   1.708   6.771  0.9354 -0.7810 -2.7801
 4730SOL    HW225824   0.622   1.833   6.731 -0.9406 -0.5709  2.5439
 4731SOL     OW25825   1.815   1.827   3.015  0.3976 -0.3850 -0.7877
 4731SOL    HW125826   1.901   1.826   3.057 -0.7095 -1.5966  1.4041
 4731SOL    HW225827   1.767   1.890   3.069  1.3395  0.2729 -0.7156
 4732SOL     OW25828   4.443   1.727  15.159 -0.3142 -0.1655 -0.4403
 4732SOL    HW125829   4.409   1.678  15.084 -0.2442  0.9346 -1.1921
 4732SOL    HW225830   4.472   1.806  15.114 -2.7694  0.3441 -1.1389
 4733SOL     OW25831   4.610   3.337  17.539  0.2742  0.3429 -0.1632
 4733SOL    HW125832   4.617   3.401  17.610  0.5042 -0.1082  0.2257
 4733SOL    HW225833   4.644   3.387  17.466  0.3108 -1.0782 -1.1174
 4734SOL     OW25834   2.522   4.376   4.631 -0.0437 -0.0718 -0.5183
 4734SOL    HW125835   2.441   4.333   4.657  0.2260  0.7991  1.7220
 4734SOL    HW225836   2.512   4.369   4.536 -2.1752  1.3288 -0.4119
 4735SOL     OW25837   3.385   3.139   1.978  0.4587  0.4602  0.0431
 4735SOL    HW125838   3.361   3.205   1.913 -1.7783  0.2433  0.6374
 4735SOL    HW225839   3.395   3.196   2.055 -0.4447  1.5691 -0.6610
 4736SOL     OW25840   1.489   3.754  11.615 -0.4136  0.0161  0.2323
 4736SOL    HW125841   1.404   3.768  11.656 -0.6417 -0.5551 -0.0381
 4736SOL    HW225842   1.504   3.662  11.636  1.9890  0.4142  0.2039
 4737SOL     OW25843   0.240   2.520   3.211  0.1475 -0.2157  0.3256
 4737SOL    HW125844   0.303   2.497   3.280 -0.4723 -2.4618  0.1196
 4737SOL    HW225845   0.260   2.454   3.145  2.0910  1.0678 -0.3747
 4738SOL     OW25846   0.906   3.252   3.477 -0.2906  0.5338 -0.0472
 4738SOL    HW125847   0.821   3.230   3.517  1.1430 -4.4820  0.1761
 4738SOL    HW225848   0.918   3.343   3.503  0.3993  0.5487 -0.4179
 4739SOL     OW25849   0.497   2.181   4.464 -0.0207  0.0735  0.3489
 4739SOL    HW125850   0.492   2.243   4.537 -0.2392  0.7794 -0.2712
 4739SOL    HW225851   0.583   2.147   4.488 -1.1189 -1.4904  2.0153
 4740SOL     OW25852   3.140   4.399   3.489 -0.0141  0.4569 -0.1598
 4740SOL    HW125853   3.193   4.381   3.566 -0.3979  1.6258  0.3799
 4740SOL    HW225854   3.123   4.308   3.462 -1.5530  1.3471 -2.2066
 4741SOL     OW25855   2.287   2.405  14.598  0.3197  0.1391 -0.0839
 4741SOL    HW125856   2.205   2.358  14.615  1.8134 -3.0971 -1.7972
 4741SOL    HW225857   2.286   2.472  14.666  1.8706 -0.7724  0.8369
 4742SOL     OW25858   3.296   4.126   7.539 -0.3204  0.1432 -0.6494
 4742SOL    HW125859   3.248   4.209   7.542 -0.2288  0.1990 -0.7165
 4742SOL    HW225860   3.358   4.146   7.469 -0.5329  2.1656 -0.2611
 4743SOL     OW25861   1.422   1.444   6.966 -0.1663 -0.3368  0.2848
 4743SOL    HW125862   1.454   1.514   6.909  1.6939 -0.8507  0.6734
 4743SOL    HW225863   1.408   1.485   7.052 -0.0646  1.8398 -0.7538
 4744SOL     OW25864   3.183   4.283   1.894  0.3459 -0.2697  0.8402
 4744SOL    HW125865   3.174   4.375   1.918  1.6321  0.2966 -0.8745
 4744SOL    HW225866   3.184   4.242   1.980 -0.6629  0.3863  1.1642
 4745SOL     OW25867   0.297   0.910   8.532 -0.2828 -0.3942 -0.4353
 4745SOL    HW125868   0.218   0.963   8.518 -0.7800 -0.8709  0.5193
 4745SOL    HW225869   0.363   0.977   8.546 -0.7892  0.1356 -0.5954
 4746SOL     OW25870   0.642   2.979   1.298  0.3719 -0.1009  0.1557
 4746SOL    HW125871   0.625   3.038   1.371  3.1583  0.4637  0.3193
 4746SOL    HW225872   0.709   2.919   1.331  0.9825  0.6449  0.2761
 4747SOL     OW25873   3.631   0.158   5.903  0.1515  0.3201 -0.2347
 4747SOL    HW125874   3.614   0.244   5.942 -1.0755 -1.0010  2.1254
 4747SOL    HW225875   3.670   0.107   5.974 -0.8628 -1.9567 -1.3167
 4748SOL     OW25876   1.915   3.723   9.528  0.5333 -0.7582  0.0328
 4748SOL    HW125877   1.942   3.777   9.602 -0.7630 -1.8324  1.2750
 4748SOL    HW225878   1.840   3.674   9.562  0.8405 -0.3427  1.3195
 4749SOL     OW25879   0.358   0.727   8.904  0.4172  0.2002 -0.0623
 4749SOL    HW125880   0.356   0.658   8.838 -0.5357 -0.5249  0.7399
 4749SOL    HW225881   0.273   0.719   8.946  0.9220  0.8011  1.0871
 4750SOL     OW25882   2.269   1.661  10.089 -0.1260 -0.1168  0.0971
 4750SOL    HW125883   2.318   1.624  10.163  0.3804  2.6031  1.1067
 4750SOL    HW225884   2.182   1.631  10.114 -1.2791  2.5688 -0.7459
 4751SOL     OW25885   4.630   1.222   1.970  0.4524  0.4742  0.1610
 4751SOL    HW125886   4.619   1.220   2.065  1.9464 -0.2676  0.3117
 4751SOL    HW225887   4.620   1.129   1.952  2.9657  0.5205 -1.4465
 4752SOL     OW25888   3.690   0.378   6.116 -0.2694 -0.2487 -0.6069
 4752SOL    HW125889   3.634   0.329   6.176 -0.6577  0.7744 -0.1303
 4752SOL    HW225890   3.638   0.458   6.111 -0.3704 -0.3941 -1.9696
 4753SOL     OW25891   4.294   2.311   4.563  0.2147  0.1710  0.1361
 4753SOL    HW125892   4.343   2.302   4.644 -0.8554 -0.6528  0.6903
 4753SOL    HW225893   4.346   2.254   4.506  0.0402  1.4594 -1.3231
 4754SOL     OW25894   2.223   0.501  10.430 -0.2872  0.4148  0.4462
 4754SOL    HW125895   2.193   0.431  10.487 -0.1621  0.2965  0.3684
 4754SOL    HW225896   2.151   0.505  10.367  2.4326 -2.1709 -2.8557
 4755SOL     OW25897   1.460   4.205   9.087  0.1439  1.0921  0.2960
 4755SOL    HW125898   1.541   4.156   9.100 -1.9034 -2.3605  0.1647
 4755SOL    HW225899   1.422   4.210   9.175  0.2952 -1.3187  0.4995
 4756SOL     OW25900   3.001   0.626   5.180 -0.2822 -0.1205 -0.5756
 4756SOL    HW125901   3.036   0.571   5.251 -0.6476 -1.5840 -1.5158
 4756SOL    HW225902   2.940   0.563   5.142 -0.8504 -0.1003  0.3040
 4757SOL     OW25903   4.364   3.338   4.632  0.1137  0.6955  0.0097
 4757SOL    HW125904   4.291   3.400   4.627  0.5762  1.0989 -1.8898
 4757SOL    HW225905   4.439   3.393   4.610 -0.3507  1.9383  1.5665
 4758SOL     OW25906   0.073   2.559   5.756  0.4056 -0.0702  0.0460
 4758SOL    HW125907   0.162   2.549   5.789  1.0655  0.7623 -1.5042
 4758SOL    HW225908   0.025   2.597   5.830 -4.1585  0.6360 -3.2451
 4759SOL     OW25909   2.419   3.114   2.536 -0.1453  0.4333  0.4369
 4759SOL    HW125910   2.387   3.081   2.620  0.9404 -0.9052  0.3243
 4759SOL    HW225911   2.388   3.205   2.544  1.3101  0.7924  1.9149
 4760SOL     OW25912   3.050   1.383   0.947 -0.0939  0.3441 -0.4590
 4760SOL    HW125913   3.107   1.381   1.024  0.7429  2.3306 -1.0263
 4760SOL    HW225914   3.110   1.393   0.872 -0.2551  0.0195 -0.6307
 4761SOL     OW25915   0.330   1.243   9.565  0.1802  0.0534 -0.6271
 4761SOL    HW125916   0.263   1.237   9.632  0.2256 -2.0262 -0.7699
 4761SOL    HW225917   0.364   1.155   9.550 -0.4897 -0.1954 -0.6789
 4762SOL     OW25918   0.323   4.018  12.387 -0.3250  0.0779 -0.0973
 4762SOL    HW125919   0.359   4.045  12.303  0.3630 -1.6132 -0.3382
 4762SOL    HW225920   0.293   4.106  12.410 -1.3672 -0.1616 -0.5315
 4763SOL     OW25921   2.065   3.614  12.279 -0.4933  0.5601  0.0535
 4763SOL    HW125922   2.136   3.657  12.327 -0.7202  1.4977 -0.4590
 4763SOL    HW225923   1.982   3.639  12.320 -0.4284  1.7346 -0.5496
 4764SOL     OW25924   4.163   1.195   8.431  0.3427  0.2864 -0.2187
 4764SOL    HW125925   4.189   1.110   8.468 -0.4755  1.1972  2.4507
 4764SOL    HW225926   4.078   1.198   8.474  0.4445 -1.1769  0.1070
 4765SOL     OW25927   1.534   2.643   1.873 -0.0671 -0.3008 -0.4806
 4765SOL    HW125928   1.576   2.599   1.947 -3.8988  0.9258  2.3704
 4765SOL    HW225929   1.482   2.575   1.831  0.5790 -0.7356 -0.5825
 4766SOL     OW25930   1.811   1.123   1.194  0.4894 -0.7769  0.3428
 4766SOL    HW125931   1.785   1.208   1.160 -1.0459 -1.4600 -0.1542
 4766SOL    HW225932   1.734   1.067   1.202  1.8343 -2.9711 -1.9735
 4767SOL     OW25933   2.710   2.884  10.820  0.7041 -0.5007 -0.3635
 4767SOL    HW125934   2.629   2.869  10.867 -0.1926  1.4754 -1.2867
 4767SOL    HW225935   2.767   2.812  10.847 -0.2765 -1.7963 -1.7546
 4768SOL     OW25936   1.221   0.168   6.787  0.6279 -0.1973  0.0814
 4768SOL    HW125937   1.292   0.160   6.850  1.3005  1.7927 -0.4273
 4768SOL    HW225938   1.269   0.164   6.704  0.6851  0.2112  0.0978
 4769SOL     OW25939   0.787   4.146   8.281  0.2193  0.1012  0.1599
 4769SOL    HW125940   0.822   4.076   8.335 -0.5079 -1.8812 -1.9109
 4769SOL    HW225941   0.837   4.215   8.323 -0.1500  0.8685 -0.6534
 4770SOL     OW25942   3.584   1.936   0.669 -0.0211 -0.2641  0.3685
 4770SOL    HW125943   3.636   1.873   0.620 -1.1236 -1.8892  1.2750
 4770SOL    HW225944   3.602   1.917   0.762  1.4821 -1.3277 -0.1409
 4771SOL     OW25945   2.042   1.933   9.759 -0.0796 -0.2109 -0.0955
 4771SOL    HW125946   1.949   1.912   9.759  0.0974 -0.9284  2.4207
 4771SOL    HW225947   2.051   2.026   9.739  1.2428 -0.3031  0.0390
 4772SOL     OW25948   1.067   2.675   5.582 -0.1528 -0.0930 -0.6990
 4772SOL    HW125949   1.102   2.700   5.496 -0.6612  0.5712 -0.7101
 4772SOL    HW225950   1.144   2.645   5.630 -0.7268 -0.4002  0.0079
 4773SOL     OW25951   2.190   2.562   5.260 -0.4221 -0.3573 -0.5216
 4773SOL    HW125952   2.122   2.611   5.306  0.8628  1.3715 -0.4650
 4773SOL    HW225953   2.242   2.552   5.340  1.0341 -0.4944 -1.5035
 4774SOL     OW25954   4.241   2.551   3.803  0.2165  0.0977  0.1157
 4774SOL    HW125955   4.198   2.603   3.736 -1.9032 -2.3015 -0.3935
 4774SOL    HW225956   4.175   2.555   3.873 -0.6294  3.0510 -0.8723
 4775SOL     OW25957   3.271   0.813   2.558  0.0375  0.2322  0.6997
 4775SOL    HW125958   3.342   0.785   2.500 -0.7145  0.5819 -0.3750
 4775SOL    HW225959   3.318   0.814   2.642  0.8062  0.9397  0.2602
 4776SOL     OW25960   3.817   1.891   8.395  0.0127  0.1056  0.0540
 4776SOL    HW125961   3.854   1.822   8.450  0.3647  0.0939 -0.1959
 4776SOL    HW225962   3.737   1.906   8.445 -1.2300 -0.5389 -1.7450
 4777SOL     OW25963   3.380   0.718   5.536  0.5070 -0.0539  0.0559
 4777SOL    HW125964   3.472   0.711   5.560  1.0572 -1.6373 -2.5476
 4777SOL    HW225965   3.369   0.806   5.499  0.9730  0.2702  0.6994
 4778SOL     OW25966   1.268   1.277   7.521 -0.6773  0.0304 -0.5062
 4778SOL    HW125967   1.355   1.307   7.548 -1.3000 -0.0362  1.5525
 4778SOL    HW225968   1.208   1.335   7.567  0.2394  2.0931 -1.8979
 4779SOL     OW25969   2.686   2.695  11.577 -0.3557 -0.3183 -0.3506
 4779SOL    HW125970   2.685   2.620  11.636 -0.9530 -0.3712 -0.4368
 4779SOL    HW225971   2.616   2.754  11.602  1.4285  1.7205 -0.1246
 4780SOL     OW25972   4.471   2.942   7.619 -0.1252  0.1971 -0.5374
 4780SOL    HW125973   4.496   3.030   7.647  1.4909 -1.0056  1.8188
 4780SOL    HW225974   4.379   2.933   7.642  0.1185  0.3079  0.4849
 4781SOL     OW25975   1.514   1.277   7.661 -0.2758  0.0046 -0.1300
 4781SOL    HW125976   1.554   1.198   7.624  3.0401  1.3655  0.4983
 4781SOL    HW225977   1.574   1.280   7.736 -3.3993 -1.0284  2.3593
 4782SOL     OW25978   2.473   1.002   1.610 -0.3123  0.2709 -0.1830
 4782SOL    HW125979   2.553   1.012   1.559  0.3844  0.0644  0.8642
 4782SOL    HW225980   2.498   1.000   1.702  0.1055  0.5209 -0.2945
 4783SOL     OW25981   0.788   1.099  16.774  0.1070  0.3124 -0.1685
 4783SOL    HW125982   0.847   1.024  16.769  1.7818  1.4463  2.7647
 4783SOL    HW225983   0.803   1.126  16.864  0.3083 -0.1151 -0.0710
 4784SOL     OW25984   4.563   1.694   9.819 -0.3761  0.0690  0.9547
 4784SOL    HW125985   4.566   1.627   9.887  0.4275  0.0183  0.8691
 4784SOL    HW225986   4.541   1.765   9.880  0.1102 -0.5950  1.8961
 4785SOL     OW25987   1.336   3.098   2.810 -0.1541  0.2896  0.1920
 4785SOL    HW125988   1.306   3.138   2.891 -2.0462 -0.0523 -0.3340
 4785SOL    HW225989   1.324   3.177   2.756 -2.0683 -0.4125 -0.4389
 4786SOL     OW25990   0.131   1.394   2.425 -0.6289  0.1818  0.0665
 4786SOL    HW125991   0.170   1.442   2.352  0.1849 -0.8189 -0.1524
 4786SOL    HW225992   0.136   1.306   2.386  0.6522  0.1172  0.3622
 4787SOL     OW25993   1.836   1.935   4.993  0.0534 -0.1828  0.3087
 4787SOL    HW125994   1.795   1.933   5.080 -0.3283 -1.3388  0.0928
 4787SOL    HW225995   1.865   2.027   4.996  1.4988 -0.5714 -1.4929
 4788SOL     OW25996   3.147   4.604  14.803 -0.1501  0.4571  0.1040
 4788SOL    HW125997   3.161   4.663  14.878 -2.0554 -0.2808  1.0518
 4788SOL    HW225998   3.057   4.573  14.814 -0.4241  1.4728  0.8133
 4789SOL     OW25999   4.017   3.584   7.134  0.1240  0.3763  0.2622
 4789SOL    HW126000   4.078   3.657   7.136  0.3326  0.2018  0.2779
 4789SOL    HW226001   4.049   3.539   7.213  1.9416  3.1068  1.1075
 4790SOL     OW26002   4.433   3.786   4.813 -0.1002 -0.2295 -0.1898
 4790SOL    HW126003   4.523   3.760   4.834 -0.0285 -1.0365 -1.5403
 4790SOL    HW226004   4.380   3.788   4.892  0.3002  1.9272  0.0454
 4791SOL     OW26005   4.012   2.886   6.052 -0.4064 -0.1358  0.2588
 4791SOL    HW126006   4.106   2.889   6.071 -0.3482 -1.0439  0.1341
 4791SOL    HW226007   3.991   2.792   6.048  0.5562 -0.3520  0.3785
 4792SOL     OW26008   0.672   3.989   1.194  0.3843 -0.1854 -0.0255
 4792SOL    HW126009   0.726   3.913   1.216  0.9546  0.3082  0.2725
 4792SOL    HW226010   0.694   4.065   1.248  1.0585 -1.6013  1.6872
 4793SOL     OW26011   3.346   4.638   3.073 -0.3180  0.2015 -0.4379
 4793SOL    HW126012   3.326   4.729   3.094  1.4965  0.2370  1.0609
 4793SOL    HW226013   3.303   4.593   3.146  1.6715 -1.8298 -0.5456
 4794SOL     OW26014   0.453   2.137   0.545 -0.3750 -0.6275 -0.9797
 4794SOL    HW126015   0.415   2.167   0.628 -0.6575 -0.5290 -1.1445
 4794SOL    HW226016   0.527   2.084   0.574 -0.7699  0.6914  2.4211
 4795SOL     OW26017   2.331   3.299   6.014 -0.4003  0.2550 -0.0443
 4795SOL    HW126018   2.327   3.222   6.071  4.3610  1.5572  2.0454
 4795SOL    HW226019   2.276   3.364   6.056 -1.0636  0.4921 -1.2891
 4796SOL     OW26020   1.119   3.241   7.006  0.1383  0.5544  0.0011
 4796SOL    HW126021   1.034   3.285   7.007  0.6971  1.6953 -2.3740
 4796SOL    HW226022   1.176   3.314   6.983  1.0420  0.2087  1.1461
 4797SOL     OW26023   3.900   1.758   3.645 -0.3298  0.3750  0.1236
 4797SOL    HW126024   3.888   1.847   3.613 -1.0147  0.2255 -0.0368
 4797SOL    HW226025   3.894   1.710   3.563  1.9809  1.3987 -0.6382
 4798SOL     OW26026   1.134   0.743   8.128  0.2864 -0.2593  0.0605
 4798SOL    HW126027   1.166   0.689   8.202  0.7172  0.2744  0.2659
 4798SOL    HW226028   1.218   0.746   8.082  0.9156 -0.0005  1.2250
 4799SOL     OW26029   3.375   2.554   8.380 -0.0558  0.6401  0.5376
 4799SOL    HW126030   3.457   2.571   8.333 -0.0462 -0.0034  0.3320
 4799SOL    HW226031   3.373   2.459   8.376 -0.4828  0.6990 -0.6473
 4800SOL     OW26032   0.307   1.500   9.948 -0.1086 -0.2231 -0.2584
 4800SOL    HW126033   0.240   1.543  10.001  0.9268 -0.1503  0.9851
 4800SOL    HW226034   0.382   1.491  10.006 -1.7096 -1.4660  1.6192
 4801SOL     OW26035   1.982   3.068   3.381  0.1014  0.1481 -0.2274
 4801SOL    HW126036   1.945   3.146   3.422  1.1909  0.2864  0.4864
 4801SOL    HW226037   1.952   3.004   3.445 -0.0682 -0.6653 -1.1164
 4802SOL     OW26038   3.020   1.425  13.982 -0.3399  0.2204 -0.6686
 4802SOL    HW126039   3.014   1.335  14.013 -0.8971 -0.0590 -1.5619
 4802SOL    HW226040   2.969   1.467  14.051  0.3206 -0.8468  0.4736
 4803SOL     OW26041   4.731   3.451   3.923 -0.6697 -0.5869 -0.5148
 4803SOL    HW126042   4.718   3.544   3.941 -2.2313 -0.9335  0.1193
 4803SOL    HW226043   0.092   3.452   3.924 -0.6923 -1.4385  2.4570
 4804SOL     OW26044   2.507   1.845  13.333 -0.1046 -0.3852  0.2887
 4804SOL    HW126045   2.500   1.753  13.307  0.0954 -0.4094  0.3225
 4804SOL    HW226046   2.546   1.900  13.266 -1.5113  2.3634  1.7457
 4805SOL     OW26047   3.888   2.790   9.362 -0.5020  0.0101 -0.5728
 4805SOL    HW126048   3.801   2.811   9.395 -0.3945 -0.5758  0.0927
 4805SOL    HW226049   3.895   2.698   9.388  0.8846  0.9161  2.2411
 4806SOL     OW26050   1.007   0.662   4.091 -0.0699 -0.6157 -0.0580
 4806SOL    HW126051   0.995   0.754   4.115  4.0212 -0.6198  1.9164
 4806SOL    HW226052   1.087   0.645   4.139 -1.1088 -0.8105  1.5891
 4807SOL     OW26053   0.819   3.011   6.051 -0.6891 -0.5780  0.3142
 4807SOL    HW126054   0.821   3.103   6.024  0.7311 -0.8346 -0.4887
 4807SOL    HW226055   0.863   2.973   5.975 -1.2815 -1.2923  0.3387
 4808SOL     OW26056   3.382   1.848   5.836  0.3092  0.0309  0.1185
 4808SOL    HW126057   3.439   1.870   5.763  1.2365  1.5321  1.2915
 4808SOL    HW226058   3.408   1.903   5.910  3.1367  0.0174 -0.8734
 4809SOL     OW26059   1.287   4.202   0.753  0.3642 -0.4322  0.0108
 4809SOL    HW126060   1.342   4.228   0.679  0.2635 -0.6609 -0.1423
 4809SOL    HW226061   1.254   4.116   0.729  0.2121 -0.6169  0.8662
 4810SOL     OW26062   2.594   1.490   3.262 -0.7635  0.2576  0.2617
 4810SOL    HW126063   2.581   1.584   3.249 -0.9869  0.2866  0.7103
 4810SOL    HW226064   2.671   1.484   3.206 -1.7757 -0.2351 -1.1100
 4811SOL     OW26065   1.004   1.235  13.586  0.0231 -0.3575 -0.1875
 4811SOL    HW126066   1.057   1.168  13.629 -0.2601 -0.6000 -0.2149
 4811SOL    HW226067   1.055   1.253  13.506 -1.0552  3.8089  0.0931
 4812SOL     OW26068   3.149   0.197   7.042 -0.0795 -0.0349 -0.4817
 4812SOL    HW126069   3.110   0.157   7.119 -0.9109  1.1359 -0.2969
 4812SOL    HW226070   3.233   0.156   7.023 -0.4480 -0.3422 -1.4592
 4813SOL     OW26071   0.706   1.825  12.722  0.3914 -0.1092 -0.2749
 4813SOL    HW126072   0.724   1.763  12.652 -1.8018 -0.1429 -0.7987
 4813SOL    HW226073   0.785   1.823  12.776  1.2189  1.3177 -1.4407
 4814SOL     OW26074   2.969   1.068  11.014  0.1795  0.5756 -0.7793
 4814SOL    HW126075   3.008   0.990  11.052  0.8223  0.8403 -0.9090
 4814SOL    HW226076   2.975   1.057  10.919  1.3598 -2.1549 -0.3837
 4815SOL     OW26077   1.784   1.404  15.798 -0.3504 -0.3376 -0.3597
 4815SOL    HW126078   1.783   1.421  15.892 -3.7415 -0.4127 -0.3615
 4815SOL    HW226079   1.858   1.461  15.780 -1.2324  1.1974  0.9125
 4816SOL     OW26080   3.394   2.122   7.951 -0.4354 -0.0998  0.1882
 4816SOL    HW126081   3.396   2.202   8.004  0.1039 -0.9287  1.4432
 4816SOL    HW226082   3.301   2.106   7.937 -0.4532 -0.0313  0.2268
 4817SOL     OW26083   0.583   0.019   8.631 -0.4763  0.0184 -0.2744
 4817SOL    HW126084   0.548   0.025   8.542  2.2542  2.0181 -1.2329
 4817SOL    HW226085   0.553   4.671   8.669  0.8893 -0.3201  0.0699
 4818SOL     OW26086   3.981   4.164   4.051 -0.9109  0.0341 -0.0341
 4818SOL    HW126087   4.015   4.140   3.964  2.6189 -2.2331  1.9836
 4818SOL    HW226088   3.941   4.083   4.081 -2.7584  1.0472  0.2199
 4819SOL     OW26089   3.136   3.615   4.911 -0.2596  0.1667 -0.2244
 4819SOL    HW126090   3.135   3.625   4.816  1.0924  1.6303 -0.0735
 4819SOL    HW226091   3.219   3.650   4.944 -1.6868  1.0172  2.4033
 4820SOL     OW26092   4.662   2.250   1.770 -0.2520 -0.1504 -0.6787
 4820SOL    HW126093   4.656   2.200   1.688  0.6175 -3.2716  1.1630
 4820SOL    HW226094   4.578   2.220   1.805 -0.6117  0.5301 -0.9576
 4821SOL     OW26095   2.278   4.296   3.534  0.2405 -0.2245 -0.5861
 4821SOL    HW126096   2.373   4.306   3.536  0.0842  1.1599 -0.5680
 4821SOL    HW226097   2.260   4.389   3.549 -0.6826 -0.7523  1.6792
 4822SOL     OW26098   0.218   3.291   2.626  0.4130 -0.0690  0.2504
 4822SOL    HW126099   0.160   3.347   2.676  0.5923 -0.4682  0.9021
 4822SOL    HW226100   0.296   3.275   2.680 -0.3272 -0.6995  1.1329
 4823SOL     OW26101   2.575   0.583   6.493 -0.6314 -0.5360  0.4129
 4823SOL    HW126102   2.563   0.524   6.567  0.2498  0.4136  1.3095
 4823SOL    HW226103   2.569   0.673   6.526  0.7226 -0.1499 -0.3983
 4824SOL     OW26104   3.151   0.393   7.522  0.5971 -0.4946  0.1887
 4824SOL    HW126105   3.138   0.484   7.549  0.0631  0.3087 -2.7803
 4824SOL    HW226106   3.064   0.370   7.488  0.0418  1.2501  0.4284
 4825SOL     OW26107   2.255   4.505   4.423  0.4241  0.1974 -0.6017
 4825SOL    HW126108   2.195   4.529   4.353 -0.1892 -0.9659 -0.4732
 4825SOL    HW226109   2.322   4.574   4.421 -1.3911  1.9010 -1.9704
 4826SOL     OW26110   1.142   3.693   6.436 -0.2108 -0.2257  0.3476
 4826SOL    HW126111   1.092   3.741   6.502 -0.9000 -0.4732  0.0080
 4826SOL    HW226112   1.201   3.639   6.489  0.2504  1.4893  1.5730
 4827SOL     OW26113   3.746   1.151  11.621 -0.0373 -0.2588  0.0560
 4827SOL    HW126114   3.769   1.239  11.652 -1.4242 -0.2127  0.9782
 4827SOL    HW226115   3.829   1.126  11.581  0.2693  0.9545 -0.0792
 4828SOL     OW26116   0.382   4.687  14.808 -0.1388 -0.4014 -0.0906
 4828SOL    HW126117   0.467   4.666  14.845 -0.0491 -1.5810 -0.9760
 4828SOL    HW226118   0.395   0.046  14.791  3.1901 -1.1823 -1.7323
 4829SOL     OW26119   0.184   4.067   5.882 -0.4574  0.1455  0.4796
 4829SOL    HW126120   0.203   4.099   5.794  0.1835 -0.2373  0.4777
 4829SOL    HW226121   0.178   3.971   5.880  3.4282 -0.1125  0.2093
 4830SOL     OW26122   2.234   2.501   1.572 -0.0589 -0.3303 -0.2979
 4830SOL    HW126123   2.205   2.564   1.505 -2.6214 -2.8954 -1.6085
 4830SOL    HW226124   2.307   2.463   1.522 -0.1436 -0.6331 -0.1880
 4831SOL     OW26125   0.602   2.808   0.598  0.2245 -0.5862 -0.4581
 4831SOL    HW126126   0.591   2.816   0.693 -3.1838  1.0653 -0.9795
 4831SOL    HW226127   0.668   2.877   0.590  0.5767 -1.1987 -2.7569
 4832SOL     OW26128   4.732   2.562  12.020  0.3472 -0.7746  0.4580
 4832SOL    HW126129   0.037   2.646  11.996 -0.0937 -0.1275  1.9749
 4832SOL    HW226130   4.694   2.586  12.105  1.4035 -1.5983  1.1476
 4833SOL     OW26131   1.163   1.726  16.928  0.1611  0.5804 -0.5067
 4833SOL    HW126132   1.243   1.728  16.980  1.1359 -0.8275 -1.9498
 4833SOL    HW226133   1.102   1.725  17.002  1.3084 -2.4269  0.3948
 4834SOL     OW26134   2.470   2.603   2.570  0.7831  0.2943 -0.3167
 4834SOL    HW126135   2.494   2.636   2.484  0.4297 -0.2723 -0.6359
 4834SOL    HW226136   2.375   2.606   2.570  0.7560 -0.5491 -0.1852
 4835SOL     OW26137   0.939   2.534   2.141  0.1798 -0.1352 -0.0636
 4835SOL    HW126138   1.023   2.577   2.154  0.5331 -0.3321 -1.6526
 4835SOL    HW226139   0.970   2.443   2.141  1.6461  0.3577 -0.1530
 4836SOL     OW26140   1.453   2.473  16.646 -0.0806 -0.2542 -0.5414
 4836SOL    HW126141   1.509   2.524  16.705  0.2677 -0.8186 -0.3852
 4836SOL    HW226142   1.460   2.381  16.671  0.7827 -0.7429 -2.6213
 4837SOL     OW26143   3.545   2.197   5.418  0.1820  0.4094 -0.6479
 4837SOL    HW126144   3.544   2.157   5.331 -0.8767 -1.4000  0.1888
 4837SOL    HW226145   3.520   2.288   5.397  0.8028  0.7312  0.0171
 4838SOL     OW26146   3.898   0.831   8.720 -0.6099 -0.0548  0.5756
 4838SOL    HW126147   3.902   0.867   8.808 -3.3908  1.4058  0.0681
 4838SOL    HW226148   3.830   0.767   8.741 -2.0371  1.4706  0.5161
 4839SOL     OW26149   2.550   3.490   3.247 -0.1980  0.2511 -0.4088
 4839SOL    HW126150   2.489   3.558   3.275 -0.2048  0.3461 -0.6595
 4839SOL    HW226151   2.577   3.517   3.160  0.8096 -0.2861 -0.2651
 4840SOL     OW26152   2.724   0.488   2.998  0.9216 -0.1130  0.6148
 4840SOL    HW126153   2.768   0.549   2.939  0.3631  1.8976  2.2890
 4840SOL    HW226154   2.724   0.414   2.937 -1.1094 -0.3451  0.8742
 4841SOL     OW26155   3.730   3.000   0.774 -0.0497  0.4903 -0.8587
 4841SOL    HW126156   3.762   3.054   0.702  0.7934  0.5322 -0.4538
 4841SOL    HW226157   3.667   3.059   0.813 -0.4485 -0.7246  0.3382
 4842SOL     OW26158   2.489   2.900  11.693  0.0603  0.2348 -0.4926
 4842SOL    HW126159   2.491   2.953  11.773  1.0218  0.0724 -0.4100
 4842SOL    HW226160   2.471   2.970  11.630  1.5351  1.1688  0.1327
 4843SOL     OW26161   1.790   1.845   4.733  0.3763  0.7085  0.7450
 4843SOL    HW126162   1.803   1.868   4.825  2.3148 -0.9651  0.9060
 4843SOL    HW226163   1.882   1.839   4.707 -0.2866 -0.4683 -1.3280
 4844SOL     OW26164   1.756   0.011   8.422 -0.7253  0.2585 -0.3080
 4844SOL    HW126165   1.725   4.725   8.510 -1.2957 -2.2378 -1.0798
 4844SOL    HW226166   1.701   4.695   8.362  1.8691  0.2501 -2.7102
 4845SOL     OW26167   1.267   3.777   7.945  0.0651  0.1143 -0.0159
 4845SOL    HW126168   1.283   3.698   7.894  0.1724  0.0368  0.1351
 4845SOL    HW226169   1.290   3.753   8.035  1.0692  1.4604  0.0857
 4846SOL     OW26170   1.614   3.629   1.953  0.1328 -0.2626  0.1877
 4846SOL    HW126171   1.524   3.619   1.920 -0.4857  1.5997  1.3469
 4846SOL    HW226172   1.652   3.541   1.957  0.6304 -0.0911 -1.0527
 4847SOL     OW26173   0.883   4.165   7.295 -0.3772 -0.0721 -0.5739
 4847SOL    HW126174   0.895   4.257   7.318  2.1132 -0.4454 -0.3724
 4847SOL    HW226175   0.816   4.132   7.354  0.8213  0.7412  1.2561
 4848SOL     OW26176   1.884   0.031   4.977 -0.0937  0.2168 -0.0772
 4848SOL    HW126177   1.883   4.695   4.914  2.9465  0.3684 -0.2850
 4848SOL    HW226178   1.940   0.094   4.932  0.5043 -0.3684 -0.1441
 4849SOL     OW26179   2.705   3.227   4.286  0.3585 -0.3062 -0.1831
 4849SOL    HW126180   2.736   3.170   4.355  1.6688 -0.2268 -0.7046
 4849SOL    HW226181   2.760   3.301   4.311  1.3588 -1.5003  1.0743
 4850SOL     OW26182   1.391   2.369   3.028 -0.1510 -0.4553  0.0476
 4850SOL    HW126183   1.406   2.423   2.950 -0.7607 -0.5185 -0.1133
 4850SOL    HW226184   1.296   2.375   3.035 -0.1906 -2.2485  0.9446
 4851SOL     OW26185   0.760   0.490   0.601 -0.1100  0.1480  0.0049
 4851SOL    HW126186   0.708   0.500   0.522 -0.3386 -0.1023  0.1241
 4851SOL    HW226187   0.832   0.552   0.595 -0.2087  0.2486 -0.1225
 4852SOL     OW26188   1.760   1.683   5.496  0.3926 -0.0081  0.2358
 4852SOL    HW126189   1.780   1.601   5.452 -0.7039 -0.9315  1.4861
 4852SOL    HW226190   1.701   1.650   5.563  0.3689 -1.4620 -0.5030
 4853SOL     OW26191   3.813   2.799   2.136 -0.0519 -0.6320  0.1364
 4853SOL    HW126192   3.782   2.876   2.185 -0.5719 -1.3926  0.9992
 4853SOL    HW226193   3.821   2.836   2.048  1.9578 -2.6993 -0.5380
 4854SOL     OW26194   4.220   0.608   5.450 -0.5753 -0.4670  0.4311
 4854SOL    HW126195   4.128   0.606   5.425 -0.6898 -0.2749  0.8412
 4854SOL    HW226196   4.252   0.537   5.395  2.9141  1.2499  0.2113
 4855SOL     OW26197   3.444   1.734  10.161  0.8265 -0.2416 -0.0251
 4855SOL    HW126198   3.470   1.823  10.183  0.6773 -0.0275 -0.7088
 4855SOL    HW226199   3.411   1.744  10.072  1.9364  3.8681  0.0344
 4856SOL     OW26200   1.041   2.058   6.987 -0.0008  0.1291 -0.6955
 4856SOL    HW126201   1.045   1.992   6.917 -0.0706 -1.5406  0.8843
 4856SOL    HW226202   1.124   2.101   6.966  0.0939  0.1115 -0.3506
 4857SOL     OW26203   0.675   2.660  16.670  0.0911 -0.5209  0.1946
 4857SOL    HW126204   0.646   2.574  16.700 -0.8188 -0.1159  0.4814
 4857SOL    HW226205   0.710   2.643  16.582 -2.0021 -3.7373 -0.0180
 4858SOL     OW26206   1.343   2.158   4.880 -0.4258 -0.4044  0.5352
 4858SOL    HW126207   1.411   2.155   4.948  1.4624 -2.8282 -1.4764
 4858SOL    HW226208   1.272   2.109   4.921  1.2882 -2.7486  0.7135
 4859SOL     OW26209   1.951   4.600   5.936 -0.6605 -0.3745  0.2907
 4859SOL    HW126210   1.994   4.685   5.929  2.4442 -2.1091 -1.6921
 4859SOL    HW226211   1.863   4.630   5.910 -0.3436 -0.9236 -1.4431
 4860SOL     OW26212   1.475   1.192   7.092  0.5250 -0.5161 -0.3187
 4860SOL    HW126213   1.394   1.195   7.143  1.7910  1.6932  1.5720
 4860SOL    HW226214   1.468   1.272   7.041 -0.3924 -0.2729  0.2066
 4861SOL     OW26215   0.490   2.348   5.323  0.6208 -0.7420  0.5201
 4861SOL    HW126216   0.444   2.431   5.340 -0.5711 -0.6381 -3.1294
 4861SOL    HW226217   0.424   2.281   5.341 -0.7834 -0.3188 -3.0910
 4862SOL     OW26218   2.194   0.474   2.540 -0.4762  0.2101 -0.4757
 4862SOL    HW126219   2.238   0.452   2.458 -2.4800 -0.4644 -1.3847
 4862SOL    HW226220   2.102   0.473   2.514 -0.8173 -1.2553  0.7562
 4863SOL     OW26221   0.884   0.237   6.658 -0.3124  0.2350 -0.1451
 4863SOL    HW126222   0.918   0.270   6.742 -1.1543  0.0630  0.2663
 4863SOL    HW226223   0.807   0.194   6.696 -0.6168  0.8364 -0.0816
 4864SOL     OW26224   3.911   3.283  12.478 -0.1103  0.2362  0.2156
 4864SOL    HW126225   3.990   3.330  12.452  0.0946 -0.2073  0.0389
 4864SOL    HW226226   3.903   3.308  12.570  0.8699 -1.2990  0.7235
 4865SOL     OW26227   1.994   0.647   4.503 -0.4697  0.3867 -0.1814
 4865SOL    HW126228   2.063   0.672   4.441  0.4065  0.2295  0.7410
 4865SOL    HW226229   1.981   0.734   4.540 -0.7081  1.9209 -3.8608
 4866SOL     OW26230   1.388   3.161  10.054  0.3940  0.0206  0.5255
 4866SOL    HW126231   1.315   3.165   9.992  1.3790 -0.7854 -0.6683
 4866SOL    HW226232   1.361   3.085  10.107  0.0828 -0.8119 -0.8270
 4867SOL     OW26233   2.638   3.359   4.049  0.2817 -0.2886 -0.0252
 4867SOL    HW126234   2.596   3.290   3.998  0.7249 -0.1659 -0.5621
 4867SOL    HW226235   2.686   3.312   4.117  0.5886 -1.2505 -0.9049
 4868SOL     OW26236   3.458   4.118   3.287 -0.2693  0.6947  0.1496
 4868SOL    HW126237   3.491   4.127   3.376 -0.3376 -1.2293  0.3678
 4868SOL    HW226238   3.518   4.176   3.240 -2.6658  1.5797 -1.8372
 4869SOL     OW26239   3.096   0.496   7.901 -0.1152  0.3834  0.1921
 4869SOL    HW126240   3.054   0.514   7.985 -1.2055 -0.8140 -0.0829
 4869SOL    HW226241   3.100   0.400   7.904  3.0771  0.5414  0.4654
 4870SOL     OW26242   4.512   2.016   8.539 -0.0009  0.5179  0.3033
 4870SOL    HW126243   4.431   2.006   8.488  2.0814 -3.6882 -2.1889
 4870SOL    HW226244   4.540   1.926   8.558 -2.1492 -0.2282 -0.0006
 4871SOL     OW26245   2.757   3.210  14.997 -0.5768 -0.1137  0.2453
 4871SOL    HW126246   2.718   3.229  15.082 -1.7842 -1.4392 -0.0093
 4871SOL    HW226247   2.692   3.152  14.957 -1.4401 -0.5340  2.2504
 4872SOL     OW26248   1.825   3.399   1.639 -0.5580  0.0728  0.0005
 4872SOL    HW126249   1.750   3.410   1.698  1.1111  0.8144  1.9588
 4872SOL    HW226250   1.887   3.337   1.677 -0.1005  1.3366  1.3155
 4873SOL     OW26251   1.698   4.691  14.120  0.1929 -0.1177  0.0593
 4873SOL    HW126252   1.731   0.032  14.168 -0.0111  0.8023 -1.2384
 4873SOL    HW226253   1.627   4.663  14.179  0.6365 -1.4732 -0.0493
 4874SOL     OW26254   4.593   1.753   3.801 -0.0106  0.2647  0.2499
 4874SOL    HW126255   4.632   1.812   3.737 -0.0775  0.5425  0.4666
 4874SOL    HW226256   4.502   1.771   3.778  0.2239  0.5225 -0.4542
 4875SOL     OW26257   3.992   0.209  12.671  0.1501  0.2184 -0.7444
 4875SOL    HW126258   3.985   0.149  12.745  1.6199 -0.7994 -1.4270
 4875SOL    HW226259   4.010   0.282  12.730 -0.6929 -0.2870  0.1298
 4876SOL     OW26260   2.055   1.498   7.521 -0.1633 -0.4633  0.3452
 4876SOL    HW126261   2.042   1.513   7.615  2.2632 -2.2917  0.9908
 4876SOL    HW226262   2.062   1.589   7.490 -3.1277 -0.7374 -1.1222
 4877SOL     OW26263   0.395   1.752  13.006 -0.1170  0.4109  0.2936
 4877SOL    HW126264   0.436   1.834  12.979  0.2321 -0.6133 -2.3116
 4877SOL    HW226265   0.464   1.688  12.995 -1.5804 -1.4251  1.8032
 4878SOL     OW26266   3.268   2.917   2.064  0.4147  0.0468  0.1295
 4878SOL    HW126267   3.314   2.984   2.013  1.9735 -1.1574 -0.0358
 4878SOL    HW226268   3.192   2.964   2.100  1.2368  1.0194  0.6167
 4879SOL     OW26269   1.444   4.179   1.529  0.5475  0.0043 -0.4608
 4879SOL    HW126270   1.483   4.139   1.607  0.6628 -2.4662 -1.7786
 4879SOL    HW226271   1.470   4.116   1.462  2.0298  0.5965 -0.4487
 4880SOL     OW26272   1.947   2.582   9.513  0.0808 -0.4506 -0.3439
 4880SOL    HW126273   2.008   2.543   9.576 -1.7413 -3.1806 -0.2625
 4880SOL    HW226274   1.928   2.504   9.461 -0.3542 -1.5025  1.3824
 4881SOL     OW26275   2.360   4.633   9.166  0.1850  0.0447 -0.5244
 4881SOL    HW126276   2.426   4.656   9.101 -1.2162  2.2179 -1.1703
 4881SOL    HW226277   2.283   4.618   9.111  0.6816 -1.4344 -0.8230
 4882SOL     OW26278   2.718   3.107   3.862  0.9478 -0.0610 -0.6760
 4882SOL    HW126279   2.725   3.015   3.888 -0.7202  0.2957  0.9976
 4882SOL    HW226280   2.806   3.111   3.823  1.3097  3.3187  0.5182
 4883SOL     OW26281   3.334   2.736   2.845 -0.6608  0.2200  0.4592
 4883SOL    HW126282   3.285   2.709   2.767 -0.9903 -0.9538  1.0778
 4883SOL    HW226283   3.324   2.829   2.826 -0.3895  0.1250 -0.1479
 4884SOL     OW26284   1.434   0.333   2.710 -0.3652  0.5215 -0.0139
 4884SOL    HW126285   1.363   0.278   2.677 -0.1682  1.0313 -1.2747
 4884SOL    HW226286   1.393   0.391   2.774 -1.0735 -1.9078  1.7760
 4885SOL     OW26287   1.395   0.626  16.507  0.2136  0.8203  0.5819
 4885SOL    HW126288   1.342   0.596  16.434 -0.8022 -0.7978  1.9788
 4885SOL    HW226289   1.484   0.600  16.483 -0.3093  1.3453 -1.9195
 4886SOL     OW26290   2.143   3.958   2.060 -0.4993 -0.4606  0.2156
 4886SOL    HW126291   2.054   3.964   2.026 -0.9972 -0.2151  1.5628
 4886SOL    HW226292   2.185   4.015   1.996 -0.8809  2.3124  2.4445
 4887SOL     OW26293   0.987   1.229   3.597  0.3925  0.2105 -0.5886
 4887SOL    HW126294   1.027   1.142   3.599  1.4371  0.6870 -0.7015
 4887SOL    HW226295   1.037   1.275   3.665 -0.1505 -1.1205  0.6997
 4888SOL     OW26296   4.274   4.365   1.691 -0.1545  0.3853  0.0250
 4888SOL    HW126297   4.237   4.452   1.675  2.4570  1.5299  0.1755
 4888SOL    HW226298   4.299   4.335   1.604 -0.2612  1.3076 -0.3305
 4889SOL     OW26299   1.079   2.400   2.390 -0.7997  0.3081 -0.3298
 4889SOL    HW126300   0.997   2.437   2.424 -0.6775 -0.8369  1.2258
 4889SOL    HW226301   1.050   2.340   2.321 -0.8695  0.3475 -0.3347
 4890SOL     OW26302   2.274   2.292   0.386  0.0079  0.7392 -0.0205
 4890SOL    HW126303   2.241   2.254   0.305  0.1747 -0.8242  0.6526
 4890SOL    HW226304   2.332   2.356   0.343  0.9696  0.5384  0.9506
 4891SOL     OW26305   1.942   3.277  14.840  0.7646  0.0855  0.1414
 4891SOL    HW126306   1.931   3.230  14.757 -3.6311 -0.9470  1.2928
 4891SOL    HW226307   1.852   3.285  14.872  0.2141  1.5998 -1.7828
 4892SOL     OW26308   0.802   2.577   1.467  0.0882  0.7650 -0.2534
 4892SOL    HW126309   0.771   2.515   1.401  0.7374 -0.1972  0.3290
 4892SOL    HW226310   0.858   2.521   1.521 -0.2677 -1.8042 -2.5001
 4893SOL     OW26311   0.091   0.977   9.548 -0.0375  0.1921  0.2973
 4893SOL    HW126312   0.184   0.999   9.552  0.4037 -1.1801 -2.4931
 4893SOL    HW226313   0.089   0.894   9.596  2.2769 -0.8867 -1.4913
 4894SOL     OW26314   1.837   0.067   6.985 -0.6357  0.0416 -0.3286
 4894SOL    HW126315   1.872   0.076   7.074 -0.1054 -0.6789 -0.4662
 4894SOL    HW226316   1.794   0.152   6.977  0.0035  0.2336 -1.5904
 4895SOL     OW26317   4.670   0.315   0.429 -0.0724  0.6111 -0.2791
 4895SOL    HW126318   0.015   0.324   0.481 -1.4594  3.2917  1.3753
 4895SOL    HW226319   4.608   0.383   0.456 -2.9540 -0.8886 -3.1716
 4896SOL     OW26320   4.394   1.225   4.537 -0.6378  0.2449  0.7702
 4896SOL    HW126321   4.442   1.307   4.524  0.1052 -0.4276 -0.7761
 4896SOL    HW226322   4.364   1.203   4.449  0.7004  0.5839  0.2298
 4897SOL     OW26323   3.097   2.772   3.408  0.1637 -0.0709 -0.2108
 4897SOL    HW126324   3.060   2.860   3.413  1.7910  0.7047 -1.8050
 4897SOL    HW226325   3.188   2.786   3.381  0.5688  1.0971  1.7151
 4898SOL     OW26326   1.384   1.825   9.350 -0.3141  0.0340 -0.6004
 4898SOL    HW126327   1.321   1.757   9.375 -0.6945  0.7051  0.2598
 4898SOL    HW226328   1.350   1.844   9.263  2.9265  0.5039 -1.7601
 4899SOL     OW26329   0.587   4.418   1.536 -0.0033 -0.5010  0.3130
 4899SOL    HW126330   0.542   4.476   1.597  0.2511 -0.9724  0.9389
 4899SOL    HW226331   0.517   4.414   1.471  0.2444  0.8789 -0.0383
 4900SOL     OW26332   1.968   0.026   3.755 -0.2502 -0.2178  0.1912
 4900SOL    HW126333   1.877   0.003   3.778  0.4382  1.0256  4.2242
 4900SOL    HW226334   1.970   0.001   3.663 -2.1924 -2.2732  0.6922
 4901SOL     OW26335   4.196   2.594   6.423  0.1112 -0.2686 -0.3175
 4901SOL    HW126336   4.254   2.587   6.499  1.3689 -1.0425 -1.3519
 4901SOL    HW226337   4.175   2.687   6.422  3.2826  0.4615  3.2168
 4902SOL     OW26338   2.696   0.887   9.394  0.2525 -0.2908 -0.0297
 4902SOL    HW126339   2.726   0.818   9.453 -1.5497 -0.0698  1.1257
 4902SOL    HW226340   2.683   0.953   9.462  4.1570  1.9818 -1.4446
 4903SOL     OW26341   0.992   0.406   4.240  0.0100 -0.3125  0.4113
 4903SOL    HW126342   1.067   0.361   4.203 -1.3500 -1.8762 -0.4188
 4903SOL    HW226343   0.986   0.484   4.185 -1.6461  0.6098  1.8744
 4904SOL     OW26344   4.056   1.868   3.878  0.1738  0.5813  0.4968
 4904SOL    HW126345   4.116   1.938   3.853  0.4806  0.1253 -0.0496
 4904SOL    HW226346   4.009   1.863   3.795  0.2595 -0.1854  0.4928
 4905SOL     OW26347   1.185   2.991   4.326  0.0338  0.2891  0.0394
 4905SOL    HW126348   1.271   2.994   4.369 -0.2809  0.4668  0.6619
 4905SOL    HW226349   1.190   3.060   4.260  0.9100 -0.6117 -0.8498
 4906SOL     OW26350   0.065   1.002  14.164 -0.0386 -0.7722  0.5162
 4906SOL    HW126351   4.713   1.038  14.180  0.2854  0.6507 -0.9345
 4906SOL    HW226352   0.087   1.053  14.087 -1.2015 -0.8841  0.1044
 4907SOL     OW26353   2.565   0.609   3.816  0.1957 -0.5345  0.1145
 4907SOL    HW126354   2.525   0.641   3.735  0.6871  0.6559  0.3516
 4907SOL    HW226355   2.636   0.552   3.786 -1.7778 -2.4872 -0.8204
 4908SOL     OW26356   2.255   0.249   4.403 -0.0137 -0.0303 -0.1565
 4908SOL    HW126357   2.273   0.187   4.332  1.8519  0.8903 -0.4860
 4908SOL    HW226358   2.339   0.263   4.445 -0.7056  1.1813  0.8334
 4909SOL     OW26359   0.763   3.148  14.698  0.2486 -0.0653  0.3282
 4909SOL    HW126360   0.764   3.214  14.767  0.7806  0.0924  0.1679
 4909SOL    HW226361   0.847   3.103  14.710  1.1231  0.7567 -2.7843
 4910SOL     OW26362   3.644   3.009   1.992 -0.4489 -0.2782 -0.1729
 4910SOL    HW126363   3.643   3.083   1.932 -2.5345  0.0445  0.2425
 4910SOL    HW226364   3.560   3.014   2.037 -0.8141 -2.5114 -0.5970
 4911SOL     OW26365   1.652   4.205  14.536 -0.4671  0.0173 -0.6781
 4911SOL    HW126366   1.591   4.188  14.464 -1.3643 -1.0620  0.3345
 4911SOL    HW226367   1.644   4.123  14.584  0.9415 -0.0277 -0.5128
 4912SOL     OW26368   4.435   3.810   6.527 -0.3014  0.0927  0.4208
 4912SOL    HW126369   4.342   3.832   6.528 -0.5973 -1.1953  1.9183
 4912SOL    HW226370   4.474   3.880   6.581 -3.7958 -0.0537  3.0834
 4913SOL     OW26371   0.326   2.309   5.742 -0.2283  0.0172  0.7443
 4913SOL    HW126372   0.298   2.384   5.795 -1.3695 -1.2302  1.9208
 4913SOL    HW226373   0.372   2.257   5.808 -0.8047 -0.4323  0.7886
 4914SOL     OW26374   0.788   1.736  15.343  0.2018  0.0691 -0.0229
 4914SOL    HW126375   0.798   1.658  15.288  3.0792 -1.7372  3.0743
 4914SOL    HW226376   0.877   1.764  15.367  1.5857 -2.8208 -1.6842
 4915SOL     OW26377   4.638   4.485   6.152 -0.2948 -0.2723  0.0062
 4915SOL    HW126378   4.605   4.574   6.154  0.6928  0.0592  1.5318
 4915SOL    HW226379   4.733   4.495   6.148 -0.3666 -0.1192 -1.3251
 4916SOL     OW26380   2.228   1.299   3.920  0.7082 -0.5724  0.0791
 4916SOL    HW126381   2.277   1.377   3.893  0.7886 -1.1084 -1.3461
 4916SOL    HW226382   2.141   1.339   3.920  2.4441  3.1772 -3.3719
 4917SOL     OW26383   2.932   2.048   7.639 -0.6368 -0.5916 -0.1707
 4917SOL    HW126384   2.904   1.956   7.639  2.2597 -1.4849  0.2397
 4917SOL    HW226385   2.853   2.087   7.674 -0.1017 -0.8403  1.3172
 4918SOL     OW26386   4.046   3.529   6.702 -0.2962  0.0395 -0.6375
 4918SOL    HW126387   4.064   3.443   6.739 -0.9832 -0.3542 -1.2093
 4918SOL    HW226388   4.133   3.568   6.693 -0.8706  1.4677 -0.0243
 4919SOL     OW26389   3.439   4.335   4.358 -0.1041 -0.2189 -0.3448
 4919SOL    HW126390   3.436   4.431   4.366  1.3021 -0.0985 -1.2937
 4919SOL    HW226391   3.347   4.309   4.366 -0.4137  0.4697 -1.5426
 4920SOL     OW26392   3.549   4.126  16.196 -0.0257  0.0494  0.3648
 4920SOL    HW126393   3.526   4.089  16.111 -1.7716  3.1246 -0.5172
 4920SOL    HW226394   3.462   4.135  16.236 -1.4286 -1.9923 -2.2767
 4921SOL     OW26395   2.395   2.466  12.045  0.3051 -0.1563 -0.3558
 4921SOL    HW126396   2.427   2.546  12.003  2.3822  0.1975  1.8592
 4921SOL    HW226397   2.310   2.453  12.004  0.0255  0.6964 -0.0572
 4922SOL     OW26398   1.704   3.241   2.830 -0.1348  0.9587  0.5966
 4922SOL    HW126399   1.642   3.169   2.836 -0.4847  1.3323  1.4240
 4922SOL    HW226400   1.667   3.300   2.764 -1.1771  0.0832  0.4075
 4923SOL     OW26401   2.886   1.638   2.527  0.2251 -0.2084 -0.3865
 4923SOL    HW126402   2.898   1.659   2.434 -2.9297 -1.9890 -1.1716
 4923SOL    HW226403   2.793   1.656   2.540  0.2881  1.4564 -2.2785
 4924SOL     OW26404   1.771   2.889   3.615 -0.0306  0.1715 -0.1441
 4924SOL    HW126405   1.718   2.918   3.540 -0.0229  0.2978 -0.1000
 4924SOL    HW226406   1.732   2.940   3.685  2.0571  2.1040 -0.4016
 4925SOL     OW26407   3.820   1.906   5.916 -0.0644  0.6318 -0.5395
 4925SOL    HW126408   3.892   1.959   5.949  0.9799 -2.4794  2.1354
 4925SOL    HW226409   3.764   1.901   5.993  1.9580  0.5961  0.9094
 4926SOL     OW26410   0.225   3.358  13.828 -0.3429 -0.0828 -0.1907
 4926SOL    HW126411   0.291   3.383  13.893 -0.4653 -0.3417  0.0322
 4926SOL    HW226412   0.214   3.265  13.850 -2.4416  0.1911 -0.1316
 4927SOL     OW26413   1.301   4.378   5.209 -0.5530  0.0067 -0.1053
 4927SOL    HW126414   1.353   4.451   5.176  1.5195 -1.4143  0.0189
 4927SOL    HW226415   1.278   4.409   5.297  0.7486 -1.1813  0.6583
 4928SOL     OW26416   3.143   4.364   4.078  0.0888  0.4026 -0.6823
 4928SOL    HW126417   3.115   4.431   4.015 -0.0136  0.4432 -0.5941
 4928SOL    HW226418   3.155   4.282   4.031 -4.1272 -1.4522  1.4905
 4929SOL     OW26419   3.922   1.604  11.324 -0.0898 -0.8749 -0.2983
 4929SOL    HW126420   3.908   1.698  11.314  1.4005 -0.7232 -1.0501
 4929SOL    HW226421   3.885   1.588  11.410  0.9895  1.0462  0.5177
 4930SOL     OW26422   3.527   3.855   5.362  0.1986 -0.2702 -0.1779
 4930SOL    HW126423   3.580   3.776   5.376 -0.8911 -0.6991  1.5660
 4930SOL    HW226424   3.475   3.854   5.443  0.3470 -1.9152 -0.1016
 4931SOL     OW26425   3.708   1.838  10.755  0.3190 -0.3337  0.3075
 4931SOL    HW126426   3.737   1.780  10.825 -1.6534 -3.8690 -1.7916
 4931SOL    HW226427   3.671   1.766  10.704  1.2618  0.0819 -0.9813
 4932SOL     OW26428   0.507   4.269   5.909  0.0452  0.1866 -0.2196
 4932SOL    HW126429   0.463   4.206   5.852 -2.5221  1.7320  0.0469
 4932SOL    HW226430   0.511   4.344   5.850 -2.7180  1.1119  0.7402
 4933SOL     OW26431   1.824   1.836   0.566 -0.2328 -0.1206  0.0782
 4933SOL    HW126432   1.889   1.902   0.588 -1.7895  1.2524  0.5883
 4933SOL    HW226433   1.787   1.821   0.653 -0.8285 -0.6532 -0.2653
 4934SOL     OW26434   0.079   3.699  16.812 -0.0337 -0.5410 -0.4240
 4934SOL    HW126435   4.727   3.736  16.797  0.0104  1.1272  3.4489
 4934SOL    HW226436   0.135   3.772  16.785 -0.4225  0.5885  1.7751
 4935SOL     OW26437   3.804   0.235   4.364 -0.1457 -0.4415  0.2218
 4935SOL    HW126438   3.848   0.287   4.296 -0.6258  0.0537  0.2940
 4935SOL    HW226439   3.810   0.146   4.330  2.1075 -0.3933  0.4509
 4936SOL     OW26440   0.718   2.241   1.551  0.3092 -0.3236 -0.2526
 4936SOL    HW126441   0.625   2.230   1.535  0.6688 -1.6159 -1.4798
 4936SOL    HW226442   0.708   2.277   1.639  0.8427  0.0457 -0.3418
 4937SOL     OW26443   3.811   0.340   3.498  0.2498 -0.1677 -0.9120
 4937SOL    HW126444   3.839   0.425   3.533 -1.8714  0.3996 -0.5561
 4937SOL    HW226445   3.851   0.291   3.569  1.5575  2.1408 -0.0434
 4938SOL     OW26446   2.291   1.035   5.269  0.3441 -0.2049  0.0014
 4938SOL    HW126447   2.246   1.090   5.333  0.6054 -1.0776  0.9317
 4938SOL    HW226448   2.227   0.967   5.248 -0.1912 -0.2103  1.6290
 4939SOL     OW26449   1.134   2.825   5.144 -0.5837 -0.0622 -0.2874
 4939SOL    HW126450   1.065   2.762   5.162 -2.8375  2.0954 -1.3716
 4939SOL    HW226451   1.167   2.821   5.234  0.8842  0.0913 -0.8163
 4940SOL     OW26452   2.521   2.458   3.959  0.3415 -0.3760 -0.1231
 4940SOL    HW126453   2.481   2.438   3.874 -0.2046 -0.7201  0.2131
 4940SOL    HW226454   2.483   2.546   3.969 -0.2124 -0.1933 -3.6754
 4941SOL     OW26455   3.820   4.437  10.204 -0.0090 -0.1446 -0.5028
 4941SOL    HW126456   3.857   4.354  10.236 -2.0034  0.1331  2.5084
 4941SOL    HW226457   3.880   4.451  10.131 -0.9101 -0.0777 -1.2262
 4942SOL     OW26458   2.671   2.981   7.077 -0.7236  0.3470 -0.1212
 4942SOL    HW126459   2.601   3.037   7.111 -0.5131  0.4548  0.1306
 4942SOL    HW226460   2.654   2.893   7.112  1.9244  0.5501  1.6541
 4943SOL     OW26461   3.669   3.887   6.727 -0.3903  0.3822  0.5996
 4943SOL    HW126462   3.622   3.804   6.732 -0.1652  0.2234  0.0729
 4943SOL    HW226463   3.726   3.866   6.653 -2.5248 -0.9122 -0.6515
 4944SOL     OW26464   4.661   1.930  13.571 -0.2891 -0.2447  0.5109
 4944SOL    HW126465   4.701   1.905  13.488 -0.3390 -0.1703  0.4648
 4944SOL    HW226466   4.655   2.022  13.548  0.6328 -0.2856  0.0816
 4945SOL     OW26467   4.612   1.173   1.620  0.0086 -0.4186 -0.0869
 4945SOL    HW126468   4.578   1.232   1.553  0.3524  1.3057  1.2579
 4945SOL    HW226469   4.654   1.246   1.666 -3.0917  2.1173 -1.2802
 4946SOL     OW26470   0.246   3.394   7.212  0.0368 -0.1784  0.1298
 4946SOL    HW126471   0.234   3.424   7.121  1.5664  0.4190  0.1239
 4946SOL    HW226472   0.286   3.308   7.200  2.7447  1.2982 -1.6904
 4947SOL     OW26473   1.461   3.132   9.393 -0.5248 -0.0657 -0.9087
 4947SOL    HW126474   1.444   3.219   9.428 -0.8277 -0.9083  1.0631
 4947SOL    HW226475   1.531   3.133   9.327  0.8365  0.2802  0.5527
 4948SOL     OW26476   3.374   2.819   8.408  0.0789 -0.0266  0.3019
 4948SOL    HW126477   3.426   2.803   8.487 -1.1267 -0.9291  0.9042
 4948SOL    HW226478   3.363   2.729   8.376  1.6050 -0.7579  1.8628
 4949SOL     OW26479   2.099   2.183   6.248  0.1467  0.5593  0.1219
 4949SOL    HW126480   2.159   2.178   6.174  0.5751  1.3025  0.4150
 4949SOL    HW226481   2.098   2.099   6.294  0.2167  0.3786 -0.2090
 4950SOL     OW26482   1.874   3.569  11.420 -0.1952  0.0269  0.1815
 4950SOL    HW126483   1.882   3.552  11.326 -0.9261  1.7678 -0.2008
 4950SOL    HW226484   1.792   3.528  11.447 -1.1692  1.9900  0.2469
 4951SOL     OW26485   0.347   1.107   5.055 -0.3098 -0.1004 -0.0731
 4951SOL    HW126486   0.251   1.114   5.055 -0.4677 -2.3021 -0.0977
 4951SOL    HW226487   0.377   1.189   5.095 -0.5784 -0.4555  0.8551
 4952SOL     OW26488   2.128   4.700  13.508  0.2649  0.4056 -0.2034
 4952SOL    HW126489   2.043   4.695  13.464  0.7492 -1.5932 -0.9001
 4952SOL    HW226490   2.117   4.687  13.602 -2.7810  0.6248 -0.5092
 4953SOL     OW26491   3.581   3.003  12.339  1.2065 -0.0190  0.4068
 4953SOL    HW126492   3.554   3.015  12.248 -0.7387  1.3562  1.1760
 4953SOL    HW226493   3.576   3.093  12.371 -0.0786  0.3017 -0.6912
 4954SOL     OW26494   0.217   2.072   3.047 -0.3329 -0.1713  0.3568
 4954SOL    HW126495   0.243   2.040   3.133 -1.5840 -0.0553  0.7754
 4954SOL    HW226496   0.128   2.041   3.033 -1.2041  2.0463  0.9268
 4955SOL     OW26497   0.339   3.113   9.846  0.7371 -0.5477 -0.5441
 4955SOL    HW126498   0.361   3.187   9.789  2.2260 -1.2000 -0.7925
 4955SOL    HW226499   0.425   3.079   9.868  1.4218  2.2877  1.2161
 4956SOL     OW26500   0.128   0.507   4.455 -0.5292 -0.4240 -0.1891
 4956SOL    HW126501   0.090   0.595   4.464  0.2560  0.1242 -2.0741
 4956SOL    HW226502   0.212   0.525   4.413  0.4628 -3.9900  0.2559
 4957SOL     OW26503   3.014   3.557   5.163  0.1092 -0.1962 -0.6733
 4957SOL    HW126504   3.032   3.554   5.069 -1.2972  2.9925 -1.0100
 4957SOL    HW226505   3.085   3.614   5.191  0.1272 -0.7724  0.4714
 4958SOL     OW26506   1.415   2.040  15.931  0.2208  0.3785  0.0353
 4958SOL    HW126507   1.345   2.067  15.872  0.2212 -0.9858 -0.5899
 4958SOL    HW226508   1.364   1.987  15.992 -1.0064  1.2091 -0.2773
 4959SOL     OW26509   2.404   2.267   5.680  0.2119  0.0727  0.1705
 4959SOL    HW126510   2.335   2.243   5.742 -0.4877  0.8869 -0.2766
 4959SOL    HW226511   2.476   2.277   5.741 -0.6225 -2.9453  1.6516
 4960SOL     OW26512   3.415   3.435  14.555 -0.4907  0.1014 -0.4751
 4960SOL    HW126513   3.330   3.443  14.600 -0.5423  0.6294 -0.6698
 4960SOL    HW226514   3.454   3.521  14.570  1.1914 -0.7991  0.2534
 4961SOL     OW26515   1.393   2.741   5.035  0.3302 -0.0616 -0.1647
 4961SOL    HW126516   1.298   2.748   5.041  0.3106  0.0269 -0.5908
 4961SOL    HW226517   1.426   2.813   5.089  1.7015 -1.5025  0.9343
 4962SOL     OW26518   3.176   3.033   6.615 -0.4114  0.6574 -0.2749
 4962SOL    HW126519   3.254   3.044   6.561 -0.9102  0.5877 -1.0059
 4962SOL    HW226520   3.214   2.985   6.688 -0.6560 -0.1380 -0.6755
 4963SOL     OW26521   3.155   0.961   7.045 -0.4155  0.2055  0.0630
 4963SOL    HW126522   3.228   1.018   7.070  0.6370 -1.3641  0.5218
 4963SOL    HW226523   3.189   0.876   7.021 -1.1758  0.6557 -2.5603
 4964SOL     OW26524   1.070   3.584   3.376 -0.1319 -0.2689  0.2992
 4964SOL    HW126525   0.995   3.588   3.434 -2.1712 -0.8105 -2.3060
 4964SOL    HW226526   1.101   3.675   3.381  0.7103 -0.5649  0.4949
 4965SOL     OW26527   1.172   3.010   7.600  0.9034  0.1530 -0.1380
 4965SOL    HW126528   1.133   3.091   7.632  0.7719 -0.2893  0.8543
 4965SOL    HW226529   1.107   2.940   7.608  0.1409  1.0054  1.1313
 4966SOL     OW26530   0.464   3.170   2.198 -0.5105 -0.8964  0.0901
 4966SOL    HW126531   0.427   3.226   2.267  0.9151 -1.4150  1.2594
 4966SOL    HW226532   0.522   3.110   2.244 -1.2201  0.4748  2.7515
 4967SOL     OW26533   1.249   3.468   6.937  0.5625 -0.1480  0.4035
 4967SOL    HW126534   1.279   3.478   6.847 -0.5741  0.3996  0.0836
 4967SOL    HW226535   1.235   3.558   6.966 -0.6766  0.4101 -1.8495
 4968SOL     OW26536   3.099   1.133   8.745 -0.0567 -0.0311 -0.4398
 4968SOL    HW126537   3.133   1.045   8.762 -2.6316 -1.1200 -0.9306
 4968SOL    HW226538   3.144   1.187   8.810 -2.3164  0.2659  0.8748
 4969SOL     OW26539   2.211   0.935   2.916  0.1956 -0.0982  0.3445
 4969SOL    HW126540   2.233   1.010   2.862  0.0048 -1.2103 -1.2638
 4969SOL    HW226541   2.201   0.982   2.999 -2.0513  0.1790 -0.0740
 4970SOL     OW26542   3.954   4.606   6.169  0.3180  0.0287 -0.0336
 4970SOL    HW126543   3.944   4.701   6.171 -1.5702 -0.1665  0.0776
 4970SOL    HW226544   3.923   4.589   6.258  1.6735  1.1138  0.6359
 4971SOL     OW26545   3.935   2.357   3.496 -0.1469  0.4851  0.4290
 4971SOL    HW126546   4.022   2.396   3.492  1.3426 -2.8864  0.6926
 4971SOL    HW226547   3.923   2.344   3.590  1.3298  1.3954  0.7394
 4972SOL     OW26548   4.013   3.810   4.928 -0.9462 -1.3561 -0.1189
 4972SOL    HW126549   4.097   3.776   4.960  0.3885  1.8047 -0.3077
 4972SOL    HW226550   3.983   3.877   4.989 -1.5965 -1.0281 -0.7939
 4973SOL     OW26551   0.159   4.261   3.506 -0.3563  0.0479 -1.0201
 4973SOL    HW126552   0.075   4.246   3.549  0.0514  1.0135  0.1019
 4973SOL    HW226553   0.216   4.273   3.581 -0.4028  0.4159 -1.0425
 4974SOL     OW26554   2.407   1.614   7.472 -0.1379  0.2447  0.4560
 4974SOL    HW126555   2.338   1.673   7.443 -0.0720 -0.0840 -0.3766
 4974SOL    HW226556   2.362   1.537   7.506 -0.6024  0.2622 -0.1114
 4975SOL     OW26557   0.225   1.930  17.029 -0.2486 -0.0964  0.2571
 4975SOL    HW126558   0.171   1.968  16.958  1.4813  2.1096  0.1144
 4975SOL    HW226559   0.184   1.969  17.107  2.0050  0.4879  1.1371
 4976SOL     OW26560   4.660   2.580   3.215 -0.3464 -0.0570  0.8204
 4976SOL    HW126561   4.605   2.632   3.273 -0.7943  0.2337  0.1347
 4976SOL    HW226562   0.012   2.594   3.253 -0.6032  3.2946  0.1294
 4977SOL     OW26563   0.841   0.437   7.692 -0.5374 -0.5057 -0.0170
 4977SOL    HW126564   0.859   0.506   7.756  0.3386 -1.4735  0.7836
 4977SOL    HW226565   0.921   0.433   7.640  0.0636  0.6038  0.8207
 4978SOL     OW26566   1.000   2.213   7.852 -0.2948 -0.0620  0.1890
 4978SOL    HW126567   1.076   2.178   7.805 -0.9835  1.8391 -2.3834
 4978SOL    HW226568   0.979   2.156   7.926 -2.8740  1.7385  0.8446
 4979SOL     OW26569   3.256   1.937   6.724 -0.4231  0.4827  0.3303
 4979SOL    HW126570   3.164   1.928   6.749 -0.7780  2.6890 -0.1871
 4979SOL    HW226571   3.295   1.935   6.811 -0.4424 -2.5648  0.2613
 4980SOL     OW26572   1.272   4.263   7.945  0.0261 -0.2476 -0.2876
 4980SOL    HW126573   1.336   4.198   7.918  1.0748  0.3038  0.8639
 4980SOL    HW226574   1.278   4.263   8.041 -1.2091 -1.5216 -0.2062
 4981SOL     OW26575   0.895   3.255   2.093  0.3604  0.1478  0.8297
 4981SOL    HW126576   0.809   3.295   2.083  0.0309 -0.9540 -0.7618
 4981SOL    HW226577   0.874   3.169   2.131  0.9606  0.1364  1.1449
 4982SOL     OW26578   3.873   2.697  16.477 -0.1450  0.2292 -0.3901
 4982SOL    HW126579   3.968   2.694  16.485 -0.2533  1.1278  1.1083
 4982SOL    HW226580   3.851   2.643  16.401 -0.0344 -0.3501 -0.0125
 4983SOL     OW26581   0.830   3.300   9.014 -0.0008  0.6907  0.1644
 4983SOL    HW126582   0.846   3.207   9.033 -1.9676  0.0409 -1.2988
 4983SOL    HW226583   0.737   3.289   8.995 -0.1826  0.6876  1.0509
 4984SOL     OW26584   0.249   0.048  17.118 -0.0536 -0.6539 -0.0133
 4984SOL    HW126585   0.172   0.094  17.153 -0.0395 -0.5264 -0.1477
 4984SOL    HW226586   0.251   0.090  17.032  2.7773 -1.3341 -0.2504
 4985SOL     OW26587   2.079   3.109   8.262  0.8041  0.2788  0.4669
 4985SOL    HW126588   2.111   3.199   8.267 -0.1381  0.5636  1.3147
 4985SOL    HW226589   1.988   3.131   8.245  1.1962  0.5376 -1.2299
 4986SOL     OW26590   2.662   0.709   7.368  0.0537  1.4732  0.4698
 4986SOL    HW126591   2.601   0.640   7.342  1.8642 -0.1169  0.4395
 4986SOL    HW226592   2.736   0.664   7.408 -2.5660 -4.1794 -0.9845
 4987SOL     OW26593   4.733   4.629   2.046 -0.0700  0.2712 -0.0680
 4987SOL    HW126594   4.671   4.628   2.119 -0.0620  1.8754 -0.0358
 4987SOL    HW226595   0.009   4.537   2.022  1.7014  0.3273  0.5150
 4988SOL     OW26596   2.852   0.350   9.768 -0.1948 -0.6617  0.4361
 4988SOL    HW126597   2.861   0.360   9.673 -2.4085 -1.5778  0.1422
 4988SOL    HW226598   2.936   0.376   9.807  0.7873  0.1846 -2.2223
 4989SOL     OW26599   3.513   2.608  11.537  0.4244  0.0891 -0.2530
 4989SOL    HW126600   3.506   2.516  11.565 -2.6498  0.8886  1.6839
 4989SOL    HW226601   3.461   2.617  11.457  0.7019 -0.9938 -0.5511
 4990SOL     OW26602   2.578   2.431  12.227  0.5477  0.1839 -0.1554
 4990SOL    HW126603   2.509   2.456  12.166 -0.4390  1.6431  1.5621
 4990SOL    HW226604   2.622   2.352  12.196 -0.8429 -0.4224 -0.5658
 4991SOL     OW26605   0.678   4.042   2.783  0.4628  0.1070 -0.3315
 4991SOL    HW126606   0.727   4.088   2.714  2.1711  2.0374  2.1822
 4991SOL    HW226607   0.743   3.973   2.792 -0.6466 -1.0758 -1.4131
 4992SOL     OW26608   1.302   2.955   2.386  0.1898 -0.0082 -0.8163
 4992SOL    HW126609   1.345   3.036   2.416  0.3378 -0.5446  0.3862
 4992SOL    HW226610   1.354   2.945   2.306 -1.3018 -0.5823 -1.7146
 4993SOL     OW26611   4.235   2.560   1.493  0.1045  0.0343 -0.6872
 4993SOL    HW126612   4.164   2.562   1.558 -0.4614 -1.2227 -1.2698
 4993SOL    HW226613   4.240   2.650   1.459  0.2335  0.1218 -0.4382
 4994SOL     OW26614   4.138   1.138   0.393  0.1981  0.0087 -0.8281
 4994SOL    HW126615   4.123   1.067   0.331  0.7542  0.4603 -1.4976
 4994SOL    HW226616   4.158   1.220   0.345  1.1385  0.4704  0.3521
 4995SOL     OW26617   2.516   4.090   6.796  0.2305 -0.0999 -0.0787
 4995SOL    HW126618   2.532   4.182   6.776 -0.9683  0.1477  0.0649
 4995SOL    HW226619   2.420   4.084   6.802  0.2622 -0.6055 -0.0259
 4996SOL     OW26620   1.088   3.630   7.381 -0.0845  0.3595  0.0320
 4996SOL    HW126621   1.026   3.608   7.450 -0.2674  1.9448  0.3569
 4996SOL    HW226622   1.143   3.552   7.372 -1.5548 -0.4659 -1.9573
 4997SOL     OW26623   1.801   4.714   5.584  0.1109  0.2170  0.0713
 4997SOL    HW126624   1.744   0.050   5.613  0.4480  0.4878  0.0793
 4997SOL    HW226625   1.741   4.641   5.602  1.5897 -1.1932 -0.6966
 4998SOL     OW26626   0.407   2.474   3.894 -0.2785  0.5557  0.2933
 4998SOL    HW126627   0.433   2.391   3.934 -0.7465  0.5218  0.5305
 4998SOL    HW226628   0.426   2.534   3.966 -1.3192  0.1968  0.8741
 4999SOL     OW26629   4.579   4.148   4.649  0.1436  0.2962 -0.1406
 4999SOL    HW126630   4.580   4.241   4.626 -0.3107  0.6869  1.4496
 4999SOL    HW226631   4.658   4.108   4.612  0.2287  0.8115 -0.5077
 5000SOL     OW26632   4.358   2.905   0.677 -0.2918 -0.0528 -0.5317
 5000SOL    HW126633   4.388   2.919   0.588  0.9140 -1.4816 -0.3653
 5000SOL    HW226634   4.399   2.821   0.698  0.5364  0.6155  0.5363
 5001SOL     OW26635   4.437   0.999   7.854 -0.4993  0.6591 -0.1272
 5001SOL    HW126636   4.514   1.048   7.881 -0.4688  1.1081 -1.0299
 5001SOL    HW226637   4.461   0.908   7.872 -3.2787  0.1369  1.0147
 5002SOL     OW26638   0.548   1.027   3.167 -0.4934 -0.7279  0.1409
 5002SOL    HW126639   0.580   1.007   3.255  0.0334 -2.1567 -0.3724
 5002SOL    HW226640   0.569   0.944   3.123 -0.6184 -0.9030  0.4115
 5003SOL     OW26641   4.478   3.341   4.915  0.1864 -0.3478 -0.3325
 5003SOL    HW126642   4.428   3.369   4.838  1.2261 -1.4153 -1.4050
 5003SOL    HW226643   4.429   3.266   4.947  0.9953 -0.6535  0.1797
 5004SOL     OW26644   0.630   2.872   6.922 -0.2023  0.2509 -0.3843
 5004SOL    HW126645   0.597   2.795   6.876 -0.5659 -0.1077  0.4971
 5004SOL    HW226646   0.724   2.878   6.906  0.1353 -2.4281  0.7041
 5005SOL     OW26647   3.424   0.992   5.690  0.0592 -0.1986  0.0834
 5005SOL    HW126648   3.386   0.914   5.730  0.9815 -1.3782 -1.3510
 5005SOL    HW226649   3.404   0.972   5.599 -1.4305  1.3966  0.0436
 5006SOL     OW26650   4.042   2.586   7.339  0.1329 -0.5935 -0.0685
 5006SOL    HW126651   4.103   2.659   7.332 -0.9836  0.4040  0.4647
 5006SOL    HW226652   4.023   2.562   7.248  1.2883  1.5896 -0.8887
 5007SOL     OW26653   3.293   1.119   1.453 -0.0216 -0.1180  0.4846
 5007SOL    HW126654   3.288   1.097   1.546  1.0621 -1.1573  0.2962
 5007SOL    HW226655   3.387   1.139   1.456 -0.2577  1.2916 -1.3212
 5008SOL     OW26656   1.862   3.228   6.203  0.1926 -0.0686  0.6729
 5008SOL    HW126657   1.779   3.181   6.194  0.6382 -0.9415  1.0304
 5008SOL    HW226658   1.904   3.169   6.141 -1.2579  0.6831 -0.9891
 5009SOL     OW26659   4.545   3.569   6.551  0.3723  0.4169 -0.2055
 5009SOL    HW126660   4.504   3.655   6.546 -1.2190 -0.3209  0.1723
 5009SOL    HW226661   4.637   3.587   6.571  0.3899  0.2464 -0.1343
 5010SOL     OW26662   0.589   3.087   1.686  0.2414  0.1723  0.1210
 5010SOL    HW126663   0.606   2.993   1.679 -0.0729  0.0832  0.6411
 5010SOL    HW226664   0.583   3.092   1.781 -1.6310  0.5706 -0.0233
 5011SOL     OW26665   2.147   1.685   9.794  0.3832 -1.0914  0.1896
 5011SOL    HW126666   2.106   1.766   9.764  1.9334 -1.7163 -3.5920
 5011SOL    HW226667   2.078   1.626   9.823  0.1330 -0.8740  0.0392
 5012SOL     OW26668   1.232   1.534   6.166  0.9751  0.1996  0.7218
 5012SOL    HW126669   1.272   1.486   6.094 -0.4636 -1.5822  1.1204
 5012SOL    HW226670   1.309   1.540   6.223  1.1514 -1.5709  0.6726
 5013SOL     OW26671   0.977   1.758   7.081 -0.2516  0.6122  0.0839
 5013SOL    HW126672   0.898   1.707   7.098  0.0649 -0.0957 -0.6188
 5013SOL    HW226673   0.987   1.772   6.987 -0.2614  1.1388  0.1621
 5014SOL     OW26674   0.727   0.139   5.505 -0.0851  0.0721  0.2056
 5014SOL    HW126675   0.639   0.107   5.525 -0.5798  1.8874  0.9072
 5014SOL    HW226676   0.741   0.193   5.583 -3.2834 -0.2212  0.9752
 5015SOL     OW26677   4.251   4.021   2.457  0.0095 -0.5158 -0.4491
 5015SOL    HW126678   4.342   3.993   2.471  0.5976  1.4308 -0.3355
 5015SOL    HW226679   4.245   4.014   2.362  1.4107  0.2982 -0.6033
 5016SOL     OW26680   3.610   1.294   1.300  0.4799 -0.0247 -0.2797
 5016SOL    HW126681   3.524   1.335   1.296 -0.3201 -1.3516  3.3986
 5016SOL    HW226682   3.653   1.330   1.222  0.4522  0.1390 -0.2206
 5017SOL     OW26683   3.648   2.658   3.489 -0.8472  0.1594 -0.1027
 5017SOL    HW126684   3.639   2.566   3.463 -0.2196  0.3078 -0.8479
 5017SOL    HW226685   3.653   2.642   3.583 -1.6884 -1.3166 -0.3174
 5018SOL     OW26686   4.647   0.238   3.751 -0.6093  0.4646 -0.3667
 5018SOL    HW126687   4.572   0.186   3.721  1.0119 -0.9821 -1.9630
 5018SOL    HW226688   4.616   0.263   3.838 -0.3604 -0.9463  0.1333
 5019SOL     OW26689   4.518   0.693   1.981  0.2906 -0.4931  0.1520
 5019SOL    HW126690   4.580   0.625   1.956  1.2462  0.1172  0.8700
 5019SOL    HW226691   4.486   0.720   1.895 -0.4988 -2.3117 -0.1204
 5020SOL     OW26692   1.240   1.247   7.234  0.0350  0.1736 -0.0179
 5020SOL    HW126693   1.153   1.283   7.249  0.1183 -0.3803  1.8129
 5020SOL    HW226694   1.285   1.285   7.310  0.0857 -0.6035  0.3416
 5021SOL     OW26695   4.704   2.934   4.561  0.0071  0.8852 -0.0061
 5021SOL    HW126696   4.670   3.013   4.519 -1.1291  0.4167  0.0021
 5021SOL    HW226697   4.643   2.873   4.518  1.0725 -0.1023 -0.1049
 5022SOL     OW26698   2.770   1.388   8.077  0.6064  0.2182 -0.0281
 5022SOL    HW126699   2.759   1.327   8.005  1.3198  0.1611 -0.0899
 5022SOL    HW226700   2.865   1.387   8.089  0.3231 -0.8983  2.1558
 5023SOL     OW26701   3.117   2.585   6.087  0.3296 -0.3592 -0.3002
 5023SOL    HW126702   3.077   2.542   6.162  1.5623  1.5763  1.4973
 5023SOL    HW226703   3.150   2.506   6.044 -2.6467 -0.4578 -2.3622
 5024SOL     OW26704   4.345   3.249   4.304  0.1045  0.3610  0.4769
 5024SOL    HW126705   4.257   3.273   4.330 -0.3070 -2.0696  1.2744
 5024SOL    HW226706   4.359   3.319   4.240 -0.3420 -0.6082 -0.6806
 5025SOL     OW26707   2.612   3.208  11.703 -0.4205  0.2872  0.1744
 5025SOL    HW126708   2.582   3.209  11.794 -1.3396  0.1158 -0.1210
 5025SOL    HW226709   2.658   3.291  11.695  0.0854 -0.0220 -0.1762
 5026SOL     OW26710   3.317   4.624   0.383 -0.4243 -0.6297 -0.4170
 5026SOL    HW126711   3.274   4.701   0.346  0.3547 -0.1262 -0.2681
 5026SOL    HW226712   3.396   4.612   0.332 -0.4708  0.6560 -0.7963
 5027SOL     OW26713   0.970   0.525   1.227  0.0932  0.2453  0.1837
 5027SOL    HW126714   1.012   0.605   1.195 -2.0518  0.1290 -2.9153
 5027SOL    HW226715   1.030   0.465   1.182  0.1255 -1.0128  1.9282
 5028SOL     OW26716   4.370   3.463   6.898  0.2238 -0.0872 -0.1431
 5028SOL    HW126717   4.326   3.539   6.859 -1.3392  1.7127  5.1667
 5028SOL    HW226718   4.447   3.508   6.932 -0.8379  1.5360  0.1151
 5029SOL     OW26719   0.962   1.319   8.576  0.2817 -0.4466  0.5440
 5029SOL    HW126720   1.008   1.384   8.631 -3.2066  1.2352  1.4834
 5029SOL    HW226721   0.896   1.302   8.643  0.2633 -1.7041  0.1988
 5030SOL     OW26722   3.360   3.988  13.365  0.4176  0.3600  0.2724
 5030SOL    HW126723   3.439   4.006  13.415  1.8228 -1.3855 -1.3325
 5030SOL    HW226724   3.357   4.064  13.306  0.1787  1.1969  1.3627
 5031SOL     OW26725   1.457   1.492   6.317 -0.3580  0.8817 -0.5633
 5031SOL    HW126726   1.479   1.400   6.304 -2.5169  0.3189 -0.1558
 5031SOL    HW226727   1.490   1.510   6.405  0.2884  3.2885 -1.2842
 5032SOL     OW26728   3.780   0.624   6.390  0.4287 -0.3624 -0.0311
 5032SOL    HW126729   3.837   0.690   6.350  1.0037 -0.4206  0.6809
 5032SOL    HW226730   3.771   0.665   6.477  2.0131 -0.0848  0.0078
 5033SOL     OW26731   0.392   1.121   1.288 -0.0189 -0.1386 -0.0357
 5033SOL    HW126732   0.445   1.182   1.339  0.7817  0.2484 -1.3061
 5033SOL    HW226733   0.378   1.173   1.208 -3.4529  0.5470  1.0188
 5034SOL     OW26734   1.166   2.130  11.799 -0.0663  0.6138  0.2340
 5034SOL    HW126735   1.236   2.089  11.749 -1.8823 -1.2088 -0.8182
 5034SOL    HW226736   1.179   2.223  11.780  0.5317  0.3860 -0.4719
 5035SOL     OW26737   4.710   1.955   4.357 -0.0754 -0.3542  0.1673
 5035SOL    HW126738   0.022   1.873   4.342  0.0859 -0.1271 -0.5598
 5035SOL    HW226739   0.046   2.006   4.396  0.3796  0.1715 -1.3464
 5036SOL     OW26740   3.814   3.204  16.684 -0.2900  0.7748 -0.1399
 5036SOL    HW126741   3.760   3.168  16.615  1.8068  0.4481 -1.6245
 5036SOL    HW226742   3.844   3.289  16.651 -0.6474  0.2176 -1.8622
 5037SOL     OW26743   2.739   1.533   6.931 -0.0502 -0.0706  0.3419
 5037SOL    HW126744   2.825   1.547   6.893 -1.9122  3.2310 -2.6873
 5037SOL    HW226745   2.684   1.541   6.853  0.4889 -0.5045 -0.0830
 5038SOL     OW26746   1.624   1.518   5.672  0.3050 -0.4786 -0.2984
 5038SOL    HW126747   1.576   1.435   5.663 -0.1144 -0.0443 -2.0191
 5038SOL    HW226748   1.710   1.488   5.702  0.4670  0.2783 -0.0165
 5039SOL     OW26749   4.490   2.139   3.745  0.1760 -0.2353  0.5632
 5039SOL    HW126750   4.403   2.172   3.767  0.4196  0.7122  0.1253
 5039SOL    HW226751   4.532   2.131   3.830 -1.2105 -0.6711  1.2014
 5040SOL     OW26752   0.383   3.016   3.304  0.1566 -0.2073 -0.1708
 5040SOL    HW126753   0.307   3.025   3.362  1.5459 -0.1171  1.6359
 5040SOL    HW226754   0.455   3.048   3.359 -0.3028  2.2320 -1.0132
 5041SOL     OW26755   1.917   3.225   8.770 -0.0203 -0.5342 -0.2442
 5041SOL    HW126756   1.991   3.197   8.716  1.9929  0.9622  1.7655
 5041SOL    HW226757   1.859   3.255   8.700 -2.3120 -2.5088  0.8315
 5042SOL     OW26758   1.699   3.667   0.938 -0.7051  0.9139 -0.2437
 5042SOL    HW126759   1.696   3.754   0.978  0.7189  0.3879  1.0126
 5042SOL    HW226760   1.613   3.660   0.895 -0.7201 -0.0892 -0.0520
 5043SOL     OW26761   3.377   1.280   5.565 -0.3447  0.2347  0.4321
 5043SOL    HW126762   3.381   1.194   5.606  0.4949  0.6877  1.2963
 5043SOL    HW226763   3.285   1.277   5.538 -0.5103 -2.2392  1.2923
 5044SOL     OW26764   3.624   3.716   9.669 -0.3638 -0.1077  0.1584
 5044SOL    HW126765   3.692   3.783   9.671 -1.3016  0.7534  2.4325
 5044SOL    HW226766   3.683   3.642   9.655  1.8220  1.4965  0.8890
 5045SOL     OW26767   1.353   0.835   7.878 -0.0196  0.2624  0.3882
 5045SOL    HW126768   1.370   0.858   7.786  1.6217 -0.2787  0.5577
 5045SOL    HW226769   1.421   0.888   7.919  1.4117 -1.8520  0.7402
 5046SOL     OW26770   2.772   0.675   4.059 -0.5372 -0.1882  0.0590
 5046SOL    HW126771   2.681   0.646   4.047 -0.8291  0.2410  1.2722
 5046SOL    HW226772   2.747   0.766   4.073 -1.3931 -0.6553  1.5328
 5047SOL     OW26773   1.722   1.513   7.909  0.2857  0.2449  0.0730
 5047SOL    HW126774   1.681   1.437   7.949  0.7976  0.5381  1.1472
 5047SOL    HW226775   1.723   1.572   7.984  0.5365 -0.9922  1.0410
 5048SOL     OW26776   1.390   4.026  11.984 -0.2834  0.0842  0.3285
 5048SOL    HW126777   1.304   4.035  11.943  0.1815  0.5333 -0.5539
 5048SOL    HW226778   1.380   4.048  12.077  1.1685 -1.2384  0.8027
 5049SOL     OW26779   1.846   2.392   4.501  0.0477 -0.1492  0.0701
 5049SOL    HW126780   1.769   2.379   4.557  0.5246  1.4044  1.0722
 5049SOL    HW226781   1.817   2.451   4.431 -1.9256 -2.6786 -1.2599
 5050SOL     OW26782   1.205   4.350   3.643  0.4141 -0.7686 -0.1270
 5050SOL    HW126783   1.288   4.367   3.598  1.1558  0.7797  1.8289
 5050SOL    HW226784   1.173   4.440   3.655 -1.9927 -1.8687  1.6721
 5051SOL     OW26785   3.135   1.460   2.132 -0.3997 -0.5161  0.3670
 5051SOL    HW126786   3.056   1.511   2.146  0.3420  0.5501  0.7214
 5051SOL    HW226787   3.193   1.487   2.204 -3.0088  1.2061  1.7860
 5052SOL     OW26788   3.795   1.814   0.468  0.0304  0.0473 -0.4028
 5052SOL    HW126789   3.741   1.735   0.474 -0.2073  0.0871 -2.2597
 5052SOL    HW226790   3.773   1.837   0.378 -0.0469 -0.1373 -0.4308
 5053SOL     OW26791   2.528   3.667   1.542  0.3704 -0.2979  0.4088
 5053SOL    HW126792   2.560   3.750   1.507  0.6871 -0.7504 -0.3649
 5053SOL    HW226793   2.571   3.603   1.486 -0.4911 -1.1004  0.6676
 5054SOL     OW26794   2.781   3.492   3.824 -0.4115  0.9645 -0.1146
 5054SOL    HW126795   2.875   3.493   3.842 -0.4524 -0.2389  0.1966
 5054SOL    HW226796   2.749   3.456   3.907  0.7216  0.5806  0.1584
 5055SOL     OW26797   2.962   4.567  13.030  0.4476  0.3670 -0.0740
 5055SOL    HW126798   3.039   4.610  12.993  1.5249 -2.2735 -0.9005
 5055SOL    HW226799   2.886   4.624  13.019  0.4050  0.3524  0.1437
 5056SOL     OW26800   1.464   0.938  15.481  0.1267  0.2496  0.1196
 5056SOL    HW126801   1.473   1.014  15.537  2.0631  0.1504 -0.0637
 5056SOL    HW226802   1.436   0.986  15.403  2.3124 -2.6523 -2.4682
 5057SOL     OW26803   1.383   3.005   5.541 -0.4482 -0.5935 -0.2769
 5057SOL    HW126804   1.434   3.085   5.544 -1.7503  0.1989  0.5791
 5057SOL    HW226805   1.451   2.946   5.573  1.3222  1.4828 -0.2299
 5058SOL     OW26806   2.570   0.891  10.785 -0.4446 -0.6788 -0.2600
 5058SOL    HW126807   2.647   0.843  10.816  0.0766  0.4162  0.1387
 5058SOL    HW226808   2.576   0.899  10.690 -0.2904  0.1478 -0.1819
 5059SOL     OW26809   3.288   0.701   8.770 -0.3462  0.0035  1.2342
 5059SOL    HW126810   3.199   0.724   8.741  0.9439  1.2363 -1.7676
 5059SOL    HW226811   3.298   0.743   8.855  1.5711  0.4306  0.7897
 5060SOL     OW26812   3.691   4.446  10.892  0.1977 -0.0256  0.4933
 5060SOL    HW126813   3.634   4.377  10.926  0.6900 -0.9919 -0.6731
 5060SOL    HW226814   3.721   4.416  10.807  1.8852  0.3438  0.9565
 5061SOL     OW26815   2.727   3.757   3.889 -0.3956 -0.4378 -0.2753
 5061SOL    HW126816   2.749   3.670   3.856  1.5959 -0.1391  0.2238
 5061SOL    HW226817   2.671   3.730   3.961 -0.8063  0.4311 -0.2722
 5062SOL     OW26818   0.667   2.283  17.440  0.0329  0.0280  0.0036
 5062SOL    HW126819   0.665   2.331  17.523 -1.6972 -0.6144  0.3370
 5062SOL    HW226820   0.760   2.298  17.423 -0.6710  2.1033 -2.0421
 5063SOL     OW26821   4.222   4.673   5.493 -0.0631 -0.0013  0.0547
 5063SOL    HW126822   4.194   4.714   5.575 -1.3443 -1.2689  0.2491
 5063SOL    HW226823   4.173   4.729   5.433 -1.0666  0.0279  0.8988
 5064SOL     OW26824   1.198   2.769  10.016 -0.4846 -0.2285 -0.0106
 5064SOL    HW126825   1.232   2.759  10.105  0.2004  0.8904 -0.1485
 5064SOL    HW226826   1.184   2.680   9.984 -2.3544 -0.0937  0.4195
 5065SOL     OW26827   3.602   1.888   2.331 -0.0008  0.2798  0.0166
 5065SOL    HW126828   3.690   1.895   2.368  0.0031 -0.9042  0.2285
 5065SOL    HW226829   3.612   1.944   2.253  0.1235  1.0384  0.5777
 5066SOL     OW26830   2.092   1.828   4.146  0.3688 -0.3484 -0.1393
 5066SOL    HW126831   2.026   1.853   4.210  1.5855  1.1204  0.5602
 5066SOL    HW226832   2.090   1.890   4.073  2.1811  1.8457  1.6681
 5067SOL     OW26833   2.271   4.281   4.666 -0.0293 -0.1220  0.0414
 5067SOL    HW126834   2.199   4.337   4.695 -1.0047 -0.8863 -0.9088
 5067SOL    HW226835   2.253   4.279   4.572 -1.1282 -1.6221  0.2847
 5068SOL     OW26836   3.830   3.519   6.322  0.1258 -0.1865  0.2080
 5068SOL    HW126837   3.890   3.580   6.279 -1.7727  1.5535  0.0330
 5068SOL    HW226838   3.788   3.478   6.247  2.3276 -1.1493 -0.4891
 5069SOL     OW26839   0.226   4.569   8.798 -0.0755  0.1146 -0.5362
 5069SOL    HW126840   0.310   4.524   8.806 -0.1999  0.0521  0.3681
 5069SOL    HW226841   0.228   4.618   8.716 -2.3083  0.4322 -0.3938
 5070SOL     OW26842   1.705   2.122   2.757  0.3731 -0.7751  0.0933
 5070SOL    HW126843   1.652   2.087   2.829  0.0483 -1.9527 -0.7038
 5070SOL    HW226844   1.793   2.122   2.793  0.5075  3.7218 -0.3088
 5071SOL     OW26845   0.980   0.871   8.704  0.0082 -0.0528 -0.0147
 5071SOL    HW126846   1.012   0.922   8.779 -1.5320 -0.0200  0.6116
 5071SOL    HW226847   1.044   0.885   8.634  1.6217 -1.5717  1.1425
 5072SOL     OW26848   2.173   0.152   1.914 -0.4198  0.2158  0.1794
 5072SOL    HW126849   2.249   0.201   1.884  0.2966 -1.1549 -0.2668
 5072SOL    HW226850   2.107   0.190   1.856 -1.7057 -0.4692  1.1907
 5073SOL     OW26851   4.399   2.254   6.685  0.4419 -0.0168  0.0472
 5073SOL    HW126852   4.362   2.218   6.765  0.7736 -0.4051  0.0273
 5073SOL    HW226853   4.448   2.178   6.652  0.9558 -0.0924  0.9902
 5074SOL     OW26854   2.344   2.518   5.945 -0.1988  0.5080  0.1260
 5074SOL    HW126855   2.321   2.610   5.961 -2.1410  0.2453 -1.1092
 5074SOL    HW226856   2.436   2.528   5.918  0.6258  0.5607  2.9677
 5075SOL     OW26857   3.801   3.884   8.198 -0.1576 -0.2386 -0.1404
 5075SOL    HW126858   3.737   3.821   8.166  0.1685 -2.0066  2.7046
 5075SOL    HW226859   3.763   3.896   8.285 -2.9961 -1.3214 -1.2501
 5076SOL     OW26860   1.176   3.417   5.006 -0.0412 -0.1369  0.2775
 5076SOL    HW126861   1.086   3.393   4.983  0.0365 -0.0032 -0.1767
 5076SOL    HW226862   1.178   3.373   5.091  0.0456 -0.0955  0.2967
 5077SOL     OW26863   2.892   2.252   5.821 -0.0950 -0.3597 -0.2101
 5077SOL    HW126864   2.889   2.313   5.747  0.5991 -0.7112 -0.5291
 5077SOL    HW226865   2.985   2.254   5.841 -0.1083  1.2263 -0.2967
 5078SOL     OW26866   0.617   0.421   4.013 -0.3610  0.1487 -0.2877
 5078SOL    HW126867   0.677   0.492   3.989 -0.2960 -0.1566 -1.0586
 5078SOL    HW226868   0.667   0.375   4.080 -1.3044  0.7584  0.8371
 5079SOL     OW26869   0.993   1.845   2.244 -0.3605  0.4958  0.3387
 5079SOL    HW126870   0.996   1.759   2.286 -0.8847 -0.0444 -0.7426
 5079SOL    HW226871   1.050   1.896   2.302 -2.0259  2.3190  0.3696
 5080SOL     OW26872   3.129   2.330   6.556 -0.3171  0.2129  0.1212
 5080SOL    HW126873   3.059   2.317   6.493  0.1575  0.3545 -0.4372
 5080SOL    HW226874   3.154   2.242   6.585  0.7617  0.0997 -1.1794
 5081SOL     OW26875   1.756   3.473   0.381  0.4132 -0.1663  0.5363
 5081SOL    HW126876   1.741   3.553   0.330 -0.4466 -0.3785  0.4655
 5081SOL    HW226877   1.846   3.481   0.414  0.0385 -0.4865  1.6490
 5082SOL     OW26878   0.480   2.026   8.225 -0.4799 -0.3406 -0.4507
 5082SOL    HW126879   0.543   2.094   8.248  0.1304 -0.5613 -1.4671
 5082SOL    HW226880   0.404   2.080   8.247 -1.2732 -1.2021 -1.0553
 5083SOL     OW26881   0.159   2.326  12.031  0.8047  0.0466  0.0007
 5083SOL    HW126882   0.212   2.381  11.974 -1.8676  1.4640 -1.0942
 5083SOL    HW226883   0.089   2.385  12.058  0.8069  0.2573 -0.4623
 5084SOL     OW26884   1.673   4.592   6.819  0.1764 -0.1782 -0.3721
 5084SOL    HW126885   1.728   4.662   6.855 -2.6722  0.7110  2.2238
 5084SOL    HW226886   1.688   4.519   6.880 -1.1500  0.2540  0.4602
 5085SOL     OW26887   3.111   3.739   3.127  0.4389 -0.0125 -0.0631
 5085SOL    HW126888   3.151   3.676   3.068 -0.5311  0.0011 -0.7284
 5085SOL    HW226889   3.171   3.739   3.202  0.4340  2.3097 -0.0504
 5086SOL     OW26890   0.413   4.116   9.400  0.1972 -0.1928 -0.5799
 5086SOL    HW126891   0.440   4.043   9.455 -0.7268  1.4664  2.0972
 5086SOL    HW226892   0.371   4.171   9.466  0.9552  0.9596 -1.0609
 5087SOL     OW26893   3.867   0.404   8.799  0.4131 -0.0245 -0.2185
 5087SOL    HW126894   3.855   0.412   8.705 -1.0032  2.9936  0.2294
 5087SOL    HW226895   3.780   0.426   8.831  0.4834  0.6396 -0.4964
 5088SOL     OW26896   3.440   1.253   4.096  0.1838  0.4511 -0.0574
 5088SOL    HW126897   3.499   1.328   4.093  3.7771 -2.2174  4.1068
 5088SOL    HW226898   3.363   1.311   4.095  0.3015  0.5581 -2.3948
 5089SOL     OW26899   0.997   3.987   0.773 -0.7015 -0.2880 -0.3515
 5089SOL    HW126900   0.919   4.002   0.719 -0.9223  0.2804  0.1238
 5089SOL    HW226901   0.998   3.892   0.784  0.5296 -0.5563 -2.8161
 5090SOL     OW26902   1.839   3.641   0.662 -0.4547  0.3175  0.8205
 5090SOL    HW126903   1.813   3.662   0.752 -1.0093  1.4565  0.3916
 5090SOL    HW226904   1.823   3.727   0.622  1.3487 -0.4510 -1.5617
 5091SOL     OW26905   1.085   1.615   2.397  0.3633 -0.0944 -0.0252
 5091SOL    HW126906   1.134   1.656   2.468  0.3439  0.9631 -0.6313
 5091SOL    HW226907   1.147   1.552   2.361  1.3814  0.7585  0.2463
 5092SOL     OW26908   2.971   0.076  10.312  0.4629 -0.0628 -0.9958
 5092SOL    HW126909   3.018   4.728  10.317 -0.6068 -0.5963  0.3544
 5092SOL    HW226910   2.943   0.087  10.404  0.6669 -1.5645 -0.7627
 5093SOL     OW26911   0.322   2.943   9.498 -0.2776  0.1271 -0.0294
 5093SOL    HW126912   0.393   2.975   9.443 -0.9010  1.2809 -0.1558
 5093SOL    HW226913   0.309   2.862   9.449 -0.4966  0.1821 -0.0613
 5094SOL     OW26914   2.370   2.679   6.663 -0.5822 -0.0723  0.3329
 5094SOL    HW126915   2.349   2.665   6.571  2.4723  0.7154 -0.4872
 5094SOL    HW226916   2.337   2.769   6.667  1.3384  0.6134  0.6847
 5095SOL     OW26917   2.309   3.779   3.063  0.0257 -0.2006 -0.2590
 5095SOL    HW126918   2.234   3.721   3.049  0.4960 -0.5713 -1.2412
 5095SOL    HW226919   2.291   3.864   3.024  3.3177  0.6466  0.0690
 5096SOL     OW26920   3.561   2.616   7.432  0.1951 -0.1727 -0.0330
 5096SOL    HW126921   3.555   2.711   7.434  1.6544 -0.0608 -1.0787
 5096SOL    HW226922   3.485   2.597   7.487 -0.0715 -0.8594 -0.6319
 5097SOL     OW26923   0.339   2.938   2.045  0.0983  0.0185  0.7165
 5097SOL    HW126924   0.293   3.019   2.027  0.9409  0.5862  1.1288
 5097SOL    HW226925   0.349   2.931   2.140 -0.0186 -2.6744  0.5276
 5098SOL     OW26926   2.032   3.698  10.501 -0.0989  0.6318 -0.5002
 5098SOL    HW126927   1.953   3.644  10.498 -0.5673  1.1259  3.0493
 5098SOL    HW226928   1.997   3.787  10.494 -2.1483 -0.2597 -1.7501
 5099SOL     OW26929   3.535   4.235  16.595 -0.0521  0.1141 -0.0842
 5099SOL    HW126930   3.461   4.287  16.626 -0.6408 -0.4030 -0.6082
 5099SOL    HW226931   3.599   4.244  16.665  0.4897 -1.7020 -0.3481
 5100SOL     OW26932   0.240   0.977   5.936 -0.0174  0.5110  0.1084
 5100SOL    HW126933   0.287   1.058   5.957  1.6839 -0.5715  0.4569
 5100SOL    HW226934   0.218   0.936   6.020 -1.3452  2.1616  0.5661
 5101SOL     OW26935   2.874   1.488   9.367 -0.1306  0.1526 -0.0599
 5101SOL    HW126936   2.965   1.461   9.357 -0.8297 -2.7428  1.3662
 5101SOL    HW226937   2.866   1.490   9.463  2.5583 -0.6545  0.1680
 5102SOL     OW26938   3.454   1.736   3.313  1.0991 -0.0803  0.0840
 5102SOL    HW126939   3.511   1.659   3.304  1.0511 -0.4430  2.8179
 5102SOL    HW226940   3.418   1.752   3.226  0.1786 -0.0174  0.4724
 5103SOL     OW26941   1.771   4.549   4.419 -0.2837  0.2608  0.1652
 5103SOL    HW126942   1.831   4.622   4.428  1.6149 -1.1529 -1.0465
 5103SOL    HW226943   1.812   4.478   4.470  0.2052  1.0806  0.9114
 5104SOL     OW26944   3.837   0.446   4.207  0.0828  0.7631  0.0427
 5104SOL    HW126945   3.929   0.462   4.226  0.8922 -2.1309 -1.4412
 5104SOL    HW226946   3.800   0.532   4.229 -0.9463  0.3502 -0.0574
 5105SOL     OW26947   3.907   3.486   1.180  0.0775 -0.1922  0.0553
 5105SOL    HW126948   3.830   3.430   1.167  0.2157 -0.2671 -0.4406
 5105SOL    HW226949   3.900   3.534   1.098 -0.6730 -1.2630 -0.5144
 5106SOL     OW26950   2.902   0.163   8.499 -0.8216  0.2369  0.1097
 5106SOL    HW126951   2.867   0.074   8.494  0.0554 -0.0134 -1.6619
 5106SOL    HW226952   2.829   0.224   8.512 -2.4762 -1.9963  1.2835
 5107SOL     OW26953   1.435   0.322   4.253 -0.1510  0.0563 -0.0428
 5107SOL    HW126954   1.357   0.286   4.211  0.5963 -0.5836 -0.8804
 5107SOL    HW226955   1.479   0.364   4.179  1.8460 -0.7349  0.6809
 5108SOL     OW26956   4.677   2.277   8.993 -1.0587  0.1830 -0.3919
 5108SOL    HW126957   4.660   2.364   9.030  0.3976  1.3398 -2.4225
 5108SOL    HW226958   4.698   2.303   8.903  0.6443 -1.6658 -0.5292
 5109SOL     OW26959   3.083   3.239   6.276 -0.3344 -0.1755  0.5704
 5109SOL    HW126960   3.089   3.298   6.201 -3.5240 -0.1156  0.3660
 5109SOL    HW226961   2.992   3.254   6.301  0.1087 -0.7566  2.5657
 5110SOL     OW26962   0.449   0.129   5.265  0.0318 -0.1197 -0.3493
 5110SOL    HW126963   0.530   0.137   5.215 -0.2660  1.4774 -0.5816
 5110SOL    HW226964   0.461   0.045   5.310  0.8970  1.3175  2.0766
 5111SOL     OW26965   0.120   0.486   4.796  0.0786 -0.0542  0.0736
 5111SOL    HW126966   0.210   0.454   4.798  0.2096  0.2561 -0.9176
 5111SOL    HW226967   0.083   0.419   4.853  0.9424  1.0214  1.8953
 5112SOL     OW26968   4.195   1.673   6.367  0.2241  0.2232 -0.3399
 5112SOL    HW126969   4.186   1.578   6.357 -0.9588  0.5777 -2.8228
 5112SOL    HW226970   4.150   1.692   6.449  0.7882  0.1557 -0.0183
 5113SOL     OW26971   2.671   0.863   3.600  0.3209  0.1734  0.0654
 5113SOL    HW126972   2.718   0.793   3.645 -2.3290 -1.3783  0.4413
 5113SOL    HW226973   2.714   0.941   3.635 -1.6253  1.2052  0.1716
 5114SOL     OW26974   1.398   4.025   1.266  0.0055 -0.0134  0.6190
 5114SOL    HW126975   1.387   4.073   1.184 -0.1225 -0.1223  0.5727
 5114SOL    HW226976   1.333   3.957   1.252 -0.3850  0.6024 -0.5367
 5115SOL     OW26977   4.367   1.384  16.030  0.0090  0.3960  0.1596
 5115SOL    HW126978   4.437   1.416  15.973  1.5329 -1.9341  0.7553
 5115SOL    HW226979   4.318   1.328  15.970  2.2898  1.9288 -3.1286
 5116SOL     OW26980   3.161   2.045  13.554 -0.5877  0.3380 -0.8276
 5116SOL    HW126981   3.078   2.067  13.512 -0.6110 -1.1278 -1.5648
 5116SOL    HW226982   3.173   2.130  13.596  0.2124 -0.0026 -0.3739
 5117SOL     OW26983   4.399   4.360  17.472  0.2704 -0.1792  0.2269
 5117SOL    HW126984   4.370   4.448  17.449  0.0522 -0.6048 -1.1866
 5117SOL    HW226985   4.490   4.365  17.500 -0.5976  1.5324  2.7532
 5118SOL     OW26986   3.990   0.383   7.793  0.4180  0.7466  0.1500
 5118SOL    HW126987   4.027   0.444   7.730 -0.1316 -0.7508 -1.5918
 5118SOL    HW226988   3.957   0.310   7.741  1.9974  0.4810 -0.4582
 5119SOL     OW26989   3.726   1.614   9.325 -0.6605 -0.0365 -0.2009
 5119SOL    HW126990   3.696   1.693   9.279 -0.8337 -0.9385 -1.6209
 5119SOL    HW226991   3.820   1.629   9.332 -0.3863 -0.6256 -2.7430
 5120SOL     OW26992   1.640   0.375   0.187  0.2653 -0.0004  0.0082
 5120SOL    HW126993   1.687   0.437   0.131  0.0556 -0.5086 -0.7345
 5120SOL    HW226994   1.677   0.393   0.273  0.5877 -0.7886  0.0404
 5121SOL     OW26995   0.667   2.693   5.331 -0.0104 -0.2376  0.1204
 5121SOL    HW126996   0.622   2.765   5.287 -0.3344 -0.8107 -0.4886
 5121SOL    HW226997   0.704   2.642   5.259 -2.2807 -2.1842  0.3262
 5122SOL     OW26998   1.363   1.479   9.219 -0.7536 -0.6755 -0.2372
 5122SOL    HW126999   1.330   1.543   9.283 -0.3333  1.5293 -2.2345
 5122SOL    HW227000   1.297   1.499   9.152  0.0352  0.5977 -0.6376
 5123SOL     OW27001   2.142   1.107   2.362 -0.6126 -0.1347  0.2789
 5123SOL    HW127002   2.119   1.161   2.437 -0.3415 -1.2404  1.1648
 5123SOL    HW227003   2.056   1.081   2.330  0.0148 -2.7645  0.6911
 5124SOL     OW27004   0.407   2.486  16.884  0.5790  0.2363 -0.0945
 5124SOL    HW127005   0.472   2.464  16.817  2.5841 -1.8773  2.5528
 5124SOL    HW227006   0.465   2.492  16.960 -0.1485 -1.9937  0.6422
 5125SOL     OW27007   2.523   2.377   7.838  0.6904  0.3503 -0.3832
 5125SOL    HW127008   2.546   2.387   7.930 -0.0936 -3.4809  0.2314
 5125SOL    HW227009   2.556   2.451   7.788 -3.2645  1.7572 -0.9627
 5126SOL     OW27010   1.678   3.085   3.754 -0.4274  0.3664 -0.3118
 5126SOL    HW127011   1.617   3.096   3.827  0.3778 -1.6250  0.6622
 5126SOL    HW227012   1.681   3.171   3.713  1.3578  0.2443 -0.4568
 5127SOL     OW27013   1.621   0.653   1.605 -0.1600  0.2177  0.0803
 5127SOL    HW127014   1.561   0.656   1.531 -0.5957  0.1238  0.4346
 5127SOL    HW227015   1.701   0.680   1.558  1.2700  0.6612  2.7736
 5128SOL     OW27016   2.835   1.839   6.760 -0.1323  0.1075 -0.7284
 5128SOL    HW127017   2.909   1.783   6.783  0.1393  0.3512 -1.0121
 5128SOL    HW227018   2.807   1.875   6.843 -1.2238 -1.6311 -0.3325
 5129SOL     OW27019   2.604   4.414   4.950  0.4883  1.0520  0.2834
 5129SOL    HW127020   2.657   4.336   4.934 -1.3477  0.0199 -0.8567
 5129SOL    HW227021   2.674   4.469   4.984  0.3319  0.5642  1.3844
 5130SOL     OW27022   0.936   0.617  17.106  0.0372 -0.2941  0.1131
 5130SOL    HW127023   1.005   0.682  17.095  0.5522 -1.1990 -2.0045
 5130SOL    HW227024   0.929   0.588  17.015  1.3996 -0.6687  0.1393
 5131SOL     OW27025   2.374   1.311   2.310  0.2923  0.4234  0.1069
 5131SOL    HW127026   2.379   1.347   2.222  1.5280  0.2158  0.0891
 5131SOL    HW227027   2.287   1.271   2.312  0.9878 -1.1671 -0.6308
 5132SOL     OW27028   3.177   0.438   3.852  0.1191  0.1710  0.3210
 5132SOL    HW127029   3.257   0.490   3.851  1.3481 -1.7278 -0.1176
 5132SOL    HW227030   3.126   0.517   3.868 -2.1445 -0.6834 -2.7331
 5133SOL     OW27031   1.988   3.168  14.568  0.1660  0.4594  0.1432
 5133SOL    HW127032   1.957   3.082  14.595  1.0581 -0.5991 -2.1996
 5133SOL    HW227033   2.074   3.157  14.526 -0.2995 -1.0706 -0.3956
 5134SOL     OW27034   3.409   1.434   9.967  0.0752  0.5149  0.3199
 5134SOL    HW127035   3.411   1.413   9.873 -0.8338  2.2972 -0.0934
 5134SOL    HW227036   3.502   1.453   9.982  0.8343 -1.8038 -1.3263
 5135SOL     OW27037   1.716   4.582  10.595  0.0433  0.8314  0.4311
 5135SOL    HW127038   1.692   4.657  10.540  0.1844  2.2038  2.2601
 5135SOL    HW227039   1.756   4.527  10.527 -2.3224  1.7838 -1.7705
 5136SOL     OW27040   1.934   4.305   3.623  0.3528 -0.1532  0.7843
 5136SOL    HW127041   1.864   4.267   3.570 -0.5183  1.6581  0.6488
 5136SOL    HW227042   1.900   4.323   3.711 -1.2576  2.3711 -0.3594
 5137SOL     OW27043   0.057   1.730   5.615  0.2872  0.1047 -0.4362
 5137SOL    HW127044   0.093   1.641   5.606  0.2132  0.0038  0.2863
 5137SOL    HW227045   4.713   1.728   5.561  0.0071 -1.7088  0.0212
 5138SOL     OW27046   4.136   1.700   2.941  0.0094 -0.3736 -0.2070
 5138SOL    HW127047   4.107   1.650   2.866  0.4599  0.4568 -0.9405
 5138SOL    HW227048   4.231   1.707   2.930  0.2255 -0.2032  1.6990
 5139SOL     OW27049   0.324   1.471   1.960  0.2015  0.5621  1.2868
 5139SOL    HW127050   0.400   1.522   1.988  0.9735  0.2443 -0.1856
 5139SOL    HW227051   0.377   1.398   1.927 -0.2288  0.6231  0.4599
 5140SOL     OW27052   4.534   2.656  15.536 -0.4667  0.3799  0.0063
 5140SOL    HW127053   4.551   2.609  15.617  1.3341  0.1468 -0.4968
 5140SOL    HW227054   4.604   2.616  15.483 -1.3228 -1.8254  0.5292
 5141SOL     OW27055   3.585   0.702  11.637  0.0281  0.0730 -0.4047
 5141SOL    HW127056   3.678   0.680  11.634  0.2990  1.5838 -2.5405
 5141SOL    HW227057   3.586   0.769  11.705 -0.3423 -1.0984  0.7647
 5142SOL     OW27058   1.383   1.188   8.487 -0.0234 -0.3401 -0.3611
 5142SOL    HW127059   1.343   1.155   8.567  1.3185  0.3628  0.5834
 5142SOL    HW227060   1.474   1.163   8.499  0.0188 -0.5583 -1.1324
 5143SOL     OW27061   1.646   2.660   4.981 -0.2587 -0.1427 -0.0536
 5143SOL    HW127062   1.552   2.678   4.976 -0.1227  0.9566  1.3825
 5143SOL    HW227063   1.667   2.654   4.888  2.3077  0.7311  0.4703
 5144SOL     OW27064   4.731   3.962   5.689  0.7505 -0.8994  1.1254
 5144SOL    HW127065   4.671   3.899   5.648  0.0988  0.5202 -0.1216
 5144SOL    HW227066   4.677   3.981   5.766  0.2985  1.2266  0.2861
 5145SOL     OW27067   0.554   0.719  13.869 -0.4353 -0.4223 -0.0514
 5145SOL    HW127068   0.577   0.714  13.962 -0.0213  2.5634 -0.0158
 5145SOL    HW227069   0.485   0.786  13.867 -0.1706 -0.1458  0.1292
 5146SOL     OW27070   4.200   1.693  12.411 -0.1717 -0.2552 -0.9336
 5146SOL    HW127071   4.257   1.752  12.461 -0.9121 -0.5948  0.3286
 5146SOL    HW227072   4.227   1.609  12.447  1.1528  1.0450  1.1216
 5147SOL     OW27073   3.714   0.532  12.686 -0.2865 -0.3575  0.6114
 5147SOL    HW127074   3.647   0.595  12.711 -1.0406 -0.5587 -0.9221
 5147SOL    HW227075   3.699   0.512  12.594  2.2594  0.3038  0.0429
 5148SOL     OW27076   4.080   4.043   3.410  0.0529  0.5362 -0.1489
 5148SOL    HW127077   4.028   4.053   3.489  1.0264 -1.0002  0.6930
 5148SOL    HW227078   4.040   3.972   3.359  1.5698 -1.1339  0.9356
 5149SOL     OW27079   2.343   1.326  15.049 -0.2213  0.2493  0.2831
 5149SOL    HW127080   2.379   1.413  15.068 -0.7963  0.8423 -1.3054
 5149SOL    HW227081   2.303   1.346  14.964  0.8745 -0.8123 -0.4901
 5150SOL     OW27082   4.221   1.299  10.374  0.3858  0.0951  0.1052
 5150SOL    HW127083   4.182   1.212  10.362 -2.5564  1.5579 -0.8448
 5150SOL    HW227084   4.136   1.344  10.378 -0.3142 -1.1724 -0.4085
 5151SOL     OW27085   4.410   1.177   6.027  0.0052 -0.2720  0.0107
 5151SOL    HW127086   4.392   1.159   5.935  0.7094  1.4516 -0.4591
 5151SOL    HW227087   4.438   1.268   6.022 -1.5137  0.2974  1.8100
 5152SOL     OW27088   0.955   3.758   2.213  0.5907  0.0583 -0.4408
 5152SOL    HW127089   0.971   3.808   2.133 -0.7744  0.9619 -0.1614
 5152SOL    HW227090   0.868   3.719   2.202 -0.1195  2.0907 -2.0774
 5153SOL     OW27091   2.633   0.401   2.038  0.4931 -0.6324 -0.4783
 5153SOL    HW127092   2.559   0.458   2.059  1.8670  1.7764 -2.2271
 5153SOL    HW227093   2.673   0.402   2.124  0.4362 -0.6844 -0.4511
 5154SOL     OW27094   4.661   1.265   3.111  0.5671 -0.7033 -0.5013
 5154SOL    HW127095   4.664   1.271   3.207  0.2541 -1.1720 -0.4618
 5154SOL    HW227096   0.010   1.225   3.088  1.2971  0.2080  0.5734
 5155SOL     OW27097   2.081   0.335  10.022  0.2181  0.3237 -0.2344
 5155SOL    HW127098   2.133   0.387   9.960 -1.5133  3.0136  0.5974
 5155SOL    HW227099   2.138   0.258  10.026  0.0015  0.2724  1.6092
 5156SOL     OW27100   0.431   4.557  13.927  0.5528  0.0667  0.0185
 5156SOL    HW127101   0.458   4.613  13.854  2.1096 -0.3982  0.2166
 5156SOL    HW227102   0.515   4.511  13.936  0.4114 -0.0921  0.4977
 5157SOL     OW27103   3.061   3.171   1.800 -0.2474  0.6424  0.0567
 5157SOL    HW127104   3.053   3.114   1.723 -2.6514 -0.1246  0.8556
 5157SOL    HW227105   3.146   3.215   1.802 -0.2526  0.6730 -0.5883
 5158SOL     OW27106   0.171   3.500  10.116 -0.4364 -1.1658 -0.7975
 5158SOL    HW127107   0.075   3.497  10.117 -0.3600 -2.6139  1.7671
 5158SOL    HW227108   0.190   3.410  10.141 -1.8285 -0.6990  1.9014
 5159SOL     OW27109   2.096   0.256  11.397  0.2234 -0.5146  0.2700
 5159SOL    HW127110   2.178   0.253  11.347  0.3812  1.3279  0.4350
 5159SOL    HW227111   2.125   0.190  11.460  1.1699  0.8670  1.2985
 5160SOL     OW27112   2.048   1.401   1.929  0.3413 -0.6786  0.1037
 5160SOL    HW127113   2.006   1.474   1.884 -1.0163 -0.9122  0.9826
 5160SOL    HW227114   2.096   1.368   1.853  2.3211  1.3968  0.4459
 5161SOL     OW27115   2.027   1.263   1.321 -0.1348  0.1227  0.0519
 5161SOL    HW127116   1.997   1.219   1.241 -2.0987  0.7460  0.4384
 5161SOL    HW227117   1.940   1.275   1.358 -0.1361 -1.8145  0.6757
 5162SOL     OW27118   0.752   2.157   2.468  0.0831 -0.2514 -0.0720
 5162SOL    HW127119   0.716   2.209   2.397  0.5104 -1.1772 -0.9591
 5162SOL    HW227120   0.698   2.179   2.544 -0.6810 -0.4899 -0.5583
 5163SOL     OW27121   4.095   1.729  17.070  0.3927 -0.4614 -0.6474
 5163SOL    HW127122   4.097   1.638  17.040  1.5667 -0.3604 -0.8913
 5163SOL    HW227123   4.190   1.741  17.074  0.3379 -0.5067  0.9483
 5164SOL     OW27124   1.096   0.400   6.806 -0.1991  0.5253 -0.1649
 5164SOL    HW127125   1.141   0.316   6.813 -4.2002 -1.5130  1.4560
 5164SOL    HW227126   1.176   0.432   6.765  0.7997  2.1271  3.0320
 5165SOL     OW27127   0.916   0.953  17.006 -0.1172  0.1144 -0.8307
 5165SOL    HW127128   0.984   0.925  17.067 -1.5100 -0.2388  0.5534
 5165SOL    HW227129   0.837   0.951  17.061  2.1024  1.0348  2.4232
 5166SOL     OW27130   1.167   2.710   3.102  0.4198 -0.0759 -0.1433
 5166SOL    HW127131   1.151   2.694   3.009 -3.2519 -4.8036  1.2975
 5166SOL    HW227132   1.096   2.772   3.116  0.8979  0.6925 -1.0744
 5167SOL     OW27133   0.878   1.430   4.701  0.0948 -0.5378  0.3236
 5167SOL    HW127134   0.796   1.477   4.687 -0.3908 -1.6178 -0.4542
 5167SOL    HW227135   0.914   1.496   4.761 -2.2369  0.0475  1.0589
 5168SOL     OW27136   0.926   2.212   4.645  0.2889  0.0199 -0.6999
 5168SOL    HW127137   0.930   2.207   4.741 -0.8791  0.1605 -0.6465
 5168SOL    HW227138   0.857   2.157   4.608 -0.0904 -0.5487  0.8552
 5169SOL     OW27139   0.098   3.635   2.537  0.4303  0.6644 -0.6015
 5169SOL    HW127140   0.021   3.617   2.482 -0.0897  2.5418 -0.4933
 5169SOL    HW227141   0.122   3.545   2.559  0.6587  0.7999 -0.2968
 5170SOL     OW27142   2.509   3.311   8.922  0.1437 -0.7881  0.3538
 5170SOL    HW127143   2.528   3.295   9.015 -1.5442  0.3133  0.9015
 5170SOL    HW227144   2.596   3.341   8.895 -0.4690  0.4772 -0.2356
 5171SOL     OW27145   1.679   2.470   3.863  0.2048 -0.0849 -0.5757
 5171SOL    HW127146   1.672   2.536   3.793 -3.9688 -1.3645 -1.3794
 5171SOL    HW227147   1.771   2.447   3.875 -0.0807 -0.0211  1.7338
 5172SOL     OW27148   0.229   0.644   8.518 -0.0966 -0.3508  0.1915
 5172SOL    HW127149   0.314   0.606   8.538  0.4019  0.9948  0.6487
 5172SOL    HW227150   0.256   0.734   8.498 -0.7861 -0.1686  0.0781
 5173SOL     OW27151   1.447   4.395   2.480  0.2120  0.2746 -0.0168
 5173SOL    HW127152   1.473   4.303   2.491  0.8275  0.3200 -1.1437
 5173SOL    HW227153   1.408   4.409   2.567 -3.2174  0.0281 -1.5280
 5174SOL     OW27154   1.971   1.609  15.772 -0.1639 -0.5413 -0.0396
 5174SOL    HW127155   1.938   1.697  15.788 -0.5721 -0.7756  0.4255
 5174SOL    HW227156   2.063   1.627  15.790 -0.1806 -0.7455  0.2366
 5175SOL     OW27157   3.731   3.754  14.469  0.1160  0.0610 -0.5091
 5175SOL    HW127158   3.659   3.815  14.452  1.0226  1.2666  0.0384
 5175SOL    HW227159   3.689   3.701  14.537 -0.6510  1.9231  0.4845
 5176SOL     OW27160   0.964   2.131   2.971  0.2712 -0.1551 -0.9604
 5176SOL    HW127161   0.915   2.050   2.959 -2.5484  1.1076  1.9795
 5176SOL    HW227162   0.900   2.200   2.955  0.2627  0.3323  1.1945
 5177SOL     OW27163   4.070   1.000  17.536 -0.4664  0.6418 -0.8746
 5177SOL    HW127164   4.028   0.985  17.451  0.5785 -1.5346 -0.9998
 5177SOL    HW227165   4.155   0.975  17.501 -0.7448 -2.3148  0.5423
 5178SOL     OW27166   1.697   2.348  15.909  0.3704 -0.0474  0.1081
 5178SOL    HW127167   1.622   2.364  15.852  1.4174  2.2820 -0.6146
 5178SOL    HW227168   1.764   2.343  15.842  0.5359  0.3659  0.2418
 5179SOL     OW27169   3.591   1.226   8.678 -0.1882  0.2309  0.1635
 5179SOL    HW127170   3.640   1.144   8.684 -1.3019 -0.3481  1.5504
 5179SOL    HW227171   3.549   1.218   8.593  0.3427 -0.3041 -0.0444
 5180SOL     OW27172   2.244   0.106   6.889  0.1628  0.4900  0.1955
 5180SOL    HW127173   2.202   0.133   6.971 -0.3663  2.5670 -0.7520
 5180SOL    HW227174   2.290   0.182   6.854 -0.1045 -0.0031 -1.2264
 5181SOL     OW27175   0.009   1.557  16.212  0.1209  0.5708 -0.0962
 5181SOL    HW127176   0.079   1.617  16.183  0.7377 -0.3765 -0.5865
 5181SOL    HW227177   4.683   1.628  16.233  0.9841  0.4219  2.9646
 5182SOL     OW27178   1.877   1.164   1.998 -0.1106 -0.6457 -0.2526
 5182SOL    HW127179   1.862   1.149   2.091  0.7361  1.3477  0.1938
 5182SOL    HW227180   1.928   1.245   2.002 -0.5899 -0.2672 -1.6541
 5183SOL     OW27181   0.648   0.941   6.166  0.0590 -0.0258 -0.1944
 5183SOL    HW127182   0.645   1.002   6.093  1.1137  1.5803  1.1213
 5183SOL    HW227183   0.577   0.971   6.223  0.7747  1.0984  0.0781
 5184SOL     OW27184   0.303   3.288   8.794  0.0959 -0.2626 -0.4819
 5184SOL    HW127185   0.236   3.349   8.764  1.3575 -0.4447 -3.7733
 5184SOL    HW227186   0.259   3.206   8.815 -0.6409  0.6636  1.4921
 5185SOL     OW27187   2.348   0.751   6.181  0.6223 -0.5909 -0.2389
 5185SOL    HW127188   2.363   0.658   6.200 -2.8516 -0.9227  0.8323
 5185SOL    HW227189   2.365   0.798   6.263  0.7814 -1.9142  0.4749
 5186SOL     OW27190   1.063   3.695   0.757  0.4165 -0.0197  0.1810
 5186SOL    HW127191   1.122   3.636   0.710 -1.1352 -1.5197  0.1096
 5186SOL    HW227192   1.074   3.668   0.848 -2.4455 -1.9307 -0.0323
 5187SOL     OW27193   1.124   1.986   2.435 -0.2281 -0.4563 -0.0209
 5187SOL    HW127194   1.109   2.052   2.502 -2.0158 -1.4725  0.5777
 5187SOL    HW227195   1.218   1.966   2.434  0.1121  1.1007  1.9742
 5188SOL     OW27196   2.583   1.909  17.616 -0.0212 -0.2242 -0.9760
 5188SOL    HW127197   2.602   1.949  17.531  2.2916  2.8220  0.9632
 5188SOL    HW227198   2.641   1.834  17.628  1.7707  1.5712  1.5245
 5189SOL     OW27199   0.161   0.769   4.254 -0.0792 -0.2369  0.1397
 5189SOL    HW127200   0.207   0.686   4.262  0.3346 -0.1189 -1.0158
 5189SOL    HW227201   0.188   0.825   4.327  0.8517  0.6787 -0.9025
 5190SOL     OW27202   1.609   0.799   7.514 -0.1652  0.1071 -0.1948
 5190SOL    HW127203   1.609   0.771   7.423  0.0432 -0.4772 -0.0185
 5190SOL    HW227204   1.645   0.720   7.555  2.7316  2.0178  0.8985
 5191SOL     OW27205   1.841   3.715   3.650  0.2745 -0.2680  0.3460
 5191SOL    HW127206   1.908   3.695   3.585 -0.9827 -2.1202 -0.4021
 5191SOL    HW227207   1.790   3.779   3.601  1.5439  0.9353  0.6265
 5192SOL     OW27208   1.954   2.132   8.265 -0.9452  0.0625  0.1314
 5192SOL    HW127209   2.027   2.143   8.326 -2.0817  1.9382  1.1531
 5192SOL    HW227210   1.991   2.115   8.178 -2.8890  1.3773 -0.9625
 5193SOL     OW27211   4.116   0.334   2.924 -0.4258 -0.0218  0.2447
 5193SOL    HW127212   4.027   0.339   2.959 -0.8692 -1.1007 -0.7669
 5193SOL    HW227213   4.158   0.379   2.998  1.5535 -1.2946 -0.0981
 5194SOL     OW27214   1.793   3.889  11.564  0.6242  0.4317 -0.4204
 5194SOL    HW127215   1.716   3.918  11.613  0.2713  1.2161 -1.4591
 5194SOL    HW227216   1.860   3.951  11.593 -0.3514  1.1067  0.3554
 5195SOL     OW27217   1.914   2.238   9.140  0.0208 -0.7254  0.1185
 5195SOL    HW127218   1.958   2.239   9.225  0.4914  1.1265 -0.1423
 5195SOL    HW227219   1.863   2.319   9.141  1.8830  0.4156  2.3405
 5196SOL     OW27220   0.755   2.724  10.541  0.0296  0.3339  0.1491
 5196SOL    HW127221   0.738   2.689  10.629 -1.7532 -0.8781 -0.6699
 5196SOL    HW227222   0.756   2.819  10.555  1.8816  0.5909 -1.9374
 5197SOL     OW27223   2.950   1.338  11.103  0.2205  0.0823  0.3273
 5197SOL    HW127224   2.953   1.252  11.062 -1.4038  0.3010 -0.2680
 5197SOL    HW227225   2.856   1.352  11.090  0.3952 -0.4098 -1.4914
 5198SOL     OW27226   2.427   2.052  12.756  0.1203 -0.2642 -0.6499
 5198SOL    HW127227   2.450   2.087  12.842  0.2485 -1.1463 -0.3262
 5198SOL    HW227228   2.336   2.026  12.771 -0.7331  3.0140 -0.2013
 5199SOL     OW27229   1.357   3.778   5.808  0.4110 -0.7118 -0.2983
 5199SOL    HW127230   1.443   3.797   5.845  0.4270 -0.0533 -0.6770
 5199SOL    HW227231   1.326   3.868   5.805 -0.9338 -1.0675  2.4539
 5200SOL     OW27232   3.869   0.528  13.057  0.2611 -0.5995  0.6123
 5200SOL    HW127233   3.880   0.595  13.124  0.4487  0.5670 -0.5814
 5200SOL    HW227234   3.915   0.578  12.990  0.7930 -0.9095  0.7491
 5201SOL     OW27235   2.751   2.008   2.740 -0.7893  0.3817 -0.3975
 5201SOL    HW127236   2.680   2.072   2.729 -2.0684 -0.9616  0.1391
 5201SOL    HW227237   2.703   1.950   2.798 -2.8092 -0.7719 -3.1954
 5202SOL     OW27238   3.124   2.526   0.432 -0.5211  0.2089  0.3650
 5202SOL    HW127239   3.114   2.447   0.379  1.8829 -0.0533  0.2669
 5202SOL    HW227240   3.215   2.509   0.456 -0.1578 -0.9105 -1.8833
 5203SOL     OW27241   0.426   1.956   2.368 -0.1669  0.3642 -0.1296
 5203SOL    HW127242   0.508   1.906   2.367 -1.5694 -2.0010  1.7083
 5203SOL    HW227243   0.421   1.974   2.462  1.6182 -0.4988  0.1384
 5204SOL     OW27244   4.097   1.122   9.764  0.3688 -0.4153 -0.1796
 5204SOL    HW127245   4.182   1.155   9.791  0.9115 -1.5212 -0.5425
 5204SOL    HW227246   4.114   1.054   9.699 -2.3320  0.1207 -1.4652
 5205SOL     OW27247   3.509   2.152  16.751 -0.0677 -0.6939  0.0914
 5205SOL    HW127248   3.491   2.125  16.841  1.9651 -1.2764  0.3188
 5205SOL    HW227249   3.543   2.240  16.762 -0.5751 -0.4575 -0.2082
 5206SOL     OW27250   0.246   2.561   4.714  0.0400  0.4271 -0.0977
 5206SOL    HW127251   0.324   2.593   4.760 -1.1424  0.2775  2.0092
 5206SOL    HW227252   0.182   2.571   4.784  0.9128  1.9843  0.4695
 5207SOL     OW27253   1.539   2.919   2.838  0.7797  0.8711 -0.0445
 5207SOL    HW127254   1.537   2.938   2.744  1.2729  0.2160 -0.1931
 5207SOL    HW227255   1.469   2.977   2.867  0.6668  0.9150 -0.4114
 5208SOL     OW27256   1.094   0.322   5.765 -0.1594  0.1186  0.0209
 5208SOL    HW127257   1.070   0.401   5.815  0.9982 -0.1343  0.9920
 5208SOL    HW227258   1.098   0.363   5.679 -1.0169  2.0046  0.8643
 5209SOL     OW27259   2.024   4.337  11.480  0.1676  0.1637 -0.1363
 5209SOL    HW127260   1.957   4.329  11.412 -0.3275  0.3851  0.3325
 5209SOL    HW227261   1.982   4.391  11.546 -1.1708 -2.6507  1.3429
 5210SOL     OW27262   1.487   3.769  14.572 -0.0938  0.4477  0.2899
 5210SOL    HW127263   1.435   3.702  14.527 -0.4350 -0.2856  1.7755
 5210SOL    HW227264   1.533   3.815  14.502  2.4136 -1.1561  0.8742
 5211SOL     OW27265   0.666   1.726   4.465 -0.4210  0.3081 -0.2426
 5211SOL    HW127266   0.626   1.678   4.537  3.4970  0.1872  1.8448
 5211SOL    HW227267   0.720   1.656   4.427 -0.1610 -0.5449  1.7143
 5212SOL     OW27268   0.372   1.382   8.369  0.0155  0.2152  0.1327
 5212SOL    HW127269   0.304   1.342   8.423 -1.0689  3.1184  0.8930
 5212SOL    HW227270   0.358   1.472   8.399 -1.6689 -0.8152  2.4704
 5213SOL     OW27271   3.199   0.662  10.902 -0.0260 -0.3537  0.0101
 5213SOL    HW127272   3.166   0.576  10.877 -1.9245  0.1374  0.7779
 5213SOL    HW227273   3.214   0.700  10.816 -0.7357 -1.1010 -0.4450
 5214SOL     OW27274   0.470   0.151   6.232 -0.0813  0.2231 -0.3058
 5214SOL    HW127275   0.515   0.085   6.180  2.7056 -1.7332  4.6087
 5214SOL    HW227276   0.467   0.222   6.168 -2.0607 -0.1584 -0.6449
 5215SOL     OW27277   4.218   4.414   3.090 -0.2832 -0.1192  0.3288
 5215SOL    HW127278   4.192   4.462   3.011 -0.8511  0.4160  0.8372
 5215SOL    HW227279   4.307   4.384   3.074 -0.9163 -1.0506 -1.3995
 5216SOL     OW27280   4.342   0.618  15.094 -0.4273 -0.5176 -0.0961
 5216SOL    HW127281   4.282   0.548  15.072 -0.9856 -0.6364  1.7625
 5216SOL    HW227282   4.418   0.595  15.041 -0.3832  1.0688 -0.7273
 5217SOL     OW27283   3.596   3.549   4.543  0.1658 -0.2647 -0.5100
 5217SOL    HW127284   3.507   3.515   4.534  0.9883 -2.1623 -1.6487
 5217SOL    HW227285   3.643   3.468   4.519  3.7425  1.7058 -0.1337
 5218SOL     OW27286   4.053   4.071  12.981 -0.0594 -0.1164  0.1963
 5218SOL    HW127287   4.045   4.059  12.887  1.8817 -2.3409  0.3105
 5218SOL    HW227288   4.146   4.092  12.988 -0.0921 -0.2906  1.2561
 5219SOL     OW27289   0.502   0.054  16.263 -0.0719 -0.4787  0.4698
 5219SOL    HW127290   0.576   0.017  16.310  0.9198  0.5761 -0.2452
 5219SOL    HW227291   0.559   0.109  16.209 -0.2344 -0.1845  0.5987
 5220SOL     OW27292   0.562   3.848   7.725  0.2115  0.2784 -0.2335
 5220SOL    HW127293   0.589   3.767   7.682 -2.4345 -0.2741 -0.9073
 5220SOL    HW227294   0.636   3.868   7.782 -0.4537  1.7121  0.1419
 5221SOL     OW27295   2.224   1.121  11.381 -0.1241  0.1499  0.1734
 5221SOL    HW127296   2.301   1.178  11.370  1.3757 -2.1501 -1.3325
 5221SOL    HW227297   2.229   1.128  11.476  0.5161  2.2970 -0.0143
 5222SOL     OW27298   1.869   3.476  13.783 -0.1858  0.1657  0.1155
 5222SOL    HW127299   1.827   3.556  13.752 -0.9177 -0.5363 -0.7125
 5222SOL    HW227300   1.949   3.495  13.732 -2.3393 -0.3577 -3.4967
 5223SOL     OW27301   0.872   3.519   3.582 -0.2034  0.1740  0.5905
 5223SOL    HW127302   0.915   3.576   3.646 -0.8336 -0.7483  1.8357
 5223SOL    HW227303   0.792   3.493   3.626  0.8651  1.1382  3.0961
 5224SOL     OW27304   0.835   1.122  12.393 -0.2291  0.0891 -0.1145
 5224SOL    HW127305   0.922   1.084  12.401 -0.5633 -0.9694 -1.4082
 5224SOL    HW227306   0.773   1.053  12.416 -0.2664  0.1102 -0.1506
 5225SOL     OW27307   2.463   1.909   2.061  0.7993  0.5956 -0.2727
 5225SOL    HW127308   2.389   1.861   2.024  2.4522 -1.2943 -1.1544
 5225SOL    HW227309   2.540   1.855   2.041 -0.0378 -0.0464 -1.7545
 5226SOL     OW27310   1.194   2.542  10.853 -0.4595  0.3099  0.5200
 5226SOL    HW127311   1.268   2.583  10.808  0.2581 -1.1490  0.3657
 5226SOL    HW227312   1.162   2.484  10.783 -3.8046  0.2400  2.1387
 5227SOL     OW27313   2.257   4.030   5.393 -0.1946 -0.0447 -0.0018
 5227SOL    HW127314   2.336   4.028   5.447  1.1809 -0.7567 -2.0430
 5227SOL    HW227315   2.301   4.035   5.308  0.0840 -1.3701  0.0664
 5228SOL     OW27316   3.367   0.166   9.094  0.5329  0.4834  0.4397
 5228SOL    HW127317   3.370   0.127   9.006  2.3151  0.8471  0.3266
 5228SOL    HW227318   3.346   0.087   9.143  1.0647  0.4903  0.6793
 5229SOL     OW27319   2.838   1.546   1.944  0.2993  0.1263  0.2448
 5229SOL    HW127320   2.776   1.522   1.875  2.1245 -0.6905 -1.1019
 5229SOL    HW227321   2.892   1.469   1.959  0.3881  0.4784  1.7381
 5230SOL     OW27322   2.993   2.784   9.166  0.1142  0.3578  0.3419
 5230SOL    HW127323   3.069   2.827   9.205  1.9972 -0.8069 -2.0282
 5230SOL    HW227324   3.033   2.713   9.116 -1.5403 -1.1584  1.1743
 5231SOL     OW27325   1.971   2.564   3.385 -0.5991 -0.1951  0.0560
 5231SOL    HW127326   1.954   2.476   3.352  0.4784  0.0830 -1.2285
 5231SOL    HW227327   1.975   2.612   3.302 -0.2571 -1.5498 -0.7105
 5232SOL     OW27328   0.026   3.460   2.792  0.3177 -0.0462  0.0469
 5232SOL    HW127329   0.049   3.540   2.840 -0.4032 -0.2053  0.6538
 5232SOL    HW227330   0.053   3.387   2.848  1.8504  0.1414 -0.4450
 5233SOL     OW27331   0.856   0.982  15.641  0.3549  0.1015  0.4928
 5233SOL    HW127332   0.815   1.059  15.680  1.1894  0.8801 -0.1788
 5233SOL    HW227333   0.857   0.927  15.719 -2.5880 -0.2569  0.2736
 5234SOL     OW27334   4.462   3.787   4.008  0.8067 -0.2388  0.7817
 5234SOL    HW127335   4.472   3.879   3.986 -1.3252  0.0264  0.8946
 5234SOL    HW227336   4.444   3.800   4.101  0.4080  2.0241  0.3954
 5235SOL     OW27337   2.529   4.527   5.219  0.6925  0.6895 -0.2595
 5235SOL    HW127338   2.534   4.610   5.171  0.6919  0.8167 -0.0371
 5235SOL    HW227339   2.525   4.459   5.152  1.6404  0.2065  0.1768
 5236SOL     OW27340   1.668   2.304   5.837 -0.4595  0.1657 -0.5400
 5236SOL    HW127341   1.696   2.213   5.850 -0.0955 -0.1819 -3.9375
 5236SOL    HW227342   1.581   2.290   5.801 -0.2029 -1.7760 -0.4310
 5237SOL     OW27343   1.122   1.162   1.702 -0.3672 -0.4766 -0.1899
 5237SOL    HW127344   1.087   1.077   1.729  0.1238 -1.1597 -1.7210
 5237SOL    HW227345   1.216   1.157   1.686 -0.0350  2.6067  0.7877
 5238SOL     OW27346   0.351   4.225   6.518  0.1170  0.1382 -0.4006
 5238SOL    HW127347   0.308   4.308   6.499 -1.5635 -0.6194  0.1403
 5238SOL    HW227348   0.357   4.178   6.435 -0.6998 -0.0361 -0.3593
 5239SOL     OW27349   0.284   3.378   0.870 -0.1094 -0.0350 -0.0263
 5239SOL    HW127350   0.334   3.453   0.838  1.7721 -1.1354  0.3520
 5239SOL    HW227351   0.267   3.323   0.793 -0.1363  0.1279 -0.1354
 5240SOL     OW27352   1.420   1.520   2.117  0.9765 -0.3876 -0.1314
 5240SOL    HW127353   1.396   1.513   2.025  0.2128  1.2201 -0.0439
 5240SOL    HW227354   1.450   1.610   2.124 -1.0146  0.2457  0.2532
 5241SOL     OW27355   2.221   4.051   6.797 -0.2175  0.0372 -0.1484
 5241SOL    HW127356   2.150   4.088   6.850 -1.0822  0.3436 -1.5161
 5241SOL    HW227357   2.223   3.967   6.843  0.2092 -0.1734 -0.5581
 5242SOL     OW27358   0.644   3.164  13.695  0.2445 -0.5426  0.1433
 5242SOL    HW127359   0.734   3.194  13.702  0.2952 -1.0259  1.6225
 5242SOL    HW227360   0.633   3.191  13.604  1.0082  1.7710  0.7399
 5243SOL     OW27361   3.785   3.289   2.302 -0.7316 -0.4304  0.2482
 5243SOL    HW127362   3.773   3.368   2.354  2.0553  0.2114 -0.0822
 5243SOL    HW227363   3.859   3.239   2.337 -1.5802 -0.7131  1.6260
 5244SOL     OW27364   1.614   2.678   3.708  0.6899 -0.6040 -0.3262
 5244SOL    HW127365   1.681   2.736   3.671  0.1903 -1.1655 -2.0979
 5244SOL    HW227366   1.567   2.644   3.632 -1.6169  0.8180  0.4751
 5245SOL     OW27367   2.737   4.125  12.221 -0.0571 -0.8595  0.3120
 5245SOL    HW127368   2.647   4.107  12.194  0.1259 -0.3930 -0.5843
 5245SOL    HW227369   2.784   4.129  12.138  1.4938 -2.3221  1.0970
 5246SOL     OW27370   4.127   1.323  13.943  0.2595  0.0843 -0.2492
 5246SOL    HW127371   4.052   1.343  13.998 -0.1552 -0.8356 -0.4784
 5246SOL    HW227372   4.119   1.232  13.915 -1.5997 -0.5621  2.3998
 5247SOL     OW27373   1.204   3.438   1.934  0.5481  0.2305  0.0660
 5247SOL    HW127374   1.233   3.526   1.910 -2.9301  0.8325 -1.8873
 5247SOL    HW227375   1.287   3.393   1.918  0.3209 -0.2913  0.3452
 5248SOL     OW27376   2.159   4.052   9.246  0.7128 -0.1001  0.0632
 5248SOL    HW127377   2.154   4.025   9.338 -0.0013 -0.2669 -0.0222
 5248SOL    HW227378   2.178   4.145   9.249 -0.3708  0.1745 -1.9356
 5249SOL     OW27379   1.255   2.802   6.920 -0.0749  0.1176 -0.1718
 5249SOL    HW127380   1.302   2.794   7.002 -0.5780  0.0002  0.1050
 5249SOL    HW227381   1.185   2.739   6.933 -0.3432  0.7965  1.6332
 5250SOL     OW27382   3.213   1.384   5.063  0.1363  0.3030 -0.4073
 5250SOL    HW127383   3.297   1.369   5.020  0.7111  1.2222  0.3845
 5250SOL    HW227384   3.162   1.402   4.984  0.5135 -0.6803 -0.8739
 5251SOL     OW27385   2.872   3.769   4.853 -0.7485 -0.0465  0.3715
 5251SOL    HW127386   2.870   3.780   4.948  1.4011 -1.2279  0.5614
 5251SOL    HW227387   2.861   3.675   4.843 -0.6516  0.0117 -0.2492
 5252SOL     OW27388   0.119   2.632   1.532 -0.3012  0.1518 -0.0709
 5252SOL    HW127389   0.083   2.597   1.614 -0.7711 -0.2452 -0.4463
 5252SOL    HW227390   0.166   2.708   1.567  0.3877 -0.6029  0.6395
 5253SOL     OW27391   1.849   2.447   6.410 -0.3425 -0.0978 -0.1424
 5253SOL    HW127392   1.866   2.524   6.356 -0.8707 -0.6557 -1.1213
 5253SOL    HW227393   1.937   2.409   6.409 -0.0519  0.5087  2.5558
 5254SOL     OW27394   2.569   0.001   8.977  0.8155 -0.1122  0.7404
 5254SOL    HW127395   2.656   4.710   8.948  1.1724 -0.8649  2.4617
 5254SOL    HW227396   2.556   0.093   8.954 -1.5498 -0.1635  1.8440
 5255SOL     OW27397   4.142   3.633   1.421  0.3165  0.3175  0.6337
 5255SOL    HW127398   4.071   3.573   1.399  0.0956  1.2545 -1.2544
 5255SOL    HW227399   4.127   3.707   1.362  1.0263 -0.3135 -0.3448
 5256SOL     OW27400   1.599   0.903  16.653  0.3758 -0.2788 -0.3896
 5256SOL    HW127401   1.547   0.914  16.573  1.2246 -2.8912 -1.2994
 5256SOL    HW227402   1.530   0.875  16.714 -0.1383  2.7227  0.4121
 5257SOL     OW27403   0.455   2.404   7.049  0.1902 -0.2736  0.0128
 5257SOL    HW127404   0.488   2.380   6.963 -1.8123 -0.0599 -0.7976
 5257SOL    HW227405   0.525   2.370   7.105 -0.4428 -1.9865 -0.2255
 5258SOL     OW27406   0.103   4.496   4.879 -0.4295  0.1374 -0.0977
 5258SOL    HW127407   0.128   4.438   4.807 -0.4136 -1.4125  1.1437
 5258SOL    HW227408   0.048   4.437   4.930  2.8822 -4.4040 -1.7494
 5259SOL     OW27409   0.917   0.512   4.841 -0.7431  0.3786 -0.1212
 5259SOL    HW127410   0.856   0.490   4.911  0.7050 -3.5965 -0.0925
 5259SOL    HW227411   0.909   0.429   4.793  0.4392 -1.3827  2.6923
 5260SOL     OW27412   1.270   2.465   0.143  0.5222 -0.3475 -0.0504
 5260SOL    HW127413   1.353   2.419   0.139  0.2707 -0.5977 -2.3525
 5260SOL    HW227414   1.242   2.444   0.054  1.8162 -0.7320 -0.3641
 5261SOL     OW27415   3.471   1.727   4.017  0.1355  0.0297 -0.3611
 5261SOL    HW127416   3.421   1.712   3.937  0.5409  0.2880 -0.6585
 5261SOL    HW227417   3.560   1.700   3.995 -0.3450  0.4129 -2.7079
 5262SOL     OW27418   1.975   4.653   6.828 -0.1451  0.5367  0.1986
 5262SOL    HW127419   1.913   4.684   6.893  1.1251  1.9862  0.7101
 5262SOL    HW227420   2.039   4.724   6.828  0.2688  0.1619  0.6658
 5263SOL     OW27421   0.682   3.998  13.809 -0.2182  0.1602  0.1007
 5263SOL    HW127422   0.619   3.940  13.768 -0.8174 -0.2471  1.6244
 5263SOL    HW227423   0.715   3.944  13.881  2.8816  1.0337 -0.6430
 5264SOL     OW27424   4.533   0.933   1.655 -0.0034 -0.1049  0.6933
 5264SOL    HW127425   4.480   0.945   1.577 -0.0854  1.1860  0.9520
 5264SOL    HW227426   4.585   1.014   1.659 -1.1380  0.7052 -0.8271
 5265SOL     OW27427   2.636   1.503  10.725 -0.1899  0.5133 -0.2284
 5265SOL    HW127428   2.670   1.417  10.703 -0.1407 -0.1977  2.6632
 5265SOL    HW227429   2.609   1.487  10.815 -0.4985  0.2738 -0.3655
 5266SOL     OW27430   0.213   0.337   6.914  0.7779 -0.5364  0.0015
 5266SOL    HW127431   0.295   0.316   6.870  0.9127  0.3170 -0.1486
 5266SOL    HW227432   0.262   0.364   6.992  0.6391 -1.7999  0.5375
 5267SOL     OW27433   0.104   4.192   0.499 -0.0292 -1.1358 -0.2686
 5267SOL    HW127434   0.113   4.187   0.404 -1.5799 -0.4529 -0.4570
 5267SOL    HW227435   0.019   4.236   0.496 -0.3466 -1.5054  2.9285
 5268SOL     OW27436   1.468   4.563  11.633  0.0047  0.0082 -0.2460
 5268SOL    HW127437   1.382   4.520  11.633  0.3304 -0.6449  0.4874
 5268SOL    HW227438   1.515   4.484  11.661  1.6545  1.0408 -0.1145
 5269SOL     OW27439   1.067   0.553   3.522  0.4626  0.1195 -0.7447
 5269SOL    HW127440   1.047   0.588   3.436  0.0291 -0.6933 -0.9696
 5269SOL    HW227441   1.135   0.613   3.552  0.1925  0.2872 -0.4608
 5270SOL     OW27442   3.834   0.570   8.344 -0.2058 -0.3700 -0.3275
 5270SOL    HW127443   3.925   0.594   8.325 -0.5715  0.0687 -1.5201
 5270SOL    HW227444   3.809   0.655   8.381 -1.3587 -0.2903 -1.3171
 5271SOL     OW27445   3.550   0.500   6.315 -0.7147 -0.2948  0.0384
 5271SOL    HW127446   3.634   0.545   6.327  0.2528 -2.1102 -0.0293
 5271SOL    HW227447   3.557   0.433   6.383  0.7524  0.0622  0.2382
 5272SOL     OW27448   1.995   2.402   5.125 -0.6337  0.1817 -0.0691
 5272SOL    HW127449   2.061   2.468   5.148  1.0740 -1.3566 -0.5369
 5272SOL    HW227450   1.943   2.397   5.205  1.4531 -1.4034  1.1913
 5273SOL     OW27451   1.385   0.756   6.413 -0.3294  0.2780  0.1765
 5273SOL    HW127452   1.329   0.689   6.455  1.3236 -1.6354 -0.6771
 5273SOL    HW227453   1.353   0.768   6.324  0.8332 -1.2379 -0.4509
 5274SOL     OW27454   3.185   1.961   9.271 -0.0607  0.2229 -0.0659
 5274SOL    HW127455   3.223   1.915   9.345  0.1365  0.3557 -0.0852
 5274SOL    HW227456   3.261   1.996   9.224 -0.1975 -0.4915 -0.8304
 5275SOL     OW27457   0.223   2.991   6.287  0.3055  0.2261 -0.4535
 5275SOL    HW127458   0.133   3.023   6.298  0.2844  0.1337 -0.3649
 5275SOL    HW227459   0.254   2.975   6.376  1.3178  0.8170 -0.6978
 5276SOL     OW27460   3.637   1.735   7.330  0.2808 -0.3284  0.3789
 5276SOL    HW127461   3.591   1.805   7.285  0.4888 -0.5028 -0.1031
 5276SOL    HW227462   3.724   1.750   7.293  0.0971 -0.0140  0.0775
 5277SOL     OW27463   3.902   3.235   0.133  0.0256 -0.1127 -0.0242
 5277SOL    HW127464   3.930   3.284   0.056 -0.5952 -1.3822 -1.0618
 5277SOL    HW227465   3.962   3.161   0.138 -0.1416 -0.2297  0.2577
 5278SOL     OW27466   3.084   3.776   3.516  0.2354 -0.4426  0.6700
 5278SOL    HW127467   3.004   3.730   3.490  1.0087 -0.2809 -2.0043
 5278SOL    HW227468   3.138   3.739   3.447  1.4678 -1.0578  1.9635
 5279SOL     OW27469   0.274   2.618   4.467 -0.2364  0.1477 -0.1436
 5279SOL    HW127470   0.321   2.697   4.493  2.6335 -1.9943  1.0490
 5279SOL    HW227471   0.252   2.592   4.556  1.9303  0.0960  0.3761
 5280SOL     OW27472   1.541   0.696   2.735  0.0671  0.2395  0.4404
 5280SOL    HW127473   1.514   0.624   2.677 -0.6041  0.0164  1.0286
 5280SOL    HW227474   1.627   0.660   2.756 -0.7577 -1.6422  0.5891
 5281SOL     OW27475   1.335   0.381   7.100 -0.0733  0.6467  0.5809
 5281SOL    HW127476   1.394   0.362   7.173  1.4031 -2.7309 -1.5283
 5281SOL    HW227477   1.334   0.299   7.050  0.5405 -0.2153  1.9959
 5282SOL     OW27478   2.701   1.021   7.019  0.2614 -0.6708 -0.3185
 5282SOL    HW127479   2.780   1.034   6.967 -0.5435  0.5344 -1.2852
 5282SOL    HW227480   2.725   1.086   7.085 -0.8941 -0.5093 -0.0592
 5283SOL     OW27481   0.379   2.077   3.694 -0.0483  0.1151 -0.2577
 5283SOL    HW127482   0.316   2.112   3.630  1.6965  0.0622 -2.0105
 5283SOL    HW227483   0.449   2.035   3.644 -0.4846 -0.8681 -0.0267
 5284SOL     OW27484   1.518   1.478   4.721 -0.0304  0.0271 -0.0568
 5284SOL    HW127485   1.442   1.495   4.666 -0.0367 -0.1490 -0.1044
 5284SOL    HW227486   1.590   1.509   4.666  0.0329 -3.0498 -1.7518
 5285SOL     OW27487   1.472   0.807  17.528 -0.0183  0.1629 -0.1582
 5285SOL    HW127488   1.556   0.829  17.488  0.8105 -1.0690  0.9134
 5285SOL    HW227489   1.506   0.745  17.593 -0.4410  0.9351  0.7844
 5286SOL     OW27490   1.660   0.787   9.163 -0.1319  0.0454  0.0327
 5286SOL    HW127491   1.723   0.768   9.093  1.1050  0.6117  0.9992
 5286SOL    HW227492   1.681   0.878   9.184  0.7190 -0.4130  1.1546
 5287SOL     OW27493   4.689   4.595   7.045  0.4127 -0.0768 -0.5688
 5287SOL    HW127494   4.711   4.646   7.123 -1.0781  0.7398 -0.6883
 5287SOL    HW227495   4.608   4.632   7.009  0.6685 -0.0368 -1.1058
 5288SOL     OW27496   0.731   4.439   6.077  0.3898  0.3108  0.8397
 5288SOL    HW127497   0.807   4.407   6.124  1.9745 -1.0540 -2.6273
 5288SOL    HW227498   0.723   4.364   6.018 -0.2637  0.1466  1.1368
 5289SOL     OW27499   3.010   0.654   3.935 -0.3909  0.5501  0.5563
 5289SOL    HW127500   2.924   0.648   3.976 -0.8377  2.0684 -0.1438
 5289SOL    HW227501   3.062   0.662   4.015 -0.6156  0.0316  0.7543
 5290SOL     OW27502   0.189   2.446  13.545 -0.3086  0.8743  0.1277
 5290SOL    HW127503   0.109   2.393  13.545 -0.8413  1.6822 -0.5563
 5290SOL    HW227504   0.172   2.516  13.482 -0.1122  0.5341 -0.3000
 5291SOL     OW27505   1.682   1.374   8.233  0.0511 -0.1100 -0.3855
 5291SOL    HW127506   1.771   1.353   8.206  0.9426  1.5118  1.3019
 5291SOL    HW227507   1.674   1.465   8.208  0.4800  0.2932  0.9127
 5292SOL     OW27508   3.977   1.117   7.372  0.1219 -0.2813  0.2439
 5292SOL    HW127509   3.951   1.060   7.300 -0.3799 -1.0864  1.0670
 5292SOL    HW227510   3.935   1.085   7.452  0.0780  1.1834  0.8179
 5293SOL     OW27511   1.329   4.572   8.052  0.1350  0.4210  0.0606
 5293SOL    HW127512   1.285   4.537   8.130  1.2961 -1.1518  0.0205
 5293SOL    HW227513   1.274   4.650   8.052 -0.0018  0.3320  2.9376
 5294SOL     OW27514   2.989   0.847  13.435 -0.3747 -0.8647  0.5765
 5294SOL    HW127515   3.039   0.778  13.479  1.0414 -0.8442 -1.0021
 5294SOL    HW227516   3.063   0.887  13.390 -0.8633  0.7562  1.2045
 5295SOL     OW27517   3.524   3.761   0.938 -0.0239  0.3814 -0.4265
 5295SOL    HW127518   3.474   3.799   0.866 -0.5742 -1.8805 -1.2140
 5295SOL    HW227519   3.574   3.840   0.959  0.4407  0.7160 -2.7660
 5296SOL     OW27520   4.707   1.285   3.840  0.2182 -0.0489  0.8705
 5296SOL    HW127521   0.065   1.264   3.834  0.1424 -0.3527  0.7077
 5296SOL    HW227522   4.701   1.337   3.760 -1.6820 -2.0759 -0.3167
 5297SOL     OW27523   4.463   3.917  15.143  0.0054 -0.1388 -0.2664
 5297SOL    HW127524   4.544   3.966  15.153  1.0669 -1.7978 -0.8615
 5297SOL    HW227525   4.406   3.986  15.177 -2.5434 -2.2394 -0.2657
 5298SOL     OW27526   0.658   2.332  11.128 -0.3826 -1.0162  0.1935
 5298SOL    HW127527   0.613   2.415  11.114  1.6894  0.1884  0.5319
 5298SOL    HW227528   0.741   2.334  11.080 -0.3678 -2.9380  0.1190
 5299SOL     OW27529   3.124   0.441   6.896 -0.0523 -0.2976 -0.0968
 5299SOL    HW127530   3.092   0.395   6.973 -0.2101 -0.2845 -0.1556
 5299SOL    HW227531   3.141   0.362   6.844 -1.9785  0.9038 -2.5443
 5300SOL     OW27532   0.482   3.891   9.564 -0.7629 -0.6138  0.2448
 5300SOL    HW127533   0.550   3.873   9.629 -1.0933  0.7399  0.9699
 5300SOL    HW227534   0.407   3.839   9.592  0.1649 -1.8816  0.3525
 5301SOL     OW27535   1.494   1.227   4.818 -0.6912 -0.5247  0.1346
 5301SOL    HW127536   1.400   1.208   4.816 -0.4562 -1.7354  0.5145
 5301SOL    HW227537   1.484   1.319   4.792  2.2628 -0.6285 -1.2761
 5302SOL     OW27538   3.999   3.141  14.855 -0.2485 -0.0038  0.0413
 5302SOL    HW127539   3.959   3.060  14.886  0.4863 -0.7165 -0.8640
 5302SOL    HW227540   3.983   3.119  14.763  1.0561  3.7969 -1.0797
 5303SOL     OW27541   4.531   2.075  17.034  0.0174  0.7791  0.5772
 5303SOL    HW127542   4.570   2.090  17.120 -1.3710 -0.1671  1.3962
 5303SOL    HW227543   4.463   2.014  17.066  1.1037 -0.1675  1.0786
 5304SOL     OW27544   3.687   4.176  11.008 -0.1324  0.7011  0.3760
 5304SOL    HW127545   3.764   4.161  11.063  0.1000  2.3321  0.5048
 5304SOL    HW227546   3.622   4.193  11.076 -1.0894  3.5164 -1.2864
 5305SOL     OW27547   1.000   0.086   3.059 -0.6854 -0.0691 -0.9579
 5305SOL    HW127548   0.975   0.066   2.969  2.1758 -0.5670 -1.6326
 5305SOL    HW227549   1.093   0.096   3.039 -0.2134 -0.8569  0.8171
 5306SOL     OW27550   3.995   2.448  13.547 -0.4715  0.2306  0.3240
 5306SOL    HW127551   4.077   2.412  13.579 -1.5182  0.2591  3.0600
 5306SOL    HW227552   4.008   2.453  13.452  1.7069  0.3919  0.6436
 5307SOL     OW27553   0.875   4.339   7.065 -0.1285  0.0200 -0.4052
 5307SOL    HW127554   0.863   4.265   7.124 -1.7745  1.4104  0.9822
 5307SOL    HW227555   0.808   4.401   7.091  2.2220  2.5064 -0.2907
 5308SOL     OW27556   3.538   0.615  15.081 -0.7865 -0.0501 -0.1555
 5308SOL    HW127557   3.539   0.583  14.991  0.0817  0.7722 -0.4425
 5308SOL    HW227558   3.608   0.681  15.083 -0.9775  0.1638 -0.6382
 5309SOL     OW27559   2.220   4.120   7.457  0.7009  0.0467  0.2742
 5309SOL    HW127560   2.232   4.135   7.551 -3.2963 -0.0554  0.7884
 5309SOL    HW227561   2.245   4.204   7.419  0.2319 -0.0677 -0.2912
 5310SOL     OW27562   4.011   3.031  16.043  0.2457  0.2526  0.2774
 5310SOL    HW127563   3.936   3.041  16.101  1.9381  0.2014  2.4906
 5310SOL    HW227564   3.971   3.032  15.956 -0.3898 -1.8546  0.5419
 5311SOL     OW27565   2.001   3.822   5.811  0.5813 -0.3745 -0.7547
 5311SOL    HW127566   1.989   3.868   5.895 -0.3227 -0.6208 -0.7460
 5311SOL    HW227567   2.081   3.780   5.841  1.7683  1.9065 -0.6865
 5312SOL     OW27568   1.053   0.751   1.964  0.7146  0.3216  0.3175
 5312SOL    HW127569   1.077   0.839   1.994  2.9219 -0.0090 -0.4634
 5312SOL    HW227570   1.017   0.726   2.049 -0.1755  2.1465  0.4790
 5313SOL     OW27571   1.964   2.625   4.624 -0.3938 -0.4213  0.0200
 5313SOL    HW127572   1.896   2.686   4.595  1.1164 -0.1789 -3.0278
 5313SOL    HW227573   1.935   2.543   4.583  0.7913 -1.3423  1.0567
 5314SOL     OW27574   1.590   2.887  10.067 -0.3501  0.0068  0.3749
 5314SOL    HW127575   1.552   2.867   9.981  1.0138  0.8088 -0.4384
 5314SOL    HW227576   1.517   2.930  10.111 -0.9215  1.2120 -1.7524
 5315SOL     OW27577   2.857   3.809   6.463 -0.1902 -0.0533  0.0765
 5315SOL    HW127578   2.952   3.810   6.476 -0.2426  0.3434  0.4532
 5315SOL    HW227579   2.855   3.728   6.413  0.9387  0.6067 -1.0399
 5316SOL     OW27580   1.083   0.516   5.972  0.1059  0.5506 -0.0104
 5316SOL    HW127581   1.005   0.530   5.918 -1.4934 -0.7936  1.9755
 5316SOL    HW227582   1.055   0.562   6.051  0.0769  2.5078 -1.1565
 5317SOL     OW27583   2.815   0.868   4.309  0.0298 -0.0649 -0.6821
 5317SOL    HW127584   2.834   0.953   4.269  1.7412  0.2862  0.8690
 5317SOL    HW227585   2.731   0.900   4.340  0.4385 -1.8959  2.2574
 5318SOL     OW27586   2.247   2.028  14.719  0.1918  0.2316 -0.0985
 5318SOL    HW127587   2.328   2.034  14.770  1.0721 -1.8521 -1.2497
 5318SOL    HW227588   2.282   2.030  14.630 -1.0695 -1.9361 -0.6719
 5319SOL     OW27589   0.567   0.146   3.383  0.0188  0.9027 -0.2997
 5319SOL    HW127590   0.534   0.106   3.303  2.3461  0.0342 -0.8413
 5319SOL    HW227591   0.642   0.093   3.411 -1.4301 -0.5853  0.7260
 5320SOL     OW27592   2.094   2.491   7.084 -0.4920 -0.3580 -0.8775
 5320SOL    HW127593   2.152   2.534   7.022  0.2461  0.2676  0.2624
 5320SOL    HW227594   2.073   2.413   7.031 -0.7211 -1.1026  0.3044
 5321SOL     OW27595   0.851   4.670  12.434  0.1697  0.6200 -0.3960
 5321SOL    HW127596   0.856   4.668  12.339  0.4586  3.1349 -0.4243
 5321SOL    HW227597   0.863   4.578  12.458  2.0982  1.3223  1.3126
 5322SOL     OW27598   3.417   0.580   3.879  0.2956  0.0709 -0.5816
 5322SOL    HW127599   3.447   0.635   3.807 -0.5065 -1.4988 -2.1175
 5322SOL    HW227600   3.428   0.641   3.952 -0.3415  0.1945 -0.5887
 5323SOL     OW27601   2.927   3.958   3.837  0.0707  0.8688 -0.5290
 5323SOL    HW127602   2.849   3.904   3.840 -1.2876  2.7329 -1.9500
 5323SOL    HW227603   2.890   4.042   3.864  1.8030  2.0923 -1.8899
 5324SOL     OW27604   1.591   4.278  13.717  0.7346 -0.3039  0.2707
 5324SOL    HW127605   1.578   4.189  13.749 -0.0211 -0.4575 -0.4423
 5324SOL    HW227606   1.517   4.312  13.767 -0.2383 -0.8004 -0.8234
 5325SOL     OW27607   0.090   2.459  10.004 -0.2328  0.0167  0.3273
 5325SOL    HW127608   0.040   2.540   9.995 -0.5186 -0.0716  1.1041
 5325SOL    HW227609   0.023   2.391  10.007  0.0130 -0.2448 -0.2104
 5326SOL     OW27610   2.042   2.836   7.874 -0.1170  0.4186 -0.0674
 5326SOL    HW127611   1.968   2.870   7.924  0.3502 -0.3150  1.1071
 5326SOL    HW227612   2.013   2.823   7.784 -1.2839  2.2044  0.0671
 5327SOL     OW27613   3.716   0.847   4.907  0.6477  0.6929  0.1328
 5327SOL    HW127614   3.656   0.920   4.921 -0.8884  0.0982 -3.4454
 5327SOL    HW227615   3.674   0.782   4.851  1.3569  0.6995 -0.4123
 5328SOL     OW27616   2.313   0.288   4.737 -0.1690 -0.4020 -0.3446
 5328SOL    HW127617   2.244   0.332   4.688 -0.4241  0.0355  0.3978
 5328SOL    HW227618   2.359   0.234   4.673  0.4386  1.5257 -1.5222
 5329SOL     OW27619   4.533   0.045   1.597  0.2056  0.1118  0.5973
 5329SOL    HW127620   4.587   0.086   1.530 -1.1767  1.1382  0.1142
 5329SOL    HW227621   4.595   0.033   1.669  1.6237  1.9255 -0.3174
 5330SOL     OW27622   1.641   4.507   6.428 -0.8855 -0.1621  0.0409
 5330SOL    HW127623   1.702   4.477   6.361 -1.5842 -2.5947  0.4957
 5330SOL    HW227624   1.655   4.443   6.498  0.2720 -1.2871 -1.2151
 5331SOL     OW27625   3.337   1.561   1.966  0.0446  0.2518 -0.2475
 5331SOL    HW127626   3.247   1.587   1.947 -0.8935 -4.2591 -1.8973
 5331SOL    HW227627   3.315   1.494   2.030  0.1308 -1.1303 -1.6765
 5332SOL     OW27628   3.824   0.700   7.298 -0.1817  0.8256 -0.1604
 5332SOL    HW127629   3.795   0.765   7.235  0.2089  0.7855 -0.3817
 5332SOL    HW227630   3.760   0.703   7.369  1.0703 -0.4974  1.0501
 5333SOL     OW27631   0.325   1.385  15.963 -0.3621 -0.1658  0.1300
 5333SOL    HW127632   0.389   1.354  15.899 -0.1070 -0.2555  0.4298
 5333SOL    HW227633   0.376   1.458  15.999 -0.7817  0.1925 -0.0059
 5334SOL     OW27634   3.599   3.316   3.319 -0.1480  0.5888  0.3322
 5334SOL    HW127635   3.530   3.378   3.296  1.4468  1.1775 -2.8176
 5334SOL    HW227636   3.574   3.229   3.289  0.0445  0.1809  1.3335
 5335SOL     OW27637   3.569   1.200   2.656  0.4572  0.4636  0.1371
 5335SOL    HW127638   3.562   1.122   2.600 -0.1874  1.2818 -0.9276
 5335SOL    HW227639   3.655   1.190   2.696 -0.3080 -2.4362  1.0462
 5336SOL     OW27640   4.454   4.269   3.498 -0.3783 -0.3821  0.0712
 5336SOL    HW127641   4.443   4.176   3.480 -1.2957 -0.4424  0.9002
 5336SOL    HW227642   4.368   4.304   3.475 -1.8394 -2.4598  2.3567
 5337SOL     OW27643   0.491   0.405   8.412 -0.2709 -0.2486 -0.0451
 5337SOL    HW127644   0.574   0.364   8.436 -0.3654  0.0133  0.7116
 5337SOL    HW227645   0.509   0.499   8.413 -2.0843  0.1172 -0.8915
 5338SOL     OW27646   0.884   1.776   3.198  0.2831 -0.6029 -0.0434
 5338SOL    HW127647   0.954   1.718   3.230  1.0005  0.6096  0.5826
 5338SOL    HW227648   0.841   1.797   3.281  3.2225 -1.2758  1.6966
 5339SOL     OW27649   0.371   0.860  12.398 -0.1408 -0.2418 -0.4749
 5339SOL    HW127650   0.361   0.776  12.442  1.2072 -1.1809 -1.9392
 5339SOL    HW227651   0.410   0.910  12.469  0.7573  1.1719 -1.9466
 5340SOL     OW27652   1.389   0.943   4.120 -0.2865 -0.3658  0.0740
 5340SOL    HW127653   1.351   1.028   4.145 -0.8964 -0.2417 -1.2737
 5340SOL    HW227654   1.333   0.922   4.046  0.9918 -0.5827 -0.8332
 5341SOL     OW27655   3.294   2.760   1.812  0.2546 -0.2595  0.1071
 5341SOL    HW127656   3.255   2.831   1.864 -0.7245 -1.2186  0.6840
 5341SOL    HW227657   3.368   2.805   1.772 -1.1206  2.0920  0.1243
 5342SOL     OW27658   4.043   3.207   3.483  0.2380  0.3372  0.1914
 5342SOL    HW127659   3.974   3.157   3.527  2.3799 -1.1339  1.8649
 5342SOL    HW227660   3.997   3.289   3.464 -3.2423 -1.7694 -0.5573
 5343SOL     OW27661   2.497   2.171  15.190  0.4138  0.1445  0.1233
 5343SOL    HW127662   2.579   2.153  15.144  0.2955  0.5786 -0.2629
 5343SOL    HW227663   2.527   2.124  15.268 -2.6211 -2.0707 -0.0743
 5344SOL     OW27664   0.799   0.217   5.765  0.3144  0.3780  0.0503
 5344SOL    HW127665   0.818   0.150   5.831 -0.8359 -0.6704 -0.6799
 5344SOL    HW227666   0.886   0.244   5.734  0.4398 -0.7860 -0.6502
 5345SOL     OW27667   3.191   3.235  12.132  0.0749 -0.3693 -0.2029
 5345SOL    HW127668   3.160   3.149  12.101 -0.4708 -0.1586 -0.2473
 5345SOL    HW227669   3.193   3.217  12.226 -2.3403  0.9506  0.1169
 5346SOL     OW27670   1.079   4.338   1.766 -0.5222 -0.0891 -0.0024
 5346SOL    HW127671   1.101   4.245   1.767 -1.0513 -0.2179 -1.9003
 5346SOL    HW227672   1.045   4.344   1.856  0.2482  3.4497  0.0388
 5347SOL     OW27673   0.391   0.276  16.418 -0.4770  0.1420  0.2272
 5347SOL    HW127674   0.420   0.244  16.333  0.8932 -1.3669  1.2737
 5347SOL    HW227675   0.460   0.342  16.426 -0.0102 -0.4812  1.2887
 5348SOL     OW27676   2.306   1.565   8.129  1.2444 -0.2136  0.4426
 5348SOL    HW127677   2.347   1.630   8.073  2.0176  0.5937  1.9529
 5348SOL    HW227678   2.261   1.618   8.195 -1.7519 -2.0444 -0.1270
 5349SOL     OW27679   0.132   0.730   5.226 -0.1856  0.1315 -0.2477
 5349SOL    HW127680   0.094   0.719   5.139 -2.4284  1.0390  0.6146
 5349SOL    HW227681   0.056   0.723   5.284  0.6456  1.2517  0.9731
 5350SOL     OW27682   1.119   1.004   9.961  0.0086  0.4995 -0.2607
 5350SOL    HW127683   1.100   0.910   9.966  0.5416  0.4607  0.9544
 5350SOL    HW227684   1.129   1.016  10.055  4.0125  2.0499 -0.8952
 5351SOL     OW27685   0.830   2.334   6.593 -0.4209 -0.6041 -0.4013
 5351SOL    HW127686   0.813   2.411   6.538 -0.3424  0.0420  0.4798
 5351SOL    HW227687   0.783   2.265   6.547  1.8482 -1.4379 -1.4948
 5352SOL     OW27688   3.671   4.285   8.572  0.0062  0.1329  0.2714
 5352SOL    HW127689   3.734   4.333   8.626  0.8753 -0.1506 -0.4985
 5352SOL    HW227690   3.681   4.316   8.482  1.5545 -0.4812  0.2297
 5353SOL     OW27691   3.215   1.886  16.915  0.4518 -0.5223 -0.3585
 5353SOL    HW127692   3.166   1.912  16.837  1.0966  0.9400 -0.2653
 5353SOL    HW227693   3.299   1.930  16.906  0.6536 -0.6495  0.8651
 5354SOL     OW27694   1.156   2.168   8.330 -0.3631 -0.5970  0.0370
 5354SOL    HW127695   1.071   2.137   8.298 -0.1675 -1.8903  0.7776
 5354SOL    HW227696   1.145   2.263   8.327  0.5051 -0.4846  0.3276
 5355SOL     OW27697   3.779   4.181   6.908  0.2306  0.3514 -0.5164
 5355SOL    HW127698   3.690   4.159   6.936  0.9071 -1.7226 -0.0155
 5355SOL    HW227699   3.794   4.271   6.938  0.2103  0.1233  0.1908
 5356SOL     OW27700   1.950   0.242   7.435  0.1201 -0.1569  0.3334
 5356SOL    HW127701   1.899   0.277   7.508 -1.8367  0.6883 -1.4435
 5356SOL    HW227702   2.030   0.294   7.424  0.3185 -0.5073  0.1184
 5357SOL     OW27703   2.654   4.084  14.734 -0.0445 -0.1199  0.0398
 5357SOL    HW127704   2.726   4.126  14.687  0.1186 -1.1896 -0.6642
 5357SOL    HW227705   2.688   4.097  14.823  0.3521 -1.5975  0.0938
 5358SOL     OW27706   1.127   1.121   4.968 -0.0165 -0.1854  0.0280
 5358SOL    HW127707   1.177   1.190   4.925 -1.0708 -0.6655 -1.9639
 5358SOL    HW227708   1.040   1.160   4.959 -0.2028 -0.3253  1.1717
 5359SOL     OW27709   0.145   0.369   2.323  0.3829 -0.0792 -0.0053
 5359SOL    HW127710   0.142   0.381   2.418 -0.0577 -1.1939  0.1256
 5359SOL    HW227711   0.074   0.307   2.305  0.3549 -0.3529  1.0203
 5360SOL     OW27712   2.820   3.248   3.514 -0.0907  0.3244  0.1209
 5360SOL    HW127713   2.734   3.207   3.505  0.5711 -0.2977 -3.4523
 5360SOL    HW227714   2.874   3.175   3.544  0.6200  0.9296  0.3288
 5361SOL     OW27715   0.213   1.512   2.195  0.6097 -0.7932 -0.2948
 5361SOL    HW127716   0.257   1.517   2.110 -0.9456 -1.1093 -1.1163
 5361SOL    HW227717   0.128   1.548   2.170  0.8191 -0.0756  0.0375
 5362SOL     OW27718   3.842   4.243   7.740 -0.3918 -0.4423 -0.0460
 5362SOL    HW127719   3.837   4.231   7.645  1.4813  2.0885 -0.4643
 5362SOL    HW227720   3.811   4.332   7.760  0.3971 -0.5379  1.5741
 5363SOL     OW27721   0.578   3.345   2.485 -0.2998  0.3067 -0.2084
 5363SOL    HW127722   0.616   3.267   2.443  1.2863  1.5452 -1.0942
 5363SOL    HW227723   0.657   3.395   2.505  0.3618 -0.2287 -1.4752
 5364SOL     OW27724   0.512   3.678   3.043  0.0615  0.4368 -0.5355
 5364SOL    HW127725   0.589   3.721   3.004 -0.1698  1.1061 -0.2476
 5364SOL    HW227726   0.457   3.666   2.966  2.2689 -1.6992 -1.7948
 5365SOL     OW27727   1.383   0.868   2.156 -0.5186 -0.0890  0.0699
 5365SOL    HW127728   1.372   0.811   2.232 -0.3079  2.3549  1.9245
 5365SOL    HW227729   1.348   0.950   2.190  0.2655  0.6879 -1.0116
 5366SOL     OW27730   0.034   3.887   8.372 -0.3892 -0.3898  0.3586
 5366SOL    HW127731   4.726   3.809   8.336 -1.3209 -0.3749  1.4263
 5366SOL    HW227732   0.003   3.888   8.463 -0.2247  2.9393  0.3595
 5367SOL     OW27733   2.317   2.143   3.875  0.5301  0.5599  0.2071
 5367SOL    HW127734   2.354   2.220   3.831  2.2633 -0.4865 -0.2142
 5367SOL    HW227735   2.387   2.112   3.933 -1.3490 -1.9962  1.0802
 5368SOL     OW27736   2.323   4.716   9.433 -0.2775  0.5776  0.1430
 5368SOL    HW127737   2.300   0.064   9.390 -0.4987 -0.4014 -1.6138
 5368SOL    HW227738   2.314   4.659   9.357 -2.6531  0.1145  0.7557
 5369SOL     OW27739   3.873   1.423   2.828 -0.3239  1.0139 -0.4047
 5369SOL    HW127740   3.888   1.346   2.773 -0.0799  1.3186 -0.7691
 5369SOL    HW227741   3.855   1.486   2.758  1.4135  0.2227 -1.5806
 5370SOL     OW27742   1.463   1.783   5.114  0.0953 -0.8247 -0.5552
 5370SOL    HW127743   1.466   1.688   5.099 -0.6658 -0.6095 -2.1095
 5370SOL    HW227744   1.501   1.825   5.037 -0.3968 -0.3014 -0.5075
 5371SOL     OW27745   0.444   1.011  12.611  0.1109  0.0595  0.1321
 5371SOL    HW127746   0.456   0.947  12.681 -0.2831 -0.1053  0.0530
 5371SOL    HW227747   0.532   1.042  12.630 -0.0560  1.8576 -1.9856
 5372SOL     OW27748   0.094   3.834   3.268  0.5621 -0.0419 -0.0533
 5372SOL    HW127749   0.048   3.782   3.203 -1.1272  1.0138  0.3033
 5372SOL    HW227750   0.019   3.867   3.317 -0.4903 -0.5006 -1.3703
 5373SOL     OW27751   4.515   2.542  13.245 -0.0961 -0.2076 -0.8043
 5373SOL    HW127752   4.489   2.504  13.329  0.1306  0.2033 -0.5506
 5373SOL    HW227753   4.449   2.609  13.230  1.9493  1.8457 -0.5692
 5374SOL     OW27754   4.278   3.672   7.615  0.5836  0.6256  0.0281
 5374SOL    HW127755   4.369   3.680   7.585  0.6031 -0.3003 -0.1684
 5374SOL    HW227756   4.240   3.715   7.538  0.4113  0.4838  0.0359
 5375SOL     OW27757   4.418   2.548   4.458 -0.0552 -0.1025 -0.6666
 5375SOL    HW127758   4.354   2.611   4.492 -0.6315  0.1612 -2.2282
 5375SOL    HW227759   4.393   2.465   4.498  1.9548  0.6183  2.0199
 5376SOL     OW27760   0.926   0.845   2.740  0.0814 -0.0796  0.6161
 5376SOL    HW127761   0.888   0.861   2.826 -1.0865  0.1778  0.0416
 5376SOL    HW227762   0.946   0.931   2.701 -0.3962  0.0158  0.5886
 5377SOL     OW27763   0.788   0.567   0.333  0.4865  0.4509 -0.3540
 5377SOL    HW127764   0.768   0.635   0.397 -0.9202 -0.2953 -0.0070
 5377SOL    HW227765   0.871   0.535   0.366  0.5920 -0.1018 -1.1557
 5378SOL     OW27766   0.421   4.413   4.130  0.2542 -0.4347 -0.0554
 5378SOL    HW127767   0.484   4.412   4.057  0.9053 -1.0114  0.5197
 5378SOL    HW227768   0.435   4.328   4.172 -3.5513 -0.5229  0.9906
 5379SOL     OW27769   2.449   0.807   6.681 -0.6397 -0.1320  0.5228
 5379SOL    HW127770   2.542   0.827   6.694 -1.0218  0.9188  1.5109
 5379SOL    HW227771   2.436   0.726   6.731  0.6142 -0.2848  0.6195
 5380SOL     OW27772   0.235   1.541   3.694 -0.1497  0.2207  0.5046
 5380SOL    HW127773   0.147   1.518   3.664 -0.6011  2.1396  0.3332
 5380SOL    HW227774   0.237   1.633   3.669  0.9811  0.2321  0.6644
 5381SOL     OW27775   3.665   4.660   7.983 -0.4836  0.2558 -0.3556
 5381SOL    HW127776   3.605   4.666   8.057  0.0123  1.8444 -0.0809
 5381SOL    HW227777   3.682   0.018   7.964  1.0492 -0.0566 -0.5612
 5382SOL     OW27778   2.620   2.462  11.065 -0.5433  0.5969  0.2975
 5382SOL    HW127779   2.690   2.511  11.023  0.2803 -0.1874  0.7483
 5382SOL    HW227780   2.611   2.489  11.157  1.0443  0.6813  0.4128
 5383SOL     OW27781   3.965   3.990   1.387  0.2442  0.2470  0.6173
 5383SOL    HW127782   3.962   3.905   1.342 -2.2081  0.8912 -0.3949
 5383SOL    HW227783   3.915   3.969   1.466 -0.8360  2.9368  0.6504
 5384SOL     OW27784   1.802   1.240   6.811 -0.0599  1.1323 -0.0144
 5384SOL    HW127785   1.797   1.150   6.780  1.3829  0.7727  0.8315
 5384SOL    HW227786   1.766   1.282   6.732  2.1970  1.6549 -0.7675
 5385SOL     OW27787   3.082   1.191   2.218  0.2054  0.1390 -0.0302
 5385SOL    HW127788   3.093   1.273   2.265  0.7402  0.0664 -0.0271
 5385SOL    HW227789   2.987   1.190   2.222  0.2216  0.4618  0.4147
 5386SOL     OW27790   2.992   3.944   7.949  0.1493 -0.2527  0.1833
 5386SOL    HW127791   2.949   3.866   7.985  0.4948  0.2852  1.7665
 5386SOL    HW227792   3.084   3.933   7.974  0.3495  2.2877  0.5634
 5387SOL     OW27793   3.794   0.241   4.729 -0.3074 -0.2830 -0.1332
 5387SOL    HW127794   3.791   0.149   4.700  0.3398 -0.2573 -0.2729
 5387SOL    HW227795   3.866   0.239   4.792 -1.8564  1.2467  1.6717
 5388SOL     OW27796   1.904   2.761   7.002 -0.5213 -0.2542  0.4368
 5388SOL    HW127797   1.878   2.672   7.026 -0.4446 -0.0742  1.1889
 5388SOL    HW227798   1.832   2.796   7.055 -0.4956  3.0329 -1.7317
 5389SOL     OW27799   2.984   1.888   6.312 -0.8327 -0.1499  0.0580
 5389SOL    HW127800   2.946   1.951   6.373 -0.3952  2.3254 -2.2354
 5389SOL    HW227801   2.903   1.868   6.265 -1.8166  1.9584  0.8398
 5390SOL     OW27802   2.864   1.873   1.380  0.3370 -0.0199  0.0851
 5390SOL    HW127803   2.829   1.956   1.346  0.4957 -0.3901 -0.9872
 5390SOL    HW227804   2.788   1.814   1.385  0.2994  0.2404  2.3922
 5391SOL     OW27805   0.150   4.635  10.979 -0.3225 -0.5566  0.1548
 5391SOL    HW127806   0.239   4.607  10.998 -0.2362  0.2908  0.9853
 5391SOL    HW227807   0.144   4.704  11.045 -0.8243  0.5119 -0.9827
 5392SOL     OW27808   1.147   4.077   6.692  0.1533 -0.2198 -0.6420
 5392SOL    HW127809   1.199   3.997   6.683  0.1438 -0.1203 -1.5580
 5392SOL    HW227810   1.143   4.097   6.786 -1.3767 -0.8165 -0.5699
 5393SOL     OW27811   3.385   0.624   8.182  0.1414 -0.2248 -0.0606
 5393SOL    HW127812   3.335   0.562   8.236  0.6525 -2.6740 -2.3835
 5393SOL    HW227813   3.474   0.590   8.168  1.0367  3.2389 -2.7574
 5394SOL     OW27814   4.033   2.032  10.309 -0.3856  0.4080  0.0828
 5394SOL    HW127815   4.062   2.079  10.231 -0.2413  0.6632  0.2908
 5394SOL    HW227816   3.963   1.976  10.275 -0.4489  1.6331 -1.7662
 5395SOL     OW27817   4.304   2.285   2.492  0.2248  0.5193 -0.2007
 5395SOL    HW127818   4.354   2.226   2.547 -0.4030 -0.1548 -0.3493
 5395SOL    HW227819   4.246   2.229   2.441 -0.8764  1.0225  0.4920
 5396SOL     OW27820   0.430   4.068   0.947  0.7245 -0.2015  0.1751
 5396SOL    HW127821   0.371   4.091   0.876  1.1349 -0.0175 -0.1024
 5396SOL    HW227822   0.389   4.112   1.022 -1.4465  1.1725 -1.8448
 5397SOL     OW27823   2.824   4.173   9.016 -0.1182  0.1865  0.0502
 5397SOL    HW127824   2.745   4.196   8.965 -0.3974 -1.5232 -0.2903
 5397SOL    HW227825   2.797   4.215   9.097 -0.3427 -0.4756  0.3247
 5398SOL     OW27826   3.446   4.479   6.194  0.2145  0.6174 -0.2089
 5398SOL    HW127827   3.459   4.386   6.210  2.7330  0.6486 -2.0647
 5398SOL    HW227828   3.487   4.513   6.274  0.8300  0.1232 -0.3250
 5399SOL     OW27829   1.183   3.923   0.366  0.0085 -0.5561  0.2121
 5399SOL    HW127830   1.147   3.841   0.400  1.4600 -0.7538  1.2620
 5399SOL    HW227831   1.158   3.925   0.273 -3.6258 -0.7097  1.1773
 5400SOL     OW27832   0.778   2.012   4.427  0.1554 -0.2093 -0.0523
 5400SOL    HW127833   0.717   1.942   4.450  0.0770 -1.0409 -2.7983
 5400SOL    HW227834   0.829   1.968   4.359  0.6115  0.4518 -0.1376
 5401SOL     OW27835   2.335   0.750   8.606 -0.4794  0.4492 -0.0518
 5401SOL    HW127836   2.294   0.732   8.521  1.0391  0.8220 -0.8847
 5401SOL    HW227837   2.271   0.805   8.651  0.2597  1.2002  0.0857
 5402SOL     OW27838   1.974   4.505   3.300  0.2787  0.1504 -0.2004
 5402SOL    HW127839   1.977   4.572   3.368 -0.1435  0.4533 -0.4842
 5402SOL    HW227840   2.005   4.544   3.219  2.0392 -1.4647 -0.3193
 5403SOL     OW27841   0.975   2.770   3.489 -0.2438  0.4411  0.1317
 5403SOL    HW127842   1.000   2.848   3.540  1.0692 -0.4895  0.9055
 5403SOL    HW227843   1.016   2.780   3.404  1.3138  1.6016  1.0167
 5404SOL     OW27844   1.817   4.592   8.782 -0.5032 -0.2842  0.2344
 5404SOL    HW127845   1.913   4.599   8.785 -0.3679 -0.9655 -2.3539
 5404SOL    HW227846   1.793   4.514   8.832 -2.1283  0.8166  1.1825
 5405SOL     OW27847   1.877   3.077   2.664 -0.0292  0.3238 -0.1247
 5405SOL    HW127848   1.958   3.064   2.713  0.8155  1.6646 -1.1542
 5405SOL    HW227849   1.821   3.126   2.724 -2.6246 -0.9967 -1.5052
 5406SOL     OW27850   1.467   3.263   1.991 -0.2323  0.0665 -0.4577
 5406SOL    HW127851   1.403   3.195   1.967  0.1330 -0.8357  1.0754
 5406SOL    HW227852   1.500   3.213   2.066 -0.3806  1.2335  0.3744
 5407SOL     OW27853   0.631   2.389  16.736  0.0248  0.6376 -0.2196
 5407SOL    HW127854   0.591   2.349  16.659 -0.1552  0.4235 -0.0158
 5407SOL    HW227855   0.718   2.350  16.734 -0.9953 -1.5964 -0.5630
 5408SOL     OW27856   3.865   0.442   2.157  0.4344  0.5992 -0.2253
 5408SOL    HW127857   3.801   0.457   2.087  2.0287  0.3578 -1.7156
 5408SOL    HW227858   3.876   0.347   2.150  1.3726  0.7672 -1.0167
 5409SOL     OW27859   0.701   2.919   5.712 -0.0890 -0.0855  0.0458
 5409SOL    HW127860   0.761   2.914   5.786  0.6618 -3.1176 -0.7624
 5409SOL    HW227861   0.779   2.923   5.656 -0.5509 -2.4758 -0.8101
 5410SOL     OW27862   3.168   4.422   6.568  0.3590 -0.1962 -0.3748
 5410SOL    HW127863   3.117   4.473   6.505 -0.3365  0.7932  0.9902
 5410SOL    HW227864   3.122   4.443   6.650 -0.9674 -1.1360 -0.8753
 5411SOL     OW27865   3.570   0.822   5.226  0.3384  0.3787 -0.1572
 5411SOL    HW127866   3.563   0.729   5.207  1.4552 -0.2104  2.3771
 5411SOL    HW227867   3.548   0.864   5.143 -0.9230  0.9727  0.4788
 5412SOL     OW27868   4.494   1.658   6.719 -0.1666  0.1168  0.2589
 5412SOL    HW127869   4.417   1.632   6.769  0.1550  1.1101  1.2554
 5412SOL    HW227870   4.507   1.576   6.670 -0.7388 -0.2053  0.6414
 5413SOL     OW27871   2.371   1.474   6.305  0.1054 -0.1038 -0.1399
 5413SOL    HW127872   2.374   1.449   6.398 -0.4565 -0.0827 -0.1154
 5413SOL    HW227873   2.465   1.484   6.292  0.0747  1.1458  0.5671
 5414SOL     OW27874   0.691   3.339   7.881 -0.0582  0.1608  0.0808
 5414SOL    HW127875   0.713   3.432   7.885  0.8100 -0.1713  3.5474
 5414SOL    HW227876   0.618   3.334   7.943 -2.0992  2.3713 -2.1263
 5415SOL     OW27877   2.527   0.781   9.773 -0.3471 -0.6232 -0.0728
 5415SOL    HW127878   2.608   0.760   9.727  1.6210  3.7087  1.4410
 5415SOL    HW227879   2.511   0.874   9.760 -0.7695 -0.6668  0.1273
 5416SOL     OW27880   3.671   0.955   8.592 -0.1422 -0.2401 -0.5226
 5416SOL    HW127881   3.652   0.862   8.583  0.3862 -0.6879  2.7261
 5416SOL    HW227882   3.767   0.955   8.596 -0.1665 -1.9913 -0.2152
 5417SOL     OW27883   0.285   1.687  14.180  0.0717  0.5259  0.2723
 5417SOL    HW127884   0.252   1.739  14.106  0.9224  0.5611 -0.0857
 5417SOL    HW227885   0.325   1.748  14.241 -0.0321 -0.8591  1.7054
 5418SOL     OW27886   0.260   1.401   7.999  0.0242 -0.2795 -0.1366
 5418SOL    HW127887   0.317   1.477   7.988 -0.6397  0.5623  2.1610
 5418SOL    HW227888   0.318   1.332   8.031  0.3108 -0.0740 -0.2039
 5419SOL     OW27889   0.633   3.991   3.875 -0.3227  0.8786 -0.5758
 5419SOL    HW127890   0.611   3.990   3.968 -0.4340 -0.4862 -0.6215
 5419SOL    HW227891   0.574   4.050   3.828 -0.7492 -1.5836 -3.1115
 5420SOL     OW27892   1.804   0.829   4.642  0.0180 -0.0479  0.2609
 5420SOL    HW127893   1.720   0.865   4.613 -0.2349 -1.6953 -1.1030
 5420SOL    HW227894   1.830   0.888   4.713 -0.2522 -0.9047  1.0830
 5421SOL     OW27895   0.630   4.515  12.263 -0.3396 -0.8183  0.3022
 5421SOL    HW127896   0.607   4.487  12.174 -2.0757 -0.9852  0.8120
 5421SOL    HW227897   0.725   4.523  12.251 -0.2851 -0.7655  0.7610
 5422SOL     OW27898   4.313   1.977   8.834 -0.5602  0.1181  0.5958
 5422SOL    HW127899   4.382   2.018   8.885 -1.3508  1.9735  0.1971
 5422SOL    HW227900   4.284   1.914   8.900 -1.6613 -0.3839 -0.3556
 5423SOL     OW27901   2.027   3.572   4.862 -0.3643 -0.0019 -0.0396
 5423SOL    HW127902   2.016   3.643   4.925 -0.6145  1.2166 -1.4613
 5423SOL    HW227903   2.023   3.491   4.913  2.7009 -0.6245 -0.7654
 5424SOL     OW27904   4.250   3.270   2.271  0.0436 -0.2363 -0.4540
 5424SOL    HW127905   4.315   3.228   2.328 -1.2371 -0.7085  0.6671
 5424SOL    HW227906   4.171   3.225   2.300  0.1332  1.0103  1.7661
 5425SOL     OW27907   3.726   2.377  13.563  0.2488 -0.3142 -0.2269
 5425SOL    HW127908   3.822   2.381  13.560  0.2410  0.2624  0.2753
 5425SOL    HW227909   3.713   2.394  13.657 -1.6720  0.3944 -0.6347
 5426SOL     OW27910   2.972   1.682   3.168  0.0773  0.8956  0.0624
 5426SOL    HW127911   2.947   1.765   3.128 -0.5958  0.1748 -1.0069
 5426SOL    HW227912   2.910   1.615   3.140 -0.1376  1.2770 -0.3638
 5427SOL     OW27913   3.534   0.529   4.260  0.6052 -0.2062 -0.1063
 5427SOL    HW127914   3.605   0.586   4.227 -0.7798  0.8168 -1.3364
 5427SOL    HW227915   3.548   0.445   4.218  1.6931 -0.6575  1.1627
 5428SOL     OW27916   3.071   1.013   4.543  0.2080  0.3718  0.1749
 5428SOL    HW127917   3.137   0.952   4.578  0.1045 -0.9512 -1.9321
 5428SOL    HW227918   2.993   0.959   4.559  0.7735 -0.3938  0.3649
 5429SOL     OW27919   2.993   2.338   4.535  0.6159 -0.0232 -0.2381
 5429SOL    HW127920   3.081   2.340   4.496 -0.2026  3.0493 -1.8978
 5429SOL    HW227921   2.939   2.393   4.478 -1.1402  0.2087  1.6619
 5430SOL     OW27922   3.186   3.563   2.934 -0.1499  0.1212 -0.4983
 5430SOL    HW127923   3.146   3.482   2.967 -2.0044  1.4721  0.5508
 5430SOL    HW227924   3.273   3.536   2.905  0.3454  0.8291  0.3477
 5431SOL     OW27925   2.185   4.082   2.291 -0.0471 -0.0457  0.3072
 5431SOL    HW127926   2.156   4.051   2.205 -0.2517  1.6324 -0.2198
 5431SOL    HW227927   2.181   4.009   2.353  0.6931  0.3795  0.8389
 5432SOL     OW27928   1.320   2.679   8.313  0.8816  0.2704 -0.0881
 5432SOL    HW127929   1.351   2.609   8.371  1.0900  0.1662 -0.3253
 5432SOL    HW227930   1.391   2.674   8.249  0.3178  0.7797 -0.7491
 5433SOL     OW27931   1.228   0.167  11.275 -0.2454  0.5149 -0.2357
 5433SOL    HW127932   1.285   0.115  11.331  0.7613  2.6930  0.7367
 5433SOL    HW227933   1.139   0.133  11.289  0.0805 -1.0195 -1.7994
 5434SOL     OW27934   0.947   4.546   2.620 -0.1940 -0.1826  0.1987
 5434SOL    HW127935   1.001   4.620   2.592 -0.2095  0.1004  0.9199
 5434SOL    HW227936   0.999   4.480   2.574  0.7746  0.6081  0.1593
 5435SOL     OW27937   1.724   2.834  12.947  0.3405  0.3506  0.1760
 5435SOL    HW127938   1.800   2.872  12.990 -1.5147  0.3073  3.4790
 5435SOL    HW227939   1.658   2.828  13.016 -0.6386  0.5361 -0.7380
 5436SOL     OW27940   0.408   1.413   9.369  0.3541  0.5415  0.6273
 5436SOL    HW127941   0.502   1.427   9.380  0.4815  0.2343 -0.0458
 5436SOL    HW227942   0.382   1.353   9.439  0.2716  1.7072  1.5867
 5437SOL     OW27943   0.034   0.457  13.939  0.1187  0.1352 -0.3223
 5437SOL    HW127944   0.007   0.403  14.013  0.9612 -1.3417 -1.1116
 5437SOL    HW227945   0.073   0.390  13.883 -1.0542 -0.7046 -0.1343
 5438SOL     OW27946   0.331   2.893   2.331 -0.1642 -0.1168  0.6183
 5438SOL    HW127947   0.383   2.816   2.305 -0.0711  0.2314 -0.2201
 5438SOL    HW227948   0.319   2.887   2.425 -2.3311  2.0481  0.4604
 5439SOL     OW27949   4.059   0.787   9.242  0.6438  0.0708  0.0197
 5439SOL    HW127950   4.145   0.755   9.268 -0.7551 -1.8776  2.3128
 5439SOL    HW227951   4.083   0.830   9.160  1.1734  0.3820  0.3419
 5440SOL     OW27952   0.575   1.465  10.587  0.1457  0.3878 -0.0559
 5440SOL    HW127953   0.666   1.486  10.562 -0.1988  2.8439  0.7136
 5440SOL    HW227954   0.558   1.374  10.562 -0.2975  0.4579 -0.0032
 5441SOL     OW27955   4.668   3.419   1.460 -0.4474 -0.2255  0.7684
 5441SOL    HW127956   0.006   3.387   1.407 -0.3798  0.1343  0.6427
 5441SOL    HW227957   4.706   3.402   1.547  1.3699  0.5373  0.1319
 5442SOL     OW27958   4.608   3.749   1.695  0.6192 -0.5259 -0.5727
 5442SOL    HW127959   4.556   3.669   1.687 -0.9455  0.2579  1.8259
 5442SOL    HW227960   4.621   3.764   1.602  1.0857  3.3818  0.0887
 5443SOL     OW27961   3.221   1.926   1.395 -0.0657  0.0466  0.0320
 5443SOL    HW127962   3.166   1.905   1.470  0.9495  0.3244  0.8496
 5443SOL    HW227963   3.263   1.841   1.379  0.1752  0.2178 -0.2591
 5444SOL     OW27964   0.874   4.280   3.912 -0.2543 -0.1804  0.0965
 5444SOL    HW127965   0.901   4.318   3.829  3.8452 -2.3439  0.4876
 5444SOL    HW227966   0.872   4.364   3.960  1.3467  0.4343 -0.9339
 5445SOL     OW27967   0.825   0.517   3.285 -0.9199 -0.5128 -0.1700
 5445SOL    HW127968   0.745   0.463   3.290 -0.1991 -1.5387  0.3073
 5445SOL    HW227969   0.809   0.586   3.349  2.0430  0.1405 -0.1592
 5446SOL     OW27970   3.193   4.471   3.211 -0.4274 -0.9952  0.6924
 5446SOL    HW127971   3.171   4.456   3.302 -0.6452 -1.9598  0.4788
 5446SOL    HW227972   3.109   4.486   3.167  0.6460 -0.0838 -1.0710
 5447SOL     OW27973   4.608   1.370   6.859  0.6018 -0.1910  0.4549
 5447SOL    HW127974   4.555   1.329   6.790 -1.3253  2.7000  0.1970
 5447SOL    HW227975   4.676   1.303   6.864  0.0568 -0.7378  0.6463
 5448SOL     OW27976   3.339   1.477   6.786  0.5980 -0.7434  0.0411
 5448SOL    HW127977   3.429   1.467   6.818  0.6248  2.3342  0.9941
 5448SOL    HW227978   3.338   1.550   6.723 -0.8731  0.4482  1.4391
 5449SOL     OW27979   0.057   2.041   5.399 -0.2042  0.1806 -0.3686
 5449SOL    HW127980   0.144   2.037   5.438 -1.8107  0.4530  3.2365
 5449SOL    HW227981   0.075   1.994   5.318  0.2797 -1.0377  0.4394
 5450SOL     OW27982   1.692   0.846  17.405  0.3236 -0.7763  0.5901
 5450SOL    HW127983   1.771   0.883  17.445  0.5300 -2.0983  1.4038
 5450SOL    HW227984   1.702   0.882  17.317 -1.8843  0.3669  0.8288
 5451SOL     OW27985   2.641   2.561   9.591 -0.0963  0.9468  0.3283
 5451SOL    HW127986   2.636   2.654   9.570 -1.6005  1.1740  1.6927
 5451SOL    HW227987   2.547   2.548   9.601 -0.0509  1.0204  0.8571
 5452SOL     OW27988   4.193   4.186  11.570 -0.7418  0.2265 -0.0896
 5452SOL    HW127989   4.205   4.278  11.546  1.3520 -0.2857 -1.0125
 5452SOL    HW227990   4.214   4.185  11.663 -0.7628 -1.7027 -0.0905
 5453SOL     OW27991   1.206   3.715   2.356 -0.5070 -0.2766 -0.3554
 5453SOL    HW127992   1.193   3.696   2.449 -2.5519  2.4161 -0.0989
 5453SOL    HW227993   1.113   3.714   2.332 -0.3905 -0.6598 -0.7720
 5454SOL     OW27994   0.848   2.409   6.854  0.3128 -0.0521  0.0456
 5454SOL    HW127995   0.754   2.425   6.853  0.4438  1.0903  3.4935
 5454SOL    HW227996   0.867   2.380   6.765 -0.3586 -2.0417  0.5368
 5455SOL     OW27997   0.668   0.159   8.175  0.0666 -0.0793 -0.2666
 5455SOL    HW127998   0.666   0.115   8.090 -0.8130  1.1733 -0.8912
 5455SOL    HW227999   0.663   0.248   8.141  0.5879 -0.5231 -1.4737
 5456SOL     OW28000   4.454   1.366   1.403 -0.3412 -0.2552  0.4228
 5456SOL    HW128001   4.395   1.413   1.343 -1.4482 -1.6718  0.3942
 5456SOL    HW228002   4.426   1.275   1.402  2.3707 -1.0939  1.3224
 5457SOL     OW28003   2.464   3.418   7.032  0.3339 -0.0968  0.0916
 5457SOL    HW128004   2.418   3.341   7.066  0.0563 -0.2156 -0.5529
 5457SOL    HW228005   2.552   3.391   7.056  1.3613  2.6113 -0.5391
 5458SOL     OW28006   1.221   3.666   2.605  0.3705 -0.2235  0.2359
 5458SOL    HW128007   1.193   3.756   2.622 -4.3593 -1.6479  0.2227
 5458SOL    HW228008   1.312   3.671   2.632  0.4205  0.6966 -0.1110
 5459SOL     OW28009   1.602   0.729   6.137  0.4811  0.2963 -0.6680
 5459SOL    HW128010   1.650   0.652   6.166  0.7837  0.3162 -1.1202
 5459SOL    HW228011   1.514   0.701   6.112  0.9087 -1.8653  0.2016
 5460SOL     OW28012   2.436   0.692  12.738 -0.5808 -0.1112  0.1743
 5460SOL    HW128013   2.396   0.772  12.703  1.7304  1.0369  0.1625
 5460SOL    HW228014   2.444   0.641  12.657 -0.1913 -0.3171  0.3417
 5461SOL     OW28015   4.689   2.848   4.815 -0.5516  0.4918  0.1731
 5461SOL    HW128016   4.700   2.880   4.725 -0.7705 -0.0376 -0.0460
 5461SOL    HW228017   4.606   2.801   4.804  0.2714 -0.3593 -2.4850
 5462SOL     OW28018   2.977   1.943   2.223 -0.4773  0.1188  0.1958
 5462SOL    HW128019   2.974   1.987   2.138  2.2491 -1.2979 -0.6182
 5462SOL    HW228020   3.069   1.961   2.243 -0.9030  1.1516  1.2148
 5463SOL     OW28021   4.092   2.730   8.466 -0.2759  0.7654  0.0370
 5463SOL    HW128022   4.035   2.653   8.472  0.2255  0.2940 -1.2257
 5463SOL    HW228023   4.056   2.771   8.387 -1.8272  0.5880  0.6578
 5464SOL     OW28024   0.500   3.979   6.346  0.3373  0.0917  0.4726
 5464SOL    HW128025   0.422   4.010   6.301 -0.2064 -0.0077  1.3397
 5464SOL    HW228026   0.569   4.026   6.300  0.0037  0.4829  0.3689
 5465SOL     OW28027   1.192   0.881   2.396 -0.1345  0.5023 -0.1176
 5465SOL    HW128028   1.258   0.924   2.450 -1.4373  1.7557  0.4676
 5465SOL    HW228029   1.238   0.797   2.396 -1.2283 -0.0923 -0.3115
 5466SOL     OW28030   3.958   3.193   6.177  0.4064  0.1685 -0.5612
 5466SOL    HW128031   3.913   3.277   6.192 -0.2792  0.2041 -2.8668
 5466SOL    HW228032   3.891   3.138   6.136 -0.5429 -0.0004  1.2154
 5467SOL     OW28033   3.041   3.647   7.450 -0.4095 -0.7880 -0.3834
 5467SOL    HW128034   3.009   3.558   7.465 -2.0220  0.0856  1.4555
 5467SOL    HW228035   2.958   3.686   7.422 -0.4788 -0.0112  0.9537
 5468SOL     OW28036   0.096   2.693   1.259  0.6136  0.0875 -0.1999
 5468SOL    HW128037   0.108   2.788   1.255 -1.0410  0.3103  0.1057
 5468SOL    HW228038   0.116   2.671   1.350  0.5787 -1.8745 -0.6740
 5469SOL     OW28039   2.819   1.345   9.847 -0.7444  0.2057  0.0838
 5469SOL    HW128040   2.839   1.252   9.855 -0.9157  0.1557 -0.0781
 5469SOL    HW228041   2.804   1.372   9.937  1.6013  1.8694 -0.0200
 5470SOL     OW28042   4.337   0.901   3.893  1.2168  0.4010 -0.1464
 5470SOL    HW128043   4.423   0.941   3.880  0.9101  1.6540  1.6316
 5470SOL    HW228044   4.345   0.810   3.865  2.0150  0.9137 -1.5769
 5471SOL     OW28045   3.938   1.752   7.248 -0.2892 -0.0050  0.0200
 5471SOL    HW128046   4.019   1.704   7.264 -0.9795 -1.0113  0.5008
 5471SOL    HW228047   3.945   1.831   7.301 -3.4983  0.9145 -0.8994
 5472SOL     OW28048   4.076   0.560  12.134  0.1486 -0.1098  0.2107
 5472SOL    HW128049   4.150   0.517  12.176 -0.5313 -1.2516  0.2389
 5472SOL    HW228050   4.006   0.496  12.147 -1.2470  1.3873  0.0986
 5473SOL     OW28051   1.493   3.623  13.789  0.2719 -0.1777 -0.6721
 5473SOL    HW128052   1.458   3.648  13.703  0.1498 -0.3732 -0.6785
 5473SOL    HW228053   1.532   3.541  13.760 -0.6929  0.5030 -3.9533
 5474SOL     OW28054   0.847   4.612   7.577  0.3943 -0.0061 -0.1811
 5474SOL    HW128055   0.779   4.556   7.616 -0.2863 -0.2238 -1.7061
 5474SOL    HW228056   0.803   4.689   7.611  2.5901  0.6154  1.2758
 5475SOL     OW28057   4.696   1.914   8.774  0.8243  0.0976  0.1550
 5475SOL    HW128058   0.031   1.976   8.753  1.4989 -0.1755  1.6492
 5475SOL    HW228059   4.697   1.909   8.869  2.1434 -2.1633  0.0169
 5476SOL     OW28060   4.276   2.510   5.151  0.3114 -0.0822 -0.2203
 5476SOL    HW128061   4.246   2.536   5.238 -2.2043  0.9324 -1.4029
 5476SOL    HW228062   4.368   2.487   5.169  0.0945 -1.1639 -0.4624
 5477SOL     OW28063   3.930   2.978  15.801  1.0903 -0.2565 -0.3970
 5477SOL    HW128064   3.965   2.899  15.760  0.5240 -0.6051 -0.2256
 5477SOL    HW228065   3.853   2.997  15.747  0.4327  0.3449  0.7277
 5478SOL     OW28066   3.452   3.058   8.602 -0.1209 -0.9418  0.1498
 5478SOL    HW128067   3.468   2.968   8.629  0.9779 -1.2933 -1.6523
 5478SOL    HW228068   3.433   3.051   8.509  0.9013 -0.4172 -0.1001
 5479SOL     OW28069   0.971   0.696   7.142  0.1985  0.2035  0.4917
 5479SOL    HW128070   1.052   0.716   7.095 -1.3034 -1.5690 -2.8532
 5479SOL    HW228071   0.998   0.609   7.170  1.3933  0.5725  0.5098
 5480SOL     OW28072   2.738   2.724   7.128  0.3537 -0.5038 -0.1643
 5480SOL    HW128073   2.717   2.643   7.173  0.2135 -0.1758  0.3596
 5480SOL    HW228074   2.782   2.681   7.055  1.6410  0.9430 -0.2449
 5481SOL     OW28075   2.292   4.419   6.119 -0.4316 -0.2772  0.4131
 5481SOL    HW128076   2.200   4.436   6.142 -0.8059  0.3316 -1.5114
 5481SOL    HW228077   2.292   4.331   6.081  1.1823 -0.2577  0.3968
 5482SOL     OW28078   3.693   1.604   4.645  0.6039 -0.5020  0.2307
 5482SOL    HW128079   3.662   1.602   4.735  0.7338 -1.9787  0.2369
 5482SOL    HW228080   3.784   1.635   4.641  0.5326 -0.2669  0.4273
 5483SOL     OW28081   0.236   3.121   7.091  0.5171  0.1078 -0.4051
 5483SOL    HW128082   0.252   3.181   7.018 -0.6824 -0.0409 -0.7892
 5483SOL    HW228083   0.305   3.056   7.090 -0.0604 -0.4608 -2.2586
 5484SOL     OW28084   1.567   3.037   2.605 -0.2881  0.7044 -0.1125
 5484SOL    HW128085   1.628   3.023   2.533  1.2626 -0.4659  1.4236
 5484SOL    HW228086   1.504   3.091   2.558  0.4922 -0.0896 -2.0800
 5485SOL     OW28087   4.479   3.066   2.794  0.4788  0.1725 -0.2417
 5485SOL    HW128088   4.434   3.024   2.867  1.2270  1.4210  0.9316
 5485SOL    HW228089   4.565   3.074   2.835  0.4665  0.8471 -0.3448
 5486SOL     OW28090   2.221   0.395   9.517 -0.3490  0.0077  0.3460
 5486SOL    HW128091   2.301   0.357   9.553 -1.9389 -0.7900  3.0793
 5486SOL    HW228092   2.190   0.314   9.478  2.0175  0.8537 -3.3246
 5487SOL     OW28093   2.694   3.911   8.393 -0.0890 -0.0616  0.2752
 5487SOL    HW128094   2.636   3.971   8.440  0.4756  1.7664 -1.3628
 5487SOL    HW228095   2.772   3.944   8.438 -0.8281 -0.7698  2.0654
 5488SOL     OW28096   3.231   1.369  12.970  0.0834 -0.2738 -0.6640
 5488SOL    HW128097   3.243   1.439  12.906  1.3498 -0.1238 -0.2647
 5488SOL    HW228098   3.298   1.310  12.934 -0.3455  0.0027 -1.9132
 5489SOL     OW28099   2.774   4.460   4.609 -0.1506 -0.5812  0.5421
 5489SOL    HW128100   2.770   4.514   4.530 -0.3414 -0.8209  0.3876
 5489SOL    HW228101   2.681   4.437   4.609  0.0083 -1.2105 -0.7700
 5490SOL     OW28102   0.326   0.755   0.512  0.4770  0.4006  0.0977
 5490SOL    HW128103   0.262   0.813   0.471 -1.2587  0.1163  2.3760
 5490SOL    HW228104   0.388   0.826   0.531 -0.2639  1.3615 -1.0797
 5491SOL     OW28105   0.881   1.189   4.580  0.0914 -0.0110 -0.4411
 5491SOL    HW128106   0.797   1.173   4.537 -1.5165  2.1386  1.8670
 5491SOL    HW228107   0.855   1.276   4.611 -0.8110 -0.2482 -0.5230
 5492SOL     OW28108   0.216   3.528   1.082  0.3403  0.0215  0.1694
 5492SOL    HW128109   0.211   3.607   1.027 -0.6452 -0.2188 -0.0835
 5492SOL    HW228110   0.235   3.459   1.019  0.7346  1.3128 -1.1293
 5493SOL     OW28111   3.514   4.693   7.403 -0.5528  0.0183  0.0701
 5493SOL    HW128112   3.589   4.634   7.409 -0.2041  0.4609  0.0510
 5493SOL    HW228113   3.443   4.629   7.391  0.7387 -1.8416  2.4367
 5494SOL     OW28114   2.958   1.035  16.813  0.4904  0.0109  0.3278
 5494SOL    HW128115   2.998   1.024  16.727 -1.2701  0.5047 -0.5572
 5494SOL    HW228116   3.003   1.110  16.852  0.0419  0.0064  0.8535
 5495SOL     OW28117   2.703   0.860   5.645 -0.1430  0.4287  0.5647
 5495SOL    HW128118   2.794   0.883   5.660 -0.8805  1.7549  3.0987
 5495SOL    HW228119   2.703   0.830   5.554 -1.7075  0.2792  0.6083
 5496SOL     OW28120   2.486   4.589  13.581 -0.1274  0.0176  0.9104
 5496SOL    HW128121   2.516   4.648  13.649  2.4748  1.8920 -1.8739
 5496SOL    HW228122   2.405   4.563  13.624  0.1357 -1.1162  0.7393
 5497SOL     OW28123   0.334   2.844  13.262 -0.1467 -0.1469  0.5101
 5497SOL    HW128124   0.407   2.904  13.247  0.2706 -1.1699 -1.5432
 5497SOL    HW228125   0.333   2.785  13.186 -1.8918 -1.0578  1.2334
 5498SOL     OW28126   2.837   2.592   8.573 -0.2141  0.8270 -0.0582
 5498SOL    HW128127   2.894   2.620   8.502 -0.8487  3.1211  0.3523
 5498SOL    HW228128   2.789   2.671   8.598  0.4094  0.4370  2.4167
 5499SOL     OW28129   3.419   4.197   4.636 -0.2108 -0.2165 -0.1095
 5499SOL    HW128130   3.436   4.246   4.555 -1.3721 -0.2560 -0.3741
 5499SOL    HW228131   3.505   4.181   4.675 -0.3479 -2.3325 -0.7026
 5500SOL     OW28132   2.377   3.740   8.425 -0.0609 -0.1003 -0.3107
 5500SOL    HW128133   2.440   3.700   8.485 -2.1588 -0.2776  1.7686
 5500SOL    HW228134   2.435   3.785   8.364  0.6295 -0.6772 -0.0756
 5501SOL     OW28135   4.448   2.588   2.661 -0.5471 -0.3976 -1.1587
 5501SOL    HW128136   4.369   2.595   2.716  0.6476 -0.3454  0.5702
 5501SOL    HW228137   4.505   2.527   2.708 -2.9103 -1.1230  0.8036
 5502SOL     OW28138   3.347   3.161   1.567  0.2877 -0.1249  0.4390
 5502SOL    HW128139   3.278   3.096   1.576 -0.3958  0.4028 -1.0847
 5502SOL    HW228140   3.417   3.099   1.548 -0.8332 -2.2800  3.4739
 5503SOL     OW28141   1.032   4.639   6.598  0.1800  0.6239  0.7947
 5503SOL    HW128142   1.069   4.554   6.576  0.4819  1.5729 -2.2628
 5503SOL    HW228143   0.964   4.660   6.534 -0.4554 -3.3520  0.1760
 5504SOL     OW28144   0.248   3.603   1.361 -0.1046  0.1068 -0.0266
 5504SOL    HW128145   0.260   3.550   1.282 -0.1514  2.4202 -1.5994
 5504SOL    HW228146   0.305   3.678   1.342  1.7597 -1.0864  0.9179
 5505SOL     OW28147   2.964   2.094   4.620 -0.3014 -0.5868 -0.2980
 5505SOL    HW128148   2.979   2.184   4.591  0.9319 -0.4388  0.7783
 5505SOL    HW228149   2.885   2.105   4.673  0.6121 -1.4112  1.2455
 5506SOL     OW28150   3.479   2.272   5.990  0.4959  0.3736  0.0220
 5506SOL    HW128151   3.515   2.325   6.061  0.6715  0.2151  0.0538
 5506SOL    HW228152   3.548   2.284   5.924 -0.5883 -1.9792 -1.5525
 5507SOL     OW28153   2.182   0.406   7.427  0.6322 -0.0368  0.2551
 5507SOL    HW128154   2.262   0.354   7.417  0.2088 -0.4609 -0.9580
 5507SOL    HW228155   2.209   0.475   7.488 -0.0832  1.1455 -0.7610
 5508SOL     OW28156   0.979   0.967   8.105  0.2227  0.2819  0.2237
 5508SOL    HW128157   1.037   0.895   8.130 -0.8400 -0.3488  0.8660
 5508SOL    HW228158   1.045   1.034   8.087  1.2687 -0.9471 -0.5248
 5509SOL     OW28159   4.348   3.172  13.297 -0.1224 -0.1013  0.4969
 5509SOL    HW128160   4.429   3.145  13.255 -0.5995 -1.2354  0.2939
 5509SOL    HW228161   4.356   3.147  13.389  0.3068 -0.1422  0.4479
 5510SOL     OW28162   3.481   1.254   5.088 -0.2435  0.3668 -0.2808
 5510SOL    HW128163   3.532   1.297   5.020  0.1017 -0.1066 -0.3214
 5510SOL    HW228164   3.506   1.298   5.170  0.7249 -1.1658  0.2579
 5511SOL     OW28165   2.898   1.195   5.344 -0.1886  0.1623  0.5715
 5511SOL    HW128166   2.930   1.210   5.255  0.7705  2.1085  1.2572
 5511SOL    HW228167   2.931   1.105   5.348  0.6510  0.3614 -1.6883
 5512SOL     OW28168   1.490   1.242   9.266 -0.9113 -0.2227  0.2163
 5512SOL    HW128169   1.551   1.260   9.337  0.8621  1.0046 -1.6092
 5512SOL    HW228170   1.447   1.327   9.261  1.4008  1.0435  2.0509
 5513SOL     OW28171   0.657   3.493   3.775  0.3275 -0.0927  0.7759
 5513SOL    HW128172   0.589   3.445   3.823 -1.8938 -0.9346 -3.2180
 5513SOL    HW228173   0.685   3.554   3.843 -1.4015  1.0432  0.4883
 5514SOL     OW28174   3.035   2.471   3.230 -0.2181 -0.1349 -0.2942
 5514SOL    HW128175   3.039   2.420   3.150  0.7481  0.3992 -0.5827
 5514SOL    HW228176   2.947   2.508   3.223  0.5333  1.5363 -0.7825
 5515SOL     OW28177   4.002   4.281   3.205 -0.4517 -0.4520  0.0736
 5515SOL    HW128178   4.061   4.317   3.139 -0.2247 -0.4505  0.2786
 5515SOL    HW228179   3.963   4.363   3.234 -1.1404 -0.3603 -1.1209
 5516SOL     OW28180   4.148   3.608   3.816  0.2706 -0.9951 -0.3534
 5516SOL    HW128181   4.098   3.681   3.853 -0.0272 -1.2312 -0.2876
 5516SOL    HW228182   4.090   3.582   3.745  0.7961 -1.3454 -0.6549
 5517SOL     OW28183   0.356   2.201   1.271  1.0500  0.1254  0.1668
 5517SOL    HW128184   0.275   2.175   1.226  0.9175 -2.4692  1.9363
 5517SOL    HW228185   0.328   2.293   1.275  0.2486 -0.0278 -2.0328
 5518SOL     OW28186   1.265   1.539   4.663  0.2268 -0.4851 -0.5695
 5518SOL    HW128187   1.190   1.535   4.604  0.7383  1.4715 -1.3536
 5518SOL    HW228188   1.239   1.613   4.717  0.1141 -0.0918 -1.1567
 5519SOL     OW28189   1.025   3.511  15.552  0.5794 -0.7528  0.7012
 5519SOL    HW128190   0.994   3.598  15.527 -3.1735 -2.4914 -0.6496
 5519SOL    HW228191   1.061   3.536  15.637  0.3450 -1.7750  1.0991
 5520SOL     OW28192   0.031   1.937  11.495 -0.4751 -0.3658 -0.3788
 5520SOL    HW128193   4.727   2.022  11.516  0.4712 -0.7042  2.7006
 5520SOL    HW228194   0.027   1.941  11.400  0.4481  0.8011 -0.3658
 5521SOL     OW28195   2.044   3.974   7.991 -0.0422  0.1011 -0.5305
 5521SOL    HW128196   2.096   4.054   7.993  1.1698 -0.6546 -2.0109
 5521SOL    HW228197   2.113   3.914   7.965  0.2095  0.3969 -0.5459
 5522SOL     OW28198   0.650   1.341   9.497 -0.8756 -0.0092 -0.2168
 5522SOL    HW128199   0.723   1.336   9.436 -1.4158  0.8533 -0.9291
 5522SOL    HW228200   0.668   1.260   9.545 -1.6932 -0.5433 -0.8058
 5523SOL     OW28201   4.549   1.110   5.665  0.0092  0.1170 -0.3697
 5523SOL    HW128202   4.462   1.070   5.661 -0.1020  0.2415  0.7841
 5523SOL    HW228203   4.593   1.047   5.723  0.1424  0.5584  0.0053
 5524SOL     OW28204   2.619   2.574   5.909 -0.0146  0.6263  0.0887
 5524SOL    HW128205   2.649   2.526   5.986 -1.5497  1.3871  1.1535
 5524SOL    HW228206   2.697   2.630   5.901 -0.4878  1.5579  1.9840
 5525SOL     OW28207   1.335   4.710   4.476  0.0616 -0.1845 -0.5241
 5525SOL    HW128208   1.373   4.656   4.545  2.1096  1.5408 -0.2862
 5525SOL    HW228209   1.339   4.651   4.401  0.1981 -0.8473  0.0059
 5526SOL     OW28210   3.012   4.272   2.480  0.6956  0.0303  0.1868
 5526SOL    HW128211   2.991   4.346   2.425  2.0008 -1.5447 -2.4312
 5526SOL    HW228212   2.992   4.290   2.572  0.0231 -3.4386  0.7224
 5527SOL     OW28213   4.700   1.625   3.398  0.2865  0.2861  0.1859
 5527SOL    HW128214   4.626   1.609   3.341  1.7430 -2.7483 -0.8423
 5527SOL    HW228215   0.039   1.585   3.352  1.0679  0.7527  1.0317
 5528SOL     OW28216   2.782   2.046   5.642  0.3108  0.3082  0.5664
 5528SOL    HW128217   2.764   2.075   5.732 -0.9560  1.9862 -0.2325
 5528SOL    HW228218   2.707   2.084   5.596 -1.0207 -3.7630 -0.6223
 5529SOL     OW28219   3.234   3.736   2.201  0.0118  0.0999  0.1938
 5529SOL    HW128220   3.260   3.828   2.191  0.8381 -0.1054  0.4558
 5529SOL    HW228221   3.153   3.755   2.248 -0.1172 -1.6087  0.6655
 5530SOL     OW28222   3.389   2.052   8.776  0.4368  0.4481 -0.1728
 5530SOL    HW128223   3.346   2.137   8.776 -1.7528 -0.6569  1.4448
 5530SOL    HW228224   3.472   2.080   8.738  0.2219  1.8366  0.3853
 5531SOL     OW28225   3.876   3.028  14.062  0.0283  0.1504 -0.3917
 5531SOL    HW128226   3.891   2.940  14.029 -0.1869 -0.4468  1.0832
 5531SOL    HW228227   3.860   3.085  13.987  0.9095 -0.3258 -0.9372
 5532SOL     OW28228   4.488   2.440   5.303  0.2016  0.4903  0.6592
 5532SOL    HW128229   4.567   2.490   5.284  0.4029  0.6244  1.8267
 5532SOL    HW228230   4.492   2.447   5.399 -0.3531 -0.5443  0.7641
 5533SOL     OW28231   2.592   4.140   6.142  0.4486  0.0077  0.1571
 5533SOL    HW128232   2.522   4.075   6.130  0.5668 -0.0961  0.0205
 5533SOL    HW228233   2.641   4.086   6.205 -1.7603 -0.9273  1.0768
 5534SOL     OW28234   3.512   1.433  11.965  0.6130 -1.0720  0.1248
 5534SOL    HW128235   3.433   1.474  11.997  1.0019 -0.2808  0.0676
 5534SOL    HW228236   3.500   1.442  11.870 -2.2921 -3.8720  0.2142
 5535SOL     OW28237   0.632   0.887  12.303 -0.3253 -0.5907  0.2156
 5535SOL    HW128238   0.543   0.853  12.308 -0.7222  0.3756 -0.1940
 5535SOL    HW228239   0.625   0.956  12.237  1.0127 -0.6810 -0.0191
 5536SOL     OW28240   3.845   4.598   4.978 -0.3312  0.1333  0.9271
 5536SOL    HW128241   3.931   4.588   5.020 -0.0775  1.7835  0.8054
 5536SOL    HW228242   3.791   4.533   5.022 -0.5175  1.3574  2.5051
 5537SOL     OW28243   1.745   0.752  11.010  0.2334  0.5450  0.1678
 5537SOL    HW128244   1.676   0.754  10.943  0.1537  2.9532  0.3103
 5537SOL    HW228245   1.777   0.662  11.014 -0.9132  0.0933 -0.7105
 5538SOL     OW28246   3.789   0.026   7.436  0.1539 -0.3315 -0.0231
 5538SOL    HW128247   3.736   0.097   7.398  1.2353  0.6967  0.3817
 5538SOL    HW228248   3.787   0.048   7.529  0.1267 -1.1843  0.1707
 5539SOL     OW28249   0.671   0.242   7.205 -0.2494  0.2213  0.3417
 5539SOL    HW128250   0.642   0.168   7.258 -1.5681  1.5841  1.5155
 5539SOL    HW228251   0.757   0.209   7.177  0.8198  2.5785  0.8691
 5540SOL     OW28252   1.989   0.430  13.213 -0.2984  0.6343 -0.3733
 5540SOL    HW128253   1.980   0.336  13.229  1.6883  0.3932 -0.7099
 5540SOL    HW228254   1.908   0.438  13.162 -1.6119 -0.7156  1.4811
 5541SOL     OW28255   1.883   2.926  14.604 -0.0284  0.4805  0.3665
 5541SOL    HW128256   1.944   2.867  14.560 -0.6344  1.1887 -1.3962
 5541SOL    HW228257   1.803   2.875  14.594  0.5370 -0.1679 -0.7797
 5542SOL     OW28258   1.775   1.254   4.777 -0.2030 -0.0296 -0.0659
 5542SOL    HW128259   1.680   1.241   4.775 -0.1998 -0.1441  0.6985
 5542SOL    HW228260   1.776   1.329   4.718 -0.5438  0.5581  0.6704
 5543SOL     OW28261   1.718   2.829   2.348  0.0468  0.0964  0.4136
 5543SOL    HW128262   1.797   2.868   2.310 -0.2738  0.1078 -0.2492
 5543SOL    HW228263   1.650   2.869   2.294 -0.9616 -1.9701  0.1549
 5544SOL     OW28264   1.571   2.174   5.365 -0.2280 -0.2495  0.2722
 5544SOL    HW128265   1.483   2.196   5.395  0.4758  0.8914  1.4898
 5544SOL    HW228266   1.561   2.083   5.390 -0.2931 -0.8535 -1.9746
 5545SOL     OW28267   2.360   2.942   7.241 -0.0876 -0.1168  0.4830
 5545SOL    HW128268   2.420   2.884   7.288  1.3568  0.8675 -0.1478
 5545SOL    HW228269   2.325   2.877   7.179  0.9140 -1.1729  1.0262
 5546SOL     OW28270   4.109   4.102   6.255  0.1734 -0.3473 -0.4476
 5546SOL    HW128271   4.038   4.095   6.320  1.5025  1.5784  1.2128
 5546SOL    HW228272   4.079   4.174   6.199 -0.6705 -0.5496 -0.2613
 5547SOL     OW28273   2.221   3.534   7.853 -0.0142  0.0125  0.0824
 5547SOL    HW128274   2.286   3.478   7.810 -2.1406 -1.6131 -1.0150
 5547SOL    HW228275   2.150   3.476   7.882 -1.0106  0.3195 -1.7189
 5548SOL     OW28276   3.545   3.795   1.735  0.3765 -0.0901 -0.2922
 5548SOL    HW128277   3.538   3.782   1.829 -0.2944  2.9907  0.1002
 5548SOL    HW228278   3.620   3.855   1.728 -0.3643  0.5514 -3.0960
 5549SOL     OW28279   4.717   3.546   7.775 -0.3490 -0.6847  0.1485
 5549SOL    HW128280   0.052   3.506   7.724  0.6567 -0.7038  1.5588
 5549SOL    HW228281   4.648   3.487   7.745 -0.5640 -0.5096  0.2963
 5550SOL     OW28282   1.004   4.120   2.278 -0.1352 -0.2475  0.0552
 5550SOL    HW128283   1.078   4.108   2.218  0.7034 -0.2804  1.0914
 5550SOL    HW228284   0.930   4.080   2.232 -0.3091 -0.0707  0.1822
 5551SOL     OW28285   1.221   1.582   9.433  0.5917 -0.0414  0.2323
 5551SOL    HW128286   1.136   1.544   9.455  0.6460 -0.0399  0.4380
 5551SOL    HW228287   1.284   1.551   9.497  0.3470 -0.7868  0.1108
 5552SOL     OW28288   3.701   2.477   8.614 -0.2802  0.0500 -0.0858
 5552SOL    HW128289   3.761   2.530   8.561  0.1926 -1.3399 -0.9329
 5552SOL    HW228290   3.717   2.388   8.581 -2.7524 -0.3524 -0.1677
 5553SOL     OW28291   4.296   0.876   4.464 -0.1291 -0.4642  0.1138
 5553SOL    HW128292   4.333   0.915   4.543 -2.0306 -1.1523  1.3426
 5553SOL    HW228293   4.316   0.934   4.390 -1.8323 -0.6860 -0.5388
 5554SOL     OW28294   4.392   2.475  10.166 -0.3928  0.1856  0.5357
 5554SOL    HW128295   4.333   2.549  10.178 -1.8233 -0.5309 -2.2302
 5554SOL    HW228296   4.479   2.502  10.196 -0.3532  0.5423  0.1021
 5555SOL     OW28297   1.712   1.362   5.031 -0.3048 -0.4684  0.3835
 5555SOL    HW128298   1.715   1.318   4.946 -2.8507  0.8523 -0.3833
 5555SOL    HW228299   1.789   1.319   5.068  1.4224  1.1139 -1.3856
 5556SOL     OW28300   4.461   4.468   6.513  0.2213  0.1830  0.1039
 5556SOL    HW128301   4.404   4.519   6.455  1.1376 -1.3707 -2.1688
 5556SOL    HW228302   4.523   4.535   6.540 -0.2574  1.2827 -1.5176
 5557SOL     OW28303   1.390   1.547   7.231 -0.2605 -0.5255  0.3605
 5557SOL    HW128304   1.295   1.539   7.241 -0.6604  0.5388 -2.6892
 5557SOL    HW228305   1.417   1.597   7.309 -0.7940  1.0217 -0.4402
 5558SOL     OW28306   0.631   0.399   1.802  0.3444 -0.4305 -0.0623
 5558SOL    HW128307   0.539   0.393   1.774 -0.4335  0.3723  2.2354
 5558SOL    HW228308   0.643   0.488   1.768  0.2647  0.0264  1.0710
 5559SOL     OW28309   2.196   1.660  13.541  0.3695 -0.0881  0.8201
 5559SOL    HW128310   2.111   1.617  13.531  0.0567  0.7190  0.0054
 5559SOL    HW228311   2.189   1.720  13.467  0.1689 -0.8108  0.2516
 5560SOL     OW28312   3.887   0.807  17.645  0.1880  0.6081 -0.1072
 5560SOL    HW128313   3.819   0.875  17.652 -0.6925 -0.1598 -1.2045
 5560SOL    HW228314   3.963   0.864  17.656 -0.6380  1.8178 -0.5048
 5561SOL     OW28315   0.986   4.578   5.379  0.4759  0.0733  0.1820
 5561SOL    HW128316   1.069   4.573   5.332 -0.0663 -0.5715 -0.7128
 5561SOL    HW228317   0.932   4.611   5.308  0.7213 -1.3399 -0.6648
 5562SOL     OW28318   3.506   0.305   5.164 -0.3749  0.1183  0.3767
 5562SOL    HW128319   3.422   0.277   5.200 -0.8247  1.1349  0.1294
 5562SOL    HW228320   3.485   0.302   5.071  1.9347  2.5508 -0.2066
 5563SOL     OW28321   0.744   1.540   8.566 -0.1888 -0.1863 -0.3350
 5563SOL    HW128322   0.654   1.554   8.596 -0.0980  2.6039 -1.3649
 5563SOL    HW228323   0.753   1.447   8.588 -2.2029 -0.4699 -0.7529
 5564SOL     OW28324   1.616   1.029   4.318  0.5590  0.0559 -0.0164
 5564SOL    HW128325   1.554   1.034   4.391  0.2879  1.6397 -0.3563
 5564SOL    HW228326   1.559   1.042   4.242  0.7977  2.4486  0.2005
 5565SOL     OW28327   2.602   0.440   7.269  0.4537 -0.4127  0.7270
 5565SOL    HW128328   2.566   0.442   7.181  1.8970  0.0774  0.1464
 5565SOL    HW228329   2.692   0.412   7.251  0.9557  2.1801 -0.8989
 5566SOL     OW28330   3.534   2.104   1.483  0.5796  0.6751 -0.1092
 5566SOL    HW128331   3.602   2.049   1.443  0.8070  1.5273 -0.9057
 5566SOL    HW228332   3.521   2.067   1.570 -2.2813 -1.4492 -1.4401
 5567SOL     OW28333   1.039   0.017   0.138 -0.1480  0.3381 -0.2832
 5567SOL    HW128334   1.121   4.729   0.182  0.6589  3.4919 -0.1286
 5567SOL    HW228335   1.068   0.019   0.047  0.5591 -0.8072 -0.0793
 5568SOL     OW28336   1.899   3.667   9.255  0.4467  0.0568  0.1661
 5568SOL    HW128337   1.882   3.676   9.348  1.4064  1.5185  0.1975
 5568SOL    HW228338   1.893   3.758   9.227  1.1040  0.2823  0.7749
 5569SOL     OW28339   1.471   4.045   5.269  0.2403 -0.0015 -0.4943
 5569SOL    HW128340   1.565   4.029   5.257  0.5726  2.2385 -0.8523
 5569SOL    HW228341   1.460   4.100   5.346  2.3968  0.3041 -0.4045
 5570SOL     OW28342   1.575   2.428   6.460  0.2301  0.3359 -0.4347
 5570SOL    HW128343   1.554   2.383   6.378  2.0352 -2.2662  0.5466
 5570SOL    HW228344   1.670   2.440   6.459  0.3159 -0.5453 -3.1742
 5571SOL     OW28345   4.219   2.019   2.691 -0.1586 -0.7033 -0.6967
 5571SOL    HW128346   4.293   2.080   2.686  0.5350 -1.5851 -1.2507
 5571SOL    HW228347   4.256   1.953   2.632  1.7768 -1.3883  1.2872
 5572SOL     OW28348   1.828   3.766   7.936  0.0738 -0.2193  0.1407
 5572SOL    HW128349   1.896   3.805   7.991 -1.6748  0.5672  1.7645
 5572SOL    HW228350   1.771   3.843   7.940  0.0512 -0.1830 -1.0447
 5573SOL     OW28351   3.921   0.357  12.181  0.2605 -0.2013  0.1935
 5573SOL    HW128352   3.945   0.297  12.252 -0.3122  0.6870  1.1407
 5573SOL    HW228353   3.860   0.299  12.134  2.6118 -1.1913 -1.6214
 5574SOL     OW28354   2.990   3.507   5.675 -0.4203  0.3016 -0.3398
 5574SOL    HW128355   2.951   3.482   5.591  0.4551  1.2760 -1.0543
 5574SOL    HW228356   2.973   3.434   5.733  0.2755 -0.0782 -0.6059
 5575SOL     OW28357   2.345   3.883   9.733  0.5242  0.6854  0.0081
 5575SOL    HW128358   2.311   3.796   9.710  0.5715  0.1703  1.8955
 5575SOL    HW228359   2.434   3.878   9.699  0.1250  1.2837 -1.1513
 5576SOL     OW28360   0.372   0.650   4.637 -0.4388 -0.4189  0.1601
 5576SOL    HW128361   0.412   0.581   4.690 -1.3773  0.0303  1.4377
 5576SOL    HW228362   0.446   0.678   4.582 -0.7245  1.6419  0.8137
 5577SOL     OW28363   3.712   0.941   9.312  0.1856  0.4254 -0.0091
 5577SOL    HW128364   3.646   0.901   9.368 -0.7023  1.5507 -0.2550
 5577SOL    HW228365   3.786   0.910   9.365 -0.8920  0.1741  1.3248
 5578SOL     OW28366   3.545   4.356   7.985 -0.2416 -0.0024 -0.0413
 5578SOL    HW128367   3.554   4.275   7.935 -1.5644  1.3444 -2.4654
 5578SOL    HW228368   3.515   4.412   7.913  3.2005 -0.3156 -1.7484
 5579SOL     OW28369   3.899   2.561  10.026 -0.3901  0.0073  0.3020
 5579SOL    HW128370   3.862   2.479   9.993  2.9335 -1.5487  0.4251
 5579SOL    HW228371   3.868   2.623   9.960  2.2359  1.7989  0.7541
 5580SOL     OW28372   0.861   3.466   2.388 -0.9779 -0.1714  0.3237
 5580SOL    HW128373   0.942   3.450   2.340 -1.1433 -1.8436  0.6036
 5580SOL    HW228374   0.817   3.519   2.321  0.1183 -1.6491 -1.5459
 5581SOL     OW28375   4.403   4.069   5.710 -0.7826  0.3410 -0.0636
 5581SOL    HW128376   4.423   4.106   5.625  1.4779 -0.0334  0.3035
 5581SOL    HW228377   4.328   4.010   5.696 -1.2066  0.8910 -0.1018
 5582SOL     OW28378   0.439   4.188   4.265 -0.3446 -0.0491 -0.3153
 5582SOL    HW128379   0.505   4.130   4.304 -1.3108 -0.6052  0.4869
 5582SOL    HW228380   0.375   4.130   4.224  0.9909 -1.3604 -0.5538
 5583SOL     OW28381   4.178   2.882   3.383  0.3011  0.2208 -0.3552
 5583SOL    HW128382   4.200   2.874   3.476  0.5441  0.1678 -0.4191
 5583SOL    HW228383   4.089   2.848   3.376 -0.0558  0.6916  1.7149
 5584SOL     OW28384   3.564   3.951  16.545 -0.0276  0.1230  0.3534
 5584SOL    HW128385   3.497   3.944  16.613  1.3039 -0.9651  1.5616
 5584SOL    HW228386   3.558   4.045  16.533 -2.2327 -0.6281 -4.4492
 5585SOL     OW28387   4.413   1.156   8.314 -0.1503 -1.2201  0.5998
 5585SOL    HW128388   4.376   1.145   8.227 -0.9365 -0.2879  0.8155
 5585SOL    HW228389   4.338   1.185   8.367 -0.5749 -1.8045  0.3197
 5586SOL     OW28390   3.973   3.309   4.157  0.0212 -0.0164 -0.5871
 5586SOL    HW128391   4.016   3.392   4.181 -1.0293  0.4412 -0.2826
 5586SOL    HW228392   3.995   3.246   4.226  1.7296 -0.5319 -1.6196
 5587SOL     OW28393   0.052   0.051   5.456  0.6141 -1.1707 -0.0557
 5587SOL    HW128394   0.103   0.093   5.386 -0.9361 -0.2137 -0.6249
 5587SOL    HW228395   4.709   0.019   5.411  1.0950 -0.3970 -1.4440
 5588SOL     OW28396   3.983   1.566   3.157 -0.3382 -0.1143  0.4429
 5588SOL    HW128397   4.056   1.616   3.118 -0.2769 -0.9760 -0.5471
 5588SOL    HW228398   3.982   1.479   3.117  0.0180  0.7408 -1.4532
 5589SOL     OW28399   4.616   2.749   7.477  0.1365 -0.0432  0.3515
 5589SOL    HW128400   4.565   2.819   7.517 -0.6697  0.0344 -0.8215
 5589SOL    HW228401   4.708   2.767   7.496 -0.3748  0.4601  2.3385
 5590SOL     OW28402   1.508   1.521   1.296  0.6302  0.0633  0.5189
 5590SOL    HW128403   1.424   1.519   1.342  1.5386  4.4779  2.3299
 5590SOL    HW228404   1.507   1.607   1.255  2.2515 -0.0709  0.2056
 5591SOL     OW28405   2.360   1.112  16.980 -0.1082  0.0522  0.0806
 5591SOL    HW128406   2.403   1.109  16.894  1.5961 -4.5411  1.1013
 5591SOL    HW228407   2.341   1.022  17.005  0.9598  0.3668  1.9662
 5592SOL     OW28408   1.192   2.182   6.767 -0.0779 -0.4623 -1.0879
 5592SOL    HW128409   1.201   2.264   6.719 -0.2150  0.4126  0.4100
 5592SOL    HW228410   1.118   2.137   6.727 -0.0506  0.6077 -2.3095
 5593SOL     OW28411   2.464   2.980   9.005 -0.0891  0.4297  0.6519
 5593SOL    HW128412   2.490   2.983   8.913 -0.4470  1.5377  0.5818
 5593SOL    HW228413   2.430   2.891   8.999  0.6836  0.0021  2.6073
 5594SOL     OW28414   0.300   1.834   5.593 -0.0790 -0.2562 -0.4966
 5594SOL    HW128415   0.305   1.925   5.562  0.8529  0.1608  0.8727
 5594SOL    HW228416   0.206   1.814   5.591  0.0669 -1.2161  2.5912
 5595SOL     OW28417   4.433   4.246   2.161  0.1606  0.1106  0.2943
 5595SOL    HW128418   4.432   4.237   2.066  0.7460 -0.4611  0.3383
 5595SOL    HW228419   4.476   4.164   2.187  0.8847  0.8579  1.5067
 5596SOL     OW28420   2.841   4.163   7.868  0.2655  0.4041  0.2331
 5596SOL    HW128421   2.899   4.094   7.900  0.0915 -0.1859 -0.7166
 5596SOL    HW228422   2.760   4.118   7.891  1.1781 -0.0675  2.5544
 5597SOL     OW28423   1.883   3.833  13.222  0.1038 -0.1485 -0.5702
 5597SOL    HW128424   1.920   3.776  13.290 -1.3657 -0.9689 -0.4583
 5597SOL    HW228425   1.951   3.826  13.155  0.8657 -2.5530  0.4533
 5598SOL     OW28426   1.426   4.135   4.795 -0.3813 -0.4108  0.3474
 5598SOL    HW128427   1.466   4.059   4.839  0.8916  0.0989  0.0828
 5598SOL    HW228428   1.389   4.177   4.872 -0.9101 -2.2838  1.1181
 5599SOL     OW28429   3.115   0.192   3.588 -0.4910 -0.7868  0.0286
 5599SOL    HW128430   3.172   0.151   3.654 -0.9434 -1.7155 -0.1545
 5599SOL    HW228431   3.179   0.250   3.547 -0.9980  1.1300  1.9382
 5600SOL     OW28432   0.647   4.589   1.048  0.3585 -0.3737  0.2366
 5600SOL    HW128433   0.575   4.654   1.046  0.8811  0.1923 -0.2541
 5600SOL    HW228434   0.722   4.640   1.078 -1.2749  0.8874  2.1950
 5601SOL     OW28435   0.100   0.923   9.868 -0.4054  0.1679 -0.4150
 5601SOL    HW128436   0.182   0.947   9.913 -0.3869 -1.5390  0.4602
 5601SOL    HW228437   0.067   0.859   9.931 -0.8289 -0.8029 -1.6212
 5602SOL     OW28438   1.008   0.500   2.571  0.0246  0.4850  0.5828
 5602SOL    HW128439   0.953   0.568   2.532  1.3748  0.7967 -0.8207
 5602SOL    HW228440   1.066   0.566   2.611 -1.6917  2.1923  0.2314
 5603SOL     OW28441   4.330   0.302   8.480  0.6608 -0.3179 -0.6598
 5603SOL    HW128442   4.401   0.257   8.526  0.4232  0.6407  0.6439
 5603SOL    HW228443   4.254   0.268   8.526  0.9595 -1.2534 -0.8452
 5604SOL     OW28444   0.725   4.110   0.278  0.1984  0.3759 -0.3323
 5604SOL    HW128445   0.738   4.042   0.343  1.7495 -1.8042 -2.9179
 5604SOL    HW228446   0.651   4.074   0.228  1.8771 -1.7493 -1.2615
 5605SOL     OW28447   0.934   3.529   7.597  0.5139  0.7467 -0.0072
 5605SOL    HW128448   0.939   3.498   7.687  1.4583 -2.9625 -1.3086
 5605SOL    HW228449   0.898   3.453   7.552  0.8357  0.5430  0.0754
 5606SOL     OW28450   0.195   3.963   9.329 -0.0394  0.0638  0.6871
 5606SOL    HW128451   0.128   3.978   9.395 -0.7800 -1.9610  0.4165
 5606SOL    HW228452   0.272   4.007   9.364 -1.3231  3.0933 -0.2703
 5607SOL     OW28453   1.636   0.611   6.457 -0.3144  0.0035  0.4005
 5607SOL    HW128454   1.556   0.654   6.427 -0.9612 -1.4480  0.0331
 5607SOL    HW228455   1.671   0.578   6.375  0.5222  0.0404  0.7481
 5608SOL     OW28456   1.054   3.332   7.958  0.0026 -0.1108  0.0268
 5608SOL    HW128457   1.130   3.317   8.015 -0.6190  1.4789  1.2863
 5608SOL    HW228458   1.003   3.255   7.985 -0.9120  0.2182 -0.7956
 5609SOL     OW28459   1.099   0.871   6.641 -0.4952 -0.0444  0.5046
 5609SOL    HW128460   1.022   0.842   6.690  0.6957 -0.3131  2.2201
 5609SOL    HW228461   1.138   0.785   6.623 -1.0833 -0.4278  1.0857
 5610SOL     OW28462   4.359   4.652   0.635  0.1768  0.0634  0.6772
 5610SOL    HW128463   4.406   4.577   0.673  0.0870 -0.2624  0.1535
 5610SOL    HW228464   4.424   4.721   0.649 -0.3207  0.6622  0.0148
 5611SOL     OW28465   2.113   2.051   1.971  0.5413  0.9231  0.0931
 5611SOL    HW128466   2.104   2.029   1.878  2.2140 -0.0106  0.1541
 5611SOL    HW228467   2.149   2.138   1.956  2.8978  0.4172  2.8967
 5612SOL     OW28468   4.361   3.492   2.191 -0.3921 -0.0168 -0.4358
 5612SOL    HW128469   4.381   3.452   2.106  0.1177 -2.4878  0.8243
 5612SOL    HW228470   4.330   3.413   2.236  1.5085 -0.7440 -0.3738
 5613SOL     OW28471   2.557   0.192  17.737 -0.5070 -0.4917  0.4718
 5613SOL    HW128472   2.514   0.108   0.014  1.3322 -2.1281 -3.2451
 5613SOL    HW228473   2.528   0.222  17.651  0.4604  1.3954  0.7950
 5614SOL     OW28474   2.316   2.633   4.987 -0.2245 -0.0208 -0.1573
 5614SOL    HW128475   2.311   2.591   5.073  0.2442 -0.9937 -0.5951
 5614SOL    HW228476   2.247   2.699   4.991 -1.5932 -1.2764 -3.4358
 5615SOL     OW28477   4.073   4.630  12.918  0.0006  0.5216 -0.0557
 5615SOL    HW128478   4.100   4.618  12.827 -0.3120 -0.3350 -0.0408
 5615SOL    HW228479   4.119   4.551  12.947 -1.7879 -1.3950 -2.3687
 5616SOL     OW28480   0.887   4.193  10.727 -0.1388  0.2852  0.1650
 5616SOL    HW128481   0.934   4.171  10.646 -1.1192 -1.8250  0.1698
 5616SOL    HW228482   0.956   4.232  10.780 -1.0665  0.0500  1.5222
 5617SOL     OW28483   1.485   4.299   3.214  0.7568 -0.2051 -0.3199
 5617SOL    HW128484   1.427   4.318   3.287  0.6594  0.8483 -0.6663
 5617SOL    HW228485   1.570   4.293   3.258 -0.2725 -0.2272  1.6352
 5618SOL     OW28486   0.804   1.584   2.397  0.2200  0.0564  0.1701
 5618SOL    HW128487   0.899   1.594   2.401  0.3760 -2.1045  1.8143
 5618SOL    HW228488   0.791   1.562   2.305  2.5165 -1.6745  0.2362
 5619SOL     OW28489   2.642   0.398   2.334 -0.0167 -0.0622 -0.4733
 5619SOL    HW128490   2.693   0.321   2.359  0.6551  0.8603  1.0350
 5619SOL    HW228491   2.668   0.465   2.398 -1.5194 -0.9738  1.0918
 5620SOL     OW28492   4.344   0.742   9.017  0.3884  0.2360 -0.3974
 5620SOL    HW128493   4.315   0.657   9.050  0.6219  0.0029 -0.7971
 5620SOL    HW228494   4.288   0.757   8.940 -1.1224  1.6411  0.9787
 5621SOL     OW28495   3.509   2.423   6.220 -0.5000 -0.1356 -0.5828
 5621SOL    HW128496   3.446   2.454   6.285 -0.2265  0.4608 -0.6008
 5621SOL    HW228497   3.588   2.396   6.267 -0.8832  0.2098  0.2634
 5622SOL     OW28498   1.228   3.498  16.828 -0.7153 -0.5116  0.0705
 5622SOL    HW128499   1.256   3.439  16.898  0.1955  0.0841  0.2067
 5622SOL    HW228500   1.260   3.447  16.753 -0.3190 -0.7951  0.4337
 5623SOL     OW28501   1.842   0.597   5.021  0.4995 -0.0988  0.6143
 5623SOL    HW128502   1.898   0.541   5.075  2.4699  0.2933 -1.0621
 5623SOL    HW228503   1.904   0.642   4.965 -0.2541  0.5226  0.2803
 5624SOL     OW28504   1.493   2.621   7.532  0.5272  0.2134 -0.2491
 5624SOL    HW128505   1.417   2.581   7.489 -1.0168  0.8403  1.8795
 5624SOL    HW228506   1.464   2.712   7.529 -0.0801  0.0318  0.0548
 5625SOL     OW28507   3.222   3.042   8.759  0.2155 -0.0018  0.0879
 5625SOL    HW128508   3.290   3.034   8.826 -0.4935 -0.4283  0.7559
 5625SOL    HW228509   3.278   3.066   8.685 -0.2225 -1.2896 -0.6665
 5626SOL     OW28510   2.968   2.435   8.788  0.0359 -0.3961 -0.6747
 5626SOL    HW128511   2.947   2.522   8.754 -1.0604 -1.5349 -2.8978
 5626SOL    HW228512   2.877   2.408   8.799  0.1052 -0.9086 -1.4446
 5627SOL     OW28513   1.967   0.064   0.875  0.7906  0.4537 -0.1245
 5627SOL    HW128514   1.902   0.003   0.909  0.2523  0.5197 -1.0368
 5627SOL    HW228515   1.907   0.134   0.852 -0.4556 -0.1290  1.4026
 5628SOL     OW28516   1.512   3.654   6.745 -0.1810  0.2285 -0.0218
 5628SOL    HW128517   1.504   3.635   6.838  1.0380 -1.1656 -0.2061
 5628SOL    HW228518   1.486   3.571   6.705  0.2202  0.4210 -0.6916
 5629SOL     OW28519   3.480   1.256  11.503 -0.0619 -0.5852 -0.4489
 5629SOL    HW128520   3.388   1.235  11.492  0.1079 -1.2254 -0.6657
 5629SOL    HW228521   3.503   1.228  11.592  0.0652 -1.4176 -0.7477
 5630SOL     OW28522   3.430   1.618  13.899  0.2782 -0.0845  0.1211
 5630SOL    HW128523   3.425   1.532  13.857 -3.0697  1.0658 -1.7235
 5630SOL    HW228524   3.373   1.607  13.976 -0.8694  2.8681 -0.3020
 5631SOL     OW28525   2.459   1.021   5.649 -0.0014  0.7652 -0.3937
 5631SOL    HW128526   2.540   0.986   5.612 -0.2092  0.1171 -0.2398
 5631SOL    HW228527   2.444   0.968   5.727  1.3220 -1.5601 -1.7402
 5632SOL     OW28528   3.179   1.774  12.427 -0.7222 -0.2765 -0.8182
 5632SOL    HW128529   3.085   1.759  12.411 -0.7300  0.5137 -1.5354
 5632SOL    HW228530   3.190   1.859  12.384  0.5332 -0.7187 -1.3583
 5633SOL     OW28531   3.684   2.568   3.740  0.0819  0.3693 -0.8466
 5633SOL    HW128532   3.761   2.608   3.781  0.3345 -1.6514  0.6254
 5633SOL    HW228533   3.640   2.504   3.796  1.8738  0.1459  0.3104
 5634SOL     OW28534   3.883   2.806   3.090 -0.1448 -0.4225 -0.0268
 5634SOL    HW128535   3.919   2.783   3.176 -1.1592 -0.5678  0.3495
 5634SOL    HW228536   3.846   2.893   3.108 -0.5987 -0.2348 -1.9091
 5635SOL     OW28537   0.652   4.280   8.833 -0.0516  0.1388  0.2316
 5635SOL    HW128538   0.747   4.283   8.844  0.2937 -3.3024 -1.7651
 5635SOL    HW228539   0.629   4.201   8.882 -0.8728  1.0576  1.3379
 5636SOL     OW28540   3.201   2.713   5.219  0.2081 -0.2202 -0.2364
 5636SOL    HW128541   3.296   2.716   5.207  0.1845 -0.2020 -0.4165
 5636SOL    HW228542   3.167   2.724   5.130 -0.0449  3.5255  0.3381
 5637SOL     OW28543   1.687   3.994   7.995 -0.2094  0.1822  0.4516
 5637SOL    HW128544   1.634   4.068   8.024 -2.4607 -1.0343 -0.5688
 5637SOL    HW228545   1.655   3.935   8.063  0.1591 -1.5233 -0.8480
 5638SOL     OW28546   2.045   0.823   8.940 -0.4012 -0.4570 -0.9249
 5638SOL    HW128547   1.951   0.803   8.935 -0.3362 -1.6605  2.2855
 5638SOL    HW228548   2.074   0.740   8.980  2.3052  0.8766 -0.1508
 5639SOL     OW28549   1.878   4.458   3.890 -0.0834 -0.0156  0.2858
 5639SOL    HW128550   1.882   4.399   3.965  1.0213 -1.1716 -0.6633
 5639SOL    HW228551   1.970   4.474   3.868  0.2050  0.5175  1.8583
 5640SOL     OW28552   4.110   2.366   8.905 -0.1579  0.3709  0.1546
 5640SOL    HW128553   4.134   2.283   8.945  0.2639  0.4870  0.1405
 5640SOL    HW228554   4.197   2.405   8.905 -0.4060  0.8575  3.1950
 5641SOL     OW28555   3.018   1.438   8.061  0.3187  0.4080 -0.3271
 5641SOL    HW128556   3.046   1.466   7.974  1.0523  0.1887 -0.1579
 5641SOL    HW228557   3.102   1.407   8.097  0.1778 -1.9127 -1.9486
 5642SOL     OW28558   0.560   2.916   6.022 -0.5486 -0.4943  0.0983
 5642SOL    HW128559   0.637   2.956   6.063 -1.1037 -0.8016  1.4366
 5642SOL    HW228560   0.551   2.961   5.937 -2.5132 -0.0707  0.5293
 5643SOL     OW28561   2.429   1.283   4.291 -0.2382 -0.3480 -0.1939
 5643SOL    HW128562   2.342   1.244   4.296  0.3724 -1.5709  1.0175
 5643SOL    HW228563   2.460   1.229   4.218 -0.6919 -2.4143  1.1460
 5644SOL     OW28564   3.911   4.222  11.167 -0.5362 -1.0129  0.2776
 5644SOL    HW128565   3.962   4.183  11.238  1.0061  1.6592  0.6351
 5644SOL    HW228566   3.847   4.282  11.206  2.0614  0.8601  1.6934
 5645SOL     OW28567   0.031   3.566   0.848 -0.8028 -0.3833  0.2688
 5645SOL    HW128568   0.079   3.483   0.843 -2.7109 -1.4991  0.8408
 5645SOL    HW228569   4.723   3.551   0.932  0.0096 -1.1718  0.5505
 5646SOL     OW28570   2.529   3.374   0.632  0.3884  0.2947 -0.0459
 5646SOL    HW128571   2.440   3.345   0.611  0.8871 -0.7375 -0.7121
 5646SOL    HW228572   2.514   3.421   0.714 -0.4850 -1.5363  0.8292
 5647SOL     OW28573   3.430   1.698   0.950 -0.3470  0.4835  0.4230
 5647SOL    HW128574   3.404   1.787   0.976  0.6179 -0.0601  3.2334
 5647SOL    HW228575   3.519   1.726   0.928 -0.5263  1.0827  0.4398
 5648SOL     OW28576   4.277   0.114   7.192 -0.0468  0.4895  0.1967
 5648SOL    HW128577   4.184   0.101   7.210  0.8650 -2.5048  2.8246
 5648SOL    HW228578   4.271   0.197   7.146  0.2780  0.6762  0.4928
 5649SOL     OW28579   2.092   0.959  11.217 -0.4300 -0.3328 -0.0126
 5649SOL    HW128580   2.120   1.029  11.277  2.1997 -1.5914  0.2728
 5649SOL    HW228581   2.180   0.940  11.182 -0.7879  0.1521 -1.1691
 5650SOL     OW28582   1.006   0.263  16.294 -0.0211  0.1360  0.2659
 5650SOL    HW128583   0.921   0.235  16.328 -0.7896 -0.0714 -1.8648
 5650SOL    HW228584   1.063   0.208  16.348  0.3035 -0.8024 -1.0465
 5651SOL     OW28585   4.612   1.975   1.068  0.3447  0.4526 -0.0861
 5651SOL    HW128586   4.594   1.914   1.139 -0.0973  1.4797  0.6867
 5651SOL    HW228587   4.698   1.944   1.042  0.5891  1.3255 -0.3053
 5652SOL     OW28588   2.615   3.624  13.622 -0.2192 -0.3624 -0.5795
 5652SOL    HW128589   2.693   3.570  13.632  2.0653  2.3169 -4.1141
 5652SOL    HW228590   2.664   3.706  13.617  0.7064 -0.8081  1.3785
 5653SOL     OW28591   1.494   1.977  11.970  0.4390 -0.0546 -0.2183
 5653SOL    HW128592   1.416   1.988  12.024  0.3356  0.1091 -0.4043
 5653SOL    HW228593   1.467   2.012  11.885  0.0877 -1.7193 -0.7913
 5654SOL     OW28594   0.989   3.807  15.720 -0.0513 -0.2469 -0.4458
 5654SOL    HW128595   1.082   3.793  15.702 -0.6673 -0.7945 -3.2244
 5654SOL    HW228596   0.959   3.788  15.631 -4.7936 -0.5801  1.2076
 5655SOL     OW28597   3.076   0.688   9.249 -0.1377  0.2880 -0.5219
 5655SOL    HW128598   3.027   0.762   9.214  0.6648  0.6821 -0.8046
 5655SOL    HW228599   3.143   0.735   9.298 -0.0015  1.9551 -2.2877
 5656SOL     OW28600   0.704   1.485   4.370  0.2850 -0.1318  0.1840
 5656SOL    HW128601   0.714   1.464   4.277  1.0717 -1.9360  0.6683
 5656SOL    HW228602   0.658   1.411   4.410 -0.5440 -1.0373 -2.4477
 5657SOL     OW28603   1.124   1.417   5.762  0.3381 -0.5534 -0.1882
 5657SOL    HW128604   1.030   1.426   5.772  0.3995 -0.0783 -0.0688
 5657SOL    HW228605   1.126   1.325   5.789 -0.6190 -0.2743  0.8279
 5658SOL     OW28606   2.604   3.351   6.054  0.4391 -0.5316  0.0922
 5658SOL    HW128607   2.586   3.368   6.147 -3.4374  1.0095 -0.9273
 5658SOL    HW228608   2.513   3.349   6.023  0.9624 -2.1891 -1.3499
 5659SOL     OW28609   4.562   2.898  11.497  0.6783 -0.1307  0.0962
 5659SOL    HW128610   4.543   2.983  11.537  1.1411  1.1265 -2.3950
 5659SOL    HW228611   4.551   2.923  11.406 -1.6219  0.8780  0.6707
 5660SOL     OW28612   0.473   3.789  17.545  0.1616 -0.1640 -0.3871
 5660SOL    HW128613   0.551   3.841  17.563  0.2888 -0.8477  0.9845
 5660SOL    HW228614   0.412   3.792  17.618  1.9633 -0.4867  1.1057
 5661SOL     OW28615   4.515   2.612  17.080 -0.2720  0.3887  0.5495
 5661SOL    HW128616   4.596   2.651  17.045  1.9677 -1.9782  3.0666
 5661SOL    HW228617   4.451   2.649  17.020  0.2161  0.5687  0.1346
 5662SOL     OW28618   4.610   2.894   1.594 -0.3180 -0.1440  0.0551
 5662SOL    HW128619   4.547   2.917   1.525  0.7450 -0.4090 -1.0082
 5662SOL    HW228620   4.683   2.947   1.564  0.4678 -1.2323  0.0504
 5663SOL     OW28621   1.346   0.697   4.949  0.0739  0.2828  0.1338
 5663SOL    HW128622   1.301   0.770   4.906  1.6147  1.3309  0.2991
 5663SOL    HW228623   1.431   0.704   4.906 -0.5814  0.0948 -1.1854
 5664SOL     OW28624   2.197   3.908   0.330 -0.1733  0.0891  0.2935
 5664SOL    HW128625   2.152   3.946   0.255  0.4288 -0.4893 -0.3612
 5664SOL    HW228626   2.119   3.891   0.383  1.6544  0.7849  3.2686
 5665SOL     OW28627   3.064   1.663   8.944 -0.0518  0.3021  0.1240
 5665SOL    HW128628   3.079   1.753   8.972 -0.5336  1.0030 -1.8254
 5665SOL    HW228629   3.072   1.674   8.849 -0.4244  0.5877  0.1291
 5666SOL     OW28630   2.843   3.962   2.562 -0.0316 -0.1309 -0.0962
 5666SOL    HW128631   2.796   3.925   2.487 -0.0363  0.0137 -0.1649
 5666SOL    HW228632   2.792   4.043   2.567  0.4549  0.2457 -1.3834
 5667SOL     OW28633   4.181   1.551   2.690 -0.0738 -0.3037  0.4014
 5667SOL    HW128634   4.227   1.483   2.741 -0.1951 -1.1418 -0.6204
 5667SOL    HW228635   4.138   1.502   2.620  0.1713  0.6236 -0.3909
 5668SOL     OW28636   4.669   4.149  10.586  0.5749 -0.4759 -0.7687
 5668SOL    HW128637   4.706   4.190  10.508  2.9756  1.2512  1.2391
 5668SOL    HW228638   4.715   4.198  10.654  0.7260 -0.4447 -0.8926
 5669SOL     OW28639   0.453   3.086   0.876 -0.3561 -0.0564 -0.1831
 5669SOL    HW128640   0.514   3.129   0.935 -0.3526  0.3464 -0.4758
 5669SOL    HW228641   0.482   3.121   0.792 -1.0750  1.3645  0.1701
 5670SOL     OW28642   3.324   4.004   6.307  0.7638  0.5774 -0.3467
 5670SOL    HW128643   3.327   4.074   6.373 -4.7701  0.8591 -0.3869
 5670SOL    HW228644   3.235   4.003   6.271  0.7173  0.6523 -0.2316
 5671SOL     OW28645   2.647   0.220  16.571  0.4886  0.3486 -0.3019
 5671SOL    HW128646   2.598   0.186  16.497 -0.6503 -1.7187  1.3805
 5671SOL    HW228647   2.698   0.285  16.522  1.3189 -0.2748 -0.2733
 5672SOL     OW28648   3.909   1.409   5.007  0.6311 -0.3485 -0.2285
 5672SOL    HW128649   3.900   1.348   5.080  0.1145  0.8747  0.7234
 5672SOL    HW228650   3.833   1.382   4.956 -0.2097 -0.8978  1.3204
 5673SOL     OW28651   4.692   2.246   5.820  0.5712 -0.8280 -0.3828
 5673SOL    HW128652   4.711   2.303   5.895 -1.3236 -0.4274 -0.2083
 5673SOL    HW228653   4.676   2.161   5.861 -0.3815 -1.1839 -1.5091
 5674SOL     OW28654   4.094   3.099   9.178 -0.2364 -0.6209  0.1461
 5674SOL    HW128655   4.029   3.118   9.245 -0.6794  0.8167 -0.6876
 5674SOL    HW228656   4.044   3.114   9.097  0.7866 -1.1645 -0.5865
 5675SOL     OW28657   2.957   0.905   5.665  0.3113  0.1428 -0.2698
 5675SOL    HW128658   2.997   0.899   5.578  0.0400 -0.9990 -0.3288
 5675SOL    HW228659   3.016   0.963   5.712  1.8124  1.6547 -4.0055
 5676SOL     OW28660   3.448   2.741   3.108 -0.4680 -0.0641  0.2992
 5676SOL    HW128661   3.541   2.757   3.092 -0.4670 -1.2788 -0.8886
 5676SOL    HW228662   3.409   2.732   3.020  1.5041 -2.4177 -0.3222
 5677SOL     OW28663   2.012   1.996   4.606 -0.1709  0.7865 -0.1982
 5677SOL    HW128664   1.994   2.021   4.515  0.6547  2.2581  0.0489
 5677SOL    HW228665   2.004   2.080   4.651 -2.8509  1.8847 -2.7464
 5678SOL     OW28666   1.203   0.033   1.781  0.1357  0.0789  0.2574
 5678SOL    HW128667   1.134   0.089   1.745  1.3992  0.4306 -1.6008
 5678SOL    HW228668   1.179   4.688   1.733  0.1092 -0.8640  1.8325
 5679SOL     OW28669   4.731   3.695   3.985 -0.0749 -0.4525 -0.3751
 5679SOL    HW128670   4.637   3.712   3.995  0.1201  0.9867 -0.8955
 5679SOL    HW228671   0.020   3.783   3.957 -0.6776  0.3100  1.4454
 5680SOL     OW28672   2.286   2.378   4.401  0.3185  0.1846  0.4820
 5680SOL    HW128673   2.346   2.409   4.334 -2.0595 -0.6312 -2.0001
 5680SOL    HW228674   2.211   2.435   4.389  1.7697  1.4515 -2.4312
 5681SOL     OW28675   3.845   1.286   4.094  0.4565  0.4939  0.1568
 5681SOL    HW128676   3.933   1.293   4.132  0.5663  0.6241 -0.1266
 5681SOL    HW228677   3.802   1.370   4.110  0.5131  0.6915 -0.7444
 5682SOL     OW28678   0.067   1.352   1.698 -0.6724  0.8873  0.0676
 5682SOL    HW128679   0.086   1.343   1.791 -0.9795  1.9755  0.2431
 5682SOL    HW228680   0.126   1.292   1.652  0.0292  0.6607  1.2639
 5683SOL     OW28681   4.415   2.996   9.037  0.3685 -0.3857  0.7096
 5683SOL    HW128682   4.507   2.979   9.055  0.9447  0.1081 -1.7657
 5683SOL    HW228683   4.406   3.088   9.060 -0.4424  0.2428 -2.0600
 5684SOL     OW28684   3.516   2.112   0.492  0.1032  0.0170 -0.7587
 5684SOL    HW128685   3.605   2.141   0.472  0.0970  1.1247  0.8007
 5684SOL    HW228686   3.534   2.049   0.563 -0.3403 -0.7274 -1.3032
 5685SOL     OW28687   4.719   0.505   1.962 -0.4655 -0.1340 -0.1738
 5685SOL    HW128688   4.723   0.447   1.886  1.8872 -0.0941 -0.0837
 5685SOL    HW228689   0.041   0.574   1.928  0.0436  0.2645  1.5088
 5686SOL     OW28690   4.482   4.013   6.710 -0.1524  0.4310  0.3015
 5686SOL    HW128691   4.540   4.004   6.786  0.7516 -2.3815 -0.7065
 5686SOL    HW228692   4.511   4.101   6.684  1.3315  0.0506  0.6455
 5687SOL     OW28693   1.538   3.549   5.325  0.3705 -0.0524  0.2677
 5687SOL    HW128694   1.472   3.558   5.256  1.8144  2.0552 -0.8162
 5687SOL    HW228695   1.490   3.574   5.404 -0.5027  1.3231 -0.7092
 5688SOL     OW28696   1.500   2.358   2.382  0.5827 -0.0029  0.0045
 5688SOL    HW128697   1.564   2.291   2.405 -1.9285 -1.7643  1.9653
 5688SOL    HW228698   1.551   2.434   2.409  0.4259 -0.4212  1.5198
 5689SOL     OW28699   1.241   0.755  15.438 -0.1323  0.4388 -0.0205
 5689SOL    HW128700   1.323   0.733  15.483  0.1923 -0.5004 -1.0791
 5689SOL    HW228701   1.222   0.845  15.464  2.5732  1.2113 -0.7644
 5690SOL     OW28702   4.435   0.933   5.108 -0.1748 -0.0590  0.1313
 5690SOL    HW128703   4.490   0.930   5.029 -1.2396  2.7778 -0.7066
 5690SOL    HW228704   4.392   0.848   5.096  2.8819 -1.7033  0.7710
 5691SOL     OW28705   0.660   1.189   5.995  0.2673  0.0031 -0.4579
 5691SOL    HW128706   0.737   1.181   6.052  0.7937  0.7156 -1.0754
 5691SOL    HW228707   0.695   1.240   5.922  0.3710  0.4555 -0.0901
 5692SOL     OW28708   3.732   4.369   3.847 -0.1760  0.3521 -0.2495
 5692SOL    HW128709   3.794   4.382   3.918 -0.4693  1.2188 -0.1486
 5692SOL    HW228710   3.660   4.426   3.874  0.7199  1.5105 -0.2954
 5693SOL     OW28711   2.671   4.016   6.369  0.0981 -0.3934  0.1600
 5693SOL    HW128712   2.732   3.950   6.400  1.3893  2.0026  2.7795
 5693SOL    HW228713   2.600   4.003   6.432  0.3824  0.7240  0.7101
 5694SOL     OW28714   0.087   2.948   3.259 -0.0670  0.5481 -0.0918
 5694SOL    HW128715   4.730   2.933   3.234  0.1887  0.0247 -0.7060
 5694SOL    HW228716   0.101   2.889   3.332 -0.8347 -0.9774 -1.1830
 5695SOL     OW28717   3.916   3.708  14.969  0.1419  0.1897  0.3630
 5695SOL    HW128718   3.899   3.681  14.879 -0.2269 -1.3200  0.8841
 5695SOL    HW228719   4.003   3.675  14.991  0.3329  0.4317 -0.0204
 5696SOL     OW28720   4.019   3.206   7.613 -0.4642  0.1932  0.1237
 5696SOL    HW128721   3.967   3.242   7.684 -1.0378 -0.6763  0.1362
 5696SOL    HW228722   3.978   3.259   7.544 -0.2652 -0.7376 -0.7129
 5697SOL     OW28723   4.185   1.816   4.393 -0.6416  0.5338  0.0016
 5697SOL    HW128724   4.120   1.877   4.357 -0.0078 -0.0932 -2.1988
 5697SOL    HW228725   4.243   1.823   4.317 -1.4955  0.8648 -0.6187
 5698SOL     OW28726   4.006   2.884  14.955 -0.0645  0.1268  0.0535
 5698SOL    HW128727   4.056   2.892  15.036 -0.7498 -0.8100  0.5697
 5698SOL    HW228728   4.060   2.816  14.914  0.6565  1.5208 -1.3019
 5699SOL     OW28729   3.583   3.729   1.990  0.3470 -0.5263  0.4281
 5699SOL    HW128730   3.668   3.696   1.960  0.9291  1.9358 -0.5781
 5699SOL    HW228731   3.560   3.666   2.058 -2.2270 -1.2773 -1.1330
 5700SOL     OW28732   3.185   2.052   7.017  0.1801 -0.2258  0.8980
 5700SOL    HW128733   3.212   2.070   7.107  4.1952  0.9176 -0.5023
 5700SOL    HW228734   3.141   2.132   6.989 -0.2656 -0.1261  1.9065
 5701SOL     OW28735   3.097   1.557   4.574 -0.2640  0.2134  0.0922
 5701SOL    HW128736   3.106   1.614   4.498  2.0472  0.6133  0.6544
 5701SOL    HW228737   3.009   1.523   4.562 -0.5235  0.7939  0.3704
 5702SOL     OW28738   4.635   1.733  15.359 -0.1874  0.0220  0.1530
 5702SOL    HW128739   4.569   1.720  15.290 -1.1305 -0.0887  1.0845
 5702SOL    HW228740   4.581   1.760  15.433 -0.0645 -3.1856  1.3949
 5703SOL     OW28741   2.297   1.846   5.135 -0.3567 -0.4897  0.3523
 5703SOL    HW128742   2.255   1.909   5.193 -0.9149  0.1691 -0.7817
 5703SOL    HW228743   2.274   1.774   5.194  0.8906  0.1839  1.6695
 5704SOL     OW28744   4.674   0.328   6.684  0.3272  0.0057 -0.0044
 5704SOL    HW128745   4.628   0.282   6.615 -0.2300 -0.6202  0.7901
 5704SOL    HW228746   0.024   0.285   6.691  1.3098  2.1724  1.5218
 5705SOL     OW28747   3.965   4.181   6.709  0.2667  0.0865 -0.3687
 5705SOL    HW128748   4.052   4.196   6.745 -0.2885  1.1195  0.5579
 5705SOL    HW228749   3.913   4.199   6.788 -2.2761  1.5146 -2.3725
 5706SOL     OW28750   1.739   0.866   3.989  0.4135  0.5825  0.2052
 5706SOL    HW128751   1.663   0.843   4.042  0.0037 -0.4063 -0.8019
 5706SOL    HW228752   1.778   0.780   3.975 -1.0768  0.0535 -0.6661
 5707SOL     OW28753   0.486   1.748   7.719  0.0302 -0.7316  0.4547
 5707SOL    HW128754   0.471   1.679   7.783  0.2294 -0.1418  1.1414
 5707SOL    HW228755   0.575   1.719   7.698  0.3728  1.4529 -1.1033
 5708SOL     OW28756   3.517   1.379   5.338  0.5490  0.4933 -0.4291
 5708SOL    HW128757   3.465   1.335   5.404  1.6429 -1.1311 -0.6397
 5708SOL    HW228758   3.598   1.365   5.387  0.7156  0.2630 -0.7715
 5709SOL     OW28759   4.320   1.896   6.590 -0.5427  0.0588 -0.5205
 5709SOL    HW128760   4.353   1.807   6.578 -1.8022 -0.2489 -1.6356
 5709SOL    HW228761   4.397   1.952   6.602 -0.6613  0.0841  0.1207
 5710SOL     OW28762   3.722   1.603   8.979  0.1753 -0.4865  0.0751
 5710SOL    HW128763   3.656   1.603   9.049  0.8032 -1.5971  0.6711
 5710SOL    HW228764   3.774   1.680   9.002  0.8707 -1.0267  0.3000
 5711SOL     OW28765   4.009   4.549  13.231 -0.1255 -0.1619  0.2042
 5711SOL    HW128766   4.065   4.623  13.208 -0.2536 -0.8967 -2.4679
 5711SOL    HW228767   3.927   4.599  13.227 -0.1673 -0.2005  0.6557
 5712SOL     OW28768   0.227   1.255   3.850  0.0648  0.3574 -0.3149
 5712SOL    HW128769   0.284   1.180   3.867 -0.8738 -1.0045 -3.3253
 5712SOL    HW228770   0.288   1.328   3.862 -1.3417  1.4868  0.0307
 5713SOL     OW28771   1.896   4.180   4.046 -0.2933  0.2221 -0.6700
 5713SOL    HW128772   1.915   4.176   4.139 -1.6434  0.9388 -0.3647
 5713SOL    HW228773   1.854   4.095   4.034  2.4762 -1.2395  0.0647
 5714SOL     OW28774   0.801   3.648   2.887  0.2288 -0.3065 -0.1647
 5714SOL    HW128775   0.877   3.645   2.945  0.1356 -1.1643 -0.0782
 5714SOL    HW228776   0.821   3.724   2.833  0.5481 -0.6883 -0.5826
 5715SOL     OW28777   4.097   2.585   3.563 -0.1207 -0.0940  0.1925
 5715SOL    HW128778   4.153   2.591   3.486  0.7322  0.3140  0.8560
 5715SOL    HW228779   4.026   2.636   3.525  0.4061  0.9194  0.5727
 5716SOL     OW28780   1.125   0.528   7.584  0.0294  0.8481  0.4053
 5716SOL    HW128781   1.192   0.583   7.543  0.8207 -0.1661  0.3358
 5716SOL    HW228782   1.181   0.459   7.619 -1.3624 -0.7078 -0.4164
 5717SOL     OW28783   3.791   2.985   5.212 -0.1941 -0.3835 -0.6156
 5717SOL    HW128784   3.749   2.939   5.284 -0.8933 -0.4787 -1.0782
 5717SOL    HW228785   3.784   3.077   5.238 -0.4182 -0.4213 -0.5458
 5718SOL     OW28786   2.497   1.867  14.264  0.4334  0.1419  0.0574
 5718SOL    HW128787   2.451   1.786  14.285  1.8524 -0.1349  2.0482
 5718SOL    HW228788   2.475   1.924  14.337  0.0842 -0.9455  0.7895
 5719SOL     OW28789   3.480   3.788   5.617 -0.1726 -0.2346  0.3173
 5719SOL    HW128790   3.393   3.750   5.602 -1.4416  3.2958 -1.1083
 5719SOL    HW228791   3.466   3.838   5.697  1.0075  2.5557 -1.2199
 5720SOL     OW28792   4.418   3.476   8.156 -0.5733 -0.0745  0.3346
 5720SOL    HW128793   4.506   3.504   8.181 -0.2884 -0.4339 -0.2806
 5720SOL    HW228794   4.383   3.557   8.118 -0.5478  0.8301  2.1834
 5721SOL     OW28795   1.975   0.738   9.489  0.7374 -0.2906 -0.7060
 5721SOL    HW128796   1.896   0.735   9.542  0.7774 -0.2282 -0.6426
 5721SOL    HW228797   1.947   0.791   9.415  1.3545  3.2194  1.5539
 5722SOL     OW28798   4.243   2.999   0.922 -0.1573  0.0318  0.1851
 5722SOL    HW128799   4.157   2.961   0.902  0.1078 -0.4357 -0.0819
 5722SOL    HW228800   4.286   2.977   0.839  0.7569 -0.5639  0.8056
 5723SOL     OW28801   4.059   3.482   1.892 -0.1826 -0.7475 -0.3604
 5723SOL    HW128802   4.073   3.472   1.797  0.7769 -0.8201 -0.2190
 5723SOL    HW228803   4.114   3.558   1.911  0.1803 -0.7735 -1.2745
 5724SOL     OW28804   2.118   3.711   2.787 -0.4860  0.4888  0.0206
 5724SOL    HW128805   2.102   3.663   2.706 -1.5476  1.0317 -0.0897
 5724SOL    HW228806   2.116   3.639   2.849  0.5015  2.5806  2.4912
 5725SOL     OW28807   4.215   1.525  15.423 -0.1745 -0.0009 -0.0353
 5725SOL    HW128808   4.202   1.613  15.389  2.9783  0.9062  1.0686
 5725SOL    HW228809   4.132   1.489  15.393  0.6152 -1.5796 -0.3547
 5726SOL     OW28810   2.305   0.758  17.609 -0.1945  0.2079  0.5171
 5726SOL    HW128811   2.372   0.714  17.557 -1.2238  0.0469 -0.6550
 5726SOL    HW228812   2.241   0.772  17.539 -0.4769  1.5179  1.0293
 5727SOL     OW28813   3.326   2.996  10.759 -0.0242  0.4038  0.4283
 5727SOL    HW128814   3.318   3.075  10.706 -0.4593  0.2873  0.3236
 5727SOL    HW228815   3.413   2.993  10.799 -0.4288  0.8905  1.3646
 5728SOL     OW28816   3.914   4.632   1.983 -0.1368 -0.2604 -0.2868
 5728SOL    HW128817   3.931   4.619   1.889  0.2585 -0.1247 -0.2365
 5728SOL    HW228818   3.990   4.589   2.023 -0.0286  0.2693  0.0702
 5729SOL     OW28819   2.755   0.875  16.852  0.5706 -0.1192  0.4300
 5729SOL    HW128820   2.765   0.814  16.779  0.4175 -0.7506  0.9350
 5729SOL    HW228821   2.832   0.927  16.827  0.6052  0.3249  1.4499
 5730SOL     OW28822   3.664   2.362   3.416 -0.4681  0.2581 -0.1947
 5730SOL    HW128823   3.757   2.366   3.436 -0.6409 -2.6919  1.1412
 5730SOL    HW228824   3.679   2.358   3.322  2.7561  3.2443  0.2134
 5731SOL     OW28825   1.850   3.640   3.024  0.0605  0.8390  0.1356
 5731SOL    HW128826   1.830   3.717   3.078 -1.0897 -0.2965  1.3070
 5731SOL    HW228827   1.776   3.590   3.058  0.7416  0.3534  0.9019
 5732SOL     OW28828   1.687   4.437   5.587  0.8785 -0.5129  0.1549
 5732SOL    HW128829   1.674   4.423   5.493 -0.6043 -0.2609  0.3312
 5732SOL    HW228830   1.601   4.414   5.622  0.4774  1.1987  0.3294
 5733SOL     OW28831   2.104   1.677   2.461 -0.2936 -0.4255 -0.2345
 5733SOL    HW128832   2.090   1.662   2.368 -1.8075 -0.5028  0.0101
 5733SOL    HW228833   2.015   1.673   2.495  0.7031 -0.1265  2.4284
 5734SOL     OW28834   1.876   1.004   4.831  0.3451 -0.2784  0.2491
 5734SOL    HW128835   1.842   1.093   4.837  0.5060 -0.1825 -0.2548
 5734SOL    HW228836   1.877   0.968   4.920  1.1268 -1.0672 -0.0857
 5735SOL     OW28837   1.097   4.303  14.241  0.1048 -0.2604  0.0177
 5735SOL    HW128838   1.113   4.384  14.193 -1.0512  0.5059  0.9327
 5735SOL    HW228839   1.062   4.333  14.325 -1.7285  0.0301 -0.8518
 5736SOL     OW28840   2.265   2.239  10.894 -0.1519 -0.2337 -0.6550
 5736SOL    HW128841   2.293   2.330  10.889  1.4672 -0.6446  0.9117
 5736SOL    HW228842   2.326   2.186  10.946  1.1516  0.2118 -1.7550
 5737SOL     OW28843   2.340   2.487   2.185  0.2712  0.1567 -0.2558
 5737SOL    HW128844   2.404   2.475   2.256 -0.0638 -0.2234 -0.0146
 5737SOL    HW228845   2.257   2.499   2.232  0.7456  4.2307 -0.5025
 5738SOL     OW28846   2.027   2.467   6.081 -0.2229 -0.5925  0.0796
 5738SOL    HW128847   2.032   2.410   6.158 -0.7045 -0.2115  0.3885
 5738SOL    HW228848   1.934   2.455   6.062 -0.3555 -1.4408  1.2876
 5739SOL     OW28849   0.500   1.584   8.670 -0.9149 -0.4885 -0.2636
 5739SOL    HW128850   0.497   1.655   8.734  0.3666 -1.3435  0.7438
 5739SOL    HW228851   0.455   1.614   8.591  2.3398 -0.4080 -2.0970
 5740SOL     OW28852   3.942   1.341   8.157 -0.3004  0.0369  0.6108
 5740SOL    HW128853   3.862   1.305   8.119  0.0021  0.9177 -0.8304
 5740SOL    HW228854   4.014   1.302   8.108  1.3515  1.2343  2.0572
 5741SOL     OW28855   1.504   2.421   8.986 -0.7534 -0.1029 -0.3008
 5741SOL    HW128856   1.542   2.361   8.922 -2.1169 -1.9321  0.6026
 5741SOL    HW228857   1.574   2.436   9.049 -0.6709 -0.6397 -0.2685
 5742SOL     OW28858   4.531   3.612   5.058  0.1696 -0.2365  0.5838
 5742SOL    HW128859   4.493   3.572   5.136 -1.5967  1.6151  0.6536
 5742SOL    HW228860   4.532   3.543   4.991  1.6403  1.4961 -1.1700
 5743SOL     OW28861   0.615   1.373   5.211 -0.3548  0.3316 -0.1227
 5743SOL    HW128862   0.691   1.419   5.176  1.6993 -1.3440  2.1880
 5743SOL    HW228863   0.648   1.348   5.297  1.8854 -2.5352 -1.7819
 5744SOL     OW28864   3.769   3.272   9.146  0.2276  1.3710 -0.4891
 5744SOL    HW128865   3.824   3.212   9.096 -1.0823 -1.4917  1.5662
 5744SOL    HW228866   3.820   3.289   9.225 -0.3746 -1.9492  0.5768
 5745SOL     OW28867   4.609   2.353   7.910 -0.1986 -0.2848  0.0276
 5745SOL    HW128868   4.615   2.258   7.912  0.1722 -0.3309 -3.0686
 5745SOL    HW228869   4.565   2.382   7.829  1.8291  1.7381 -0.3337
 5746SOL     OW28870   2.924   4.606  13.412 -0.4128 -0.1005  0.3180
 5746SOL    HW128871   2.972   4.680  13.452 -1.8468  0.1933  1.5023
 5746SOL    HW228872   2.916   4.555  13.493 -0.9492  0.9725  0.9475
 5747SOL     OW28873   0.852   3.856   9.500 -0.0327 -0.3874  0.0783
 5747SOL    HW128874   0.844   3.760   9.500 -2.2397 -0.2038 -1.4271
 5747SOL    HW228875   0.794   3.870   9.575 -0.8575 -2.6151 -0.1137
 5748SOL     OW28876   2.118   0.895   2.015  0.0545  0.4557 -0.7202
 5748SOL    HW128877   2.031   0.896   2.057  1.1167  1.3819  1.4587
 5748SOL    HW228878   2.151   0.984   2.026 -0.2458  0.6233 -1.1580
 5749SOL     OW28879   4.382   2.664  14.659  0.2247 -0.4273 -0.1136
 5749SOL    HW128880   4.339   2.737  14.614 -1.4914 -1.8835 -0.8094
 5749SOL    HW228881   4.312   2.652  14.722  0.4112 -2.3458 -0.2925
 5750SOL     OW28882   0.400   4.019   2.816  0.2752 -0.0174  0.6213
 5750SOL    HW128883   0.484   4.064   2.807  0.4628 -0.8561 -1.8066
 5750SOL    HW228884   0.431   3.929   2.819 -1.7554 -0.7672 -1.0927
 5751SOL     OW28885   4.100   2.968  10.369  0.0477 -0.5238 -0.7167
 5751SOL    HW128886   4.044   2.904  10.325 -0.8560 -0.4392  0.2789
 5751SOL    HW228887   4.156   2.915  10.426 -0.0975  0.4141  0.3115
 5752SOL     OW28888   4.153   4.621   2.907  0.0719  0.1666  0.5120
 5752SOL    HW128889   4.062   4.647   2.920 -0.6187 -2.9319  1.8195
 5752SOL    HW228890   4.183   4.690   2.849 -0.7334 -0.0031 -0.1002
 5753SOL     OW28891   2.864   0.166   1.043  0.2554  0.9843 -0.1464
 5753SOL    HW128892   2.916   0.088   1.065  0.1101  1.1303  0.7075
 5753SOL    HW228893   2.911   0.225   1.103  0.5000 -0.6804  1.2977
 5754SOL     OW28894   1.169   1.408   4.294 -0.0247  0.0611 -0.4168
 5754SOL    HW128895   1.144   1.444   4.379 -0.0450 -1.3042  0.1452
 5754SOL    HW228896   1.137   1.475   4.233  0.0181  2.4614  2.1587
 5755SOL     OW28897   0.401   1.415   6.347  0.1079 -0.2175 -0.2690
 5755SOL    HW128898   0.327   1.358   6.368 -0.1811  0.5673  0.8865
 5755SOL    HW228899   0.445   1.363   6.280  2.3953 -1.4521  2.1872
 5756SOL     OW28900   0.425   1.016   6.330  0.5479  0.1635  0.1519
 5756SOL    HW128901   0.383   1.092   6.370  1.6612  1.0065 -0.2873
 5756SOL    HW228902   0.416   0.948   6.397 -1.7184  1.4841  1.2132
 5757SOL     OW28903   4.630   3.125   7.312  0.2330  0.0737  0.1618
 5757SOL    HW128904   4.688   3.200   7.325  1.0604 -0.5229 -0.1386
 5757SOL    HW228905   4.680   3.045   7.326 -1.5526 -0.9599  0.7050
 5758SOL     OW28906   0.308   1.031   8.228 -0.0161 -0.0158  0.2169
 5758SOL    HW128907   0.369   1.105   8.223 -0.1019  0.1120  1.1204
 5758SOL    HW228908   0.275   1.027   8.318 -0.3548 -0.5621  0.0689
 5759SOL     OW28909   1.809   3.761   4.534  0.1484 -0.0416  0.7098
 5759SOL    HW128910   1.811   3.786   4.626  2.2491 -1.4999  1.0749
 5759SOL    HW228911   1.900   3.762   4.503  0.3761 -0.2781  1.3637
 5760SOL     OW28912   2.898   1.916   9.246  0.4466 -0.3793  0.0378
 5760SOL    HW128913   2.876   1.979   9.178  0.7146 -0.1546  0.1615
 5760SOL    HW228914   2.992   1.929   9.257  0.7061 -1.9693 -0.2697
 5761SOL     OW28915   0.440   4.061   5.720  0.3825  0.4030 -0.3802
 5761SOL    HW128916   0.438   4.031   5.629  0.0320  0.8771 -0.5269
 5761SOL    HW228917   0.480   3.985   5.764 -0.6758 -0.1531 -0.3594
 5762SOL     OW28918   3.935   1.643  16.770  0.1115  0.1709  0.1157
 5762SOL    HW128919   3.898   1.663  16.685  1.1618 -0.2557 -0.4472
 5762SOL    HW228920   4.029   1.645  16.749 -0.0874 -1.1770 -0.8715
 5763SOL     OW28921   1.883   3.083   7.729 -0.3167 -0.6176 -0.2037
 5763SOL    HW128922   1.854   3.100   7.818 -0.6881  0.5413 -0.5509
 5763SOL    HW228923   1.822   3.137   7.679  0.6910  1.5619  0.9575
 5764SOL     OW28924   1.524   3.830   9.242  0.4928 -0.2288 -0.2191
 5764SOL    HW128925   1.477   3.761   9.289 -0.1664  0.5085  0.1883
 5764SOL    HW228926   1.575   3.778   9.180 -0.2203 -1.0222 -0.1432
 5765SOL     OW28927   3.664   3.685   3.713 -0.4988 -0.2911  0.5514
 5765SOL    HW128928   3.673   3.596   3.679  1.1004 -0.4801  1.4756
 5765SOL    HW228929   3.600   3.668   3.783  0.6057 -1.6267  1.2182
 5766SOL     OW28930   4.217   4.633  14.050 -0.0590  0.0528 -0.4440
 5766SOL    HW128931   4.251   4.547  14.026 -0.9470 -0.8026  1.2972
 5766SOL    HW228932   4.215   4.666  13.960  0.5913  0.3749 -0.3336
 5767SOL     OW28933   2.861   2.246   6.718 -0.3661  0.4445 -0.2899
 5767SOL    HW128934   2.913   2.325   6.704 -0.3687  0.1767 -1.7532
 5767SOL    HW228935   2.833   2.261   6.809 -0.5950 -1.7279 -0.0005
 5768SOL     OW28936   0.670   2.066   5.366 -0.7226 -0.3444  1.0119
 5768SOL    HW128937   0.634   2.103   5.447 -1.6491 -1.6550  1.1878
 5768SOL    HW228938   0.725   2.141   5.344 -0.7884 -0.7306 -0.4592
 5769SOL     OW28939   3.146   0.487   1.694 -0.4904  0.1073  0.1560
 5769SOL    HW128940   3.084   0.484   1.621 -0.9676 -1.0901  0.6040
 5769SOL    HW228941   3.136   0.580   1.716  1.2302  0.3844 -0.2444
 5770SOL     OW28942   0.400   0.989  16.533 -0.0829  0.2036  0.3010
 5770SOL    HW128943   0.444   0.936  16.599 -0.2664  0.5960  0.7344
 5770SOL    HW228944   0.331   1.034  16.581 -0.7746 -0.9224  0.3645
 5771SOL     OW28945   3.205   2.731  16.308  0.1969  0.4278  0.1491
 5771SOL    HW128946   3.242   2.715  16.221 -0.8284 -1.1775  0.0040
 5771SOL    HW228947   3.131   2.789  16.288 -1.7373 -2.0956 -0.0422
 5772SOL     OW28948   0.737   3.760   5.366 -0.0069 -0.3847  0.0179
 5772SOL    HW128949   0.648   3.726   5.371  0.3036 -1.2516 -0.2461
 5772SOL    HW228950   0.728   3.852   5.390 -1.0198 -0.0854 -1.5098
 5773SOL     OW28951   3.365   1.015   4.190 -0.3849 -0.1618 -0.4427
 5773SOL    HW128952   3.296   1.056   4.243  0.7936  0.8251  0.3153
 5773SOL    HW228953   3.393   1.097   4.151 -1.7325 -0.0744 -1.2169
 5774SOL     OW28954   0.820   2.825   6.257 -0.1448 -0.0697  0.0185
 5774SOL    HW128955   0.915   2.830   6.263 -0.3086 -1.2156  3.7729
 5774SOL    HW228956   0.804   2.892   6.191  0.8718 -1.9625 -2.1524
 5775SOL     OW28957   1.536   2.176   7.799 -0.5112  0.1800 -0.2331
 5775SOL    HW128958   1.488   2.215   7.726 -0.3004  3.4654  1.4234
 5775SOL    HW228959   1.508   2.086   7.782  1.6150 -0.4557 -0.3373
 5776SOL     OW28960   0.004   0.088   7.978 -0.3557 -0.4954 -0.0378
 5776SOL    HW128961   4.655   0.131   7.996  0.3417  1.3719 -1.2045
 5776SOL    HW228962   0.034   0.078   8.068 -2.9788 -2.0629  0.6725
 5777SOL     OW28963   0.762   1.987   7.716 -0.0853  0.1574  0.2129
 5777SOL    HW128964   0.832   1.925   7.738 -1.3016 -1.4857 -0.5598
 5777SOL    HW228965   0.748   2.033   7.799 -0.4952 -0.0591  0.2600
 5778SOL     OW28966   4.547   2.589   3.474 -0.6454  0.4014  0.2368
 5778SOL    HW128967   4.555   2.499   3.504  1.6165  0.5061 -0.0302
 5778SOL    HW228968   4.533   2.642   3.553 -2.1939 -0.1791  0.3494
 5779SOL     OW28969   2.581   2.140   1.972 -0.6955  0.2906  0.0580
 5779SOL    HW128970   2.542   2.201   2.035  1.3782  2.0566 -0.3810
 5779SOL    HW228971   2.542   2.057   1.999  1.8117 -0.3004  1.8340
 5780SOL     OW28972   1.831   0.536   3.968  0.0156 -0.1961  0.6760
 5780SOL    HW128973   1.802   0.447   3.946  0.4853 -0.6393  1.8686
 5780SOL    HW228974   1.908   0.526   4.023  0.2209 -0.5374  0.3294
 5781SOL     OW28975   2.032   0.394   3.718  0.1785 -0.1186 -0.7326
 5781SOL    HW128976   1.967   0.463   3.710  0.7625  0.4004 -1.0612
 5781SOL    HW228977   2.058   0.368   3.630 -0.5169 -1.2573 -0.5888
 5782SOL     OW28978   3.485   0.993   5.029  0.1804  0.1515  0.1763
 5782SOL    HW128979   3.505   1.079   5.065 -1.3050 -0.2334  1.9550
 5782SOL    HW228980   3.403   1.014   4.983  0.2583  1.0404  0.4611
 5783SOL     OW28981   3.041   0.529   3.492  0.1096  0.0781 -0.0457
 5783SOL    HW128982   2.986   0.451   3.480  0.7903 -0.1459 -1.6236
 5783SOL    HW228983   3.124   0.492   3.463 -0.7791 -1.8176 -0.1704
 5784SOL     OW28984   4.136   2.199   2.920  0.0794  0.2725  0.2099
 5784SOL    HW128985   4.188   2.266   2.876  0.1884  0.1483  0.1501
 5784SOL    HW228986   4.150   2.135   2.850 -4.4164  1.8252 -2.1260
 5785SOL     OW28987   0.884   1.124   2.995  0.2579 -0.0607  0.0132
 5785SOL    HW128988   0.952   1.188   3.014  2.4363 -2.6078  0.7771
 5785SOL    HW228989   0.881   1.097   3.087  0.1305 -0.3875 -0.0876
 5786SOL     OW28990   4.165   2.802  11.835 -0.2499 -0.0514 -0.0560
 5786SOL    HW128991   4.214   2.822  11.915  0.1936  1.7381 -0.7709
 5786SOL    HW228992   4.226   2.752  11.781 -0.6540 -0.5018 -0.0902
 5787SOL     OW28993   2.917   1.843  11.596  0.4617 -0.1746 -0.1727
 5787SOL    HW128994   2.855   1.827  11.667 -0.7851  0.7027 -1.0653
 5787SOL    HW228995   2.888   1.780  11.530  1.6902 -1.7927  0.8147
 5788SOL     OW28996   4.538   3.938   2.481 -0.2044 -0.4394 -0.2378
 5788SOL    HW128997   4.633   3.926   2.477 -0.2720 -1.2577  0.7435
 5788SOL    HW228998   4.510   3.867   2.423  0.5342 -0.3814 -0.6631
 5789SOL     OW28999   4.454   3.397   9.640  0.1828  0.3424  0.4118
 5789SOL    HW129000   4.386   3.368   9.701  0.6588  0.0199  0.7813
 5789SOL    HW229001   4.515   3.324   9.641 -0.9465 -0.5988  0.5908
 5790SOL     OW29002   3.303   1.796   9.441  0.5866 -0.7853  0.1204
 5790SOL    HW129003   3.224   1.742   9.444  1.2694 -1.8010 -0.3454
 5790SOL    HW229004   3.373   1.737   9.415  1.4191  1.0478 -1.8616
 5791SOL     OW29005   0.919   0.940   4.794 -0.3403 -0.1851 -0.1278
 5791SOL    HW129006   0.880   0.906   4.714 -1.6141  1.0018 -0.0071
 5791SOL    HW229007   0.925   1.031   4.766 -0.7155 -0.1703 -0.1556
 5792SOL     OW29008   0.487   2.839   8.317 -0.2493  0.4961  0.0969
 5792SOL    HW129009   0.418   2.834   8.251  1.0329  1.6279 -1.3227
 5792SOL    HW229010   0.438   2.900   8.372  0.7109  2.4408 -1.2196
 5793SOL     OW29011   2.412   0.941   6.429 -0.1404 -0.3847  0.0729
 5793SOL    HW129012   2.403   0.885   6.506  1.0473  0.8653  1.1170
 5793SOL    HW229013   2.493   0.993   6.433 -0.7901  0.6264  0.1673
 5794SOL     OW29014   3.197   1.475   6.206 -1.0284  0.3360  0.5032
 5794SOL    HW129015   3.163   1.386   6.214 -0.3537  0.0021 -0.3479
 5794SOL    HW229016   3.205   1.503   6.297  1.6733 -0.8225  0.6173
 5795SOL     OW29017   1.579   4.135   8.762 -0.2594 -0.0089  0.0095
 5795SOL    HW129018   1.652   4.102   8.711 -0.0047 -0.9883  0.9852
 5795SOL    HW229019   1.613   4.137   8.852 -0.3732 -4.4455  0.1373
 5796SOL     OW29020   1.862   2.264   6.800 -0.9526 -0.0116  0.1477
 5796SOL    HW129021   1.829   2.181   6.835 -0.5273 -0.8511 -1.4311
 5796SOL    HW229022   1.817   2.262   6.715 -0.3678 -2.1676 -0.1181
 5797SOL     OW29023   0.930   2.106   1.626 -0.2718  0.1034 -0.8087
 5797SOL    HW129024   0.857   2.167   1.613 -0.3515  0.0914 -0.4140
 5797SOL    HW229025   0.881   2.034   1.667  0.0444 -0.3053 -1.1562
 5798SOL     OW29026   2.186   3.419  10.468  0.4877  0.0004  0.2610
 5798SOL    HW129027   2.157   3.430  10.559 -1.7290  0.3524 -0.4818
 5798SOL    HW229028   2.120   3.368  10.421  1.8137 -1.0880 -0.4321
 5799SOL     OW29029   2.280   0.010  17.268 -0.6015  0.3058 -0.3077
 5799SOL    HW129030   2.191   0.043  17.276 -0.1974  1.2031  0.5429
 5799SOL    HW229031   2.325   0.032  17.350 -1.4937  0.2332  0.1960
 5800SOL     OW29032   0.254   2.486   3.675  0.1535  0.4538  0.2556
 5800SOL    HW129033   0.305   2.475   3.756  0.0375  2.6352  0.6225
 5800SOL    HW229034   0.207   2.567   3.693 -0.2074  0.0309  1.2154
 5801SOL     OW29035   4.011   2.363   6.404  0.1103  0.5760  0.0343
 5801SOL    HW129036   4.062   2.444   6.412  1.6208 -0.3905  0.3548
 5801SOL    HW229037   4.044   2.317   6.482 -0.7524  0.4088  0.2972
 5802SOL     OW29038   4.062   3.696   2.090 -0.3876  0.0739  0.2525
 5802SOL    HW129039   3.999   3.753   2.132  0.3376 -0.1428  1.6461
 5802SOL    HW229040   4.063   3.616   2.143 -2.9140 -0.9563 -1.2742
 5803SOL     OW29041   4.508   0.043   4.848 -0.2839  0.3940  0.3985
 5803SOL    HW129042   4.555   0.018   4.769  1.9480  0.8949  1.5601
 5803SOL    HW229043   4.585   0.041   4.905  0.3782  1.8863 -0.4539
 5804SOL     OW29044   0.432   2.539  16.144  0.3772  0.1520 -0.5248
 5804SOL    HW129045   0.378   2.609  16.181  2.0759  0.8729  0.5779
 5804SOL    HW229046   0.520   2.573  16.156 -0.4453  1.9229  0.4796
 5805SOL     OW29047   0.281   1.933   6.258  0.3000  0.2322  0.2532
 5805SOL    HW129048   0.263   1.987   6.181 -1.7057 -2.6838 -1.3432
 5805SOL    HW229049   0.282   1.994   6.331  1.7484 -1.5308  1.6954
 5806SOL     OW29050   3.003   3.167   7.309  0.5182 -0.1922  0.0204
 5806SOL    HW129051   3.073   3.229   7.328  1.0560 -0.6490 -0.4842
 5806SOL    HW229052   3.043   3.117   7.238 -2.5777 -3.0737  0.3545
 5807SOL     OW29053   0.683   2.011   4.776  0.1227 -0.0166  0.5043
 5807SOL    HW129054   0.591   1.988   4.764 -0.6881  2.8518  1.3258
 5807SOL    HW229055   0.684   2.033   4.869  0.3987 -0.7563  0.6769
 5808SOL     OW29056   1.189   0.997   7.166  0.3250 -0.5309 -0.2267
 5808SOL    HW129057   1.243   0.981   7.089  1.5602  0.1612  0.4761
 5808SOL    HW229058   1.232   1.080   7.189  2.0176 -1.2779 -0.7139
 5809SOL     OW29059   3.627   0.572   5.138  0.0953 -0.2402  0.3920
 5809SOL    HW129060   3.565   0.580   5.066 -0.1812 -0.1786  0.6385
 5809SOL    HW229061   3.599   0.487   5.173  1.8812 -1.4354 -1.0554
 5810SOL     OW29062   3.220   2.094   5.592  0.3692  0.1367 -0.3654
 5810SOL    HW129063   3.204   2.155   5.520  0.3880  1.4129  0.7244
 5810SOL    HW229064   3.193   2.151   5.664 -0.1436 -2.3877  1.4560
 5811SOL     OW29065   0.068   2.098  10.704  0.1053  0.4350 -0.1480
 5811SOL    HW129066   0.030   2.182  10.730  2.2760  1.0082  1.1076
 5811SOL    HW229067   0.140   2.093  10.767 -0.0336 -0.9610 -0.0961
 5812SOL     OW29068   2.021   0.498  10.217 -0.6433  0.1098 -0.0628
 5812SOL    HW129069   1.988   0.577  10.174  0.4919  1.5881  1.7592
 5812SOL    HW229070   2.044   0.439  10.146 -0.1729 -0.0761  0.2444
 5813SOL     OW29071   4.439   4.320   2.964 -0.3259  0.0578  0.5344
 5813SOL    HW129072   4.481   4.380   2.902  0.9345 -0.7652  0.6044
 5813SOL    HW229073   4.393   4.273   2.894  1.3498 -1.9470  0.7847
 5814SOL     OW29074   0.133   0.546   4.003  0.3301  0.4650 -0.4119
 5814SOL    HW129075   0.070   0.500   4.059  0.3807  3.1804  1.8448
 5814SOL    HW229076   0.215   0.543   4.052 -0.9257 -0.7174  1.6496
 5815SOL     OW29077   3.662   0.587   8.127  0.0627  0.7803 -0.5908
 5815SOL    HW129078   3.713   0.582   8.208 -1.6882  0.4560  0.4732
 5815SOL    HW229079   3.705   0.512   8.085  2.1314  0.3059  2.3731
 5816SOL     OW29080   1.726   0.564  12.438  0.9323  0.1614 -0.4697
 5816SOL    HW129081   1.702   0.618  12.514 -0.5665 -1.4045  0.1880
 5816SOL    HW229082   1.668   0.599  12.370  0.4773  0.4244  0.0516
 5817SOL     OW29083   1.045   0.757  10.031  0.1137  0.3044  0.0783
 5817SOL    HW129084   1.057   0.688  10.095 -0.1706 -0.2790 -0.4972
 5817SOL    HW229085   1.023   0.704   9.954 -2.1737  0.3784  0.7092
 5818SOL     OW29086   3.909   1.485   5.334  0.2677  0.0355 -0.4920
 5818SOL    HW129087   3.905   1.459   5.426  1.2435 -0.8154 -0.6960
 5818SOL    HW229088   3.883   1.413   5.277  0.5911  0.2520 -0.9132
 5819SOL     OW29089   0.919   0.692  12.128 -0.1642  0.3416 -0.0579
 5819SOL    HW129090   0.876   0.615  12.166 -1.0284  0.8269 -0.0609
 5819SOL    HW229091   0.986   0.651  12.073  1.0858  1.6102  0.5256
 5820SOL     OW29092   1.342   1.129   2.222 -0.7548 -0.0999  0.4492
 5820SOL    HW129093   1.339   1.168   2.135 -0.9017  0.1054  0.5443
 5820SOL    HW229094   1.317   1.208   2.270  0.7736  0.2724  0.6214
 5821SOL     OW29095   4.511   2.930   9.900  0.3124  0.0147 -0.5031
 5821SOL    HW129096   4.600   2.946   9.933  0.1295  1.4996 -0.7633
 5821SOL    HW229097   4.452   2.968   9.965  2.0384 -0.1069  1.1209
 5822SOL     OW29098   3.378   3.131   7.182 -0.2032 -0.0817  0.1736
 5822SOL    HW129099   3.384   3.036   7.178  1.9760  0.0305  1.0688
 5822SOL    HW229100   3.376   3.160   7.273 -2.9001  1.5213 -0.3930
 5823SOL     OW29101   2.839   1.447  10.100  0.3215  0.1049  0.6955
 5823SOL    HW129102   2.893   1.436  10.179  1.6198  0.6863 -0.1277
 5823SOL    HW229103   2.897   1.503  10.049  0.7877  0.9419  2.1270
 5824SOL     OW29104   1.669   4.717  15.828 -0.5581 -0.0871 -0.1647
 5824SOL    HW129105   1.592   4.672  15.793 -1.3550 -1.8784  3.8293
 5824SOL    HW229106   1.740   4.656  15.807  0.2740  1.7321 -2.5799
 5825SOL     OW29107   2.276   3.672  17.054  0.0623  0.1931 -0.4256
 5825SOL    HW129108   2.325   3.718  17.123 -0.7000 -0.5073  0.5896
 5825SOL    HW229109   2.351   3.645  17.002  0.5968  0.3350  0.2706
 5826SOL     OW29110   0.775   0.833   8.323 -0.1807 -0.4092  0.1796
 5826SOL    HW129111   0.823   0.904   8.366  1.0854 -0.0816 -1.7346
 5826SOL    HW229112   0.838   0.769   8.357  1.3271  2.0322  1.9164
 5827SOL     OW29113   1.653   1.340   9.455 -1.1870  0.1878 -0.3980
 5827SOL    HW129114   1.729   1.378   9.412 -1.6500  1.0867 -0.4193
 5827SOL    HW229115   1.702   1.281   9.512 -0.2557  0.1347 -1.2563
 5828SOL     OW29116   4.359   2.663   0.402 -0.4203 -0.3769  0.5803
 5828SOL    HW129117   4.445   2.656   0.443  0.6976  0.4139 -1.5933
 5828SOL    HW229118   4.364   2.579   0.357 -1.9041  1.0080 -2.2109
 5829SOL     OW29119   4.541   1.383   7.573  0.4458  0.2592 -0.4750
 5829SOL    HW129120   4.620   1.382   7.626 -0.2892 -2.1863  0.5771
 5829SOL    HW229121   4.577   1.399   7.486 -1.3632  0.2498 -1.2388
 5830SOL     OW29122   1.656   2.389  16.856  0.3058 -0.5549 -0.1331
 5830SOL    HW129123   1.710   2.317  16.887  1.4876 -0.4866 -2.0383
 5830SOL    HW229124   1.586   2.393  16.920 -0.2053  0.3566 -0.7415
 5831SOL     OW29125   4.102   2.804   6.991  0.3475  0.0281  0.0422
 5831SOL    HW129126   4.145   2.745   7.054 -2.0345 -1.8641 -0.0660
 5831SOL    HW229127   4.009   2.798   7.012  0.6981 -1.5413  1.2082
 5832SOL     OW29128   1.732   3.666   2.762 -0.0952 -0.2691  0.6904
 5832SOL    HW129129   1.784   3.632   2.835 -0.0281  0.0875  0.8092
 5832SOL    HW229130   1.730   3.758   2.787 -0.6713 -0.4410  1.2635
 5833SOL     OW29131   3.140   0.240   1.219 -0.5695  0.5353  0.4035
 5833SOL    HW129132   3.068   0.250   1.281 -0.5993  0.0960  0.4453
 5833SOL    HW229133   3.119   0.147   1.204  2.9807  0.1676 -2.4675
 5834SOL     OW29134   3.814   2.675   5.531 -0.1938  0.6364 -0.9469
 5834SOL    HW129135   3.876   2.727   5.480 -0.8934 -0.9854 -3.4420
 5834SOL    HW229136   3.800   2.732   5.606  0.1495 -0.0553 -0.3521
 5835SOL     OW29137   0.318   4.659   2.597 -0.3164  0.1727 -0.3506
 5835SOL    HW129138   0.279   4.732   2.646 -0.9115 -0.4716  0.1205
 5835SOL    HW229139   0.291   4.689   2.510 -0.1893 -0.3175 -0.5550
 5836SOL     OW29140   3.631   3.862   8.432 -0.4287  0.2872 -0.1097
 5836SOL    HW129141   3.628   3.802   8.506  2.8109 -0.2536 -0.4384
 5836SOL    HW229142   3.582   3.937   8.466 -0.6176  0.3609 -0.5352
 5837SOL     OW29143   0.118   3.496   9.121 -0.5641 -0.0149  0.7256
 5837SOL    HW129144   0.073   3.437   9.061  0.4077 -0.7450  0.6947
 5837SOL    HW229145   0.048   3.495   9.187 -0.3405  1.9173  0.9912
 5838SOL     OW29146   4.440   0.035   1.924  0.3912  0.3550 -0.2293
 5838SOL    HW129147   4.390   4.695   1.955 -1.3659  1.3795 -0.5812
 5838SOL    HW229148   4.470   0.075   2.005  0.2052 -1.5387  0.7726
 5839SOL     OW29149   0.974   0.968   2.167  0.3838 -0.0463  0.3424
 5839SOL    HW129150   0.986   1.019   2.247  0.3614  0.2040  0.1842
 5839SOL    HW229151   0.919   1.025   2.114  0.9356 -1.1350 -1.4213
 5840SOL     OW29152   0.352   0.397   4.922 -0.1620  0.1057  0.7460
 5840SOL    HW129153   0.433   0.448   4.922  1.1678 -2.0445 -3.5031
 5840SOL    HW229154   0.315   0.439   5.000  3.3044  5.5600 -0.5332
 5841SOL     OW29155   4.390   4.168   1.211 -0.0552  0.3658 -0.3349
 5841SOL    HW129156   4.303   4.134   1.230  0.8735 -1.2853  1.0120
 5841SOL    HW229157   4.399   4.232   1.282  1.3302  0.4849 -0.6077
 5842SOL     OW29158   1.620   1.597   7.681  0.7104  0.5200  0.0318
 5842SOL    HW129159   1.675   1.548   7.743 -0.5741 -1.9345 -0.7472
 5842SOL    HW229160   1.572   1.523   7.643 -0.7953  1.0545  0.8822
 5843SOL     OW29161   3.047   4.670   4.768  0.8809  0.1126  0.1578
 5843SOL    HW129162   3.060   4.693   4.676  1.1534 -0.6806  0.0053
 5843SOL    HW229163   3.037   0.019   4.814  0.1726  0.2807 -0.2996
 5844SOL     OW29164   0.122   2.957   7.279 -0.5837 -0.0240 -0.6538
 5844SOL    HW129165   0.130   2.878   7.225  0.0208 -0.1880 -0.3227
 5844SOL    HW229166   0.168   3.016   7.219  0.9225 -0.2786  0.2650
 5845SOL     OW29167   2.739   3.695   4.278 -0.3127 -0.5525  0.2357
 5845SOL    HW129168   2.788   3.651   4.348 -0.3553 -0.1023  0.5540
 5845SOL    HW229169   2.767   3.786   4.290  0.0274 -0.7189  0.7213
 5846SOL     OW29170   2.419   2.200  17.703 -0.5345 -0.8087 -0.3797
 5846SOL    HW129171   2.381   2.276   0.007 -0.6575 -1.7552  1.1696
 5846SOL    HW229172   2.468   2.158   0.036 -2.0592 -0.2709  0.9557
 5847SOL     OW29173   2.662   1.219   4.417  0.1303  0.2181  0.2571
 5847SOL    HW129174   2.661   1.267   4.500 -1.2460  0.4121  0.1312
 5847SOL    HW229175   2.601   1.271   4.364 -2.1490 -2.4332  0.2685
 5848SOL     OW29176   4.338   4.615   6.332 -0.3863 -0.4626  0.0891
 5848SOL    HW129177   4.374   4.645   6.248  0.1885 -2.5349 -0.4055
 5848SOL    HW229178   4.347   4.700   6.374 -0.7456 -0.5906  0.4172
 5849SOL     OW29179   3.934   3.627   3.566 -0.4123  0.6529  0.1859
 5849SOL    HW129180   3.904   3.551   3.515  0.4461  1.4688 -1.5318
 5849SOL    HW229181   3.952   3.691   3.498  0.8507  1.2996  1.1366
 5850SOL     OW29182   4.413   3.216   2.518 -0.2302 -0.2412 -0.2511
 5850SOL    HW129183   4.470   3.276   2.470 -0.4891  0.4511  0.3051
 5850SOL    HW229184   4.479   3.181   2.578 -0.7338  0.2476  0.5840
 5851SOL     OW29185   0.400   0.122   0.684 -0.0343  0.1017  0.0105
 5851SOL    HW129186   0.480   0.143   0.637 -0.1568 -0.4363 -0.4470
 5851SOL    HW229187   0.382   0.034   0.650  1.5001 -0.2099 -0.0119
 5852SOL     OW29188   0.494   1.583   3.486  0.1707 -0.3665  0.1574
 5852SOL    HW129189   0.420   1.530   3.455 -0.9366  0.8367  0.7184
 5852SOL    HW229190   0.536   1.593   3.401 -0.9259 -0.2780 -0.3722
 5853SOL     OW29191   3.824   3.988  16.008  0.0227  0.0434 -0.0952
 5853SOL    HW129192   3.791   4.067  15.966  2.2392  0.7184 -0.5379
 5853SOL    HW229193   3.841   4.023  16.095  0.2420  0.9903 -0.5163
 5854SOL     OW29194   2.590   1.471   3.986 -0.3141 -0.5859  0.1070
 5854SOL    HW129195   2.552   1.510   4.065 -0.1384  0.3953 -0.2944
 5854SOL    HW229196   2.636   1.397   4.024 -0.7152  0.6314  2.9579
 5855SOL     OW29197   1.436   1.743   8.462  0.2284 -0.2697  0.1968
 5855SOL    HW129198   1.497   1.802   8.507 -0.4903  1.3515 -0.9851
 5855SOL    HW229199   1.462   1.653   8.485 -0.8839  0.0202  2.6011
 5856SOL     OW29200   3.451   3.217   8.128 -0.4060 -0.4663 -0.0021
 5856SOL    HW129201   3.378   3.264   8.087  0.6619  1.7318  0.6428
 5856SOL    HW229202   3.423   3.126   8.114 -0.3862 -0.5962  0.8203
 5857SOL     OW29203   0.146   2.310   7.923 -0.0323  0.1694 -0.0899
 5857SOL    HW129204   0.153   2.223   7.885 -1.6407  0.2537 -0.5433
 5857SOL    HW229205   0.053   2.330   7.923 -0.2087 -0.6467 -0.8325
 5858SOL     OW29206   4.571   1.789   4.884 -0.5005 -0.5949  0.1008
 5858SOL    HW129207   4.530   1.713   4.926  0.7583 -1.4924 -0.2919
 5858SOL    HW229208   4.649   1.802   4.938 -1.2343 -2.5065  1.6134
 5859SOL     OW29209   2.160   1.776   4.684 -0.3069  0.0266  0.4032
 5859SOL    HW129210   2.112   1.858   4.673  1.4601  0.7195 -2.2434
 5859SOL    HW229211   2.217   1.795   4.758 -0.1694  2.7709 -0.4053
 5860SOL     OW29212   0.530   4.159   4.614  0.5525 -0.1484  0.4223
 5860SOL    HW129213   0.620   4.124   4.611  0.8407  0.5499  0.9415
 5860SOL    HW229214   0.507   4.161   4.707 -2.6699 -0.1648 -0.3915
 5861SOL     OW29215   3.412   1.574  12.313 -0.0494  0.3311 -0.5865
 5861SOL    HW129216   3.343   1.515  12.282 -0.1723  0.5690 -0.7711
 5861SOL    HW229217   3.354   1.639  12.353  0.7761 -0.1561  1.3922
 5862SOL     OW29218   4.108   3.001   8.710 -0.0830 -0.4611 -0.0754
 5862SOL    HW129219   4.177   2.947   8.747 -0.4546 -0.2924  0.8438
 5862SOL    HW229220   4.033   2.956   8.748 -2.1123  1.7761 -1.3730
 5863SOL     OW29221   4.273   0.231   8.210  0.4765 -0.1960  0.2079
 5863SOL    HW129222   4.285   0.266   8.298 -0.1058  3.6006 -1.2219
 5863SOL    HW229223   4.340   0.162   8.207 -0.1444 -0.8080  0.4547
 5864SOL     OW29224   2.706   1.168   5.864 -0.3045  0.1388 -0.0100
 5864SOL    HW129225   2.641   1.098   5.870 -1.4369  1.1457 -0.4457
 5864SOL    HW229226   2.669   1.229   5.928 -0.1613 -1.1129  1.2505
 5865SOL     OW29227   2.007   2.152   2.831 -0.1221  0.3184 -0.0892
 5865SOL    HW129228   2.010   2.236   2.876 -1.1392 -0.1965  0.9416
 5865SOL    HW229229   2.068   2.104   2.886  1.2152  0.7291 -1.2075
 5866SOL     OW29230   3.674   1.962  12.686  0.5323  0.2552 -0.3927
 5866SOL    HW129231   3.589   1.986  12.650 -0.3188  0.0984  1.4736
 5866SOL    HW229232   3.713   2.049  12.675  0.7493  0.2055 -0.0260
 5867SOL     OW29233   3.300   3.079   9.529 -0.0849 -0.3133 -0.5797
 5867SOL    HW129234   3.356   3.104   9.456 -1.5427 -1.4171 -2.0823
 5867SOL    HW229235   3.215   3.112   9.500 -1.2736 -1.7706  1.2562
 5868SOL     OW29236   3.607   0.353   7.790 -0.9414 -0.0460  0.4669
 5868SOL    HW129237   3.539   0.419   7.804  0.4227  1.0702  1.7211
 5868SOL    HW229238   3.653   0.393   7.717 -1.2963  1.8824  1.3069
 5869SOL     OW29239   0.698   3.829   4.158  0.9422  0.0915 -0.5635
 5869SOL    HW129240   0.607   3.859   4.150  0.5667 -0.3821  1.9928
 5869SOL    HW229241   0.748   3.889   4.214 -1.3405  1.1821  0.3437
 5870SOL     OW29242   4.110   2.710   4.905  0.4566 -0.1425 -0.4442
 5870SOL    HW129243   4.093   2.746   4.818  1.6844 -2.8469 -1.7941
 5870SOL    HW229244   4.137   2.620   4.888 -0.0860 -0.4233  0.1957
 5871SOL     OW29245   1.138   3.828   3.454 -0.5311  0.9435 -0.1194
 5871SOL    HW129246   1.091   3.790   3.528  0.3458  0.8787  0.4133
 5871SOL    HW229247   1.206   3.880   3.497  1.1391 -0.3006 -1.2352
 5872SOL     OW29248   0.895   3.343   1.439  0.0571 -0.7788 -0.1330
 5872SOL    HW129249   0.877   3.433   1.466 -1.1032 -0.5347 -1.7567
 5872SOL    HW229250   0.820   3.289   1.463 -0.1397  0.1071  1.2141
 5873SOL     OW29251   2.029   3.473  14.677 -0.8485 -0.2647 -0.0421
 5873SOL    HW129252   1.949   3.483  14.627 -0.1154 -0.0276 -1.1788
 5873SOL    HW229253   2.004   3.394  14.726 -2.5448 -0.1587 -0.7562
 5874SOL     OW29254   3.374   2.282   8.474  0.1326 -0.2751  0.1393
 5874SOL    HW129255   3.286   2.258   8.504  0.5822 -2.1323 -0.0255
 5874SOL    HW229256   3.406   2.317   8.557 -0.7186 -1.1378  0.8340
 5875SOL     OW29257   3.934   1.919   0.845 -0.0281 -0.1213  0.0802
 5875SOL    HW129258   3.917   1.870   0.764  0.7595 -1.3075  0.6332
 5875SOL    HW229259   3.934   2.012   0.821 -0.3511 -0.7407 -2.2901
 5876SOL     OW29260   3.648   0.662   8.586  0.0850 -0.2394  0.4602
 5876SOL    HW129261   3.622   0.609   8.661  3.0015  0.3647  1.9071
 5876SOL    HW229262   3.601   0.624   8.512  1.8115  1.7098 -1.6412
 5877SOL     OW29263   1.113   4.310  16.428  0.2097  0.0221  0.3525
 5877SOL    HW129264   1.146   4.236  16.378  0.5611  0.7059 -0.4262
 5877SOL    HW229265   1.047   4.267  16.484  0.7704 -1.5295 -0.1782
 5878SOL     OW29266   1.553   0.172   4.458  0.2662  0.6224 -0.4479
 5878SOL    HW129267   1.522   0.213   4.378 -0.0459 -0.0160 -0.6542
 5878SOL    HW229268   1.513   0.086   4.444  0.5111  0.6179 -1.0785
 5879SOL     OW29269   1.513   1.733   1.865 -0.0749  0.1984  0.0789
 5879SOL    HW129270   1.430   1.686   1.868  0.3805 -0.7708 -2.6650
 5879SOL    HW229271   1.553   1.704   1.783  0.1601 -0.3361  0.3842
 5880SOL     OW29272   0.285   3.616  11.746  0.0914 -0.9100 -0.3334
 5880SOL    HW129273   0.278   3.543  11.807 -0.0451  0.0084  0.7450
 5880SOL    HW229274   0.241   3.572  11.673  1.4866 -2.8196 -0.0260
 5881SOL     OW29275   2.300   0.688   2.698  0.5523 -0.0579 -0.0867
 5881SOL    HW129276   2.254   0.621   2.646  0.5354  1.0179 -1.4538
 5881SOL    HW229277   2.278   0.773   2.660 -1.7212 -0.8212 -0.4502
 5882SOL     OW29278   0.007   0.045   7.242  0.0120 -0.5983  0.4633
 5882SOL    HW129279   4.690   0.107   7.293 -1.1552 -3.0844  2.3090
 5882SOL    HW229280   0.094   0.058   7.281  0.1531 -1.3089  0.3886
 5883SOL     OW29281   0.436   1.218  16.379  0.4244 -0.3294  0.2877
 5883SOL    HW129282   0.399   1.133  16.404  1.4836  0.6621  5.1261
 5883SOL    HW229283   0.520   1.227  16.424 -0.2255  1.9263  1.0848
 5884SOL     OW29284   2.561   2.274   8.276 -0.4858 -0.0561  0.2263
 5884SOL    HW129285   2.467   2.266   8.289 -0.2797 -3.1867 -0.3984
 5884SOL    HW229286   2.591   2.230   8.197 -0.5208 -0.2154  0.3031
 5885SOL     OW29287   2.832   4.018   7.246 -0.3042  0.4146  0.3275
 5885SOL    HW129288   2.757   4.034   7.303 -0.3925 -0.6667  0.5246
 5885SOL    HW229289   2.819   4.086   7.180 -0.0704 -0.8273 -1.0044
 5886SOL     OW29290   4.356   2.582   4.194 -0.3343  0.3112  0.3761
 5886SOL    HW129291   4.409   2.569   4.273 -1.4814  1.1351  1.2997
 5886SOL    HW229292   4.273   2.543   4.223  0.4652  1.4212  4.1515
 5887SOL     OW29293   4.035   4.480   2.551 -0.6729  0.5081 -0.4782
 5887SOL    HW129294   4.126   4.504   2.570 -1.2980  1.5782  1.0791
 5887SOL    HW229295   4.038   4.386   2.570  1.2550  0.8267  0.8311
 5888SOL     OW29296   2.043   2.648   7.308 -0.7444 -0.3819  0.8977
 5888SOL    HW129297   2.137   2.634   7.321 -0.0099  1.4822 -2.3286
 5888SOL    HW229298   2.028   2.579   7.243  1.6259 -0.3016  0.2598
 5889SOL     OW29299   2.697   2.068   4.349 -0.5031 -0.3360  0.1906
 5889SOL    HW129300   2.775   2.101   4.305 -1.4103 -2.5259 -3.0009
 5889SOL    HW229301   2.679   1.986   4.302  1.0069 -1.1724  1.0793
 5890SOL     OW29302   0.518   4.104   3.128 -0.0189 -0.2730  0.7318
 5890SOL    HW129303   0.438   4.102   3.076 -1.8686  2.8058  3.4049
 5890SOL    HW229304   0.583   4.142   3.070  2.3076 -5.0252  0.2920
 5891SOL     OW29305   2.365   2.445   3.025  0.4640 -0.0960  0.3185
 5891SOL    HW129306   2.434   2.481   2.969 -0.1277 -0.3408 -0.5674
 5891SOL    HW229307   2.396   2.356   3.037  1.7297  0.2433 -0.4795
 5892SOL     OW29308   4.003   3.549   2.893  0.1170  0.4559  0.0942
 5892SOL    HW129309   4.062   3.612   2.935  1.5329 -0.1046 -1.0371
 5892SOL    HW229310   4.061   3.490   2.845 -0.9702 -1.0908  0.6762
 5893SOL     OW29311   2.475   0.084   0.676 -0.9014  0.1950 -0.1811
 5893SOL    HW129312   2.445   0.155   0.619 -0.8009  0.8367  0.5566
 5893SOL    HW229313   2.454   0.003   0.629 -0.8972  0.2190 -0.2246
 5894SOL     OW29314   1.516   4.125   2.573  0.3343 -0.0064 -0.0797
 5894SOL    HW129315   1.449   4.107   2.639  1.4620  2.0362  1.6386
 5894SOL    HW229316   1.533   4.036   2.543  0.0366 -0.6876  1.7945
 5895SOL     OW29317   2.840   0.734  10.802  0.3321  0.0702 -0.4141
 5895SOL    HW129318   2.880   0.804  10.854 -0.8216  0.2600  0.2215
 5895SOL    HW229319   2.919   0.682  10.789  1.3283  0.8843  2.4774
 5896SOL     OW29320   2.425   2.972   4.317  0.1495  0.1111  0.1777
 5896SOL    HW129321   2.492   2.921   4.271  0.8654 -0.3120  1.7059
 5896SOL    HW229322   2.379   3.011   4.242  2.4922 -1.1729 -1.9200
 5897SOL     OW29323   4.477   1.022   6.273  0.7929 -0.4629 -0.8922
 5897SOL    HW129324   4.539   0.975   6.329 -1.3163  1.1661  2.8038
 5897SOL    HW229325   4.526   1.013   6.191  0.1152 -1.8045 -1.1535
 5898SOL     OW29326   0.728   2.436   5.223  0.5914 -0.0864 -0.6504
 5898SOL    HW129327   0.735   2.384   5.144  1.1413 -1.1500  0.0991
 5898SOL    HW229328   0.654   2.401   5.273  1.3184 -0.1524  0.3873
 5899SOL     OW29329   3.435   1.124  16.215 -0.4865  0.0089 -0.6525
 5899SOL    HW129330   3.399   1.212  16.228  2.1451  1.0693 -0.5958
 5899SOL    HW229331   3.526   1.145  16.194 -0.0744 -0.4090  0.7304
 5900SOL     OW29332   4.517   2.328   3.533  0.5989 -0.2698  0.0800
 5900SOL    HW129333   4.428   2.302   3.508  0.6778 -0.8027  0.3464
 5900SOL    HW229334   4.527   2.275   3.612  1.2139 -0.2691  0.0049
 5901SOL     OW29335   1.241   0.695   5.700 -0.0542 -0.2299 -0.3510
 5901SOL    HW129336   1.302   0.659   5.764 -1.4738 -1.1291  0.4888
 5901SOL    HW229337   1.202   0.615   5.665 -0.1100 -0.7897  1.0212
 5902SOL     OW29338   1.951   0.747   7.522 -0.5184 -0.1529  0.1112
 5902SOL    HW129339   2.045   0.762   7.508 -0.1310 -1.4201  1.4322
 5902SOL    HW229340   1.950   0.721   7.614  0.0397 -3.8722 -0.9329
 5903SOL     OW29341   3.468   3.427  12.232  0.8227 -0.1334 -0.1981
 5903SOL    HW129342   3.524   3.379  12.293  0.4765  0.6905  0.7816
 5903SOL    HW229343   3.519   3.506  12.215 -1.0320  1.3334  1.0272
 5904SOL     OW29344   3.049   1.422   4.841 -0.3668 -0.2634  0.2207
 5904SOL    HW129345   3.067   1.336   4.801 -0.9921 -0.7203  0.9186
 5904SOL    HW229346   3.097   1.470   4.773 -1.5756 -0.1566 -0.5496
 5905SOL     OW29347   2.728   2.180   7.761  0.6009 -0.2289 -0.9229
 5905SOL    HW129348   2.643   2.212   7.790 -0.0432 -1.8245 -1.0142
 5905SOL    HW229349   2.781   2.259   7.755 -0.5798  0.5944 -0.5454
 5906SOL     OW29350   1.044   3.985  14.440 -0.4270 -0.1209 -0.0338
 5906SOL    HW129351   0.952   4.010  14.434  0.0756  1.7882  0.0849
 5906SOL    HW229352   1.071   4.032  14.519 -0.7134  0.3199 -0.1962
 5907SOL     OW29353   4.617   2.180   6.327  0.0644 -0.0541  0.2647
 5907SOL    HW129354   4.705   2.195   6.293  0.5629 -0.2866  1.4388
 5907SOL    HW229355   4.585   2.268   6.346 -0.8375 -0.1759 -0.7253
 5908SOL     OW29356   1.459   2.427  11.753  0.7330  0.2533  0.9753
 5908SOL    HW129357   1.403   2.427  11.831  0.6174  1.8475  0.8815
 5908SOL    HW229358   1.425   2.502  11.705 -1.7547 -2.0391 -0.8811
 5909SOL     OW29359   0.712   3.903  10.408  0.3186  0.1406  0.4357
 5909SOL    HW129360   0.739   3.853  10.485  0.1071 -0.0930  0.3578
 5909SOL    HW229361   0.627   3.921  10.448 -0.7015 -2.5507 -0.5296
 5910SOL     OW29362   3.143   3.014   8.296 -0.0041  0.3764 -0.3369
 5910SOL    HW129363   3.162   2.950   8.364 -1.2298 -2.2083 -2.4634
 5910SOL    HW229364   3.207   2.978   8.235 -1.0853 -1.6903 -0.2320
 5911SOL     OW29365   2.662   3.537   4.951  0.0363  0.0452  0.2813
 5911SOL    HW129366   2.686   3.551   4.860  2.4955  1.3734  1.1317
 5911SOL    HW229367   2.567   3.529   4.940  0.0030  3.4077 -1.9339
 5912SOL     OW29368   0.434   2.753   8.680 -0.2333 -0.1526  0.3611
 5912SOL    HW129369   0.485   2.694   8.624 -1.7411 -0.9835 -0.1318
 5912SOL    HW229370   0.370   2.693   8.719  0.0469 -0.4778  0.3183
 5913SOL     OW29371   1.335   0.367   4.815 -0.1637 -0.5884 -0.2351
 5913SOL    HW129372   1.404   0.376   4.881 -2.2971  0.1189  1.8837
 5913SOL    HW229373   1.262   0.341   4.871 -2.3643 -0.1575 -2.8896
 5914SOL     OW29374   3.827   1.587  15.541 -0.1229 -0.1766  0.2188
 5914SOL    HW129375   3.882   1.641  15.598 -2.4025  1.1871  1.1159
 5914SOL    HW229376   3.802   1.651  15.474 -2.4215  0.2813  1.5027
 5915SOL     OW29377   0.959   2.946  10.542 -0.5326  0.8417  0.1179
 5915SOL    HW129378   0.989   2.901  10.621  0.2001 -1.8766 -1.7062
 5915SOL    HW229379   0.990   2.883  10.476  1.4334  0.6934  1.1920
 5916SOL     OW29380   1.426   1.259   6.587  0.1251 -0.5878 -0.1193
 5916SOL    HW129381   1.500   1.202   6.609 -0.7377 -1.3125  0.9133
 5916SOL    HW229382   1.476   1.335   6.557 -2.5856  0.8902 -0.9022
 5917SOL     OW29383   0.972   2.702   6.702 -0.3943 -0.0296 -0.6181
 5917SOL    HW129384   0.898   2.642   6.698  0.5259 -1.1185 -1.4683
 5917SOL    HW229385   1.003   2.700   6.612  0.6472  0.8099 -0.2816
 5918SOL     OW29386   1.263   3.480   3.572 -0.4805 -0.3586 -0.2522
 5918SOL    HW129387   1.202   3.545   3.538 -1.6038 -2.6179 -2.5021
 5918SOL    HW229388   1.280   3.506   3.663  0.2629 -1.7842  0.0135
 5919SOL     OW29389   3.834   1.828  14.412 -0.8559 -0.3284  0.1033
 5919SOL    HW129390   3.907   1.884  14.438 -3.1228  2.6220  0.2009
 5919SOL    HW229391   3.812   1.881  14.335 -0.7416 -0.0927  0.2310
 5920SOL     OW29392   2.686   0.736   2.743  0.1669  0.1800 -1.2211
 5920SOL    HW129393   2.681   0.831   2.737  0.5072  0.4103  2.5488
 5920SOL    HW229394   2.611   0.718   2.800  0.8048 -2.2905 -1.1473
 5921SOL     OW29395   1.984   2.621   0.586  0.1709  0.5304  0.2916
 5921SOL    HW129396   2.058   2.565   0.562  1.5406  2.0700  0.8838
 5921SOL    HW229397   1.973   2.600   0.679  0.6124 -0.2631  0.1646
 5922SOL     OW29398   2.442   3.924   5.728 -0.1931  0.3713 -0.2605
 5922SOL    HW129399   2.487   3.963   5.653  1.4299  3.1296  2.1495
 5922SOL    HW229400   2.350   3.947   5.715  0.4025  2.5122 -0.6726
 5923SOL     OW29401   3.502   0.630   6.886  0.0246  0.6261 -0.1057
 5923SOL    HW129402   3.517   0.721   6.913  2.7091  0.0655  0.2984
 5923SOL    HW229403   3.595   0.607   6.881 -0.2312 -0.5377  0.6919
 5924SOL     OW29404   4.644   3.796  14.223  0.3189 -0.0152 -0.0700
 5924SOL    HW129405   4.636   3.716  14.170 -2.3482 -0.6541  1.2848
 5924SOL    HW229406   4.588   3.773  14.297  1.0076  2.4410  1.2075
 5925SOL     OW29407   2.182   2.182   9.973  0.4968 -0.1630 -0.0874
 5925SOL    HW129408   2.109   2.222  10.020 -1.8374 -3.9144 -0.4378
 5925SOL    HW229409   2.146   2.188   9.884  0.9525  0.8733 -0.1898
 5926SOL     OW29410   1.512   0.495   9.882 -0.2043 -0.3133  0.3924
 5926SOL    HW129411   1.419   0.496   9.905 -0.0594  1.0331  0.8674
 5926SOL    HW229412   1.524   0.400   9.891  2.5885  0.0528  0.3471
 5927SOL     OW29413   3.687   2.676   5.266 -0.0278  0.5186  0.1629
 5927SOL    HW129414   3.733   2.597   5.297 -0.4297 -0.5402 -1.9072
 5927SOL    HW229415   3.750   2.694   5.196 -0.7481  0.4243 -0.5126
 5928SOL     OW29416   1.470   2.227   0.845  0.3199 -0.4458  0.3154
 5928SOL    HW129417   1.541   2.250   0.906  1.4215  0.0400 -1.1359
 5928SOL    HW229418   1.508   2.171   0.777  0.3888 -0.2703  0.2084
 5929SOL     OW29419   3.928   2.554   6.695  0.0678 -0.1933  0.4824
 5929SOL    HW129420   3.906   2.646   6.708 -1.6447 -0.6875  1.1107
 5929SOL    HW229421   3.841   2.516   6.681 -0.4213  0.8647  0.6919
 5930SOL     OW29422   1.824   1.269   7.676  0.4999 -0.1628 -0.7659
 5930SOL    HW129423   1.775   1.199   7.632  0.2854 -1.1756  1.0711
 5930SOL    HW229424   1.891   1.267   7.608  1.4750  1.3547  0.1607
 5931SOL     OW29425   1.604   3.399   5.718  0.0686 -0.1397  0.1023
 5931SOL    HW129426   1.682   3.352   5.747  0.2118 -1.4558 -2.4605
 5931SOL    HW229427   1.631   3.491   5.724  1.4150 -0.5666  0.6978
 5932SOL     OW29428   0.444   1.239   8.117 -0.4723 -0.0251 -0.1534
 5932SOL    HW129429   0.430   1.296   8.193  2.9576  2.0190 -1.0750
 5932SOL    HW229430   0.528   1.278   8.093  0.0421 -1.5647 -0.8256
 5933SOL     OW29431   0.960   4.220   8.788  0.0395 -0.1833  0.2939
 5933SOL    HW129432   1.018   4.208   8.863 -0.9609  0.4432  1.1656
 5933SOL    HW229433   1.018   4.206   8.713 -0.9613  0.4196 -0.5994
 5934SOL     OW29434   3.387   0.504  14.126 -0.3148 -0.1078 -0.0145
 5934SOL    HW129435   3.417   0.413  14.126  0.4409  0.1354  0.3902
 5934SOL    HW229436   3.302   0.513  14.084 -0.0436 -0.4192 -0.6303
 5935SOL     OW29437   3.125   4.580  10.404  0.1514  0.0511 -0.1594
 5935SOL    HW129438   3.219   4.596  10.394  0.1644  0.5288  0.7226
 5935SOL    HW229439   3.127   4.485  10.413  0.1853  0.0936  0.2486
 5936SOL     OW29440   1.943   1.301   8.196 -0.0554  0.1090 -0.0631
 5936SOL    HW129441   2.029   1.263   8.214  0.4726  1.2657 -0.1860
 5936SOL    HW229442   1.930   1.251   8.115  1.6797  1.2576 -1.0412
 5937SOL     OW29443   0.861   1.301   0.525 -0.5180 -0.3795  0.4507
 5937SOL    HW129444   0.824   1.328   0.441  2.3869  1.7913 -0.1231
 5937SOL    HW229445   0.950   1.293   0.491 -1.7197 -0.0585 -2.7692
 5938SOL     OW29446   0.884   0.573   5.790  0.8473  0.3872  0.8950
 5938SOL    HW129447   0.840   0.634   5.849  3.1865 -0.4038  3.4698
 5938SOL    HW229448   0.861   0.610   5.704  2.5475  0.7719  0.6003
 5939SOL     OW29449   3.103   3.090   2.962 -0.2603  0.2047 -0.2456
 5939SOL    HW129450   3.034   3.039   3.004 -0.7934 -0.1934 -1.5879
 5939SOL    HW229451   3.123   3.047   2.879 -1.1933  0.7195 -0.7445
 5940SOL     OW29452   3.954   0.771   2.182  0.0190 -0.4483 -0.1388
 5940SOL    HW129453   4.026   0.784   2.121 -0.6834  0.5260 -0.7575
 5940SOL    HW229454   3.977   0.683   2.211 -0.5554 -1.4152 -2.6720
 5941SOL     OW29455   0.843   0.297   6.096  0.1283  0.0534  0.2805
 5941SOL    HW129456   0.758   0.325   6.061 -0.6241 -1.0907  1.2011
 5941SOL    HW229457   0.869   0.353   6.169 -0.0815 -1.3432  1.4094
 5942SOL     OW29458   0.637   3.081   2.396 -0.0559  0.1759  0.5706
 5942SOL    HW129459   0.718   3.044   2.361 -1.0211  0.7141 -2.2511
 5942SOL    HW229460   0.578   3.010   2.422  0.3553 -0.7642 -1.0649
 5943SOL     OW29461   3.600   1.173   9.256  0.1420  0.2066  0.7218
 5943SOL    HW129462   3.665   1.242   9.264  0.5164 -0.2174  1.3283
 5943SOL    HW229463   3.652   1.092   9.253 -2.9377 -1.7291 -0.7531
 5944SOL     OW29464   2.681   3.799   5.483  0.6421  0.6845  0.0031
 5944SOL    HW129465   2.665   3.727   5.544  1.9957 -0.3067 -0.8058
 5944SOL    HW229466   2.706   3.756   5.401 -1.3262  0.8381 -0.6626
 5945SOL     OW29467   1.926   1.824   8.153  0.3453 -0.4492  1.0030
 5945SOL    HW129468   1.965   1.849   8.070  0.0291  0.0348  0.9984
 5945SOL    HW229469   1.912   1.910   8.192 -1.2520 -0.7211  1.0486
 5946SOL     OW29470   2.783   4.562   5.917 -0.1671  0.2376 -0.4647
 5946SOL    HW129471   2.703   4.534   5.871 -1.6630  0.0664  2.2031
 5946SOL    HW229472   2.775   4.656   5.927 -1.2433 -0.0284  1.1567
 5947SOL     OW29473   1.377   1.933   7.675  0.2841 -0.0992  0.3354
 5947SOL    HW129474   1.306   1.905   7.733 -0.8545  0.1550 -0.9336
 5947SOL    HW229475   1.337   1.954   7.591 -0.4948 -1.1501  0.4376
 5948SOL     OW29476   2.108   4.318   7.822 -0.2737  0.1767  0.5228
 5948SOL    HW129477   2.094   4.385   7.756 -0.4163 -1.3880 -1.0387
 5948SOL    HW229478   2.028   4.265   7.816 -0.0999 -0.0937  0.5952
 5949SOL     OW29479   0.191   4.705   8.550  0.1163 -0.1005  0.1872
 5949SOL    HW129480   0.162   0.051   8.507 -4.1005 -0.9470  1.4097
 5949SOL    HW229481   0.214   4.656   8.471  0.4920  0.6416 -0.1655
 5950SOL     OW29482   2.110   4.476   4.730 -0.8859  0.5425 -0.6431
 5950SOL    HW129483   2.153   4.560   4.748 -0.9664  0.3264  0.5637
 5950SOL    HW229484   2.060   4.458   4.809  0.1356 -1.1373 -0.3746
 5951SOL     OW29485   2.106   1.812  17.594 -0.0682 -0.3497 -0.2544
 5951SOL    HW129486   2.188   1.765  17.607  0.4693  0.5166 -0.4760
 5951SOL    HW229487   2.138   1.897  17.563 -1.3843 -1.3474 -4.3165
 5952SOL     OW29488   2.455   3.941   3.764  0.3349  0.0198 -0.0571
 5952SOL    HW129489   2.385   3.974   3.706 -1.9795 -0.2485  2.5811
 5952SOL    HW229490   2.489   4.026   3.793  1.2920 -0.6965  0.8773
 5953SOL     OW29491   1.872   1.701   3.335 -0.4782 -0.1048 -0.0987
 5953SOL    HW129492   1.964   1.725   3.341 -0.7237  0.9214 -0.4097
 5953SOL    HW229493   1.871   1.608   3.315 -0.0015 -0.2491  0.5382
 5954SOL     OW29494   1.286   1.687   3.854  0.2117 -0.5852 -0.0073
 5954SOL    HW129495   1.320   1.775   3.842  0.3221 -0.7738 -1.0851
 5954SOL    HW229496   1.356   1.655   3.911  0.3777  0.3083  0.2922
 5955SOL     OW29497   3.347   1.158   7.218 -0.3642 -0.2288  0.0769
 5955SOL    HW129498   3.365   1.191   7.306  1.4724 -1.9403  0.3416
 5955SOL    HW229499   3.327   1.242   7.176  0.5560 -0.1673 -0.2335
 5956SOL     OW29500   4.500   2.584   2.143 -0.5696 -0.0265 -0.4735
 5956SOL    HW129501   4.431   2.649   2.154 -0.7028 -0.0043 -1.4860
 5956SOL    HW229502   4.453   2.522   2.088 -0.5052 -0.5509  0.0549
 5957SOL     OW29503   3.273   2.369   3.690 -0.0719  0.5851 -0.2943
 5957SOL    HW129504   3.354   2.320   3.679 -0.9072 -0.7870 -0.3592
 5957SOL    HW229505   3.254   2.396   3.600 -1.1748 -1.9250 -0.8045
 5958SOL     OW29506   2.363   1.700  10.765  0.0468  0.1796 -0.2641
 5958SOL    HW129507   2.422   1.776  10.768 -0.1955  0.3594 -0.0128
 5958SOL    HW229508   2.280   1.730  10.728 -1.5260 -1.1209  2.2020
 5959SOL     OW29509   3.260   2.020   1.997 -0.3891 -0.0491 -0.2038
 5959SOL    HW129510   3.309   1.941   2.021 -0.8245  0.0927  1.1721
 5959SOL    HW229511   3.262   2.026   1.902  0.2214 -2.5140 -0.3494
 5960SOL     OW29512   2.535   0.489  12.895  0.3428  0.6007 -0.3226
 5960SOL    HW129513   2.460   0.431  12.886  0.1306  1.0222 -1.2305
 5960SOL    HW229514   2.505   0.567  12.849  0.9920  1.5404  0.8337
 5961SOL     OW29515   0.836   4.022   9.293  1.0423  0.0145 -0.6447
 5961SOL    HW129516   0.829   3.960   9.366 -1.0013  1.2346  0.2026
 5961SOL    HW229517   0.819   4.109   9.330 -0.6372 -1.0646  1.1273
 5962SOL     OW29518   4.438   3.794   3.730 -0.1548 -0.0763 -0.2018
 5962SOL    HW129519   4.413   3.722   3.672 -2.8994  0.6470  0.0877
 5962SOL    HW229520   4.463   3.743   3.807  0.9480  0.8780  0.0691
 5963SOL     OW29521   3.259   2.022   5.085 -0.4070  0.4712  0.3643
 5963SOL    HW129522   3.342   2.008   5.040 -1.2496  0.1818 -1.1112
 5963SOL    HW229523   3.275   1.968   5.162 -1.1024 -1.4607 -0.8400
 5964SOL     OW29524   1.502   4.430   1.115 -0.3381 -0.1327  0.6773
 5964SOL    HW129525   1.419   4.456   1.155  0.4157  0.8168  1.6355
 5964SOL    HW229526   1.479   4.341   1.087 -1.5716  0.4931 -0.3128
 5965SOL     OW29527   4.595   2.151  13.081  0.6562 -0.2884 -0.3010
 5965SOL    HW129528   4.531   2.221  13.073  1.5670  0.6631  0.7901
 5965SOL    HW229529   4.553   2.103  13.153 -2.3880  1.2950 -1.0456
 5966SOL     OW29530   0.644   1.855  10.375  0.7505  0.2818  0.3312
 5966SOL    HW129531   0.551   1.831  10.364  1.0336 -1.1371  1.0738
 5966SOL    HW229532   0.692   1.814  10.303  1.6365  0.6236  0.7339
 5967SOL     OW29533   4.326   3.565   1.845 -0.6746  0.2689 -0.0198
 5967SOL    HW129534   4.282   3.528   1.768  1.0961  4.3482 -2.9536
 5967SOL    HW229535   4.414   3.540   1.820 -0.1889  2.5034 -0.5550
 5968SOL     OW29536   2.891   2.674   3.857 -0.7208  0.3182  0.6190
 5968SOL    HW129537   2.931   2.615   3.922 -2.6651 -0.6128  0.9602
 5968SOL    HW229538   2.956   2.676   3.787 -0.6789 -1.9786  0.5869
 5969SOL     OW29539   4.558   4.221   7.173 -0.4631 -0.4399 -0.0794
 5969SOL    HW129540   4.523   4.294   7.223  1.7104  0.0899  0.6577
 5969SOL    HW229541   4.527   4.144   7.221 -1.3384  0.5928  0.9921
 5970SOL     OW29542   0.458   1.345   4.652  0.0245 -0.2617 -0.2533
 5970SOL    HW129543   0.372   1.387   4.647  0.9306  1.6431  0.3743
 5970SOL    HW229544   0.443   1.262   4.696  0.5601 -1.2564 -1.9253
 5971SOL     OW29545   3.376   1.461   1.323  0.6666  0.0245 -0.6927
 5971SOL    HW129546   3.344   1.542   1.284  0.6345  0.5272  0.3650
 5971SOL    HW229547   3.340   1.475   1.411  2.9557 -0.4652  0.3156
 5972SOL     OW29548   2.239   1.658  15.805  0.3269  0.2085  0.2545
 5972SOL    HW129549   2.279   1.726  15.750  3.2099  0.1806  2.3044
 5972SOL    HW229550   2.289   1.580  15.780  0.4875  0.1210  0.8463
 5973SOL     OW29551   0.140   3.886   8.863 -0.0085  0.3063 -0.5932
 5973SOL    HW129552   0.144   3.898   8.958  0.8258  2.5386 -0.9135
 5973SOL    HW229553   0.144   3.977   8.833 -2.7320  0.6944  0.2488
 5974SOL     OW29554   3.748   1.206   8.000  0.0981 -0.3266  0.8968
 5974SOL    HW129555   3.782   1.139   7.941 -0.1463 -1.4416  2.0265
 5974SOL    HW229556   3.690   1.145   8.045 -1.5562 -0.0043 -0.7768
 5975SOL     OW29557   0.507   2.725   5.707 -0.0549 -0.3137  0.2222
 5975SOL    HW129558   0.578   2.789   5.708  2.1534 -2.7359  0.0920
 5975SOL    HW229559   0.443   2.787   5.672 -0.7643 -0.8411  0.5849
 5976SOL     OW29560   1.437   1.038   5.032  0.4540  0.0853  0.0274
 5976SOL    HW129561   1.494   1.093   4.978 -0.7504  3.0687  1.8149
 5976SOL    HW229562   1.450   0.954   4.988 -0.5077  0.2607 -0.5892
 5977SOL     OW29563   0.697   1.074   4.998 -0.1267 -0.3756  0.4858
 5977SOL    HW129564   0.602   1.081   5.005 -0.4982 -2.7866 -2.1544
 5977SOL    HW229565   0.711   0.985   4.967  1.7484 -0.1352  0.5936
 5978SOL     OW29566   4.330   2.455  15.520 -1.1898 -0.0712  0.0755
 5978SOL    HW129567   4.404   2.515  15.515 -2.4157  1.3572 -1.2659
 5978SOL    HW229568   4.286   2.491  15.597  0.1285 -0.6158  1.0728
 5979SOL     OW29569   2.607   3.502   3.608  0.0753  0.0540  0.2436
 5979SOL    HW129570   2.620   3.596   3.600  1.5534 -0.2415 -0.7742
 5979SOL    HW229571   2.666   3.482   3.680 -1.4854 -2.5442  0.8292
 5980SOL     OW29572   4.298   1.984  14.164 -0.5428  0.1898  0.2205
 5980SOL    HW129573   4.336   1.913  14.112  1.1507  0.8433  0.5582
 5980SOL    HW229574   4.294   1.932  14.244  0.2057  0.7030  0.5908
 5981SOL     OW29575   1.559   2.969   3.423 -0.6723  0.2903 -0.4835
 5981SOL    HW129576   1.557   2.953   3.328 -1.1067 -1.0922 -0.2500
 5981SOL    HW229577   1.500   2.899   3.451 -0.0467  0.4898  1.3588
 5982SOL     OW29578   0.083   4.196   6.090  0.0501 -0.0403 -0.5146
 5982SOL    HW129579   0.101   4.283   6.055 -1.1313  0.6195  0.5319
 5982SOL    HW229580   0.119   4.139   6.022  0.8429 -0.7491  0.4846
 5983SOL     OW29581   4.571   2.039   1.602 -0.2972 -0.3941  0.6829
 5983SOL    HW129582   4.627   1.963   1.588  1.4784  1.2773 -1.4088
 5983SOL    HW229583   4.546   2.071   1.515 -0.9801 -1.7627  0.3894
 5984SOL     OW29584   2.391   1.356   9.514 -0.3735 -0.1734  0.2926
 5984SOL    HW129585   2.414   1.265   9.495 -0.8335 -0.2936  0.3146
 5984SOL    HW229586   2.446   1.377   9.590 -1.6882  1.1111  0.8767
 5985SOL     OW29587   2.226   1.009   3.786  0.1632 -0.0814  0.3480
 5985SOL    HW129588   2.285   0.979   3.717  1.1942 -2.3443  2.2148
 5985SOL    HW229589   2.257   1.097   3.808  2.5414 -1.0082  0.6954
 5986SOL     OW29590   0.001   0.774   8.613  0.0778  0.4840  0.1742
 5986SOL    HW129591   0.035   0.788   8.701  0.0287 -1.2666  0.4812
 5986SOL    HW229592   0.052   0.695   8.592  1.8507  1.4231  0.9299
 5987SOL     OW29593   1.747   2.447   6.102  0.4129 -0.6333  0.7403
 5987SOL    HW129594   1.697   2.414   6.028  1.2169 -3.5255  1.4941
 5987SOL    HW229595   1.726   2.385   6.171  1.3009 -0.8818  0.7875
 5988SOL     OW29596   4.274   4.660  12.474 -0.1832  0.8831 -0.1234
 5988SOL    HW129597   4.261   0.000  12.416  0.2386  0.4259 -0.8071
 5988SOL    HW229598   4.369   4.655  12.475 -0.3305 -1.9281  0.9826
 5989SOL     OW29599   1.710   1.777  12.555  0.5956 -0.1956 -0.1457
 5989SOL    HW129600   1.659   1.697  12.570  0.5752 -0.3699 -1.1944
 5989SOL    HW229601   1.672   1.811  12.474 -0.9429 -3.1875 -0.6545
 5990SOL     OW29602   4.522   3.684   8.749 -0.4745 -0.1011  0.6205
 5990SOL    HW129603   4.592   3.623   8.726 -0.9535 -0.1803 -0.6347
 5990SOL    HW229604   4.553   3.699   8.838  2.3339 -1.2360 -0.1693
 5991SOL     OW29605   0.201   2.018  14.766  0.0151  0.7483 -0.2653
 5991SOL    HW129606   0.275   1.958  14.774 -0.6345 -0.0903 -0.5572
 5991SOL    HW229607   0.238   2.106  14.759  0.4155  0.6075  0.0869
 5992SOL     OW29608   2.084   0.649   2.324 -0.3745 -0.7082 -0.5267
 5992SOL    HW129609   2.175   0.661   2.300  0.2359 -0.6715  1.8050
 5992SOL    HW229610   2.062   0.558   2.303  1.1998 -1.1137 -0.3552
 5993SOL     OW29611   3.081   3.743   1.154  0.0476  0.1739  0.0694
 5993SOL    HW129612   3.173   3.769   1.147 -0.3660  1.0028 -2.3734
 5993SOL    HW229613   3.086   3.647   1.147 -0.7710  0.1519 -0.1683
 5994SOL     OW29614   4.601   1.799   2.815 -0.5549  0.1016 -0.5345
 5994SOL    HW129615   4.649   1.830   2.738 -0.1546  1.0405  0.0877
 5994SOL    HW229616   4.662   1.734   2.850 -0.2907  1.8850  2.3066
 5995SOL     OW29617   0.162   3.780   5.902 -0.1901  0.1399  0.5033
 5995SOL    HW129618   0.067   3.781   5.885 -0.0109  0.0928 -0.5397
 5995SOL    HW229619   0.155   3.809   5.993  2.0837 -0.5692  0.8966
 5996SOL     OW29620   1.984   2.805   5.315  0.0837  0.1866 -0.1701
 5996SOL    HW129621   1.915   2.816   5.249 -0.0471 -2.2090 -0.4313
 5996SOL    HW229622   1.966   2.719   5.352 -1.5628  1.0265  0.9397
 5997SOL     OW29623   0.156   1.113   3.094 -0.2720 -0.4355 -0.1408
 5997SOL    HW129624   0.249   1.115   3.073 -0.5221 -2.9443 -1.5826
 5997SOL    HW229625   0.149   1.032   3.145 -1.5109 -1.3609 -1.7449
 5998SOL     OW29626   1.940   0.350   5.122  0.6026 -0.2585  0.1666
 5998SOL    HW129627   1.896   0.303   5.051 -0.7519  0.9027  0.2396
 5998SOL    HW229628   1.871   0.378   5.182 -0.6958 -2.2507 -0.4253
 5999SOL     OW29629   0.285   1.472   3.355  0.7193 -0.3621  0.0009
 5999SOL    HW129630   0.306   1.380   3.338 -0.7387 -0.5465 -0.8002
 5999SOL    HW229631   0.268   1.497   3.264  1.8075  1.3482  0.2780
 6000SOL     OW29632   3.117   1.404  11.294 -0.2022  0.5814  0.6049
 6000SOL    HW129633   3.038   1.377  11.246  0.4565 -1.2088  0.5346
 6000SOL    HW229634   3.178   1.380  11.225  0.7539 -0.8379  1.9284
 6001SOL     OW29635   1.409   0.951  13.282  1.0523 -0.3516 -0.1999
 6001SOL    HW129636   1.319   0.939  13.311  0.9464 -2.1907 -1.3289
 6001SOL    HW229637   1.434   1.033  13.325 -0.3836  0.3451 -0.6758
 6002SOL     OW29638   2.129   4.563   3.889  0.2674  0.3741 -0.3160
 6002SOL    HW129639   2.207   4.614   3.912 -1.6345  2.4325  1.5892
 6002SOL    HW229640   2.074   4.629   3.846  0.9700  1.1706  0.0146
 6003SOL     OW29641   0.470   1.961   1.308  0.1404  0.0673  0.5196
 6003SOL    HW129642   0.478   1.965   1.404 -0.0002  1.2739  0.4821
 6003SOL    HW229643   0.457   2.055   1.292  1.0021  0.1466  0.2481
 6004SOL     OW29644   1.274   1.655   1.417  0.1886 -0.3585 -0.0749
 6004SOL    HW129645   1.292   1.744   1.385 -3.0171 -0.0011 -0.8130
 6004SOL    HW229646   1.302   1.681   1.505 -0.2392  1.1382 -0.3788
 6005SOL     OW29647   0.143   4.456   7.497  0.2324  0.0966 -0.0955
 6005SOL    HW129648   0.132   4.550   7.509  2.6015  0.2789  0.5516
 6005SOL    HW229649   0.062   4.416   7.529  0.1324 -0.1367 -0.6387
 6006SOL     OW29650   1.734   0.204   7.991  0.4597 -0.2648 -0.9956
 6006SOL    HW129651   1.807   0.188   8.051  1.2524 -0.6655 -2.0701
 6006SOL    HW229652   1.761   0.289   7.957 -0.1608  0.4702  0.3223
 6007SOL     OW29653   1.897   2.941   4.021 -0.2407  0.0733  0.0246
 6007SOL    HW129654   1.920   3.033   4.006  0.9330  0.1533  2.2307
 6007SOL    HW229655   1.802   2.947   4.021 -0.2588 -0.0387  1.7903
 6008SOL     OW29656   0.197   0.757   1.453  0.1196 -0.2197  0.0940
 6008SOL    HW129657   0.133   0.828   1.443  0.1058 -0.4834 -1.6032
 6008SOL    HW229658   0.261   0.766   1.382 -3.5150 -0.3267 -3.1469
 6009SOL     OW29659   4.593   4.185   9.555 -0.3263  0.4653 -0.3171
 6009SOL    HW129660   4.562   4.268   9.520 -0.2014  0.3594 -0.6799
 6009SOL    HW229661   4.686   4.196   9.574  0.1271 -1.4494 -1.4838
 6010SOL     OW29662   4.352   1.667  10.711 -0.5563 -0.3327 -0.5772
 6010SOL    HW129663   4.389   1.756  10.713  1.1461 -1.0642  0.6835
 6010SOL    HW229664   4.316   1.666  10.623 -2.1090  0.1830  0.0570
 6011SOL     OW29665   1.336   0.457   3.743 -0.0017  1.0501 -0.8013
 6011SOL    HW129666   1.363   0.533   3.793 -1.5579 -0.8777  3.0194
 6011SOL    HW229667   1.250   0.453   3.786  0.2366  1.1345 -0.3128
 6012SOL     OW29668   0.075   4.176  15.591  0.2765 -0.5703 -0.3750
 6012SOL    HW129669   0.113   4.259  15.560 -0.4375  0.4832  1.5848
 6012SOL    HW229670   0.090   4.121  15.514  0.6514 -1.2370  0.1779
 6013SOL     OW29671   2.085   0.081   2.167 -0.3599  0.0709  0.1704
 6013SOL    HW129672   2.099   0.107   2.076 -2.0579 -0.7742 -0.3320
 6013SOL    HW229673   1.999   0.040   2.157  0.4352 -1.7479  0.7192
 6014SOL     OW29674   4.113   0.487   4.197 -0.3691  0.3300  0.4369
 6014SOL    HW129675   4.173   0.539   4.143  0.3418  1.2307  2.1132
 6014SOL    HW229676   4.176   0.433   4.244  0.3502  2.1144  1.5187
 6015SOL     OW29677   0.415   4.587  11.012 -0.6616  0.3884 -0.1338
 6015SOL    HW129678   0.429   4.581  10.918 -0.7935 -2.4196  0.0195
 6015SOL    HW229679   0.429   4.493  11.023 -0.2343  0.2452 -1.8675
 6016SOL     OW29680   2.488   4.080   4.169  0.1003 -0.1989  0.3335
 6016SOL    HW129681   2.427   4.140   4.125 -1.6185 -0.7779  1.9349
 6016SOL    HW229682   2.457   3.992   4.145 -3.2347  1.2341 -0.7016
 6017SOL     OW29683   1.611   1.972   0.928 -0.2255  0.0124 -0.0941
 6017SOL    HW129684   1.685   1.934   0.882 -0.1802 -1.7213  1.4054
 6017SOL    HW229685   1.646   1.976   1.017  0.6899  0.0916 -0.4660
 6018SOL     OW29686   0.682   1.700   5.741  0.2730 -0.5472 -0.1450
 6018SOL    HW129687   0.638   1.624   5.779  0.0905  0.5770  1.9107
 6018SOL    HW229688   0.728   1.670   5.663 -0.8019 -1.3771 -0.4621
 6019SOL     OW29689   1.071   1.572  10.757  0.1645 -0.0782  0.4366
 6019SOL    HW129690   1.127   1.629  10.810 -2.0559  0.0531  2.6632
 6019SOL    HW229691   0.992   1.559  10.810  0.4256  0.5701  0.9861
 6020SOL     OW29692   1.661   1.975  13.731 -0.4965 -0.3498 -0.4277
 6020SOL    HW129693   1.725   2.041  13.761 -1.3080  0.1791  0.1624
 6020SOL    HW229694   1.709   1.943  13.655  2.8319  1.0817  1.0545
 6021SOL     OW29695   1.235   2.492   3.274  0.3927 -0.7033 -0.4254
 6021SOL    HW129696   1.219   2.547   3.197  0.1997  0.4120  0.4160
 6021SOL    HW229697   1.144   2.466   3.290 -0.3190  1.0028 -1.6801
 6022SOL     OW29698   3.580   2.835   1.773 -0.4100  0.4344 -0.3237
 6022SOL    HW129699   3.607   2.744   1.762  0.3382  0.4367  1.6127
 6022SOL    HW229700   3.623   2.856   1.855  0.7936 -0.0962 -0.8242
 6023SOL     OW29701   0.934   0.859  12.353 -0.3913 -0.4189  0.1186
 6023SOL    HW129702   0.841   0.880  12.348  0.0718  0.3404 -4.9676
 6023SOL    HW229703   0.942   0.801  12.277  0.6184 -0.6385  0.3931
 6024SOL     OW29704   0.465   0.013  14.168  0.2847 -0.2159 -0.4191
 6024SOL    HW129705   0.454   0.025  14.262 -1.2611  0.3246 -0.6795
 6024SOL    HW229706   0.513   0.095  14.156  0.5776 -0.7075 -2.6323
 6025SOL     OW29707   1.574   0.123   2.407  0.1523  0.6149 -0.1792
 6025SOL    HW129708   1.570   0.119   2.311  0.0279 -1.4757 -0.0945
 6025SOL    HW229709   1.619   0.042   2.432 -1.9717  0.5647  3.5185
 6026SOL     OW29710   4.568   2.256  14.468 -0.1445 -0.6541 -0.2870
 6026SOL    HW129711   4.622   2.292  14.398 -0.6163 -1.1862 -0.9238
 6026SOL    HW229712   4.555   2.331  14.527 -1.7500 -0.5772 -0.7441
 6027SOL     OW29713   2.511   1.071  13.482  0.1143  0.5147  0.9112
 6027SOL    HW129714   2.510   1.013  13.558  3.2020  1.7204  1.8677
 6027SOL    HW229715   2.605   1.092  13.483  0.0700  0.6656  2.2277
 6028SOL     OW29716   3.205   1.813  12.704  0.0151 -0.8431 -0.3408
 6028SOL    HW129717   3.151   1.782  12.632 -0.0705  2.8950 -1.8783
 6028SOL    HW229718   3.136   1.848  12.760  0.2210  2.0213 -1.8751
 6029SOL     OW29719   0.824   2.072   5.732  0.2447 -0.1981 -0.2151
 6029SOL    HW129720   0.850   1.980   5.727 -1.8232 -0.7447 -1.3273
 6029SOL    HW229721   0.877   2.095   5.808  2.1328 -0.4399 -1.4499
 6030SOL     OW29722   1.128   3.917   7.747 -0.0797  0.1483 -0.2261
 6030SOL    HW129723   1.121   3.875   7.834 -1.4952  1.2093  0.1651
 6030SOL    HW229724   1.207   3.872   7.717  1.4814  1.5107  1.8791
 6031SOL     OW29725   0.484   3.227   8.602 -1.0464 -0.3981 -0.4353
 6031SOL    HW129726   0.417   3.245   8.669  0.2695  0.7695  0.5726
 6031SOL    HW229727   0.416   3.219   8.536 -0.2122 -0.7426 -1.2446
 6032SOL     OW29728   3.327   0.570   2.255  0.9190  0.0062  0.0416
 6032SOL    HW129729   3.295   0.634   2.191  0.1301  1.5920  2.0027
 6032SOL    HW229730   3.242   0.537   2.284  0.5780 -0.3624 -1.4059
 6033SOL     OW29731   0.038   3.389   5.485 -0.4563  0.3667  0.3993
 6033SOL    HW129732   0.091   3.394   5.565  0.1826  0.1479 -0.0165
 6033SOL    HW229733   0.072   3.308   5.449 -1.6117  0.8090 -1.6661
 6034SOL     OW29734   4.432   0.157   5.290  0.6512 -0.8433  0.2462
 6034SOL    HW129735   4.494   0.111   5.347 -0.3884 -3.2041 -0.5210
 6034SOL    HW229736   4.355   0.151   5.346 -0.0940 -0.2883 -0.7243
 6035SOL     OW29737   2.161   4.003   9.516  0.1287  0.4408 -0.1040
 6035SOL    HW129738   2.226   3.975   9.580  0.7851  0.5851 -0.7061
 6035SOL    HW229739   2.083   3.966   9.557  0.1126  1.2908  0.6422
 6036SOL     OW29740   3.945   3.241  16.313 -0.0807  0.4202  0.1608
 6036SOL    HW129741   3.963   3.310  16.250 -0.3508 -0.3919 -0.8036
 6036SOL    HW229742   4.028   3.207  16.347  1.6636  1.9070 -2.6269
 6037SOL     OW29743   0.321   1.289  13.263  0.2691  0.5561  0.0254
 6037SOL    HW129744   0.279   1.375  13.261  2.9279  1.8331 -0.8379
 6037SOL    HW229745   0.406   1.296  13.309  0.1778 -0.0094  0.2763
 6038SOL     OW29746   1.579   0.123  12.622  0.1893  0.1311 -0.1013
 6038SOL    HW129747   1.576   0.082  12.708  2.4009 -1.7336 -0.8998
 6038SOL    HW229748   1.593   0.213  12.651 -0.9292  0.1982  0.2028
 6039SOL     OW29749   0.516   2.407   8.956 -0.0724 -0.4577 -0.1631
 6039SOL    HW129750   0.467   2.333   8.920 -1.0493  0.2312 -0.2452
 6039SOL    HW229751   0.601   2.390   8.916 -0.1739 -3.1318  0.8097
 6040SOL     OW29752   4.182   1.767  15.324  0.2309  0.6503 -0.1109
 6040SOL    HW129753   4.165   1.861  15.314  0.8894  0.9222  1.1593
 6040SOL    HW229754   4.266   1.763  15.279 -0.4720 -0.6002 -1.2792
 6041SOL     OW29755   4.107   2.294   9.465 -0.2290  0.2128  0.2798
 6041SOL    HW129756   4.198   2.290   9.434 -0.4697 -0.5501 -0.3318
 6041SOL    HW229757   4.113   2.251   9.550 -2.3814  1.6920  1.1486
 6042SOL     OW29758   0.886   2.495   5.526 -0.0492 -0.4061  0.0896
 6042SOL    HW129759   0.878   2.542   5.442  3.3547 -0.9807 -0.5569
 6042SOL    HW229760   0.963   2.546   5.551  0.0569 -0.3990 -0.2550
 6043SOL     OW29761   2.473   4.193   3.847  0.0683  0.2568  0.1154
 6043SOL    HW129762   2.418   4.260   3.806  0.0687  0.0284 -0.2538
 6043SOL    HW229763   2.520   4.252   3.906  2.2313 -1.1248 -0.2500
 6044SOL     OW29764   2.197   3.371   7.560 -0.3169  0.2279 -0.0061
 6044SOL    HW129765   2.116   3.417   7.537  0.0031  0.5797 -0.4292
 6044SOL    HW229766   2.169   3.319   7.635 -1.9580  0.1492 -0.6752
 6045SOL     OW29767   3.507   0.686  16.880 -0.6244 -0.7259 -0.2066
 6045SOL    HW129768   3.459   0.620  16.829 -3.5972  3.1767 -2.5120
 6045SOL    HW229769   3.577   0.630  16.914 -0.5384 -0.2906  0.3241
 6046SOL     OW29770   3.657   2.278   9.387 -0.2710 -0.3067 -0.1323
 6046SOL    HW129771   3.673   2.369   9.410  2.6360 -0.5357 -1.1796
 6046SOL    HW229772   3.688   2.280   9.296 -1.8705  1.7731 -0.6265
 6047SOL     OW29773   2.668   4.725  12.371  0.1526 -0.1899 -0.2332
 6047SOL    HW129774   2.702   0.058  12.430 -1.4645 -2.1494  2.9810
 6047SOL    HW229775   2.721   0.006  12.293  0.0494  1.4343  0.0159
 6048SOL     OW29776   1.687   2.163   2.485 -0.6752  0.3870  0.8178
 6048SOL    HW129777   1.700   2.194   2.575 -0.4913  1.0958  0.5426
 6048SOL    HW229778   1.751   2.092   2.489 -1.0992 -0.0127  0.4868
 6049SOL     OW29779   0.808   0.828   7.319 -0.3202 -0.0142  0.0515
 6049SOL    HW129780   0.879   0.804   7.260 -1.1373 -1.5713 -0.2912
 6049SOL    HW229781   0.858   0.881   7.382  0.4944  3.0157 -3.1731
 6050SOL     OW29782   4.272   4.374   5.728  0.1616  0.6069  0.1612
 6050SOL    HW129783   4.262   4.301   5.788 -1.4020 -0.4158 -1.3596
 6050SOL    HW229784   4.349   4.415   5.769 -0.2745  0.7965  0.7971
 6051SOL     OW29785   0.289   1.851   3.816  0.2469  0.0776  0.7505
 6051SOL    HW129786   0.310   1.828   3.725  2.1772  2.6903  0.5387
 6051SOL    HW229787   0.315   1.942   3.802 -0.9358  0.2266 -0.4281
 6052SOL     OW29788   2.959   4.624   3.090  0.6415 -0.7418 -0.3039
 6052SOL    HW129789   2.879   4.655   3.048 -0.2636 -2.1590  0.3817
 6052SOL    HW229790   2.984   4.697   3.148  2.7137 -0.4572 -1.5492
 6053SOL     OW29791   1.117   0.665  10.538  0.1296  0.2433 -1.0637
 6053SOL    HW129792   1.040   0.611  10.524  1.6697 -2.1464 -0.2543
 6053SOL    HW229793   1.092   0.724  10.609  0.3994  0.4979 -1.1806
 6054SOL     OW29794   1.505   0.690   8.325 -0.7915 -0.1136  0.0456
 6054SOL    HW129795   1.557   0.728   8.396 -0.9266 -0.1322  0.1563
 6054SOL    HW229796   1.575   0.686   8.261 -0.3332  1.3586  0.4579
 6055SOL     OW29797   0.183   3.704   0.338  0.3956 -0.0040  0.2525
 6055SOL    HW129798   0.223   3.733   0.420  1.6337 -0.7796 -0.0825
 6055SOL    HW229799   0.154   3.789   0.306  1.1355 -0.5611 -1.9120
 6056SOL     OW29800   1.939   2.570  15.431  0.8813 -0.5840  0.5167
 6056SOL    HW129801   1.877   2.530  15.370 -0.6592  1.2467  0.9033
 6056SOL    HW229802   1.887   2.549  15.508 -0.1343  0.5756  0.1423
 6057SOL     OW29803   0.174   1.579   3.126  0.0413  0.5435 -0.0380
 6057SOL    HW129804   0.134   1.659   3.160  0.9462  0.8731  0.2462
 6057SOL    HW229805   0.136   1.571   3.038 -1.2366 -0.4915  0.6050
 6058SOL     OW29806   4.081   4.064   8.238 -0.3290 -0.5750  0.1114
 6058SOL    HW129807   4.046   3.975   8.236 -1.4070 -0.1484  0.2004
 6058SOL    HW229808   4.175   4.046   8.241 -0.7982 -3.2376 -0.8335
 6059SOL     OW29809   3.675   3.442  17.416 -0.6280  0.1456 -0.5003
 6059SOL    HW129810   3.627   3.525  17.423 -1.7569 -0.4615 -1.0557
 6059SOL    HW229811   3.660   3.428  17.322  3.6189 -1.7228 -0.8918
 6060SOL     OW29812   1.147   3.293   5.239 -0.0004 -0.1588  0.2858
 6060SOL    HW129813   1.216   3.233   5.265 -1.6741 -0.9594  2.8483
 6060SOL    HW229814   1.071   3.266   5.291 -0.1226 -0.8647 -0.2618
 6061SOL     OW29815   3.218   2.332   8.191  0.6443  0.3334  0.0894
 6061SOL    HW129816   3.205   2.352   8.284 -1.5676 -0.9002  0.0481
 6061SOL    HW229817   3.161   2.255   8.191  0.0618  0.7899 -2.7048
 6062SOL     OW29818   2.870   1.148   2.646 -0.2017  0.4189  0.0744
 6062SOL    HW129819   2.781   1.112   2.644 -0.0019  0.1144 -2.3690
 6062SOL    HW229820   2.880   1.162   2.741  1.4334  1.6903 -0.2875
 6063SOL     OW29821   3.152   4.711  16.789  0.5353  0.1675 -0.3765
 6063SOL    HW129822   3.096   4.636  16.765  1.0750 -0.3546  0.0055
 6063SOL    HW229823   3.124   4.718  16.880  2.1103 -1.7747  0.2531
 6064SOL     OW29824   3.629   4.005   7.619  0.2261  0.1507 -0.2990
 6064SOL    HW129825   3.605   4.085   7.572 -0.0156 -0.3194 -0.9702
 6064SOL    HW229826   3.554   3.983   7.674  0.6047 -0.2124  0.0725
 6065SOL     OW29827   0.015   4.714  10.232 -0.9203 -0.4060 -0.1468
 6065SOL    HW129828   0.091   0.006  10.181 -0.4483 -1.8218 -0.1781
 6065SOL    HW229829   0.073   4.677  10.299 -0.3336 -1.4390 -1.2419
 6066SOL     OW29830   3.837   2.769   2.619  0.5433  0.0264  0.0733
 6066SOL    HW129831   3.929   2.761   2.594  0.5016 -2.1466  0.6263
 6066SOL    HW229832   3.809   2.690   2.573 -0.2491 -0.0641  0.7260
 6067SOL     OW29833   2.528   1.155  10.975 -0.1347 -0.2589 -0.5149
 6067SOL    HW129834   2.537   1.072  11.021  1.0143  1.1140  1.7404
 6067SOL    HW229835   2.464   1.132  10.908 -1.0893 -0.9654  0.6444
 6068SOL     OW29836   0.729   4.091  12.841 -0.0137 -0.2331 -0.2873
 6068SOL    HW129837   0.636   4.106  12.824 -0.0808 -0.0314  0.2859
 6068SOL    HW229838   0.739   4.093  12.936  1.6333 -1.9937 -0.4114
 6069SOL     OW29839   2.140   2.199   8.449  0.4967  1.2647  0.0999
 6069SOL    HW129840   2.193   2.200   8.529  2.6189  1.2072 -1.3286
 6069SOL    HW229841   2.150   2.288   8.417 -1.8000  0.6919 -2.2587
 6070SOL     OW29842   0.386   0.834   1.289  0.1818  0.6764 -0.6367
 6070SOL    HW129843   0.473   0.813   1.255  0.4703  1.8389 -0.6498
 6070SOL    HW229844   0.381   0.930   1.283 -3.8668  0.3865 -1.5257
 6071SOL     OW29845   4.399   4.602   0.309 -0.4465  0.5650  0.5915
 6071SOL    HW129846   4.480   4.652   0.315 -2.0140  2.9213  1.6782
 6071SOL    HW229847   4.360   4.637   0.229  0.9603  0.7925  0.0036
 6072SOL     OW29848   1.976   2.052   8.600  0.9502 -0.5452 -0.0700
 6072SOL    HW129849   2.056   2.077   8.646  1.3832 -0.0943 -1.0819
 6072SOL    HW229850   1.993   2.083   8.511 -0.0036 -0.5687 -0.2572
 6073SOL     OW29851   1.810   3.259   3.480  0.2525 -0.1318 -0.3075
 6073SOL    HW129852   1.716   3.269   3.496 -0.0769 -0.8581 -1.6942
 6073SOL    HW229853   1.849   3.322   3.540 -1.0030  0.1964  0.1748
 6074SOL     OW29854   4.443   3.412  16.037 -0.2457 -0.4739  0.7160
 6074SOL    HW129855   4.448   3.460  15.954 -0.0313  0.8599  1.5086
 6074SOL    HW229856   4.500   3.339  16.013  1.2108  0.9490 -0.1232
 6075SOL     OW29857   1.111   2.428   8.233 -0.0515 -0.2247 -0.3344
 6075SOL    HW129858   1.146   2.513   8.258 -0.2850  0.4316 -2.3028
 6075SOL    HW229859   1.020   2.454   8.224 -0.1778 -1.3784 -2.2581
 6076SOL     OW29860   4.234   0.630   6.584 -0.2941  0.7392  0.9729
 6076SOL    HW129861   4.206   0.670   6.502 -2.5071 -0.4499  1.1411
 6076SOL    HW229862   4.309   0.580   6.552 -0.0244  1.1004  1.0541
 6077SOL     OW29863   2.838   3.858   1.202  0.4953 -0.1332 -0.1323
 6077SOL    HW129864   2.861   3.880   1.292 -2.4834 -2.2813  1.1699
 6077SOL    HW229865   2.924   3.838   1.167  0.1441 -1.1442 -0.4105
 6078SOL     OW29866   3.819   2.900   3.638 -0.0318 -0.2121 -0.1738
 6078SOL    HW129867   3.865   2.855   3.709  0.8812  1.6540  0.4340
 6078SOL    HW229868   3.754   2.936   3.698 -0.2401  0.2212 -0.6582
 6079SOL     OW29869   3.502   1.533   8.668  0.1501  0.0509  0.8911
 6079SOL    HW129870   3.583   1.485   8.651 -0.0375  0.4079 -0.9881
 6079SOL    HW229871   3.518   1.608   8.725  1.5108  0.5567 -0.1607
 6080SOL     OW29872   3.902   4.113   6.453 -0.0742  0.4512 -0.2539
 6080SOL    HW129873   3.841   4.044   6.477 -0.8193  1.4763  0.8074
 6080SOL    HW229874   3.943   4.131   6.538 -1.5121 -0.7201  0.6946
 6081SOL     OW29875   4.665   0.630   1.392  0.2610 -0.3983  0.5859
 6081SOL    HW129876   4.735   0.681   1.433  0.2780 -0.9577  1.2634
 6081SOL    HW229877   4.589   0.686   1.380  0.0655 -0.8674 -0.3560
 6082SOL     OW29878   1.656   4.146   7.676 -0.1640  0.5432 -0.1025
 6082SOL    HW129879   1.687   4.056   7.685  2.4228  1.4083 -0.3454
 6082SOL    HW229880   1.606   4.142   7.594 -0.0635 -1.3572 -0.0617
 6083SOL     OW29881   4.258   2.261   7.694 -0.2740  0.2264  0.6626
 6083SOL    HW129882   4.183   2.232   7.642 -1.0078  0.0962  1.7926
 6083SOL    HW229883   4.297   2.176   7.714 -0.4646 -0.2031 -0.8145
 6084SOL     OW29884   3.013   4.388   2.920  0.1050  0.0834  0.2483
 6084SOL    HW129885   3.004   4.474   2.961  1.9937  0.9870 -1.2784
 6084SOL    HW229886   2.988   4.400   2.829 -0.1828 -1.2978  0.1459
 6085SOL     OW29887   2.433   4.082   4.451  0.5462  0.4025  0.0092
 6085SOL    HW129888   2.337   4.076   4.455  0.5633  0.7369  0.9683
 6085SOL    HW229889   2.467   4.083   4.362 -1.3270  1.0634 -0.7105
 6086SOL     OW29890   3.711   0.087   7.735 -0.0046 -0.5015  0.2202
 6086SOL    HW129891   3.629   0.049   7.705 -1.3165  1.6582  1.0526
 6086SOL    HW229892   3.681   0.176   7.754  1.3266 -0.2613  1.2467
 6087SOL     OW29893   4.031   1.241   2.370  0.0256 -0.3435  0.0103
 6087SOL    HW129894   4.015   1.164   2.424  1.4977 -0.7842 -0.1732
 6087SOL    HW229895   4.121   1.265   2.395  0.8349 -3.0932 -0.2571
 6088SOL     OW29896   2.152   2.377   9.060 -0.0141 -0.2322 -0.0213
 6088SOL    HW129897   2.191   2.349   9.143  0.3429 -1.4138 -0.5857
 6088SOL    HW229898   2.067   2.332   9.061  0.3732 -0.9569  2.0535
 6089SOL     OW29899   0.858   0.207  15.447  0.6318  0.1349  0.2198
 6089SOL    HW129900   0.882   0.265  15.375 -2.6893  1.4977  0.1851
 6089SOL    HW229901   0.855   0.272  15.517 -1.2893  0.0903  0.1798
 6090SOL     OW29902   1.335   4.413   7.108 -0.2315  0.3748  0.1999
 6090SOL    HW129903   1.248   4.452   7.100 -0.7958 -0.4773  2.1549
 6090SOL    HW229904   1.316   4.339   7.165 -1.1366 -0.1880 -0.8557
 6091SOL     OW29905   0.203   1.090   0.796 -1.0122  0.0159  0.0334
 6091SOL    HW129906   0.209   1.031   0.871 -0.5039 -0.3329 -0.2835
 6091SOL    HW229907   0.222   1.175   0.836  2.6694 -1.7252  1.9457
 6092SOL     OW29908   2.511   2.793   1.781  0.0225 -0.3873 -0.9362
 6092SOL    HW129909   2.565   2.760   1.709 -0.8715 -1.7100 -0.9869
 6092SOL    HW229910   2.483   2.719   1.835 -2.8226 -0.9500 -3.2395
 6093SOL     OW29911   3.076   4.219  17.394  0.4088 -0.2844  0.3543
 6093SOL    HW129912   3.055   4.312  17.400 -0.0902 -0.4508  1.2195
 6093SOL    HW229913   3.072   4.188  17.485 -1.2882 -0.3084  0.2655
 6094SOL     OW29914   0.267   0.527   5.142 -0.3144  0.1579 -0.0542
 6094SOL    HW129915   0.245   0.606   5.192  2.6623  0.2546  1.0977
 6094SOL    HW229916   0.182   0.484   5.140 -0.6731  0.8252  1.1525
 6095SOL     OW29917   2.470   3.762   9.168 -0.2175 -0.4517  0.0531
 6095SOL    HW129918   2.457   3.689   9.107 -0.2157  0.3875 -0.9615
 6095SOL    HW229919   2.566   3.768   9.172 -0.3747  1.0912  1.5346
 6096SOL     OW29920   1.727   3.417  15.193  0.2341  0.4193 -0.2117
 6096SOL    HW129921   1.793   3.358  15.230 -0.7363 -0.6159 -0.1484
 6096SOL    HW229922   1.694   3.373  15.115  0.0439 -0.8602  0.6020
 6097SOL     OW29923   1.535   1.246  16.538 -0.4531 -0.4191 -0.2686
 6097SOL    HW129924   1.512   1.251  16.631 -1.5602 -2.2540 -0.4415
 6097SOL    HW229925   1.453   1.276  16.500 -1.3005 -3.2486 -0.6586
 6098SOL     OW29926   3.354   2.114  15.251  0.1510 -0.7760  0.3421
 6098SOL    HW129927   3.306   2.197  15.245  1.2900 -0.1935 -0.7489
 6098SOL    HW229928   3.351   2.086  15.159  1.9890 -1.2191  0.4116
 6099SOL     OW29929   4.691   1.046   2.810 -0.3034  0.1375  0.1156
 6099SOL    HW129930   4.679   1.028   2.717 -0.1918 -1.8802  0.4751
 6099SOL    HW229931   0.050   1.048   2.828 -0.1512 -2.0386 -0.3828
 6100SOL     OW29932   0.617   0.819   7.800  0.1143  0.1779 -0.3554
 6100SOL    HW129933   0.568   0.884   7.851  0.2310  0.6632 -0.8624
 6100SOL    HW229934   0.708   0.843   7.817  1.1084 -1.3527 -3.6163
 6101SOL     OW29935   0.344   2.044   5.006 -0.2893 -0.0656  0.2446
 6101SOL    HW129936   0.315   2.128   5.044  0.1363  0.3213 -0.2847
 6101SOL    HW229937   0.382   1.986   5.072  1.5014  3.3963  2.2853
 6102SOL     OW29938   0.798   2.831   7.402 -0.2094  0.3574 -0.3566
 6102SOL    HW129939   0.740   2.901   7.372  0.1842  1.3835  1.3170
 6102SOL    HW229940   0.839   2.811   7.317  2.0837  1.7031  0.4417
 6103SOL     OW29941   1.829   2.412   8.515 -0.3633  0.1445  0.2242
 6103SOL    HW129942   1.823   2.322   8.547  3.0576 -0.5647 -1.1136
 6103SOL    HW229943   1.815   2.459   8.596 -1.1617  0.7063 -0.2388
 6104SOL     OW29944   4.224   4.180   5.946 -0.3496  0.0869 -0.1643
 6104SOL    HW129945   4.237   4.086   5.953 -1.4573 -0.2864 -3.0572
 6104SOL    HW229946   4.273   4.208   6.023 -1.2140  2.7105 -0.5445
 6105SOL     OW29947   4.251   2.271   8.530  0.1923 -0.1560 -0.6791
 6105SOL    HW129948   4.225   2.336   8.466 -1.5786 -0.5004 -0.3175
 6105SOL    HW229949   4.304   2.208   8.480 -3.1715 -2.9427 -0.7938
 6106SOL     OW29950   2.426   0.726   4.281  0.1271 -0.6336 -0.1343
 6106SOL    HW129951   2.450   0.770   4.362  0.9065  0.0112 -0.7165
 6106SOL    HW229952   2.331   0.724   4.288  0.1099  0.8025  0.0505
 6107SOL     OW29953   3.277   3.652   4.286  0.2749 -1.0711  0.1947
 6107SOL    HW129954   3.293   3.621   4.197  1.1450 -0.7205  0.2360
 6107SOL    HW229955   3.279   3.572   4.339 -4.1750 -1.7436 -0.6560
 6108SOL     OW29956   2.136   0.938   8.706 -0.2180  0.4574  0.1960
 6108SOL    HW129957   2.049   0.964   8.675  0.0741  0.3334 -0.7525
 6108SOL    HW229958   2.097   0.908   8.787  1.3049  1.9289  1.4719
 6109SOL     OW29959   3.342   3.413  12.687 -0.0200  0.6347 -0.1635
 6109SOL    HW129960   3.364   3.492  12.736 -3.1576  0.6770  1.1817
 6109SOL    HW229961   3.421   3.360  12.691  0.0818  1.0952  4.1605
 6110SOL     OW29962   1.224   3.499   0.692 -0.6008 -0.1065 -0.4490
 6110SOL    HW129963   1.272   3.460   0.619  2.9503  0.1977  1.7345
 6110SOL    HW229964   1.166   3.425   0.707 -0.9350 -0.0049 -1.2410
 6111SOL     OW29965   0.394   1.436   7.314 -0.5631  0.1871  0.5876
 6111SOL    HW129966   0.325   1.495   7.284 -3.4162 -1.9635  2.8665
 6111SOL    HW229967   0.431   1.406   7.231  0.6943  1.2874  0.7538
 6112SOL     OW29968   2.463   3.367   2.067  0.3454 -0.5038 -0.0791
 6112SOL    HW129969   2.489   3.362   2.159 -2.4513  1.2139  0.7946
 6112SOL    HW229970   2.425   3.454   2.067 -0.2606 -0.7702 -0.0263
 6113SOL     OW29971   0.968   3.736   1.102  0.1445 -0.2682  0.6393
 6113SOL    HW129972   1.032   3.677   1.062  2.5846  2.0190  1.2118
 6113SOL    HW229973   0.897   3.727   1.038 -1.3464 -0.6618  2.3485
 6114SOL     OW29974   1.576   0.100   7.512  0.2203  0.5488 -0.3023
 6114SOL    HW129975   1.527   0.053   7.579  0.4260  0.0085 -0.5231
 6114SOL    HW229976   1.646   0.035   7.510 -1.3476 -1.1369 -0.2545
 6115SOL     OW29977   0.680   3.586  17.498  0.1809 -0.1643 -0.3460
 6115SOL    HW129978   0.636   3.662  17.459 -1.6178 -0.8073  0.4088
 6115SOL    HW229979   0.703   3.534  17.421  0.1172 -1.6823  0.6593
 6116SOL     OW29980   3.472   1.147   6.808 -0.5602  0.2558 -0.0678
 6116SOL    HW129981   3.501   1.235   6.831  1.4396 -0.9321  1.9505
 6116SOL    HW229982   3.509   1.136   6.720  0.8956 -0.5511  0.6472
 6117SOL     OW29983   0.441   2.124   5.935  0.0533  0.0612  0.6768
 6117SOL    HW129984   0.508   2.185   5.966  1.5767 -1.0915 -0.3462
 6117SOL    HW229985   0.489   2.057   5.885  0.2083  0.5996  0.0959
 6118SOL     OW29986   0.300   2.006   7.529  0.2023  0.2620 -0.1397
 6118SOL    HW129987   0.389   1.970   7.525 -0.1312 -0.4314 -1.3551
 6118SOL    HW229988   0.290   2.031   7.438  0.8273  0.0604 -0.2688
 6119SOL     OW29989   4.045   1.690  15.086  0.3437  0.6870  0.1805
 6119SOL    HW129990   4.116   1.642  15.045  0.5692  1.6614 -0.5774
 6119SOL    HW229991   4.055   1.662  15.177 -1.0173 -0.3883  0.0071
 6120SOL     OW29992   2.116   3.211   7.761  0.1450  0.0702 -0.6656
 6120SOL    HW129993   2.037   3.162   7.740 -1.2339  1.5685  1.0069
 6120SOL    HW229994   2.084   3.261   7.837 -0.9494 -2.7295  0.7084
 6121SOL     OW29995   3.989   0.078   2.268  0.6739 -0.2665  0.2574
 6121SOL    HW129996   3.992   4.718   2.256 -2.1417 -0.5625  1.9418
 6121SOL    HW229997   3.916   0.080   2.330  1.5790  0.4062  1.3107
 6122SOL     OW29998   4.606   1.531   6.132 -0.0092  0.0697 -0.0568
 6122SOL    HW129999   4.539   1.568   6.189  0.6988  1.1817  0.0538
 6122SOL    HW230000   4.556   1.488   6.062  0.5238  0.1396 -0.4805
 6123SOL     OW30001   0.209   1.455  15.112  0.2739 -0.8858  0.3877
 6123SOL    HW130002   0.199   1.520  15.042 -0.8397 -0.3472  1.0491
 6123SOL    HW230003   0.284   1.410  15.072  0.4128  0.2270 -0.5948
 6124SOL     OW30004   1.321   0.090   3.963 -0.1787 -0.0421 -0.6547
 6124SOL    HW130005   1.310   4.733   3.941 -1.3889 -0.2203  0.6415
 6124SOL    HW230006   1.349   0.128   3.880  0.6392 -1.5119 -1.0429
 6125SOL     OW30007   2.905   2.976   6.566  0.5650  0.0394  0.1944
 6125SOL    HW130008   2.859   2.972   6.650  1.5570  0.3630  0.7530
 6125SOL    HW230009   2.992   3.006   6.590  0.0209  0.3452  1.7707
 6126SOL     OW30010   2.353   3.949   1.618 -0.5609 -0.2600 -0.1002
 6126SOL    HW130011   2.431   3.995   1.586 -0.2496  1.0623  2.5287
 6126SOL    HW230012   2.312   3.916   1.538  0.7018 -1.2536 -0.3375
 6127SOL     OW30013   3.256   1.198   3.891 -0.1187 -0.4560 -0.2403
 6127SOL    HW130014   3.332   1.222   3.839  0.5891 -0.7724  0.6646
 6127SOL    HW230015   3.216   1.130   3.837 -1.5055 -0.1077  0.3413
 6128SOL     OW30016   2.400   0.691   9.997 -0.6500 -0.0260 -0.5384
 6128SOL    HW130017   2.444   0.709   9.913 -0.6188 -1.9011 -0.9321
 6128SOL    HW230018   2.387   0.597   9.984  1.2211 -0.5702  1.4724
 6129SOL     OW30019   0.534   3.619  11.554 -0.3783 -0.2762  0.8193
 6129SOL    HW130020   0.446   3.622  11.515  0.2194 -0.0908 -0.5053
 6129SOL    HW230021   0.507   3.585  11.640  2.4564  0.4841  2.0206
 6130SOL     OW30022   0.553   0.100   7.415 -0.1209  0.2526  1.3648
 6130SOL    HW130023   0.497   0.091   7.492 -0.6845  1.7340  1.1247
 6130SOL    HW230024   0.539   0.194   7.402  0.6608  0.0829 -0.7059
 6131SOL     OW30025   4.580   3.269   3.514 -0.1644  0.0329 -0.1908
 6131SOL    HW130026   4.555   3.178   3.530  0.4743  0.1630  1.5056
 6131SOL    HW230027   4.648   3.282   3.580  0.1148 -0.8602 -0.3155
 6132SOL     OW30028   4.294   0.970   5.686 -0.0623 -0.4052  0.2411
 6132SOL    HW130029   4.303   0.875   5.701  3.7025  0.1112  1.2663
 6132SOL    HW230030   4.239   0.963   5.608  0.1304  0.8372 -0.0028
 6133SOL     OW30031   3.886   0.865   3.100  0.0936  0.3566  0.1297
 6133SOL    HW130032   3.795   0.858   3.072  0.0955  0.2946  0.1392
 6133SOL    HW230033   3.876   0.808   3.176  0.8368 -1.7539 -1.3895
 6134SOL     OW30034   0.894   0.858   1.275  0.2141  0.3800  0.7870
 6134SOL    HW130035   0.848   0.828   1.196  0.2456  1.1899  0.4677
 6134SOL    HW230036   0.835   0.827   1.344 -2.2010  0.7854 -1.0751
 6135SOL     OW30037   3.824   2.580   8.051  0.0457  0.3169  0.4609
 6135SOL    HW130038   3.810   2.645   7.982  0.7270 -1.5986 -1.4705
 6135SOL    HW230039   3.919   2.565   8.055 -0.0146  0.1882  1.4674
 6136SOL     OW30040   2.503   2.146   7.199 -0.0160  0.5163  0.4661
 6136SOL    HW130041   2.453   2.080   7.152 -0.1743  1.6146 -0.9150
 6136SOL    HW230042   2.432   2.209   7.214 -2.1720 -2.0592  0.9802
 6137SOL     OW30043   4.291   1.678   3.430 -0.4435  0.4714  0.5809
 6137SOL    HW130044   4.377   1.671   3.389 -0.2028 -0.9271  1.3164
 6137SOL    HW230045   4.250   1.591   3.424 -1.5250  1.0149  0.0844
 6138SOL     OW30046   2.842   2.846   8.182  0.2231 -0.5000 -0.9125
 6138SOL    HW130047   2.824   2.898   8.261  2.7294 -0.4919 -0.3242
 6138SOL    HW230048   2.799   2.891   8.109  3.5904  2.1914 -1.2771
 6139SOL     OW30049   4.589   1.165   5.209 -0.1208 -0.8418  0.3690
 6139SOL    HW130050   4.541   1.217   5.145  0.5159 -1.5912 -0.7022
 6139SOL    HW230051   4.558   1.079   5.182 -0.1130 -1.1621  1.3735
 6140SOL     OW30052   1.643   3.089   6.993 -0.4204 -0.0407  0.8091
 6140SOL    HW130053   1.578   3.022   6.969 -1.1362  0.7335  0.6006
 6140SOL    HW230054   1.688   3.051   7.069  0.4176 -0.6319  0.0126
 6141SOL     OW30055   2.338   0.772   2.368  0.2114 -0.2102 -0.6144
 6141SOL    HW130056   2.428   0.745   2.387  0.5096  1.2107  0.0291
 6141SOL    HW230057   2.328   0.818   2.452  2.3963 -0.0104 -0.4744
 6142SOL     OW30058   4.053   2.617   0.380  0.3957  0.4841  0.0007
 6142SOL    HW130059   4.125   2.601   0.440 -0.2938 -0.5910  0.5406
 6142SOL    HW230060   4.091   2.696   0.341  1.8608 -0.8507 -1.2385
 6143SOL     OW30061   1.596   2.403   2.028 -0.1366 -0.2232 -0.0796
 6143SOL    HW130062   1.668   2.385   1.967  0.1372 -0.1690  0.2281
 6143SOL    HW230063   1.582   2.316   2.064  0.2910  0.7715  2.4693
 6144SOL     OW30064   2.676   3.193   4.711  0.2618  0.2947  0.2922
 6144SOL    HW130065   2.709   3.278   4.738 -0.9065  0.8231  0.0443
 6144SOL    HW230066   2.703   3.142   4.788 -0.4367  0.3584  0.5745
 6145SOL     OW30067   0.626   0.360   7.469 -0.2325 -0.3990 -0.3241
 6145SOL    HW130068   0.666   0.403   7.545 -0.1933  0.9702 -1.1226
 6145SOL    HW230069   0.669   0.396   7.391 -0.7015  0.5082 -0.1729
 6146SOL     OW30070   1.820   1.559   5.945 -0.4628  0.0967  0.4025
 6146SOL    HW130071   1.842   1.504   5.870 -1.5659 -0.0976  0.2179
 6146SOL    HW230072   1.788   1.494   6.008 -0.3235 -2.1317 -1.8182
 6147SOL     OW30073   0.483   0.435   2.723 -0.1571  0.3180  0.2047
 6147SOL    HW130074   0.552   0.369   2.728 -1.2903 -0.8203  0.9684
 6147SOL    HW230075   0.538   0.513   2.731  0.8314 -0.3201 -0.3123
 6148SOL     OW30076   3.487   3.046   4.774  0.6547 -0.2907  0.0632
 6148SOL    HW130077   3.420   3.100   4.815  1.5533  0.6797  0.2441
 6148SOL    HW230078   3.529   3.006   4.850 -0.9488 -0.0555  1.0792
 6149SOL     OW30079   3.883   2.816   9.874  0.3345 -0.2043 -0.7807
 6149SOL    HW130080   3.870   2.910   9.890  1.6699 -0.1186 -0.2667
 6149SOL    HW230081   3.812   2.790   9.815 -0.2144  0.0698 -0.2473
 6150SOL     OW30082   0.619   0.207   2.626 -0.2503  0.4316  0.5979
 6150SOL    HW130083   0.629   0.112   2.628 -1.8515  0.3062  1.9499
 6150SOL    HW230084   0.601   0.223   2.533  0.0282 -1.9993  0.1277
 6151SOL     OW30085   1.520   2.274   6.247 -0.1974  0.7850  0.7128
 6151SOL    HW130086   1.556   2.191   6.214 -1.3632  0.3723  0.4642
 6151SOL    HW230087   1.431   2.240   6.259  0.1295 -0.2765  0.2086
 6152SOL     OW30088   2.750   0.026   9.607 -0.5420  0.8203 -0.0406
 6152SOL    HW130089   2.696   4.687   9.581 -0.3217 -0.1995  2.3967
 6152SOL    HW230090   2.759   0.070   9.523  2.1573 -1.1592 -0.7784
 6153SOL     OW30091   2.209   0.453   2.978 -0.0095 -0.3965  0.2474
 6153SOL    HW130092   2.211   0.392   2.904 -0.0728 -0.8568  0.6244
 6153SOL    HW230093   2.223   0.392   3.051 -1.6546 -1.8653 -0.6692
 6154SOL     OW30094   4.270   0.177  17.405  0.1413  0.3803  0.7069
 6154SOL    HW130095   4.327   0.170  17.481 -0.7256 -0.5883  1.2664
 6154SOL    HW230096   4.201   0.234  17.440  0.0357 -0.2653  1.5655
 6155SOL     OW30097   2.126   1.273   2.591 -0.1376  0.1455 -0.3894
 6155SOL    HW130098   2.035   1.300   2.580  0.0796  1.6619  1.5682
 6155SOL    HW230099   2.175   1.351   2.617 -1.2965  1.3125 -1.7844
 6156SOL     OW30100   2.086   0.759   6.085 -0.5112 -0.2217 -0.3591
 6156SOL    HW130101   2.139   0.739   6.162 -3.5699  1.0557  2.0689
 6156SOL    HW230102   2.143   0.721   6.019 -2.0155  0.0164 -1.8018
 6157SOL     OW30103   2.817   3.338   6.513  0.0416  0.1700 -0.2029
 6157SOL    HW130104   2.760   3.304   6.581  0.2481 -0.5297 -0.3724
 6157SOL    HW230105   2.905   3.335   6.551  0.7047 -0.7819 -1.7862
 6158SOL     OW30106   3.448   3.663   8.189  0.2368  0.6503  0.2480
 6158SOL    HW130107   3.527   3.633   8.236  0.0613 -2.9405 -1.7123
 6158SOL    HW230108   3.485   3.687   8.104 -0.5375 -1.5797 -0.7281
 6159SOL     OW30109   1.995   1.685   6.091 -0.4397  0.1834  0.3146
 6159SOL    HW130110   2.065   1.620   6.096 -1.4438 -0.8471  0.9096
 6159SOL    HW230111   1.933   1.661   6.023  0.9525 -0.3391 -0.7733
 6160SOL     OW30112   1.970   4.405   4.509  0.0283  0.1569 -0.3414
 6160SOL    HW130113   2.012   4.429   4.591  1.1138  0.4437 -0.9731
 6160SOL    HW230114   2.031   4.419   4.437  1.7941 -0.0130  1.1429
 6161SOL     OW30115   3.183   2.312   2.275 -0.8395  0.5399  0.5173
 6161SOL    HW130116   3.272   2.307   2.240 -0.4332  0.9742  1.4943
 6161SOL    HW230117   3.188   2.244   2.342  0.1692  1.8511  1.7729
 6162SOL     OW30118   0.780   0.006  16.357 -0.4256 -0.2322 -0.2113
 6162SOL    HW130119   0.865   4.719  16.319 -0.8764 -2.9616  0.3695
 6162SOL    HW230120   0.761   4.661  16.406 -0.1256  0.0408  0.3406
 6163SOL     OW30121   3.812   4.145   4.400  0.1435 -0.3738 -0.0701
 6163SOL    HW130122   3.850   4.059   4.420  0.0350 -0.0582  1.5216
 6163SOL    HW230123   3.760   4.134   4.320 -0.9379 -2.3274  0.9034
 6164SOL     OW30124   3.399   0.153   7.958 -0.4163 -0.5800  0.1933
 6164SOL    HW130125   3.412   0.195   7.873  0.6463 -3.9121 -1.3199
 6164SOL    HW230126   3.473   0.185   8.010 -1.2063  0.1994  0.8313
 6165SOL     OW30127   1.982   2.283   4.703 -0.1958 -0.4345 -0.3832
 6165SOL    HW130128   2.074   2.272   4.678  0.6191 -1.9254  3.2476
 6165SOL    HW230129   1.942   2.338   4.636 -3.5994  0.1013  2.0726
 6166SOL     OW30130   0.726   1.333   5.463  0.0658 -0.1355  0.2159
 6166SOL    HW130131   0.813   1.319   5.425  0.5325  1.7081  0.6051
 6166SOL    HW230132   0.713   1.261   5.524 -1.6473  1.2110  1.4308
 6167SOL     OW30133   2.238   3.704   0.045  0.5054 -0.3583 -0.4978
 6167SOL    HW130134   2.207   3.651  17.710 -0.5197 -0.7993  0.2416
 6167SOL    HW230135   2.163   3.714   0.104  0.3462 -1.4013 -0.5201
 6168SOL     OW30136   0.524   3.510   4.982 -0.5304 -0.5173  0.2013
 6168SOL    HW130137   0.604   3.515   5.034 -0.3890  2.6672 -0.3590
 6168SOL    HW230138   0.457   3.524   5.048 -0.2786 -2.2071  0.8234
 6169SOL     OW30139   2.376   1.687   7.073 -0.0814 -0.1574 -0.5083
 6169SOL    HW130140   2.447   1.666   7.134  0.4806 -1.9677 -1.7943
 6169SOL    HW230141   2.397   1.615   7.014 -0.6760 -0.2304 -0.6259
 6170SOL     OW30142   1.556   2.636   6.038 -0.2167 -0.1086 -0.0347
 6170SOL    HW130143   1.636   2.597   6.074 -0.4925 -0.6201  0.0236
 6170SOL    HW230144   1.599   2.699   5.980 -0.4733  0.2869  0.2110
 6171SOL     OW30145   1.739   3.902   2.879 -0.2926 -0.0367 -0.4348
 6171SOL    HW130146   1.761   3.903   2.972  0.3340 -0.4345 -0.5759
 6171SOL    HW230147   1.715   3.994   2.865  0.6008  0.5523  1.8339
 6172SOL     OW30148   4.673   1.505   8.836  0.3601  0.0224  0.0744
 6172SOL    HW130149   4.713   1.585   8.803  0.4719 -0.2849 -0.5407
 6172SOL    HW230150   0.008   1.471   8.893  0.4562  1.3896  0.7700
 6173SOL     OW30151   0.181   3.579   5.026 -0.3002  0.3372 -0.6576
 6173SOL    HW130152   0.132   3.497   5.032 -1.1976  1.0128  1.0262
 6173SOL    HW230153   0.210   3.566   4.935 -0.4972  0.7080 -0.7727
 6174SOL     OW30154   3.161   1.383  14.661 -0.1970 -0.0723 -0.0703
 6174SOL    HW130155   3.170   1.443  14.735  2.6465 -0.0580 -0.4325
 6174SOL    HW230156   3.215   1.312  14.694 -1.4167 -1.9737 -2.1714
 6175SOL     OW30157   3.085   4.340   3.795 -0.5285  0.0647  1.0160
 6175SOL    HW130158   2.994   4.320   3.775 -0.0917  0.6225 -1.5867
 6175SOL    HW230159   3.114   4.256   3.829 -1.8721 -0.3454  1.1363
 6176SOL     OW30160   3.541   1.414   5.742 -0.2351  0.1327  0.0074
 6176SOL    HW130161   3.471   1.397   5.679 -1.4409  0.5152  1.2456
 6176SOL    HW230162   3.507   1.493   5.783  1.0608  1.5708 -1.7003
 6177SOL     OW30163   1.206   0.973   5.961  0.0949  0.3343  0.3496
 6177SOL    HW130164   1.197   0.892   6.011 -0.0773  0.0191 -0.2075
 6177SOL    HW230165   1.298   0.994   5.980 -0.0316  2.0800 -0.8921
 6178SOL     OW30166   1.541   3.758   1.206 -0.2324 -0.2052  0.4992
 6178SOL    HW130167   1.499   3.764   1.120 -0.8942 -0.4321  0.8163
 6178SOL    HW230168   1.588   3.842   1.213 -0.2397 -0.2890  1.4501
 6179SOL     OW30169   3.875   1.729   7.688  0.3864  0.0460 -0.6620
 6179SOL    HW130170   3.964   1.763   7.685 -0.7890  3.4312  2.3987
 6179SOL    HW230171   3.830   1.801   7.733  0.3980 -2.0739  2.6870
 6180SOL     OW30172   4.122   1.455   8.382 -0.0060 -0.0542  0.0975
 6180SOL    HW130173   4.171   1.378   8.413 -2.4072 -2.3077 -1.7677
 6180SOL    HW230174   4.076   1.411   8.311  1.4200 -1.9463  0.3422
 6181SOL     OW30175   3.927   1.064   4.875 -0.1176 -0.1343  0.1025
 6181SOL    HW130176   3.957   1.082   4.964  0.7292 -1.0903  0.0126
 6181SOL    HW230177   3.863   0.996   4.894  1.6830 -2.3813 -1.8534
 6182SOL     OW30178   1.460   1.709   7.928 -0.0879  0.0744 -0.2246
 6182SOL    HW130179   1.499   1.709   7.840 -0.0738 -2.6787 -0.1938
 6182SOL    HW230180   1.404   1.632   7.929  1.1154 -0.8265 -1.8275
 6183SOL     OW30181   4.731   2.820  11.696 -0.0281 -0.4042 -0.1363
 6183SOL    HW130182   0.071   2.796  11.642  0.3050  1.3027 -0.4284
 6183SOL    HW230183   4.663   2.836  11.630 -1.4775 -2.0137  0.9426
 6184SOL     OW30184   0.733   0.107   1.608 -0.1551 -0.5449  0.4683
 6184SOL    HW130185   0.737   0.028   1.553 -3.3085  0.8088 -1.7140
 6184SOL    HW230186   0.643   0.139   1.599 -0.1825 -0.8302 -0.2447
 6185SOL     OW30187   2.804   3.389  17.453  0.3918  0.1843  0.3053
 6185SOL    HW130188   2.803   3.293  17.443 -0.0872 -0.2028  3.9719
 6185SOL    HW230189   2.882   3.405  17.400  0.1221  0.2236 -0.0816
 6186SOL     OW30190   3.851   3.935  16.564 -0.3633 -0.3431  0.4158
 6186SOL    HW130191   3.831   3.973  16.650  3.4423 -0.8997  1.5674
 6186SOL    HW230192   3.763   3.914  16.533 -0.5874  1.8008 -0.4178
 6187SOL     OW30193   1.252   0.864   7.409  0.7644 -0.4120 -0.0355
 6187SOL    HW130194   1.190   0.928   7.374  0.2882  0.9774  3.3756
 6187SOL    HW230195   1.228   0.791   7.351 -0.6280  1.2821 -1.6187
 6188SOL     OW30196   2.087   3.314  12.956  0.1144  0.0127  0.2743
 6188SOL    HW130197   2.169   3.269  12.977  0.6989  0.3445 -1.3337
 6188SOL    HW230198   2.115   3.384  12.897 -2.8920  1.2937  0.3489
 6189SOL     OW30199   2.669   1.316  17.448  0.0344 -0.0775 -0.5308
 6189SOL    HW130200   2.703   1.355  17.367  0.9362  0.1588 -0.0341
 6189SOL    HW230201   2.578   1.346  17.455 -0.0013 -0.2645 -0.1990
 6190SOL     OW30202   0.599   2.210   5.574  0.4830  0.6174  0.1303
 6190SOL    HW130203   0.671   2.195   5.635  1.0353 -0.8138 -0.8707
 6190SOL    HW230204   0.572   2.300   5.594 -0.6246  0.2471  0.3331
 6191SOL     OW30205   1.715   0.586   5.895  0.4565 -0.2339 -0.0415
 6191SOL    HW130206   1.713   0.660   5.955  0.2240  0.4806 -0.9219
 6191SOL    HW230207   1.776   0.536   5.949 -0.1170 -0.1045  0.7268
 6192SOL     OW30208   0.852   1.124   8.416 -0.0530  0.5726 -0.0198
 6192SOL    HW130209   0.759   1.142   8.400  0.0925  0.3393 -1.0936
 6192SOL    HW230210   0.882   1.191   8.477 -0.0723  1.0413 -0.5289
 6193SOL     OW30211   4.323   4.043  13.677 -0.5280  0.2808  0.1448
 6193SOL    HW130212   4.274   4.095  13.612 -0.2103 -0.0222 -0.3348
 6193SOL    HW230213   4.397   4.102  13.692 -1.1609  1.5393 -1.6151
 6194SOL     OW30214   4.192   2.817   7.463 -0.0900  0.1489 -0.0408
 6194SOL    HW130215   4.165   2.877   7.532 -1.3482 -0.6169  0.1293
 6194SOL    HW230216   4.191   2.874   7.386  1.9756  1.3098  0.7983
 6195SOL     OW30217   0.367   2.322  14.079  0.0017 -0.6753  0.6790
 6195SOL    HW130218   0.424   2.246  14.091  0.5400 -0.6035 -1.4391
 6195SOL    HW230219   0.278   2.288  14.082  0.1435 -1.1854 -0.9333
 6196SOL     OW30220   2.108   1.775   3.743  0.5240 -0.5821  0.7827
 6196SOL    HW130221   2.021   1.750   3.774  0.0662  0.1267  0.0671
 6196SOL    HW230222   2.107   1.863   3.782  1.2956  0.0700 -0.6847
 6197SOL     OW30223   4.207   2.103  11.800  0.2495 -0.0509  0.6792
 6197SOL    HW130224   4.176   2.013  11.789  0.4747  0.2963 -2.6769
 6197SOL    HW230225   4.128   2.156  11.794  0.2081 -0.0871  0.9075
 6198SOL     OW30226   1.954   1.509  13.501  0.1866 -0.0448  0.5824
 6198SOL    HW130227   1.987   1.426  13.536 -0.2419  0.0939  1.3131
 6198SOL    HW230228   1.866   1.492  13.533 -0.0536  4.2444  2.2029
 6199SOL     OW30229   4.386   0.596   2.349  0.0972 -0.4475 -0.4065
 6199SOL    HW130230   4.418   0.686   2.355 -0.8861 -0.0372 -1.3448
 6199SOL    HW230231   4.451   0.554   2.293  0.3869 -0.2369 -0.2292
 6200SOL     OW30232   0.122   1.191   5.244  0.1721  0.5813  0.5452
 6200SOL    HW130233   0.027   1.203   5.235  0.0269 -1.0337 -0.2403
 6200SOL    HW230234   0.133   1.185   5.338 -0.5799  2.8641  0.7754
 6201SOL     OW30235   1.374   2.183   7.056 -0.3093 -0.1031 -0.6211
 6201SOL    HW130236   1.423   2.253   7.100  0.5143 -0.1697 -1.4374
 6201SOL    HW230237   1.399   2.185   6.964  0.1088 -0.8254 -0.5284
 6202SOL     OW30238   4.252   1.239   5.804 -0.5291 -0.3131  0.2326
 6202SOL    HW130239   4.282   1.158   5.762 -0.5189 -1.5796  2.6419
 6202SOL    HW230240   4.279   1.308   5.744 -0.0495  0.1048  0.9268
 6203SOL     OW30241   2.198   0.951   9.303 -0.4115 -0.4258  0.2126
 6203SOL    HW130242   2.123   0.927   9.356  0.2851 -0.0286  1.3749
 6203SOL    HW230243   2.144   0.982   9.230  0.5462  0.4775 -0.1141
 6204SOL     OW30244   2.614   2.793  10.547  0.0732  0.8193 -0.4598
 6204SOL    HW130245   2.698   2.796  10.594  1.1508  1.2337 -2.4025
 6204SOL    HW230246   2.589   2.885  10.537 -0.7025  0.7415  0.8023
 6205SOL     OW30247   0.958   2.932   5.833 -0.1474  0.2583 -0.4346
 6205SOL    HW130248   1.012   2.902   5.760  1.9417  0.0859  1.1715
 6205SOL    HW230249   1.025   2.962   5.895  1.1201  0.5569 -1.9662
 6206SOL     OW30250   2.331   0.871  14.395  0.2174  0.2558  0.0581
 6206SOL    HW130251   2.265   0.811  14.359  0.6804  0.6081 -1.3751
 6206SOL    HW230252   2.376   0.807  14.449 -1.6019 -1.5716 -0.5748
 6207SOL     OW30253   0.198   2.682   9.268  0.3899  0.2101 -0.2513
 6207SOL    HW130254   0.215   2.618   9.337  2.3976  1.7085  0.6114
 6207SOL    HW230255   0.226   2.621   9.200  2.2638  0.8828 -0.0713
 6208SOL     OW30256   0.189   1.940  15.310 -0.1063 -0.7619 -0.7267
 6208SOL    HW130257   0.110   1.928  15.258 -1.7601 -0.7113  1.8081
 6208SOL    HW230258   0.150   1.945  15.397 -1.0594  0.5998 -1.2368
 6209SOL     OW30259   1.164   0.073   7.753 -0.4245  0.1047 -0.1902
 6209SOL    HW130260   1.109   4.731   7.738 -1.2378  0.8642 -1.1308
 6209SOL    HW230261   1.255   0.044   7.754 -0.7949 -1.1212 -2.2634
 6210SOL     OW30262   3.471   3.897  16.009 -0.2864 -0.6000 -0.0556
 6210SOL    HW130263   3.486   3.955  15.934  0.1669 -2.0643 -1.0994
 6210SOL    HW230264   3.378   3.883  15.996 -0.3666  0.0081 -0.1751
 6211SOL     OW30265   2.801   0.677   7.076 -0.1006  0.1397  0.1681
 6211SOL    HW130266   2.717   0.698   7.035  0.1884  0.9789  0.0093
 6211SOL    HW230267   2.819   0.757   7.126 -0.8459 -0.0476  0.7464
 6212SOL     OW30268   4.310   1.847  12.965  0.4523  0.4461 -0.0071
 6212SOL    HW130269   4.393   1.859  13.010 -0.2164 -0.3505  1.4564
 6212SOL    HW230270   4.305   1.753  12.949  0.2716  0.2423  1.2111
 6213SOL     OW30271   0.600   4.674   6.018 -0.0908  0.4521 -0.4071
 6213SOL    HW130272   0.641   4.592   6.046  0.4132  0.4350 -1.1856
 6213SOL    HW230273   0.521   4.650   5.971 -0.5863 -0.7755  1.0628
 6214SOL     OW30274   1.555   2.853   5.688  0.1936 -0.5516  0.2450
 6214SOL    HW130275   1.634   2.860   5.741  0.1187 -2.1295  0.5548
 6214SOL    HW230276   1.493   2.855   5.761 -0.4784 -2.7435 -0.2654
 6215SOL     OW30277   1.000   1.265  12.690  0.2683  0.1434 -0.1519
 6215SOL    HW130278   1.000   1.176  12.655  1.8904  0.7238 -1.6515
 6215SOL    HW230279   0.991   1.246  12.783 -0.9146  0.4122 -0.2198
 6216SOL     OW30280   0.367   1.408   7.579  0.0235 -0.4349 -0.2766
 6216SOL    HW130281   0.458   1.402   7.607 -0.4392 -3.5313  0.5712
 6216SOL    HW230282   0.379   1.412   7.484 -1.0394  0.1090 -0.3854
 6217SOL     OW30283   1.640   4.059  17.433  0.0458 -0.1205 -0.3709
 6217SOL    HW130284   1.707   4.127  17.439 -1.1414  0.9279  0.9313
 6217SOL    HW230285   1.703   3.988  17.446  2.1916  2.0595  1.1267
 6218SOL     OW30286   4.177   1.633   5.854  0.3676 -0.0009  0.6838
 6218SOL    HW130287   4.180   1.721   5.893  0.4800 -1.9037  4.9684
 6218SOL    HW230288   4.091   1.602   5.882  0.3263 -0.7800 -0.3325
 6219SOL     OW30289   3.865   2.940  16.344 -0.2538 -0.2821  0.1009
 6219SOL    HW130290   3.865   2.856  16.389 -1.3696  0.1907  0.9845
 6219SOL    HW230291   3.859   2.915  16.252  2.6033  1.7817 -0.6088
 6220SOL     OW30292   2.493   4.034  12.126  0.8779 -0.3170  0.1262
 6220SOL    HW130293   2.502   4.069  12.038 -1.6065 -1.3632 -0.5519
 6220SOL    HW230294   2.415   3.981  12.107  0.0080  1.4741 -1.3068
 6221SOL     OW30295   2.107   0.999   6.325  1.0563  0.1493 -0.2585
 6221SOL    HW130296   2.086   0.915   6.367  1.2055  0.6783  0.8772
 6221SOL    HW230297   2.187   1.031   6.365  0.6330  1.4316 -0.4287
 6222SOL     OW30298   4.049   0.174   4.089 -0.5602  0.1202 -0.1295
 6222SOL    HW130299   4.088   0.181   4.002  0.2384  0.2672  0.2475
 6222SOL    HW230300   3.999   0.255   4.098 -0.3882  0.4700 -2.1696
 6223SOL     OW30301   2.687   2.586   8.045 -0.6022 -0.0480 -0.1144
 6223SOL    HW130302   2.700   2.500   8.085 -0.0420  0.7944  1.4715
 6223SOL    HW230303   2.653   2.643   8.114 -1.2472  1.0077 -1.2987
 6224SOL     OW30304   2.319   1.752   4.455  0.1350  0.3948  0.6103
 6224SOL    HW130305   2.262   1.758   4.533 -1.1507 -0.0060 -0.3022
 6224SOL    HW230306   2.375   1.676   4.471 -0.5388 -0.1102  0.5638
 6225SOL     OW30307   4.085   2.295   6.053 -1.2136 -0.3076  0.3084
 6225SOL    HW130308   4.081   2.201   6.037  1.3843 -0.3674 -0.0842
 6225SOL    HW230309   4.002   2.320   6.013 -0.1210  0.4769 -1.5026
 6226SOL     OW30310   4.259   1.829   9.063  0.0626 -0.3415 -0.2885
 6226SOL    HW130311   4.217   1.899   9.113 -2.5872 -0.9744 -1.6345
 6226SOL    HW230312   4.295   1.786   9.141  1.5449 -0.2024 -0.8871
 6227SOL     OW30313   0.111   2.276   6.233 -0.5047 -0.7028 -0.8550
 6227SOL    HW130314   0.186   2.318   6.274 -0.9516  0.4650 -1.2273
 6227SOL    HW230315   0.146   2.219   6.165 -3.5581 -2.5613 -0.8607
 6228SOL     OW30316   1.482   3.800   7.639  0.0816  0.5845 -0.2150
 6228SOL    HW130317   1.408   3.811   7.578 -1.0179  0.1726  1.0611
 6228SOL    HW230318   1.445   3.733   7.697  2.6820 -0.4247  0.2662
 6229SOL     OW30319   0.084   0.747  10.806 -0.0828  0.2661  0.2079
 6229SOL    HW130320   0.115   0.837  10.809 -1.2487  0.6379  0.7062
 6229SOL    HW230321   0.038   0.738  10.889 -0.5174 -0.0812 -0.0737
 6230SOL     OW30322   3.041   3.139   9.466  0.2381  0.2949 -0.0769
 6230SOL    HW130323   3.015   3.122   9.375  1.1700 -2.4481  0.1820
 6230SOL    HW230324   3.016   3.230   9.485 -1.2628 -0.1822  0.2398
 6231SOL     OW30325   2.182   1.377   5.766  0.2933  0.0005 -0.7452
 6231SOL    HW130326   2.215   1.431   5.838 -1.3754 -1.5517  1.1808
 6231SOL    HW230327   2.260   1.369   5.712 -0.1275  0.9167 -1.4758
 6232SOL     OW30328   2.597   1.711  16.228 -0.0437  0.2698 -0.9020
 6232SOL    HW130329   2.605   1.725  16.323 -0.8019  0.2873 -0.8420
 6232SOL    HW230330   2.689   1.691  16.211  0.0616  1.3165 -1.5860
 6233SOL     OW30331   0.211   1.143  16.659  0.5228 -0.2655 -0.3203
 6233SOL    HW130332   0.262   1.224  16.649  1.0163 -0.5556 -0.1502
 6233SOL    HW230333   0.131   1.181  16.696  0.4022  0.4847 -1.3336
 6234SOL     OW30334   0.049   2.741   4.007  0.0965 -0.2969 -0.4386
 6234SOL    HW130335   0.085   2.688   4.078  0.8917 -0.6298 -1.0944
 6234SOL    HW230336   4.697   2.702   4.001 -0.5928  0.9649  1.1998
 6235SOL     OW30337   1.190   2.901   8.420 -0.4030  0.6009  0.4674
 6235SOL    HW130338   1.281   2.870   8.414 -0.5420  0.7274 -2.2988
 6235SOL    HW230339   1.169   2.853   8.340 -3.2167 -1.4682  2.4440
 6236SOL     OW30340   1.181   2.346   9.126 -0.0202  0.4042 -0.4016
 6236SOL    HW130341   1.174   2.293   9.046  0.3602  0.3116 -0.3720
 6236SOL    HW230342   1.089   2.367   9.146 -0.4068 -0.0829 -1.6571
 6237SOL     OW30343   4.456   3.294   3.254 -0.1071 -0.0120 -0.0573
 6237SOL    HW130344   4.481   3.275   3.344  0.4786  0.1672 -0.1833
 6237SOL    HW230345   4.461   3.390   3.255  1.6029 -0.0982  0.7816
 6238SOL     OW30346   2.510   2.908   4.578 -0.1125  0.2265  0.1582
 6238SOL    HW130347   2.478   2.971   4.643  1.9272  0.9452  0.4650
 6238SOL    HW230348   2.452   2.929   4.504 -0.8257  0.1683  0.6978
 6239SOL     OW30349   2.591   2.837   9.507  0.0733  0.4082  0.4429
 6239SOL    HW130350   2.683   2.830   9.532  0.7164 -0.5941 -2.1321
 6239SOL    HW230351   2.597   2.854   9.413  2.1588 -1.3218  0.2560
 6240SOL     OW30352   2.781   3.846   1.588 -0.1108 -0.3036  0.8294
 6240SOL    HW130353   2.868   3.863   1.551  0.2024 -0.9159  1.2890
 6240SOL    HW230354   2.792   3.870   1.680 -0.4841 -0.3797  0.8927
 6241SOL     OW30355   3.497   3.151   9.863 -0.3133 -0.0703  0.3902
 6241SOL    HW130356   3.536   3.238   9.871 -0.6089  0.1881 -0.9172
 6241SOL    HW230357   3.514   3.118   9.774  0.0405  1.0207  0.0520
 6242SOL     OW30358   1.965   0.369   4.385  0.3095 -0.2571  0.0680
 6242SOL    HW130359   1.932   0.307   4.449 -0.7620 -1.5520 -1.7589
 6242SOL    HW230360   2.060   0.360   4.386  0.2877 -0.2905  1.6053
 6243SOL     OW30361   1.730   3.227   9.222  0.7384 -0.1345  0.4420
 6243SOL    HW130362   1.815   3.250   9.183  0.9536 -1.6640  0.0341
 6243SOL    HW230363   1.676   3.293   9.179 -1.0030 -0.8795  1.5030
 6244SOL     OW30364   2.733   4.616   7.695 -0.5418  0.2143  0.4026
 6244SOL    HW130365   2.730   4.521   7.709  0.9435  0.0741 -0.1636
 6244SOL    HW230366   2.652   4.626   7.646 -1.4367 -1.8259  1.4453
 6245SOL     OW30367   2.119   3.931   4.131 -0.8991  0.2188 -0.4317
 6245SOL    HW130368   2.074   3.984   4.065 -0.1265 -1.0555 -1.9721
 6245SOL    HW230369   2.207   3.926   4.093  0.8207 -1.4335  3.7010
 6246SOL     OW30370   2.877   3.561   8.358  0.4126 -0.2064  0.3749
 6246SOL    HW130371   2.961   3.562   8.310  1.1208  1.0772  1.6644
 6246SOL    HW230372   2.907   3.539   8.446 -0.9770  1.2637  1.1971
 6247SOL     OW30373   3.570   0.774   4.664  0.0265  0.5889 -0.4779
 6247SOL    HW130374   3.493   0.827   4.641 -0.9699 -0.4520  0.4880
 6247SOL    HW230375   3.545   0.693   4.619 -0.4077 -0.0980  0.9932
 6248SOL     OW30376   4.033   3.164   1.713 -0.3375  0.2869 -0.2696
 6248SOL    HW130377   4.020   3.259   1.707 -1.0956  0.0671 -1.9839
 6248SOL    HW230378   3.979   3.131   1.642  0.0830 -0.7621 -0.0952
 6249SOL     OW30379   2.381   3.116   4.753  0.2444  0.3531  0.4561
 6249SOL    HW130380   2.466   3.159   4.764  1.4013 -2.6692  3.2860
 6249SOL    HW230381   2.356   3.115   4.846  2.7860  1.7561  1.1584
 6250SOL     OW30382   2.459   1.976  16.038  0.4142  0.2104  0.1548
 6250SOL    HW130383   2.399   1.902  16.028  0.3100  0.6070 -2.1589
 6250SOL    HW230384   2.513   1.958  15.961 -1.4033  0.5474 -1.1950
 6251SOL     OW30385   2.996   0.251   3.918  0.0855  0.3286  0.1758
 6251SOL    HW130386   2.968   0.279   4.005  1.1511  0.6495  0.4155
 6251SOL    HW230387   3.055   0.318   3.883  1.7471 -1.4138 -0.3707
 6252SOL     OW30388   0.373   3.416   9.069  0.5309  0.0165  0.4118
 6252SOL    HW130389   0.376   3.419   8.973  1.9738  0.1682  0.4544
 6252SOL    HW230390   0.278   3.427   9.076  0.7662  1.1988  1.7066
 6253SOL     OW30391   0.487   0.932   0.649  0.0179  0.4120  0.5659
 6253SOL    HW130392   0.509   1.009   0.701 -1.3396  0.7776  0.5976
 6253SOL    HW230393   0.527   0.862   0.700  2.7186  0.1017 -1.9879
 6254SOL     OW30394   3.739   1.911   7.859  0.5119  0.2182  0.1994
 6254SOL    HW130395   3.687   1.874   7.931  0.0925 -0.3633 -0.4070
 6254SOL    HW230396   3.761   1.993   7.904  1.9701  1.0949 -2.1333
 6255SOL     OW30397   3.935   2.595   8.893 -0.5134  0.4311 -0.5889
 6255SOL    HW130398   3.981   2.613   8.975  0.2057 -1.8242 -0.4984
 6255SOL    HW230399   3.983   2.514   8.877 -1.1738 -0.2910  1.0481
 6256SOL     OW30400   2.510   2.079   4.051  0.7489  0.5447  0.2985
 6256SOL    HW130401   2.601   2.051   4.061  0.4473 -0.7466 -0.5368
 6256SOL    HW230402   2.465   2.002   4.086 -1.8979  1.5207 -0.9489
 6257SOL     OW30403   4.353   4.690   3.160  0.3070  0.1890 -0.3793
 6257SOL    HW130404   4.285   0.017   3.184 -0.2413 -0.9052  0.9239
 6257SOL    HW230405   4.310   4.647   3.085 -0.9223  1.8006 -0.6013
 6258SOL     OW30406   1.947   0.197   2.845 -0.1174 -0.1545  0.2743
 6258SOL    HW130407   1.957   0.292   2.836  2.4097 -0.2902  1.6983
 6258SOL    HW230408   2.039   0.169   2.842  0.0258  0.1899  1.4622
 6259SOL     OW30409   4.384   3.681   7.978 -0.1972 -0.0317 -0.0032
 6259SOL    HW130410   4.322   3.751   7.995  0.4738  0.1591  1.7079
 6259SOL    HW230411   4.447   3.724   7.921 -0.2700 -0.3151 -0.2950
 6260SOL     OW30412   1.405   3.622  14.323  0.0577  0.3860 -0.8149
 6260SOL    HW130413   1.399   3.641  14.230 -2.4410 -1.0197 -0.9674
 6260SOL    HW230414   1.321   3.578  14.337 -0.0373  1.1212  1.0002
 6261SOL     OW30415   3.024   0.843  17.061 -0.1970 -0.3041 -0.4810
 6261SOL    HW130416   3.059   0.902  17.128  2.6630 -0.4131 -1.9142
 6261SOL    HW230417   2.929   0.840  17.074 -0.5954  1.1389 -3.1739
 6262SOL     OW30418   0.279   1.553   6.761  0.2483  0.2321  0.1603
 6262SOL    HW130419   0.221   1.559   6.838 -0.3856 -1.2888 -0.2000
 6262SOL    HW230420   0.271   1.459   6.744  0.6742  0.6909 -2.4218
 6263SOL     OW30421   3.052   0.126   6.767 -0.0166 -0.0302  0.4755
 6263SOL    HW130422   3.113   0.147   6.838  1.0966  1.5703 -0.9557
 6263SOL    HW230423   3.099   0.056   6.721 -2.6695 -0.7568 -1.1364
 6264SOL     OW30424   2.139   2.206   9.697 -0.1923 -0.3967 -0.1934
 6264SOL    HW130425   2.052   2.227   9.663 -1.3332 -2.0260  1.7128
 6264SOL    HW230426   2.194   2.282   9.675  0.5545 -0.5147  1.2632
 6265SOL     OW30427   3.434   4.486   8.182 -0.0882  0.2144 -0.1067
 6265SOL    HW130428   3.501   4.455   8.243 -0.0169 -0.7287 -0.6609
 6265SOL    HW230429   3.457   4.438   8.102 -0.5699  1.4959 -1.0017
 6266SOL     OW30430   3.309   0.254   7.690  0.0704  0.0681  0.2004
 6266SOL    HW130431   3.239   0.262   7.754  0.2084  2.0768  0.1224
 6266SOL    HW230432   3.261   0.265   7.608  0.0707  2.9218  0.5666
 6267SOL     OW30433   3.930   4.038   5.043 -0.2821  0.0817  0.6573
 6267SOL    HW130434   3.945   4.079   5.128  1.5513  2.5641 -0.8738
 6267SOL    HW230435   3.848   4.083   5.023 -0.5742 -0.6270  0.2474
 6268SOL     OW30436   0.888   1.535  15.778  0.3594 -0.1998 -0.6812
 6268SOL    HW130437   0.801   1.576  15.778 -1.3214 -3.7507  2.5407
 6268SOL    HW230438   0.901   1.532  15.873  3.4245 -1.6606 -1.1691
 6269SOL     OW30439   4.357   3.426  13.211  0.1532 -0.5221  0.0463
 6269SOL    HW130440   4.351   3.338  13.247  0.0400 -0.1416  0.9456
 6269SOL    HW230441   4.382   3.479  13.286 -1.6728  0.9349 -0.3763
 6270SOL     OW30442   4.445   3.377   5.456 -0.0683  0.0519 -0.4043
 6270SOL    HW130443   4.392   3.364   5.535  2.7075 -0.4534  1.3850
 6270SOL    HW230444   4.523   3.421   5.488  1.8992 -1.2135 -3.4745
 6271SOL     OW30445   2.370   1.721   2.595 -0.0222  0.0824  0.7272
 6271SOL    HW130446   2.346   1.795   2.650  0.5951  0.8453 -0.0284
 6271SOL    HW230447   2.322   1.745   2.515  0.7233 -1.4405 -0.1841
 6272SOL     OW30448   0.197   3.209   9.286 -0.1668 -0.0683  0.2897
 6272SOL    HW130449   0.263   3.276   9.306  0.6258 -0.5667 -0.5960
 6272SOL    HW230450   0.235   3.147   9.223 -2.7200  0.2491 -1.5700
 6273SOL     OW30451   4.008   3.685  10.102 -0.0536 -0.2260 -0.2432
 6273SOL    HW130452   4.081   3.738  10.135  0.6211 -1.0571 -0.3970
 6273SOL    HW230453   4.001   3.745  10.028  1.5948 -1.6185 -1.5206
 6274SOL     OW30454   1.028   1.093   6.862  0.2654 -0.2680 -0.0871
 6274SOL    HW130455   1.117   1.107   6.896  0.8966 -1.5850 -1.1943
 6274SOL    HW230456   1.027   1.049   6.777  0.4024 -0.3558 -0.0443
 6275SOL     OW30457   1.686   0.308   3.923 -0.4224 -0.0249  0.0526
 6275SOL    HW130458   1.667   0.215   3.917  1.2294 -0.1867 -2.6475
 6275SOL    HW230459   1.599   0.347   3.938 -0.6037 -0.4499  0.0855
 6276SOL     OW30460   0.259   3.437   5.962  0.3807 -0.4048 -0.3568
 6276SOL    HW130461   0.211   3.449   5.880 -1.1185  0.0128  0.5853
 6276SOL    HW230462   0.191   3.424   6.027  3.5230 -2.9052  2.4212
 6277SOL     OW30463   0.984   0.030   2.217  0.6962 -0.3599 -0.1204
 6277SOL    HW130464   0.951   0.119   2.211  2.4113  0.0610 -3.3827
 6277SOL    HW230465   1.078   0.047   2.220  0.6402  0.0021 -0.4705
 6278SOL     OW30466   3.718   2.113  10.483  0.2662  0.5565  0.1402
 6278SOL    HW130467   3.663   2.120  10.561 -1.0130  1.3192 -0.8304
 6278SOL    HW230468   3.799   2.073  10.517  0.2179  1.2766  1.0935
 6279SOL     OW30469   1.606   1.800   2.203 -0.3893 -0.0742  0.4225
 6279SOL    HW130470   1.640   1.717   2.237  1.0583  0.0237 -0.8192
 6279SOL    HW230471   1.680   1.853   2.232  1.5404 -2.6090  0.1915
 6280SOL     OW30472   3.921   3.258   1.394  0.2366  0.2952  0.2121
 6280SOL    HW130473   4.014   3.240   1.385  0.2448 -0.1444  1.1357
 6280SOL    HW230474   3.915   3.354   1.393  2.1806  0.4079 -0.5091
 6281SOL     OW30475   0.305   0.276   3.153 -0.5991 -0.6587 -0.0286
 6281SOL    HW130476   0.258   0.292   3.071  0.4446  0.0923 -0.4758
 6281SOL    HW230477   0.338   0.186   3.151  0.3863 -0.3572  2.8137
 6282SOL     OW30478   2.717   3.918   5.805  0.4520 -0.1604  0.3727
 6282SOL    HW130479   2.626   3.902   5.777 -0.3523 -0.7397  3.3356
 6282SOL    HW230480   2.702   3.987   5.869  2.6609 -0.6049  1.3372
 6283SOL     OW30481   3.815   1.544  15.011  0.4644  0.0029 -0.0763
 6283SOL    HW130482   3.888   1.485  14.995 -0.2749 -0.8231 -0.4402
 6283SOL    HW230483   3.846   1.612  15.071  0.9757 -0.8295  0.5911
 6284SOL     OW30484   0.765   0.709  17.297  0.3962  0.0989  0.4158
 6284SOL    HW130485   0.823   0.666  17.233 -0.3234  1.2420 -0.9835
 6284SOL    HW230486   0.768   0.792  17.250  0.3076  0.4855  1.0991
 6285SOL     OW30487   0.527   1.222  15.492 -0.5390  0.4525 -0.4207
 6285SOL    HW130488   0.589   1.152  15.473  0.6958  1.3863  0.1521
 6285SOL    HW230489   0.490   1.229  15.404 -0.5100  2.2880 -0.3002
 6286SOL     OW30490   4.630   4.539   5.128 -0.1643  0.2092 -0.0013
 6286SOL    HW130491   4.659   4.455   5.093 -1.9862 -0.8841  1.0985
 6286SOL    HW230492   4.693   4.607   5.105  0.3080 -0.2560 -0.0785
 6287SOL     OW30493   3.889   3.416   6.949  0.7268 -0.2898 -0.5197
 6287SOL    HW130494   3.890   3.479   6.876  2.9041 -1.3786 -1.4388
 6287SOL    HW230495   3.941   3.460   7.016 -0.3796 -0.2004  0.2760
 6288SOL     OW30496   2.178   2.052   6.585  0.4061  0.4090 -0.0080
 6288SOL    HW130497   2.094   2.018   6.554  1.1002 -1.2406 -0.1075
 6288SOL    HW230498   2.195   2.003   6.666  0.5288 -0.7356 -0.7251
 6289SOL     OW30499   4.603   0.748   3.852 -0.8059  0.3009  0.0022
 6289SOL    HW130500   4.651   0.697   3.787 -1.8311 -0.2520 -0.3051
 6289SOL    HW230501   4.628   0.840   3.840  2.1366 -0.5589 -0.5145
 6290SOL     OW30502   1.417   2.760   6.679  0.1158  0.1700 -0.0917
 6290SOL    HW130503   1.506   2.768   6.713  0.7544 -1.6432 -1.3662
 6290SOL    HW230504   1.372   2.739   6.761 -0.5073 -0.8960 -0.7189
 6291SOL     OW30505   3.955   3.075   5.571 -0.1261 -0.2936  0.4032
 6291SOL    HW130506   4.032   3.048   5.622 -1.2692 -3.5480  0.3995
 6291SOL    HW230507   3.938   2.990   5.530 -0.7421  0.6389 -1.2319
 6292SOL     OW30508   1.051   3.996  13.391  0.6109 -0.6355 -0.1911
 6292SOL    HW130509   0.971   3.943  13.388  0.0678  0.0343  2.8627
 6292SOL    HW230510   1.060   4.040  13.306 -0.8255 -0.0545 -0.0313
 6293SOL     OW30511   3.901   1.735  10.519 -0.5345 -0.4308 -0.3772
 6293SOL    HW130512   3.868   1.740  10.429 -1.8469  2.1562  0.2572
 6293SOL    HW230513   3.850   1.663  10.554  0.6754 -0.1276  2.0000
 6294SOL     OW30514   0.640   3.544   7.086  0.1485 -0.4724  0.1838
 6294SOL    HW130515   0.630   3.635   7.057 -1.4561 -0.3500  1.1398
 6294SOL    HW230516   0.601   3.541   7.173 -1.9856 -2.3289 -0.8360
 6295SOL     OW30517   0.243   1.521   7.083 -0.1785 -0.1140 -0.2253
 6295SOL    HW130518   0.230   1.426   7.087  2.2892 -0.4352  0.1145
 6295SOL    HW230519   0.156   1.535   7.046 -0.1523  0.3913 -0.0941
 6296SOL     OW30520   4.018   4.161   1.168 -0.8443  0.0682 -0.2245
 6296SOL    HW130521   3.987   4.122   1.250  1.0534 -0.9233  0.0124
 6296SOL    HW230522   4.055   4.083   1.126  0.2079  0.9980 -1.0286
 6297SOL     OW30523   2.548   3.595  15.438 -0.2475  0.0210 -0.2664
 6297SOL    HW130524   2.476   3.616  15.497 -1.7831 -3.1661 -1.0203
 6297SOL    HW230525   2.603   3.673  15.438  1.7476 -1.3679  2.6269
 6298SOL     OW30526   4.138   0.694  10.064  0.6239  0.1728  0.5975
 6298SOL    HW130527   4.204   0.626  10.047  1.4636  0.8003  1.4084
 6298SOL    HW230528   4.165   0.761  10.002 -0.7990 -1.0222 -1.3239
 6299SOL     OW30529   3.558   0.769   1.884  0.1295 -0.4124  0.2480
 6299SOL    HW130530   3.611   0.837   1.927  1.8545 -2.5327  1.4481
 6299SOL    HW230531   3.620   0.720   1.831 -2.9698 -1.2290 -2.6232
 6300SOL     OW30532   3.238   2.082   3.988  0.3263  0.1624  0.2225
 6300SOL    HW130533   3.206   2.130   3.912  1.1011 -0.9556 -0.8192
 6300SOL    HW230534   3.245   2.160   4.042 -1.5011 -0.1549  0.9175
 6301SOL     OW30535   2.407   0.115   2.991 -0.6185 -0.2915 -0.4182
 6301SOL    HW130536   2.382   0.032   3.030 -1.2647  0.0330 -0.1462
 6301SOL    HW230537   2.427   0.093   2.900  1.9282  0.3014  0.0071
 6302SOL     OW30538   3.529   4.358  14.577 -0.0850  0.4434 -0.4467
 6302SOL    HW130539   3.554   4.332  14.666 -2.9763 -1.3497 -0.1750
 6302SOL    HW230540   3.599   4.419  14.554  0.8706  0.2484  1.8988
 6303SOL     OW30541   4.698   2.192  13.536  0.1712 -0.1556  0.2509
 6303SOL    HW130542   4.685   2.246  13.458  0.3914 -0.7493 -0.1916
 6303SOL    HW230543   4.640   2.242  13.594  0.7357  1.2215 -0.3641
 6304SOL     OW30544   0.615   1.168   5.662  0.3299  0.2117  0.1122
 6304SOL    HW130545   0.666   1.090   5.684  1.5214  1.0727  0.4000
 6304SOL    HW230546   0.550   1.121   5.610 -0.1759  0.7187  0.2770
 6305SOL     OW30547   3.153   4.003   4.780  0.2126  0.2049 -0.3136
 6305SOL    HW130548   3.234   4.048   4.757  0.4652 -1.1287 -1.9910
 6305SOL    HW230549   3.085   4.062   4.748 -0.1407  0.4613  0.9078
 6306SOL     OW30550   3.308   3.953   6.604  0.2381 -0.3413  0.0480
 6306SOL    HW130551   3.279   4.036   6.566  0.5407  0.4767  1.6046
 6306SOL    HW230552   3.375   3.928   6.540  1.4814  1.9994  0.4525
 6307SOL     OW30553   4.351   1.399  14.085 -0.1431 -0.4809 -0.1644
 6307SOL    HW130554   4.262   1.384  14.053 -1.2459  0.0161  2.6605
 6307SOL    HW230555   4.413   1.379  14.015  0.1500 -0.2945  0.0377
 6308SOL     OW30556   3.569   4.297   2.693  0.5237  0.0702  0.1062
 6308SOL    HW130557   3.632   4.271   2.625 -1.5020 -0.1855 -1.6754
 6308SOL    HW230558   3.547   4.382   2.656 -0.7557 -0.6191 -0.7246
 6309SOL     OW30559   0.840   2.131   3.559 -0.0059  0.1565  0.1841
 6309SOL    HW130560   0.780   2.126   3.633 -0.2248  1.3006  0.0744
 6309SOL    HW230561   0.923   2.145   3.606 -0.5334  2.2332  0.4938
 6310SOL     OW30562   2.181   2.347  14.930 -0.2141 -0.8500 -0.2486
 6310SOL    HW130563   2.275   2.335  14.921 -0.2232 -1.8165  0.8081
 6310SOL    HW230564   2.156   2.298  15.009 -3.2192 -0.8890 -1.2228
 6311SOL     OW30565   1.391   0.915   8.213 -0.2363  0.1754  0.1300
 6311SOL    HW130566   1.410   0.834   8.261  0.1803  0.2037  0.0175
 6311SOL    HW230567   1.399   0.990   8.271 -0.1765 -0.9221  1.5559
 6312SOL     OW30568   0.906   0.960   9.106 -0.2599  0.2002  0.1194
 6312SOL    HW130569   0.976   0.895   9.093  1.9593  2.6725 -0.2542
 6312SOL    HW230570   0.835   0.897   9.115  0.1355 -0.2710 -0.0339
 6313SOL     OW30571   0.227   0.594  17.319  0.2931 -0.5606  0.0330
 6313SOL    HW130572   0.250   0.505  17.346  0.8619 -0.6985 -0.8983
 6313SOL    HW230573   0.312   0.626  17.289  0.7037 -1.2257  0.5081
 6314SOL     OW30574   1.435   2.652   3.949  0.1951 -0.0573  0.0657
 6314SOL    HW130575   1.353   2.682   3.909  0.2304 -1.6476 -1.2147
 6314SOL    HW230576   1.494   2.633   3.876 -1.2947 -0.2025 -1.1183
 6315SOL     OW30577   1.396   3.582   5.601  0.3238  0.6627  0.4014
 6315SOL    HW130578   1.459   3.518   5.635 -1.5802 -2.0493 -1.1740
 6315SOL    HW230579   1.382   3.634   5.680 -3.4898  0.8765 -0.4300
 6316SOL     OW30580   4.054   0.062  13.119  0.0828  0.3558  0.0346
 6316SOL    HW130581   4.074   0.027  13.032 -0.0444  0.0128  0.1410
 6316SOL    HW230582   3.978   0.116  13.097  0.7098  0.7684 -1.1013
 6317SOL     OW30583   0.024   3.710   2.145  0.0505  0.0616  0.1037
 6317SOL    HW130584   0.106   3.663   2.161  1.1642  2.2458  0.8403
 6317SOL    HW230585   4.713   3.647   2.200  1.4132 -1.4248 -0.4783
 6318SOL     OW30586   1.848   0.959   9.837 -0.1288 -0.7176 -0.0736
 6318SOL    HW130587   1.848   0.870   9.802 -0.4531  0.1195 -2.2635
 6318SOL    HW230588   1.755   0.961   9.814 -0.4066  0.9925  1.1908
 6319SOL     OW30589   4.458   1.736   6.351 -0.1074  0.0049  0.3745
 6319SOL    HW130590   4.370   1.701   6.364 -0.6649  0.5415 -2.0052
 6319SOL    HW230591   4.428   1.823   6.323 -2.7296 -1.0179  0.0197
 6320SOL     OW30592   1.485   0.012  10.184 -0.0864  0.0519  0.3171
 6320SOL    HW130593   1.398   4.734  10.146  0.1450 -1.1062  0.1799
 6320SOL    HW230594   1.540   4.717  10.112 -0.8796  0.8461 -0.6198
 6321SOL     OW30595   3.195   4.245   8.288 -0.2677  0.3864  0.3361
 6321SOL    HW130596   3.285   4.246   8.321 -0.6982  0.8790  1.5152
 6321SOL    HW230597   3.177   4.151   8.286  0.5991  0.2511 -0.9126
 6322SOL     OW30598   0.411   1.381   5.642  0.1919  0.0194 -0.1001
 6322SOL    HW130599   0.434   1.433   5.565 -0.6944  1.3880  0.5625
 6322SOL    HW230600   0.490   1.328   5.646 -0.3278 -0.7778 -0.2246
 6323SOL     OW30601   1.364   0.436   3.194  0.3172  0.0905 -0.4228
 6323SOL    HW130602   1.357   0.450   3.289  1.6936 -2.5278  0.0739
 6323SOL    HW230603   1.280   0.471   3.164  0.5480  0.6336 -0.4475
 6324SOL     OW30604   4.052   2.242   4.248 -1.6400 -0.1873  0.5123
 6324SOL    HW130605   4.085   2.153   4.233  0.1252  0.7331 -1.1535
 6324SOL    HW230606   4.031   2.242   4.341 -0.0076 -2.0748  0.8948
 6325SOL     OW30607   3.244   2.600   4.455  0.1450  0.1086  0.1905
 6325SOL    HW130608   3.211   2.604   4.365 -0.0140  0.0342  0.2449
 6325SOL    HW230609   3.237   2.693   4.474  0.7285  0.5168 -1.5480
 6326SOL     OW30610   2.374   1.474   6.910  0.8030  0.3255 -0.9825
 6326SOL    HW130611   2.373   1.382   6.884  0.6642  0.5336 -1.7226
 6326SOL    HW230612   2.282   1.489   6.888  0.3379 -0.8983  0.1825
 6327SOL     OW30613   2.271   0.094   9.844 -0.1860 -0.4433 -0.2645
 6327SOL    HW130614   2.254   0.006   9.878  1.2817 -1.3002 -1.6963
 6327SOL    HW230615   2.317   0.135   9.916  0.3401 -1.0061 -0.2789
 6328SOL     OW30616   2.891   4.021   8.529  0.1071  0.2335 -0.1590
 6328SOL    HW130617   2.860   4.007   8.619  0.8774  2.5561  0.4754
 6328SOL    HW230618   2.912   4.114   8.523  0.9382  0.0746  0.3243
 6329SOL     OW30619   2.199   3.820   6.249 -0.0770  0.1586  0.0276
 6329SOL    HW130620   2.141   3.888   6.283 -0.4576 -0.6717  1.0084
 6329SOL    HW230621   2.215   3.771   6.329 -1.2009  0.6461  0.5493
 6330SOL     OW30622   3.657   1.632  11.800  0.4046  0.2357  0.0702
 6330SOL    HW130623   3.578   1.657  11.847  0.2989 -2.1773  1.2129
 6330SOL    HW230624   3.719   1.693  11.840  1.4590 -0.9827  0.3129
 6331SOL     OW30625   3.926   2.860   8.838 -0.6887  0.0154 -0.3412
 6331SOL    HW130626   3.941   2.772   8.873  2.9295  0.2394 -1.3530
 6331SOL    HW230627   3.860   2.832   8.774 -1.0838  0.1032  0.0354
 6332SOL     OW30628   3.495   4.368   7.447 -0.9518  0.1165 -0.1368
 6332SOL    HW130629   3.501   4.289   7.392 -0.9989 -0.7827  1.1452
 6332SOL    HW230630   3.570   4.421   7.420 -1.8367  1.2493 -0.3378
 6333SOL     OW30631   0.384   1.880   0.493  0.3521  0.3036  0.2277
 6333SOL    HW130632   0.380   1.966   0.535 -2.1711  0.5536 -0.4976
 6333SOL    HW230633   0.311   1.839   0.539  0.5147  1.0720  1.1681
 6334SOL     OW30634   1.125   3.221   1.382  0.4880 -0.1449  0.0720
 6334SOL    HW130635   1.164   3.297   1.427  0.3009 -0.3221  0.5351
 6334SOL    HW230636   1.035   3.251   1.394  0.3833 -1.8437  3.6540
 6335SOL     OW30637   1.494   0.674  13.237  0.7503 -0.2365 -0.7220
 6335SOL    HW130638   1.455   0.761  13.244 -3.0861 -2.1852  1.9246
 6335SOL    HW230639   1.507   0.653  13.330  1.8119  0.6449 -0.6683
 6336SOL     OW30640   2.858   3.174   5.620  0.4658  0.0110 -0.0532
 6336SOL    HW130641   2.821   3.261   5.631 -1.3874 -1.0819  2.5539
 6336SOL    HW230642   2.950   3.198   5.613  1.4354 -4.1147 -1.3946
 6337SOL     OW30643   0.274   2.410   6.402 -0.0428 -0.7319  0.5692
 6337SOL    HW130644   0.265   2.505   6.405 -0.2767 -0.7641  0.8920
 6337SOL    HW230645   0.360   2.399   6.362 -0.9397 -0.8996 -1.2696
 6338SOL     OW30646   2.201   4.441  15.010  0.3499 -0.0372  0.1394
 6338SOL    HW130647   2.229   4.349  15.010  0.1696 -0.0918  0.0514
 6338SOL    HW230648   2.195   4.466  15.102 -0.7780  0.9623 -0.2015
 6339SOL     OW30649   0.599   3.586   7.564 -0.0789 -0.4241 -0.1169
 6339SOL    HW130650   0.633   3.640   7.492  1.1129  0.0165  0.7669
 6339SOL    HW230651   0.645   3.504   7.543 -1.0685 -1.2660  0.9849
 6340SOL     OW30652   1.187   1.802   7.860  0.1931 -0.5017 -0.0733
 6340SOL    HW130653   1.222   1.853   7.933 -1.4692 -0.1416  0.4701
 6340SOL    HW230654   1.172   1.721   7.908 -0.4069  0.5231  1.4686
 6341SOL     OW30655   0.141   3.319   1.297  0.6052  0.5430  0.2176
 6341SOL    HW130656   0.180   3.373   1.228 -0.8462 -0.8615 -1.6973
 6341SOL    HW230657   0.195   3.242   1.283  1.3306  1.6218 -3.0152
 6342SOL     OW30658   3.122   3.006   5.224  0.2263 -0.0551 -0.3824
 6342SOL    HW130659   3.188   3.034   5.288  0.9347  1.2287 -1.6816
 6342SOL    HW230660   3.147   2.914   5.230  0.2221  0.0066  0.6855
 6343SOL     OW30661   3.289   4.511   7.568 -0.4009  0.7030  0.6782
 6343SOL    HW130662   3.337   4.526   7.649 -1.2202  0.6228  1.1807
 6343SOL    HW230663   3.352   4.454   7.524 -0.9299 -0.4589  1.4467
 6344SOL     OW30664   1.189   3.114   6.536 -0.0100  0.4087 -0.7746
 6344SOL    HW130665   1.161   3.057   6.608 -1.6790  0.0971 -1.6581
 6344SOL    HW230666   1.144   3.067   6.466 -1.5136 -0.5071  0.8094
 6345SOL     OW30667   0.484   0.204   2.102  0.5012  0.0551  0.2992
 6345SOL    HW130668   0.540   0.181   2.028 -0.8216  0.6841 -0.9087
 6345SOL    HW230669   0.411   0.234   2.047 -0.6844  0.9922  2.3751
 6346SOL     OW30670   3.314   0.185   3.759  0.4489  0.8403 -0.1513
 6346SOL    HW130671   3.274   0.262   3.799 -0.0549  1.1661 -1.2812
 6346SOL    HW230672   3.391   0.172   3.815 -1.4649  0.6656  2.4547
 6347SOL     OW30673   1.898   3.823  16.927 -0.2551 -0.5593 -0.3421
 6347SOL    HW130674   1.948   3.742  16.935 -2.7740 -2.1672 -1.2434
 6347SOL    HW230675   1.874   3.828  16.834 -2.2187  0.6026  0.2377
 6348SOL     OW30676   0.391   4.643   7.107 -0.1460 -1.3083  0.5920
 6348SOL    HW130677   0.441   4.641   7.189 -0.0929  1.8297  0.6437
 6348SOL    HW230678   0.340   4.564   7.127 -1.7724 -0.0984  1.2445
 6349SOL     OW30679   1.918   4.579  15.741 -0.0067  0.7784  0.0735
 6349SOL    HW130680   1.981   4.650  15.735  0.1789  0.2819 -3.4184
 6349SOL    HW230681   1.923   4.562  15.647 -3.0553  0.9918 -0.1223
 6350SOL     OW30682   3.820   0.245   2.522  0.5523  0.2879  1.1125
 6350SOL    HW130683   3.847   0.336   2.515  1.1476 -0.0331 -0.8055
 6350SOL    HW230684   3.767   0.237   2.602 -0.6486  1.4554  0.4206
 6351SOL     OW30685   0.932   2.918  16.280  0.2063  0.5226  0.1290
 6351SOL    HW130686   1.011   2.873  16.310 -0.2224 -1.8529 -2.3280
 6351SOL    HW230687   0.953   3.011  16.289 -1.6129  0.8865  0.5830
 6352SOL     OW30688   2.761   0.487   9.527  0.3206  0.1068 -0.1354
 6352SOL    HW130689   2.829   0.450   9.470  1.2923  0.3061  0.8932
 6352SOL    HW230690   2.689   0.425   9.519  0.1892  0.1705  0.6274
 6353SOL     OW30691   1.929   4.234   8.953 -0.0198 -0.0592  0.3015
 6353SOL    HW130692   2.012   4.214   8.910  1.1504  1.0490  2.0597
 6353SOL    HW230693   1.951   4.323   8.981 -3.3830  1.2709 -1.2818
 6354SOL     OW30694   1.503   1.856   6.041  0.1835 -0.5313 -0.4069
 6354SOL    HW130695   1.450   1.907   5.980  2.6922  1.5657 -0.8217
 6354SOL    HW230696   1.569   1.838   5.974  0.5788  1.7123 -0.6310
 6355SOL     OW30697   2.130   1.720   8.340  0.1874 -0.5000 -0.6092
 6355SOL    HW130698   2.090   1.736   8.425  0.2419  0.8092 -0.8393
 6355SOL    HW230699   2.064   1.735   8.273  1.4491  1.4963 -1.3866
 6356SOL     OW30700   4.644   3.050  13.246  0.0038 -0.1255  0.8513
 6356SOL    HW130701   4.597   3.035  13.164  0.6415  0.2176  0.4284
 6356SOL    HW230702   4.727   3.084  13.214  0.4790  0.8467  3.1043
 6357SOL     OW30703   0.880   2.469   1.872 -0.3785 -0.1968  0.3800
 6357SOL    HW130704   0.934   2.498   1.945 -1.2811 -1.6930  1.6292
 6357SOL    HW230705   0.797   2.511   1.891 -1.6829 -2.0089 -1.2575
 6358SOL     OW30706   4.098   1.751   4.901  0.1249 -0.4921  0.8897
 6358SOL    HW130707   4.153   1.689   4.948 -0.0337 -0.7931  0.6858
 6358SOL    HW230708   4.021   1.743   4.958  0.6543  0.9217  1.7887
 6359SOL     OW30709   3.096   3.296   6.614 -0.0684 -0.0958  0.0141
 6359SOL    HW130710   3.169   3.331   6.563  1.8294 -1.1529  2.0125
 6359SOL    HW230711   3.110   3.202   6.602 -2.6175 -0.5676  0.9246
 6360SOL     OW30712   3.181   0.406  13.453 -0.3029  0.2728  0.3339
 6360SOL    HW130713   3.151   0.325  13.495  0.5655  0.6596  1.7128
 6360SOL    HW230714   3.271   0.388  13.427 -0.1612  1.0475  0.2877
 6361SOL     OW30715   1.120   3.041   5.494  0.3348  0.2868  0.1691
 6361SOL    HW130716   1.141   3.116   5.439 -0.0608  0.1254 -0.2033
 6361SOL    HW230717   1.202   3.036   5.543  0.4458  0.2579 -0.0194
 6362SOL     OW30718   0.844   3.865   7.815  0.0350 -0.2107 -0.4837
 6362SOL    HW130719   0.908   3.916   7.865  0.0247  0.2016 -0.8837
 6362SOL    HW230720   0.877   3.776   7.823 -0.6978 -0.3893  0.5617
 6363SOL     OW30721   2.800   4.010   4.780 -0.0856  0.3699 -0.8519
 6363SOL    HW130722   2.746   3.975   4.709 -0.2834 -1.5343  0.2377
 6363SOL    HW230723   2.840   3.932   4.819  2.7652 -0.0652 -4.5997
 6364SOL     OW30724   0.764   3.852   3.635  0.2172 -0.4745  0.7238
 6364SOL    HW130725   0.728   3.911   3.702  0.6105 -0.8992  1.3124
 6364SOL    HW230726   0.689   3.808   3.595  0.6384 -0.1245 -0.4499
 6365SOL     OW30727   3.916   3.104   8.986 -0.1788  0.2427  0.2377
 6365SOL    HW130728   3.893   3.014   8.964  1.2034  0.1356 -0.8118
 6365SOL    HW230729   3.911   3.155   8.904  4.5165  1.9710  1.0176
 6366SOL     OW30730   0.316   3.670   9.411 -0.5310  0.5655  0.2982
 6366SOL    HW130731   0.226   3.678   9.443 -0.2497 -1.3082  1.5290
 6366SOL    HW230732   0.314   3.577   9.391  0.2893  0.9232 -1.4482
 6367SOL     OW30733   1.393   1.225  14.514  0.6303 -0.0853 -0.8762
 6367SOL    HW130734   1.481   1.252  14.538 -0.4255  3.1278 -0.5364
 6367SOL    HW230735   1.381   1.290  14.444 -2.4977  0.4918  0.1751
 6368SOL     OW30736   2.573   3.348  14.326  0.4602  0.5697  0.5590
 6368SOL    HW130737   2.635   3.333  14.397 -0.4294 -0.9604  1.0171
 6368SOL    HW230738   2.561   3.257  14.300  0.7789  0.9656 -0.9666
 6369SOL     OW30739   4.009   0.640   8.930 -0.3381 -0.1812  0.8014
 6369SOL    HW130740   3.944   0.572   8.915 -0.2208  0.0108 -0.5513
 6369SOL    HW230741   3.945   0.703   8.963  0.9703  1.3636  0.3852
 6370SOL     OW30742   2.943   3.758   0.206 -0.0679  0.1520 -0.2580
 6370SOL    HW130743   2.980   3.671   0.220  2.2465  1.1926  0.1782
 6370SOL    HW230744   2.853   3.736   0.232  0.5138 -1.9233 -0.0392
 6371SOL     OW30745   1.536   0.041   1.520  0.0837  0.5917 -0.1029
 6371SOL    HW130746   1.594   0.053   1.445 -0.0552  0.0892 -0.2936
 6371SOL    HW230747   1.464   4.722   1.485 -0.7315  1.9172 -0.4887
 6372SOL     OW30748   2.848   2.762   9.697 -0.2087 -0.5143 -0.0188
 6372SOL    HW130749   2.899   2.735   9.621  0.0699  0.4236 -0.1603
 6372SOL    HW230750   2.879   2.849   9.722  0.9167 -1.3842  1.6022
 6373SOL     OW30751   0.240   2.813   5.381 -0.2869  0.0814 -0.1495
 6373SOL    HW130752   0.170   2.827   5.445 -0.9241 -2.6601 -0.2526
 6373SOL    HW230753   0.220   2.881   5.317  0.1051  2.2256  1.9675
 6374SOL     OW30754   4.314   2.390  11.810  0.0198 -0.3230 -0.2656
 6374SOL    HW130755   4.229   2.428  11.788  1.3710  3.1879  0.6054
 6374SOL    HW230756   4.357   2.465  11.851 -0.8476  1.4941 -2.7002
 6375SOL     OW30757   1.080   4.278  10.888 -0.4928 -0.4125  0.6391
 6375SOL    HW130758   1.056   4.269  10.981 -1.6108  2.1878  0.6019
 6375SOL    HW230759   1.171   4.251  10.891 -0.5672 -0.6639  0.6774
 6376SOL     OW30760   2.766   3.051  11.522  0.1240 -0.5665  0.8464
 6376SOL    HW130761   2.688   3.051  11.466  2.4257 -0.5454 -2.3633
 6376SOL    HW230762   2.740   3.114  11.588  1.9714 -0.0157  1.0338
 6377SOL     OW30763   3.510   2.362   9.040 -0.4501  0.4470  0.3859
 6377SOL    HW130764   3.562   2.333   8.966 -1.2799  0.7352 -0.3136
 6377SOL    HW230765   3.576   2.378   9.108 -1.7883  1.4353  1.4651
 6378SOL     OW30766   4.181   0.226   5.441 -0.5602 -0.3969 -0.2657
 6378SOL    HW130767   4.162   0.260   5.354  0.4977  1.3961  0.1889
 6378SOL    HW230768   4.128   0.276   5.504 -0.3702  0.2998 -0.6508
 6379SOL     OW30769   4.220   2.455  14.538 -0.1474 -0.4387 -0.0502
 6379SOL    HW130770   4.179   2.505  14.467  0.8115 -0.6991 -0.7895
 6379SOL    HW230771   4.300   2.508  14.545 -0.3086  0.0293 -1.7446
 6380SOL     OW30772   0.555   0.673   8.437  0.5079 -0.2787 -0.0732
 6380SOL    HW130773   0.619   0.705   8.374  0.2678  0.9100  0.2899
 6380SOL    HW230774   0.589   0.738   8.499  0.2235  1.0963 -1.3649
 6381SOL     OW30775   0.679   2.899   1.979 -0.0070 -0.3333  0.1305
 6381SOL    HW130776   0.681   2.803   1.983  2.3046 -0.2980 -0.2593
 6381SOL    HW230777   0.763   2.919   1.938  0.1471  2.9430  2.0500
 6382SOL     OW30778   2.513   4.347  12.175 -0.3472 -0.2768 -0.0019
 6382SOL    HW130779   2.420   4.324  12.170 -0.7478  1.6026 -0.8761
 6382SOL    HW230780   2.535   4.351  12.268  0.7113  2.3607 -0.3718
 6383SOL     OW30781   1.311   4.495   7.790  0.2560 -0.5560  1.0471
 6383SOL    HW130782   1.311   4.442   7.870 -1.3500 -1.6056  0.3578
 6383SOL    HW230783   1.218   4.498   7.766  1.1143  0.0710 -2.2181
 6384SOL     OW30784   3.453   4.018  11.428 -0.1710  0.0531  0.1968
 6384SOL    HW130785   3.393   3.951  11.394  0.4542 -1.3598  1.8721
 6384SOL    HW230786   3.517   3.963  11.473  3.1728  0.7018 -3.7818
 6385SOL     OW30787   0.660   3.446   8.562  0.4024  0.1900  0.8194
 6385SOL    HW130788   0.618   3.484   8.639 -1.3233 -0.6657  0.3054
 6385SOL    HW230789   0.704   3.368   8.594  0.5888  0.1781  0.5339
 6386SOL     OW30790   4.622   0.051   0.399  0.6297 -0.4113 -0.1524
 6386SOL    HW130791   4.597   0.017   0.485 -1.1648 -1.3307 -1.0466
 6386SOL    HW230792   4.635   0.144   0.419  0.4480 -0.1808 -1.0809
 6387SOL     OW30793   4.330   4.353   0.394 -0.5012 -0.3450 -0.5524
 6387SOL    HW130794   4.354   4.442   0.370  0.7878 -0.3055  0.9242
 6387SOL    HW230795   4.354   4.318   0.308  0.5627 -2.5017  0.6231
 6388SOL     OW30796   1.372   2.831  13.908  0.0065 -0.1884  0.6457
 6388SOL    HW130797   1.396   2.920  13.881  0.4374 -0.2466  0.8348
 6388SOL    HW230798   1.276   2.832  13.918 -0.0742  2.5040 -0.4010
 6389SOL     OW30799   0.430   3.622   7.863 -0.4628  0.6627 -0.5516
 6389SOL    HW130800   0.339   3.650   7.870 -1.1436 -1.6296 -0.1700
 6389SOL    HW230801   0.467   3.687   7.803 -0.4937  0.4319 -0.8252
 6390SOL     OW30802   0.861   1.398  16.521 -1.0630 -0.2109 -0.9159
 6390SOL    HW130803   0.950   1.386  16.556 -1.4947  0.9849  0.5580
 6390SOL    HW230804   0.830   1.450  16.595 -0.2783  0.1345 -0.8286
 6391SOL     OW30805   0.630   3.376   6.200 -0.0679  1.3194  0.1469
 6391SOL    HW130806   0.610   3.316   6.272  0.1178  0.2227 -0.7074
 6391SOL    HW230807   0.589   3.322   6.133  0.7296 -0.0661  0.7649
 6392SOL     OW30808   2.141   3.458  15.463 -0.2969 -0.4455 -0.1628
 6392SOL    HW130809   2.179   3.409  15.390  0.5933  1.2460 -0.8205
 6392SOL    HW230810   2.215   3.508  15.498  1.4058 -2.6017 -0.6438
 6393SOL     OW30811   0.026   3.958   9.122 -0.5207 -0.3652  1.3333
 6393SOL    HW130812   0.031   4.048   9.153 -2.6191 -0.5276  2.1469
 6393SOL    HW230813   0.090   3.920   9.182 -0.6657 -1.7962  0.5903
 6394SOL     OW30814   1.578   3.855   8.183  0.1149  0.0941 -0.1132
 6394SOL    HW130815   1.583   3.771   8.228  1.6072 -0.4380 -1.2551
 6394SOL    HW230816   1.496   3.889   8.219 -0.1576 -1.4214  0.7027
 6395SOL     OW30817   3.397   2.843  10.546 -0.0228  0.1059  0.1704
 6395SOL    HW130818   3.414   2.912  10.609  0.8835  1.3095 -1.3912
 6395SOL    HW230819   3.473   2.786  10.557 -0.2727 -0.2669 -0.0077
 6396SOL     OW30820   2.023   4.394  14.098 -0.1746  1.0342  0.3963
 6396SOL    HW130821   1.965   4.352  14.163 -2.4676 -1.6417 -3.3797
 6396SOL    HW230822   2.111   4.386  14.134 -0.6391  0.2755  1.3602
 6397SOL     OW30823   2.841   1.198   1.671  0.1828 -0.1127  0.2634
 6397SOL    HW130824   2.755   1.229   1.642 -0.7147 -2.4349  0.4617
 6397SOL    HW230825   2.874   1.154   1.593 -0.7054 -0.0282 -0.1600
 6398SOL     OW30826   0.989   1.716   4.273  0.4310 -0.2461  0.2907
 6398SOL    HW130827   1.011   1.676   4.189  0.2254 -4.0565  2.0434
 6398SOL    HW230828   0.968   1.806   4.247 -0.4974 -0.8766 -1.1371
 6399SOL     OW30829   3.805   2.754   8.613 -0.6471  0.3037  0.2086
 6399SOL    HW130830   3.877   2.697   8.587  0.4027  2.0105 -0.6318
 6399SOL    HW230831   3.781   2.798   8.532  0.6398 -0.9733 -0.8574
 6400SOL     OW30832   3.268   1.221   4.495 -0.0556  0.1251  0.6329
 6400SOL    HW130833   3.181   1.182   4.486  0.3067 -1.2836  3.4045
 6400SOL    HW230834   3.257   1.282   4.422  2.1341 -0.8664 -0.5471
 6401SOL     OW30835   3.913   4.366   4.554  0.3379  0.1532 -0.0240
 6401SOL    HW130836   3.870   4.320   4.482  1.9744  0.0944 -0.9475
 6401SOL    HW230837   3.854   4.442   4.559 -0.3089 -0.3703  0.3519
 6402SOL     OW30838   3.908   0.851   6.288  0.0583  0.0042 -0.2981
 6402SOL    HW130839   3.952   0.881   6.208 -0.6749 -1.0809 -1.1040
 6402SOL    HW230840   3.827   0.899   6.276  0.1900  1.0035  2.7325
 6403SOL     OW30841   4.548   2.050   6.567 -0.1820  0.3698  0.4473
 6403SOL    HW130842   4.619   1.991   6.591 -0.1657  0.2229  0.0370
 6403SOL    HW230843   4.591   2.107   6.504 -1.5602  3.2171  2.0448
 6404SOL     OW30844   3.959   1.561   3.912  0.2428  0.0820 -0.1223
 6404SOL    HW130845   4.022   1.630   3.892  1.2330 -1.4685 -2.4154
 6404SOL    HW230846   3.994   1.533   3.997 -1.1726 -0.4190  0.2920
 6405SOL     OW30847   1.487   0.560   4.387 -0.8734  0.8891  0.1008
 6405SOL    HW130848   1.449   0.476   4.361 -0.1338  0.9258 -1.1273
 6405SOL    HW230849   1.574   0.551   4.347 -1.1181  1.6275 -0.5932
 6406SOL     OW30850   0.402   2.380   9.645  0.0646  1.1212 -0.0676
 6406SOL    HW130851   0.380   2.422   9.728 -1.9214 -0.6131  0.2943
 6406SOL    HW230852   0.493   2.407   9.635  0.4252 -1.3445 -3.4309
 6407SOL     OW30853   4.226   1.144   4.861  0.0258 -0.5196  0.9875
 6407SOL    HW130854   4.163   1.107   4.922 -0.6073 -1.4638 -0.2399
 6407SOL    HW230855   4.209   1.234   4.890 -1.6347 -0.4163 -0.3474
 6408SOL     OW30856   0.622   0.066  11.432  0.2811 -0.1282  0.2608
 6408SOL    HW130857   0.606   0.102  11.345  0.8228  1.3219  0.7736
 6408SOL    HW230858   0.681   0.125  11.477  0.7135 -1.4264  1.3918
 6409SOL     OW30859   1.358   0.008   5.955 -0.0742  0.8448 -0.7219
 6409SOL    HW130860   1.301   4.681   6.000  2.0875 -0.4622  0.2153
 6409SOL    HW230861   1.305   0.047   5.886 -1.5834 -0.2166 -0.1557
 6410SOL     OW30862   1.260   4.511   0.747 -0.4016  0.3942  0.5318
 6410SOL    HW130863   1.188   4.544   0.693  0.1605  0.5618 -0.1345
 6410SOL    HW230864   1.251   4.416   0.748  1.9971  0.1576 -0.5594
 6411SOL     OW30865   0.667   3.505  17.201 -0.1085  0.0168 -0.4781
 6411SOL    HW130866   0.708   3.519  17.115 -0.4504 -2.8349 -1.1191
 6411SOL    HW230867   0.650   3.411  17.196 -0.3653 -0.0237  1.3606
 6412SOL     OW30868   3.423   0.784   7.407  0.2509  0.3331  0.4443
 6412SOL    HW130869   3.368   0.729   7.351  2.0506 -1.6154  0.6258
 6412SOL    HW230870   3.349   0.820   7.457 -0.0002 -1.8898  1.6776
 6413SOL     OW30871   0.028   0.105   2.370 -0.4733  0.1357  0.0672
 6413SOL    HW130872   4.722   0.131   2.453 -0.7485  1.8594 -0.6139
 6413SOL    HW230873   0.096   0.041   2.391 -0.4126  0.8890  2.2195
 6414SOL     OW30874   1.628   4.513   4.157 -0.1814 -0.0852  0.2655
 6414SOL    HW130875   1.612   4.431   4.110 -1.5312  0.6573 -0.5806
 6414SOL    HW230876   1.673   4.482   4.235  0.6229 -1.6793 -0.8271
 6415SOL     OW30877   4.130   2.873   4.261 -0.1297 -0.0973 -0.0021
 6415SOL    HW130878   4.067   2.866   4.189 -0.0810 -0.8202  0.0255
 6415SOL    HW230879   4.111   2.797   4.316 -3.5181  0.9449  0.2560
 6416SOL     OW30880   0.399   0.821   8.114  0.7042 -0.6074  0.1916
 6416SOL    HW130881   0.351   0.887   8.165  1.3192  1.0428 -1.3439
 6416SOL    HW230882   0.479   0.864   8.085  0.8659 -0.8885  0.2240
 6417SOL     OW30883   3.071   4.488   4.495 -0.3294 -0.2782 -0.0633
 6417SOL    HW130884   2.997   4.529   4.540  0.6255  0.6667  0.6502
 6417SOL    HW230885   3.123   4.563   4.465 -1.7796  0.1812 -1.4586
 6418SOL     OW30886   2.044   1.019  10.799  0.0263 -0.0427 -0.0937
 6418SOL    HW130887   2.040   0.961  10.723 -0.7495  0.7515 -0.6682
 6418SOL    HW230888   2.137   1.042  10.800 -0.4061  1.7297 -0.6854
 6419SOL     OW30889   0.894   2.389  10.950  0.0477 -0.5495 -0.1676
 6419SOL    HW130890   0.959   2.339  10.999  0.0860  1.0084  1.3606
 6419SOL    HW230891   0.847   2.324  10.897  0.6123 -0.9855 -0.1387
 6420SOL     OW30892   2.932   2.321  13.120 -0.4555 -0.1859  0.4316
 6420SOL    HW130893   2.957   2.263  13.192 -1.5733 -2.2272 -0.8248
 6420SOL    HW230894   3.017   2.325  13.075  0.2100 -1.5805  1.5655
 6421SOL     OW30895   4.181   1.350   0.252  0.2188 -0.2204  0.0794
 6421SOL    HW130896   4.211   1.426   0.301 -2.1200  0.2614  0.7768
 6421SOL    HW230897   4.110   1.381   0.196  0.3284 -1.0178 -0.5110
 6422SOL     OW30898   3.409   1.934   9.676 -0.2523 -0.8038 -0.6171
 6422SOL    HW130899   3.395   1.871   9.605 -0.6303  0.3534 -1.5671
 6422SOL    HW230900   3.346   1.999   9.644  0.3348 -0.0282 -0.1686
 6423SOL     OW30901   4.212   3.420   2.765 -0.2249 -0.3194 -0.4667
 6423SOL    HW130902   4.305   3.445   2.772 -0.8261  1.5941  0.5287
 6423SOL    HW230903   4.205   3.351   2.830 -0.3517  0.5841  0.4793
 6424SOL     OW30904   2.571   3.632   4.077 -0.6144  0.4228 -0.0545
 6424SOL    HW130905   2.607   3.637   4.165 -0.4411  0.0320 -0.1052
 6424SOL    HW230906   2.592   3.543   4.048 -0.1131  0.0047  1.6007
 6425SOL     OW30907   1.601   0.674   7.234 -0.5319 -0.2025  0.2009
 6425SOL    HW130908   1.674   0.717   7.189  0.4495  0.2640  2.2258
 6425SOL    HW230909   1.650   0.603   7.275 -1.0911 -0.7248 -0.0314
 6426SOL     OW30910   2.729   0.822   5.090  0.0951  0.1902  0.2134
 6426SOL    HW130911   2.657   0.855   5.143  1.1452  0.0769  1.6927
 6426SOL    HW230912   2.698   0.733   5.077  1.6538 -0.1799 -1.0751
 6427SOL     OW30913   3.901   2.814   6.724 -0.3893  0.5507 -0.4469
 6427SOL    HW130914   3.850   2.890   6.693  0.9723  0.8538 -1.9419
 6427SOL    HW230915   3.988   2.847   6.703 -0.2045  0.3048 -0.0429
 6428SOL     OW30916   3.647   0.387   1.967 -0.0220 -0.2639 -0.3645
 6428SOL    HW130917   3.600   0.364   2.047  4.0711  1.3257  2.4663
 6428SOL    HW230918   3.584   0.452   1.934  1.0727  1.8175  1.6472
 6429SOL     OW30919   1.596   3.298   8.858 -0.2538 -0.3122  0.3655
 6429SOL    HW130920   1.676   3.250   8.880  0.7773  1.1535 -0.1895
 6429SOL    HW230921   1.584   3.350   8.937 -0.2993 -1.7272  1.2938
 6430SOL     OW30922   1.353   4.263   8.225 -0.2127  0.1120  0.5930
 6430SOL    HW130923   1.407   4.326   8.273  0.8181  1.6201 -2.5400
 6430SOL    HW230924   1.396   4.179   8.239 -2.7246 -1.7703 -2.9209
 6431SOL     OW30925   3.764   1.288   9.591 -0.3075  0.0019 -0.6388
 6431SOL    HW130926   3.785   1.295   9.684 -1.0305 -1.3717 -0.3705
 6431SOL    HW230927   3.853   1.274   9.557 -0.0799  0.4202 -0.2155
 6432SOL     OW30928   2.982   2.215   9.570 -0.2260  0.0971  0.2485
 6432SOL    HW130929   2.937   2.297   9.592  0.3559 -0.0504  2.0019
 6432SOL    HW230930   2.910   2.165   9.531  0.2176  0.2820 -0.7997
 6433SOL     OW30931   4.222   2.442   1.005  0.1319  0.4286 -0.3592
 6433SOL    HW130932   4.253   2.533   1.007  1.7856 -0.0899 -2.1156
 6433SOL    HW230933   4.249   2.401   0.923  1.2550 -0.3941  0.4203
 6434SOL     OW30934   4.375   1.764   7.495 -0.2686  0.1006 -0.3853
 6434SOL    HW130935   4.418   1.768   7.409 -0.5770  0.4407 -0.5231
 6434SOL    HW230936   4.380   1.671   7.515 -1.5635  0.1221 -0.0231
 6435SOL     OW30937   0.702   1.027  15.410 -0.1247 -0.0948 -0.6712
 6435SOL    HW130938   0.713   0.934  15.392 -0.2366 -0.1869 -0.2690
 6435SOL    HW230939   0.776   1.041  15.470 -0.9045 -1.7338  0.6581
 6436SOL     OW30940   3.261   2.251  12.447 -0.8879  0.1284 -0.2630
 6436SOL    HW130941   3.173   2.284  12.463 -0.9643  0.4014 -1.2264
 6436SOL    HW230942   3.285   2.297  12.367 -0.4422 -0.8362 -0.6893
 6437SOL     OW30943   0.154   3.558   6.231  0.4620 -0.2031  0.5172
 6437SOL    HW130944   0.073   3.511   6.209 -0.6763  0.9125  2.2976
 6437SOL    HW230945   0.160   3.532   6.323  1.9430  0.7007  0.6798
 6438SOL     OW30946   2.562   1.414   9.243 -0.2832 -0.1169  0.6773
 6438SOL    HW130947   2.545   1.392   9.334  0.6708  1.4448  1.2281
 6438SOL    HW230948   2.605   1.500   9.246  1.9405 -1.1869 -0.1133
 6439SOL     OW30949   3.937   0.409   7.212 -1.0665  0.5480 -0.5603
 6439SOL    HW130950   4.028   0.429   7.192 -1.1001  1.3353  0.0724
 6439SOL    HW230951   3.931   0.398   7.307  1.1676 -0.7790 -0.5829
 6440SOL     OW30952   2.434   3.703  17.319  0.0764 -0.1922 -0.1369
 6440SOL    HW130953   2.444   3.794  17.343 -0.6357  0.0775 -0.8391
 6440SOL    HW230954   2.525   3.674  17.326  0.0113 -0.6288 -1.0896
 6441SOL     OW30955   3.282   0.479   5.615  0.0828  0.1878  0.1378
 6441SOL    HW130956   3.312   0.563   5.581 -0.3093  1.5073  2.9971
 6441SOL    HW230957   3.357   0.420   5.608 -0.7077 -0.6898 -0.8947
 6442SOL     OW30958   3.785   3.214  14.375 -0.4312  0.4172 -0.3592
 6442SOL    HW130959   3.842   3.260  14.313  0.1850 -1.2822 -1.0727
 6442SOL    HW230960   3.815   3.123  14.364 -0.3695  0.5761 -1.4759
 6443SOL     OW30961   0.140   2.143   8.714 -0.2202  0.2258  0.1180
 6443SOL    HW130962   0.190   2.202   8.657  0.4014 -1.3452 -0.9462
 6443SOL    HW230963   0.054   2.186   8.722 -0.8164 -1.0358  0.4162
 6444SOL     OW30964   3.125   2.944   4.072 -0.1136 -0.2120 -0.2713
 6444SOL    HW130965   3.087   2.920   3.987  0.4024 -0.7118 -0.3578
 6444SOL    HW230966   3.046   2.958   4.124 -1.0827 -4.5908 -0.5688
 6445SOL     OW30967   3.808   2.356  17.410 -0.4269 -0.0342 -0.2785
 6445SOL    HW130968   3.847   2.362  17.497 -2.9025  0.4606  0.8045
 6445SOL    HW230969   3.861   2.293  17.360  0.1847  0.5289 -0.3329
 6446SOL     OW30970   1.724   2.419  16.181  0.0379  0.5413 -0.1450
 6446SOL    HW130971   1.639   2.374  16.178 -0.5792  1.6394  0.7514
 6446SOL    HW230972   1.730   2.425  16.086 -1.3678  0.6527 -0.2362
 6447SOL     OW30973   0.258   4.678   2.344  0.2844  0.0133  0.4023
 6447SOL    HW130974   0.245   4.588   2.314  1.2877 -0.0833  0.2621
 6447SOL    HW230975   0.331   4.701   2.287 -1.1035 -0.5845 -1.5934
 6448SOL     OW30976   0.833   4.722   1.221 -0.9057 -0.1598  0.2256
 6448SOL    HW130977   0.821   0.080   1.242  1.7187  0.9150 -3.0561
 6448SOL    HW230978   0.805   4.686   1.306 -0.5138 -1.2415 -0.1121
 6449SOL     OW30979   2.104   0.626   7.017  0.0234  0.4402 -0.2546
 6449SOL    HW130980   2.025   0.617   6.964  0.9645  0.5179 -1.6562
 6449SOL    HW230981   2.109   0.719   7.039  1.3669  0.1890  0.5080
 6450SOL     OW30982   0.887   3.994   8.530  0.2139  0.2721  0.0852
 6450SOL    HW130983   0.960   4.042   8.569 -0.8917 -0.1119  2.6475
 6450SOL    HW230984   0.926   3.907   8.536  2.7873  1.3573 -0.8470
 6451SOL     OW30985   0.122   2.801  12.060  0.4345 -0.0085 -0.2468
 6451SOL    HW130986   0.188   2.749  12.106 -1.1524 -1.2037  0.6676
 6451SOL    HW230987   0.181   2.844  11.998  1.5471 -1.1508  0.0242
 6452SOL     OW30988   4.315   2.240   9.278 -0.0357 -0.2302 -0.1654
 6452SOL    HW130989   4.401   2.223   9.316 -0.0862  0.2442  0.1672
 6452SOL    HW230990   4.331   2.255   9.185  0.3114 -0.4387 -0.1375
 6453SOL     OW30991   2.328   0.779   5.856  0.1576 -0.2270 -0.1158
 6453SOL    HW130992   2.401   0.737   5.902  1.5693  1.9390 -0.3646
 6453SOL    HW230993   2.310   0.709   5.794  1.3561 -0.6158 -0.0257
 6454SOL     OW30994   0.652   2.093  14.748  0.5415 -0.6108  0.2516
 6454SOL    HW130995   0.565   2.130  14.731  1.7105  0.2774 -3.7075
 6454SOL    HW230996   0.667   2.026  14.681 -0.0056  0.3853 -0.8546
 6455SOL     OW30997   1.568   4.083   4.312  0.4481 -0.2329  0.4773
 6455SOL    HW130998   1.494   4.070   4.371  0.6895 -0.2496  0.7727
 6455SOL    HW230999   1.597   3.993   4.327  2.7447  0.5144  0.5385
 6456SOL     OW31000   2.086   1.764   7.416  0.0401  0.1293  0.0325
 6456SOL    HW131001   2.088   1.832   7.348  1.3938 -1.4601 -1.5092
 6456SOL    HW231002   2.008   1.785   7.467  1.7686  1.3849  2.1881
 6457SOL     OW31003   0.775   2.874  13.691 -0.6846  0.2023  0.5573
 6457SOL    HW131004   0.723   2.837  13.763 -2.0841 -1.4182 -1.2614
 6457SOL    HW231005   0.796   2.961  13.725 -3.9792  2.2090 -2.5526
 6458SOL     OW31006   4.196   2.095   8.085 -0.3293 -0.2289  0.5185
 6458SOL    HW131007   4.182   2.081   7.991  0.9372  0.0078  0.3013
 6458SOL    HW231008   4.129   2.040   8.125 -2.5644  1.0520 -1.3780
 6459SOL     OW31009   3.408   3.389  12.988 -0.2913  0.5403  0.6111
 6459SOL    HW131010   3.498   3.396  13.019 -1.2266 -0.2704  3.5078
 6459SOL    HW231011   3.409   3.463  12.927 -0.0968  1.0498  1.2388
 6460SOL     OW31012   1.685   4.024   6.844 -0.6350  0.1138 -0.3678
 6460SOL    HW131013   1.642   4.039   6.760  0.3872  0.6554 -0.7899
 6460SOL    HW231014   1.612   3.977   6.884 -1.5118  2.6585  1.0065
 6461SOL     OW31015   2.599   1.204   8.351  0.3402 -0.3832  0.0427
 6461SOL    HW131016   2.570   1.263   8.421  1.9167  0.2618  0.1496
 6461SOL    HW231017   2.554   1.236   8.274  1.6731  0.6902 -0.2823
 6462SOL     OW31018   2.847   1.021   3.757 -0.1299 -0.1985 -0.5203
 6462SOL    HW131019   2.925   1.000   3.706 -0.2362 -1.7421 -0.0262
 6462SOL    HW231020   2.859   1.113   3.782  0.5790  0.2302 -2.4397
 6463SOL     OW31021   4.664   2.813  13.481 -0.1300 -0.2178 -0.4881
 6463SOL    HW131022   4.696   2.902  13.497 -4.3632  0.8497  2.1021
 6463SOL    HW231023   0.001   2.775  13.432  0.1556  1.0467 -1.0412
 6464SOL     OW31024   3.000   1.381  12.123 -0.1515  0.2148 -0.2962
 6464SOL    HW131025   2.992   1.408  12.215 -0.3421 -1.4700  0.1843
 6464SOL    HW231026   3.007   1.286  12.126 -0.6620  0.1854 -0.0632
 6465SOL     OW31027   1.442   1.625   4.087 -0.2567 -0.6284  0.1224
 6465SOL    HW131028   1.430   1.714   4.119 -0.8206 -0.2891 -1.0373
 6465SOL    HW231029   1.524   1.592   4.124  0.9357  0.7065 -1.3459
 6466SOL     OW31030   3.396   4.265   5.417  0.5420  1.1194  0.0316
 6466SOL    HW131031   3.361   4.261   5.328 -0.0329  1.5195  0.2409
 6466SOL    HW231032   3.475   4.211   5.413 -1.0486 -0.9434 -3.2177
 6467SOL     OW31033   3.438   0.601   4.504  0.1157 -0.1310  0.5080
 6467SOL    HW131034   3.483   0.550   4.437 -0.5613 -1.1918  0.8691
 6467SOL    HW231035   3.439   0.683   4.454 -1.0941 -0.4265  0.0250
 6468SOL     OW31036   2.200   0.864   3.349  0.0628 -0.1418 -0.6075
 6468SOL    HW131037   2.250   0.944   3.361 -0.9378  0.4623 -0.4667
 6468SOL    HW231038   2.268   0.808   3.310 -0.0609  0.6765 -2.0187
 6469SOL     OW31039   4.232   2.689  10.155  0.2641  0.1085  0.4122
 6469SOL    HW131040   4.154   2.722  10.200  0.4786  1.0275  0.1158
 6469SOL    HW231041   4.217   2.719  10.065 -0.5899  2.8305  1.4627
 6470SOL     OW31042   1.873   2.269  15.730  0.0033 -0.2620 -0.1052
 6470SOL    HW131043   1.832   2.184  15.745 -0.0842 -0.2329 -0.1813
 6470SOL    HW231044   1.958   2.233  15.702  0.7223  0.6697  0.9021
 6471SOL     OW31045   3.434   3.946   3.745  0.4435 -0.4374  0.1062
 6471SOL    HW131046   3.442   3.863   3.792 -1.0750  0.5321  2.0817
 6471SOL    HW231047   3.339   3.948   3.751  0.4995 -1.4258  1.2670
 6472SOL     OW31048   2.072   0.835  17.418 -0.1159  0.5535  0.3283
 6472SOL    HW131049   2.056   0.849  17.325  1.1768  0.2024  0.0483
 6472SOL    HW231050   2.010   0.897  17.455  2.0120  3.7289 -1.4171
 6473SOL     OW31051   0.972   3.045   5.066  0.1632 -0.0565  0.2371
 6473SOL    HW131052   0.885   3.010   5.086  1.4812 -3.1306  0.6189
 6473SOL    HW231053   1.034   2.978   5.096  2.2673  1.6419 -0.3241
 6474SOL     OW31054   1.921   3.018   5.905  0.1330  0.3205 -0.0220
 6474SOL    HW131055   1.950   2.984   5.821 -0.2639 -0.4452  0.1492
 6474SOL    HW231056   1.993   2.989   5.960  1.0167  1.8295 -0.3804
 6475SOL     OW31057   1.844   3.290  11.649  0.1599 -0.0116  0.5620
 6475SOL    HW131058   1.781   3.319  11.583  1.8407  1.0775 -0.5638
 6475SOL    HW231059   1.834   3.195  11.637 -1.2502  0.1220  0.6398
 6476SOL     OW31060   3.860   0.217   3.239 -0.5826 -0.2114  0.1202
 6476SOL    HW131061   3.829   0.212   3.329  0.8679 -0.3891  0.6191
 6476SOL    HW231062   3.818   0.138   3.207  1.4440 -2.1367  2.1585
 6477SOL     OW31063   4.265   0.748   6.857  0.2715  0.6936  0.1350
 6477SOL    HW131064   4.255   0.730   6.764  3.1013 -0.3607  0.0194
 6477SOL    HW231065   4.310   0.667   6.881  0.2365  0.0610 -1.9891
 6478SOL     OW31066   0.591   4.268  13.792  0.1644  0.0934 -0.3713
 6478SOL    HW131067   0.633   4.295  13.710  0.4328  1.0248  0.0676
 6478SOL    HW231068   0.635   4.193  13.832  1.3453  1.1588  0.3074
 6479SOL     OW31069   4.612   3.738   2.689 -0.7241 -0.7824 -0.4221
 6479SOL    HW131070   4.692   3.713   2.643 -1.3819 -0.2106 -1.8825
 6479SOL    HW231071   4.642   3.818   2.731 -1.7532 -0.1118 -0.9583
 6480SOL     OW31072   0.210   3.923  10.921 -0.1930  0.2640  0.7437
 6480SOL    HW131073   0.260   3.923  11.003  0.0201 -2.0560  0.6201
 6480SOL    HW231074   0.286   3.916  10.863  0.6791  0.6212  1.8562
 6481SOL     OW31075   2.004   1.375   8.913 -0.2621  0.1657  0.5158
 6481SOL    HW131076   2.022   1.288   8.948  0.3674 -0.3937 -1.1723
 6481SOL    HW231077   1.990   1.428   8.992 -1.0910  0.0867  0.4210
 6482SOL     OW31078   3.909   0.137   5.328  0.0902 -0.6093  0.2968
 6482SOL    HW131079   3.932   0.177   5.244 -0.9408 -0.8692 -0.1112
 6482SOL    HW231080   3.919   0.200   5.399  1.7843 -2.6175  1.8514
 6483SOL     OW31081   0.103   3.006   4.981  0.0914  0.3630  0.1708
 6483SOL    HW131082   0.070   2.930   4.932 -0.5023 -0.8079  2.3709
 6483SOL    HW231083   0.037   3.065   4.945  0.7783  0.1220 -1.4718
 6484SOL     OW31084   3.213   1.538   1.513  0.1325 -0.0513 -0.2155
 6484SOL    HW131085   3.134   1.572   1.469  2.0664  3.9529 -0.6130
 6484SOL    HW231086   3.177   1.484   1.583 -2.5565  0.5795 -1.1049
 6485SOL     OW31087   0.040   1.029   8.167 -0.0078 -0.0709 -0.4566
 6485SOL    HW131088   0.004   1.078   8.241  0.9289 -0.5181  0.2876
 6485SOL    HW231089   0.135   1.033   8.177  0.2254 -2.5884 -1.6986
 6486SOL     OW31090   1.595   1.044   2.194  0.1718  0.3532  0.0330
 6486SOL    HW131091   1.501   1.062   2.200  0.1772  0.1699  0.7710
 6486SOL    HW231092   1.599   0.948   2.200  1.3728  0.5223  2.0208
 6487SOL     OW31093   0.432   2.027  15.365  0.9978  0.5266 -0.7342
 6487SOL    HW131094   0.341   1.999  15.358  1.1165 -0.3432  1.1715
 6487SOL    HW231095   0.467   1.950  15.319 -0.1926 -0.5322  0.1642
 6488SOL     OW31096   3.765   0.841   2.346  0.1994  0.3288  0.5314
 6488SOL    HW131097   3.826   0.828   2.273 -0.7529 -0.3238 -0.1337
 6488SOL    HW231098   3.826   0.858   2.419 -0.4231 -0.3485  1.2075
 6489SOL     OW31099   0.588   0.058   4.320  0.3306  0.1208  0.3696
 6489SOL    HW131100   0.500   0.038   4.290  0.5918 -0.3399 -0.0839
 6489SOL    HW231101   0.614   0.131   4.264  1.7382 -0.2207  0.5870
 6490SOL     OW31102   2.073   3.862  16.395 -0.0866  1.0530  0.5879
 6490SOL    HW131103   2.023   3.882  16.316  0.0175  0.9656  0.5002
 6490SOL    HW231104   2.117   3.947  16.397 -0.3263  1.1802  0.4512
 6491SOL     OW31105   1.089   1.965   4.615  0.0182 -0.1204  0.2211
 6491SOL    HW131106   1.012   1.908   4.612  0.3880 -0.5214 -1.5465
 6491SOL    HW231107   1.058   2.056   4.608 -0.4546 -0.3490 -0.7138
 6492SOL     OW31108   1.029   2.318   3.273 -0.3931  0.3386 -0.1020
 6492SOL    HW131109   1.024   2.330   3.178  0.1856  0.2186 -0.1505
 6492SOL    HW231110   1.108   2.264   3.268 -1.1526 -0.8425  0.7664
 6493SOL     OW31111   4.328   0.001  13.634 -0.5818  0.8471  0.2354
 6493SOL    HW131112   4.379   4.656  13.620 -1.5726  0.6690 -2.4433
 6493SOL    HW231113   4.309   0.025  13.543  1.4333 -0.8691 -0.6587
 6494SOL     OW31114   2.007   2.252   4.088 -0.1615 -0.0348 -0.3407
 6494SOL    HW131115   2.006   2.280   3.997 -0.5810 -0.7504 -0.5519
 6494SOL    HW231116   2.095   2.217   4.096  0.0917  0.7795  0.6017
 6495SOL     OW31117   0.533   1.024   1.847 -0.3190  0.2385  0.0358
 6495SOL    HW131118   0.601   0.989   1.790 -0.3039 -0.5231  0.5274
 6495SOL    HW231119   0.461   1.017   1.784  1.2892 -1.1791 -1.6651
 6496SOL     OW31120   2.760   2.880  10.302  0.4535 -0.4373  0.3230
 6496SOL    HW131121   2.702   2.868  10.226  0.6219 -0.5520  0.2135
 6496SOL    HW231122   2.808   2.798  10.305  1.1216 -0.0871 -0.6296
 6497SOL     OW31123   1.922   4.575   1.505 -0.2211  0.7416 -0.2382
 6497SOL    HW131124   1.827   4.591   1.504 -0.9727 -3.7140  0.5318
 6497SOL    HW231125   1.944   4.534   1.421 -0.7483 -1.2131  0.5769
 6498SOL     OW31126   3.874   1.998   9.830  0.1120  0.2063 -0.6052
 6498SOL    HW131127   3.784   1.994   9.863  0.4536  3.5330  0.6947
 6498SOL    HW231128   3.859   2.018   9.738 -2.7098  0.0900 -0.1758
 6499SOL     OW31129   0.918   2.055   6.660  0.0704  0.1681 -0.0655
 6499SOL    HW131130   0.826   2.076   6.646 -0.1280 -1.4829 -1.2671
 6499SOL    HW231131   0.914   1.976   6.714  0.4807  0.2561  0.0954
 6500SOL     OW31132   1.461   4.404   8.760  1.0711 -1.2411  0.0908
 6500SOL    HW131133   1.501   4.317   8.758 -0.0160 -1.7659  1.2227
 6500SOL    HW231134   1.372   4.388   8.730  0.4285  1.6212  0.5094
 6501SOL     OW31135   3.536   1.664   5.221  0.1159  0.0432  0.0751
 6501SOL    HW131136   3.581   1.718   5.286  2.5624 -2.2866  0.2868
 6501SOL    HW231137   3.511   1.594   5.282  0.5249 -0.0560  0.1279
 6502SOL     OW31138   2.627   2.900   0.845  0.2473 -0.0981 -0.6296
 6502SOL    HW131139   2.673   2.829   0.800  1.2463  0.7442 -0.9431
 6502SOL    HW231140   2.544   2.905   0.798 -0.5113 -0.9736  0.6387
 6503SOL     OW31141   0.198   4.150   5.094  0.8474  0.4582 -0.2601
 6503SOL    HW131142   0.205   4.098   5.174 -2.4221 -2.0696 -1.6250
 6503SOL    HW231143   0.291   4.164   5.075  0.8102  0.3012 -0.5674
 6504SOL     OW31144   4.730   0.199   9.395  0.1472  0.1175  0.2120
 6504SOL    HW131145   4.683   0.161   9.469  1.0409 -0.9623  0.2273
 6504SOL    HW231146   4.696   0.142   9.327  0.2142 -0.0360  0.3079
 6505SOL     OW31147   3.275   3.714   6.284 -0.1231 -0.4095  0.7584
 6505SOL    HW131148   3.212   3.709   6.356 -0.5552  1.0478  0.4713
 6505SOL    HW231149   3.322   3.797   6.291 -0.8649  0.2630 -2.3550
 6506SOL     OW31150   3.831   1.017   1.241  0.3040  0.3714 -0.1879
 6506SOL    HW131151   3.794   0.999   1.155 -1.7601  1.0427  0.5569
 6506SOL    HW231152   3.891   0.943   1.250  0.9711  0.7739 -1.2126
 6507SOL     OW31153   0.339   2.312  10.505 -0.3019 -0.1372 -0.0581
 6507SOL    HW131154   0.362   2.346  10.591 -0.0887 -1.9773  0.6022
 6507SOL    HW231155   0.318   2.391  10.454  0.8668 -1.3037 -2.3760
 6508SOL     OW31156   4.025   2.023   9.509 -0.2151 -0.0042  0.4945
 6508SOL    HW131157   4.033   1.951   9.571 -1.7234 -0.3804  0.2478
 6508SOL    HW231158   3.932   2.048   9.513 -0.5098 -1.2377  1.3986
 6509SOL     OW31159   2.265   3.936   6.562 -0.2785  0.1867 -0.0784
 6509SOL    HW131160   2.249   3.993   6.636  2.0478 -1.1755  1.4704
 6509SOL    HW231161   2.360   3.931   6.562 -0.2469  0.8276  0.1317
 6510SOL     OW31162   1.405   1.422   1.585  0.5952 -0.1164 -0.3252
 6510SOL    HW131163   1.376   1.372   1.508 -2.5727  0.8149  0.2624
 6510SOL    HW231164   1.477   1.468   1.543  2.3074 -2.3955  0.1051
 6511SOL     OW31165   3.700   2.912   1.139 -0.4527  0.3444 -0.5773
 6511SOL    HW131166   3.682   2.824   1.172 -1.0913  0.0948 -1.5962
 6511SOL    HW231167   3.695   2.961   1.221  3.4021  1.1526 -0.8284
 6512SOL     OW31168   4.092   0.986  11.788 -0.0755  0.1213 -0.2375
 6512SOL    HW131169   4.072   1.077  11.810 -1.4693  0.2633 -2.1218
 6512SOL    HW231170   4.008   0.940  11.799 -0.5599  1.2715  0.8881
 6513SOL     OW31171   1.559   3.018   7.676  0.6097 -0.0637  0.2514
 6513SOL    HW131172   1.610   3.097   7.656  0.4527  0.1085  0.5294
 6513SOL    HW231173   1.600   2.978   7.753  2.5265 -0.3751 -0.9203
 6514SOL     OW31174   1.571   1.695  12.288  0.3706 -0.3632 -0.0460
 6514SOL    HW131175   1.660   1.706  12.255 -0.1278  0.0833 -1.2487
 6514SOL    HW231176   1.569   1.623  12.351 -1.3821  0.3482  0.7029
 6515SOL     OW31177   4.132   1.979   8.613 -0.2391  0.4369 -0.2931
 6515SOL    HW131178   4.191   1.961   8.539  0.5841 -0.6137  0.6312
 6515SOL    HW231179   4.188   1.986   8.690  0.6708 -0.4795 -0.8763
 6516SOL     OW31180   4.342   0.856   1.465 -0.1757 -0.1325  0.2293
 6516SOL    HW131181   4.301   0.870   1.379 -0.3546  0.2001  0.3713
 6516SOL    HW231182   4.317   0.767   1.488  1.7051 -0.7506 -0.0564
 6517SOL     OW31183   0.876   2.324   4.298  0.5987  0.4860  0.5642
 6517SOL    HW131184   0.937   2.253   4.316  0.6341  0.4656  0.3559
 6517SOL    HW231185   0.929   2.402   4.312  1.4847  0.3150 -2.0111
 6518SOL     OW31186   1.069   4.479   8.107  0.5086  0.4643 -0.0854
 6518SOL    HW131187   0.990   4.502   8.058  0.6606 -1.1611 -1.0924
 6518SOL    HW231188   1.123   4.423   8.050 -0.8430  1.4082 -2.2884
 6519SOL     OW31189   4.237   2.830   1.345  0.6517  0.0217 -0.0624
 6519SOL    HW131190   4.302   2.887   1.303  0.5625 -0.3730 -0.7310
 6519SOL    HW231191   4.202   2.895   1.407 -2.2515 -1.7528  0.1467
 6520SOL     OW31192   3.813   4.720   2.650  0.4635 -0.3421  0.0686
 6520SOL    HW131193   3.873   4.654   2.615  0.3912 -0.4194  0.0916
 6520SOL    HW231194   3.786   0.028   2.569  1.4325  0.4937  0.1921
 6521SOL     OW31195   0.299   0.509   1.405  0.2675 -0.1788 -0.1985
 6521SOL    HW131196   0.297   0.595   1.446  1.8360 -1.7940  3.2859
 6521SOL    HW231197   0.383   0.474   1.434  0.5856  2.4274  2.0081
 6522SOL     OW31198   3.418   3.248   6.959  0.1478 -0.9508 -0.0701
 6522SOL    HW131199   3.386   3.178   6.902 -0.0787 -2.0330  1.3920
 6522SOL    HW231200   3.393   3.212   7.044  0.9937  0.6268  0.8605
 6523SOL     OW31201   0.038   4.379   8.851 -0.2232  0.6770 -0.0626
 6523SOL    HW131202   0.084   4.461   8.868 -0.7806  1.3632 -1.8254
 6523SOL    HW231203   0.106   4.315   8.872 -0.6783  0.6681  1.3317
 6524SOL     OW31204   3.004   4.467  17.307  0.2503  0.2971 -0.1263
 6524SOL    HW131205   2.955   4.466  17.225  2.0966  0.6068 -1.2200
 6524SOL    HW231206   3.043   4.554  17.309  1.8929 -0.3767 -2.7975
 6525SOL     OW31207   0.907   0.246  10.849 -0.0563 -0.0012  0.1835
 6525SOL    HW131208   0.867   0.322  10.807  0.8606  0.6106  0.4245
 6525SOL    HW231209   0.898   0.263  10.943 -0.2974  3.2647 -0.4323
 6526SOL     OW31210   1.642   2.873   7.890  0.6475  0.1068  0.5364
 6526SOL    HW131211   1.637   2.778   7.904  0.7257  0.1784  1.0491
 6526SOL    HW231212   1.716   2.897   7.945  1.4096 -1.8188  0.3627
 6527SOL     OW31213   2.517   0.019   6.405  0.5633 -0.3640  0.4957
 6527SOL    HW131214   2.461   4.720   6.474  3.4217  0.2497  3.1040
 6527SOL    HW231215   2.589   4.693   6.416 -0.5995 -1.2231  3.1141
 6528SOL     OW31216   4.645   2.759   6.564 -0.0842 -0.7441  0.4475
 6528SOL    HW131217   4.581   2.765   6.636  1.8911  0.6372  2.0990
 6528SOL    HW231218   4.659   2.666   6.552 -1.1050 -1.1884  2.7722
 6529SOL     OW31219   4.192   1.046   7.725  0.6120  0.0794  0.4192
 6529SOL    HW131220   4.267   1.018   7.778  2.1655  1.3789 -1.1156
 6529SOL    HW231221   4.159   0.965   7.686  0.0733  0.2897  0.4322
 6530SOL     OW31222   1.014   4.296   8.338 -0.0313  0.5095 -0.2651
 6530SOL    HW131223   1.068   4.338   8.272 -2.3999  0.2653 -2.3627
 6530SOL    HW231224   1.049   4.325   8.422  0.9622  1.5931 -1.0565
 6531SOL     OW31225   1.514   1.945   5.706 -0.1020  0.2693 -0.4652
 6531SOL    HW131226   1.461   1.991   5.771 -1.1540  0.1085 -1.2096
 6531SOL    HW231227   1.580   1.901   5.760 -1.8115  1.4693  2.5867
 6532SOL     OW31228   4.448   3.266   1.543 -0.3992 -0.2221 -0.1247
 6532SOL    HW131229   4.529   3.216   1.541 -1.1343 -1.3632 -2.1668
 6532SOL    HW231230   4.470   3.345   1.493 -1.8531  0.0945 -0.2872
 6533SOL     OW31231   3.890   3.943   7.461  0.3770 -0.1585  0.4593
 6533SOL    HW131232   3.920   3.859   7.497  0.6628 -0.7731 -1.2278
 6533SOL    HW231233   3.800   3.955   7.491  0.8982  1.3338  1.4144
 6534SOL     OW31234   1.381   2.008   6.716  0.6502 -0.0380 -0.1077
 6534SOL    HW131235   1.313   2.074   6.728 -1.0085 -1.5757 -1.0718
 6534SOL    HW231236   1.333   1.949   6.658 -0.2753  0.5471  0.0578
 6535SOL     OW31237   0.442   1.099   5.452  0.2752  0.0213 -0.0508
 6535SOL    HW131238   0.395   1.036   5.398  2.5789 -0.7470 -1.1619
 6535SOL    HW231239   0.370   1.149   5.490 -0.3004 -0.1753 -0.8845
 6536SOL     OW31240   2.134   3.735   7.193  0.4939  0.1619 -0.0514
 6536SOL    HW131241   2.193   3.756   7.265  1.2514  1.5099 -1.0537
 6536SOL    HW231242   2.068   3.682   7.237  1.2082  1.5273  2.6667
 6537SOL     OW31243   0.670   1.280   3.203 -0.0419  0.3619 -0.2592
 6537SOL    HW131244   0.689   1.235   3.286  4.1232  0.4253 -1.1879
 6537SOL    HW231245   0.621   1.205   3.169 -0.3154  0.5556 -0.2953
 6538SOL     OW31246   3.272   3.927   8.035  0.0571 -0.3094  0.1486
 6538SOL    HW131247   3.357   3.910   8.076  1.4348  0.1157 -2.5264
 6538SOL    HW231248   3.223   3.961   8.110 -2.0375  0.4307 -1.5675
 6539SOL     OW31249   1.082   0.951   3.533 -0.3532  0.2835 -0.1099
 6539SOL    HW131250   1.002   0.900   3.526  0.5523 -1.0716 -0.5846
 6539SOL    HW231251   1.138   0.874   3.541  1.4235  1.6300  0.3477
 6540SOL     OW31252   3.086   2.823   5.931 -0.2382 -0.1802  0.3721
 6540SOL    HW131253   3.109   2.896   5.989  1.0118 -1.3385  1.3480
 6540SOL    HW231254   3.100   2.759   6.001  0.9113 -2.7874 -2.2473
 6541SOL     OW31255   1.579   2.431  13.291  0.0450  0.5970  0.2168
 6541SOL    HW131256   1.553   2.474  13.372 -1.0860  0.1663  0.0800
 6541SOL    HW231257   1.665   2.473  13.284  0.4779 -0.5152 -1.3356
 6542SOL     OW31258   3.901   2.834   0.555 -0.1389 -0.8161  0.6526
 6542SOL    HW131259   3.908   2.858   0.647  1.6961 -0.1221  0.3293
 6542SOL    HW231260   3.944   2.748   0.551  1.1254 -0.1498 -0.2855
 6543SOL     OW31261   2.374   2.037   0.481  0.5558 -0.6191 -0.9182
 6543SOL    HW131262   2.354   2.117   0.434 -2.1089 -0.0625  1.1769
 6543SOL    HW231263   2.301   1.979   0.461 -0.0247 -0.2460  0.1086
 6544SOL     OW31264   4.152   0.134   2.063 -0.3638  0.2129 -0.0146
 6544SOL    HW131265   4.058   0.145   2.082 -0.8274 -1.1162 -1.5243
 6544SOL    HW231266   4.165   0.042   2.087  0.8461  0.1756 -0.8396
 6545SOL     OW31267   3.084   3.528   2.564 -0.2208 -0.0111 -0.0909
 6545SOL    HW131268   3.157   3.478   2.600  0.2787  1.8235  1.4125
 6545SOL    HW231269   3.029   3.459   2.526  0.6267 -1.6395  1.6388
 6546SOL     OW31270   2.799   0.420  12.851 -0.4553  0.3472  0.4290
 6546SOL    HW131271   2.709   0.443  12.874 -1.0887  0.4237 -2.1449
 6546SOL    HW231272   2.832   0.470  12.926 -2.8471 -0.5341  2.0695
 6547SOL     OW31273   3.610   3.739   7.417  0.2016  0.6872 -0.0364
 6547SOL    HW131274   3.562   3.821   7.419 -1.8923 -0.6140  2.6909
 6547SOL    HW231275   3.648   3.734   7.329 -0.4211  2.0302 -0.3751
 6548SOL     OW31276   4.005   0.928   6.044  0.3194  0.2289  0.3059
 6548SOL    HW131277   4.048   0.843   6.038  0.2187  0.2285 -0.3658
 6548SOL    HW231278   3.937   0.918   5.978  1.4939  2.0662 -1.1950
 6549SOL     OW31279   1.729   2.719   6.359 -0.2027 -0.4859  0.1138
 6549SOL    HW131280   1.701   2.796   6.408 -0.2220 -0.5287  0.1703
 6549SOL    HW231281   1.641   2.681   6.365 -0.8219  0.7874 -0.8884
 6550SOL     OW31282   2.953   1.543   3.769 -0.2061  0.2599 -0.5093
 6550SOL    HW131283   2.971   1.599   3.694 -1.1092  0.1117 -0.8285
 6550SOL    HW231284   2.858   1.545   3.773 -0.2855 -1.2834 -1.5692
 6551SOL     OW31285   0.622   2.614   7.491  0.0068  0.0433 -0.0113
 6551SOL    HW131286   0.654   2.529   7.461 -0.3787 -0.6528  1.5491
 6551SOL    HW231287   0.705   2.661   7.499  0.3832 -0.2621 -2.1709
 6552SOL     OW31288   2.367   1.688   9.581  0.0923  0.2588 -0.9633
 6552SOL    HW131289   2.311   1.679   9.658 -0.8356 -0.2188 -1.7005
 6552SOL    HW231290   2.364   1.784   9.572  0.2457  0.3604  0.0641
 6553SOL     OW31291   0.194   1.486   5.362 -0.7814 -0.0589 -0.1567
 6553SOL    HW131292   0.167   1.436   5.439  0.7028 -3.6644 -1.9314
 6553SOL    HW231293   0.276   1.528   5.386  0.1668 -1.6814 -0.5195
 6554SOL     OW31294   3.610   2.710   4.955  0.1108 -0.4865  0.1266
 6554SOL    HW131295   3.590   2.799   4.985 -0.5432 -0.7612  0.5119
 6554SOL    HW231296   3.534   2.662   4.989 -0.2458 -0.2496 -0.3361
 6555SOL     OW31297   3.504   2.395   2.351 -0.5493  0.2331 -0.2300
 6555SOL    HW131298   3.550   2.478   2.341  2.5108 -1.5616 -1.1232
 6555SOL    HW231299   3.545   2.359   2.429 -0.4750  1.3581  0.2370
 6556SOL     OW31300   3.669   4.424   2.439 -0.3934 -0.4895  0.1062
 6556SOL    HW131301   3.605   4.471   2.492 -0.8724  0.0435 -0.9534
 6556SOL    HW231302   3.629   4.424   2.352  1.2772  0.2486 -0.6642
 6557SOL     OW31303   3.185   0.723   3.614  0.1576  0.8110  0.1218
 6557SOL    HW131304   3.127   0.648   3.602 -0.2149  1.0541  0.3828
 6557SOL    HW231305   3.228   0.719   3.529  0.5873  2.0543  0.2806
 6558SOL     OW31306   4.298   2.793   1.782  0.2264 -0.1329 -0.0669
 6558SOL    HW131307   4.204   2.779   1.794  0.4684 -2.4200 -0.8914
 6558SOL    HW231308   4.310   2.822   1.691  0.1262 -2.8210 -0.9382
 6559SOL     OW31309   3.850   4.519   1.387  0.5411 -0.1169 -0.4546
 6559SOL    HW131310   3.880   4.431   1.412  3.4391  0.9507 -0.2165
 6559SOL    HW231311   3.799   4.546   1.463  0.0617 -2.6790  0.1505
 6560SOL     OW31312   0.489   2.422   2.445  0.4455  0.0855 -0.5585
 6560SOL    HW131313   0.481   2.374   2.363  0.2671 -1.7541  0.5401
 6560SOL    HW231314   0.557   2.382   2.499 -1.8615 -1.1739  1.4184
 6561SOL     OW31315   3.763   2.354   6.331 -0.3057  0.2210 -0.3308
 6561SOL    HW131316   3.843   2.318   6.371  0.1718 -0.0201 -1.4884
 6561SOL    HW231317   3.806   2.390   6.253 -0.7157  1.1327 -0.1260
 6562SOL     OW31318   1.718   3.441  17.188 -0.4340 -0.3621 -0.1562
 6562SOL    HW131319   1.658   3.416  17.258 -0.1001 -2.1151 -0.5076
 6562SOL    HW231320   1.798   3.411  17.231 -0.7405 -0.1391  0.5679
 6563SOL     OW31321   0.537   1.314   1.920  0.3560 -0.7025 -0.1850
 6563SOL    HW131322   0.549   1.226   1.885 -3.8364 -1.8386  1.2140
 6563SOL    HW231323   0.527   1.304   2.015  0.2541  0.4520 -0.0649
 6564SOL     OW31324   2.367   0.799  16.561 -0.3484  0.0900 -0.3139
 6564SOL    HW131325   2.447   0.748  16.549  0.0266  0.3502  1.1326
 6564SOL    HW231326   2.403   0.866  16.618  0.6448  0.4289 -1.3534
 6565SOL     OW31327   3.026   3.725   2.371 -0.4343 -0.0817 -0.1325
 6565SOL    HW131328   2.936   3.711   2.342 -0.9343  2.0280  0.4228
 6565SOL    HW231329   3.044   3.666   2.444  2.5172  1.7466  0.6247
 6566SOL     OW31330   3.119   3.990   7.281  0.2558  0.0032 -0.0645
 6566SOL    HW131331   3.034   3.980   7.239 -0.2556  0.9771  0.7255
 6566SOL    HW231332   3.086   4.003   7.369 -1.7224 -1.9282 -0.5342
 6567SOL     OW31333   3.136   4.123   3.958  0.2104  0.4785 -0.8253
 6567SOL    HW131334   3.083   4.048   3.935  0.9883 -0.7420  1.3071
 6567SOL    HW231335   3.203   4.084   4.015 -1.9997 -1.6072  0.3238
 6568SOL     OW31336   1.323   2.394   1.279  0.0823 -0.7602  0.2876
 6568SOL    HW131337   1.364   2.480   1.291  0.0395 -0.8058  0.7948
 6568SOL    HW231338   1.404   2.344   1.268 -1.2716 -3.1778  1.1987
 6569SOL     OW31339   1.075   0.446   7.264  0.0194  0.0397 -0.5969
 6569SOL    HW131340   1.085   0.374   7.327  1.4287 -0.7768 -1.7598
 6569SOL    HW231341   1.168   0.468   7.262 -0.0096  0.1180 -1.1183
 6570SOL     OW31342   3.604   3.331   1.210  0.0866 -0.0498 -0.8492
 6570SOL    HW131343   3.571   3.404   1.264 -1.9801  0.5036 -2.8297
 6570SOL    HW231344   3.599   3.373   1.124  1.4023 -1.5260 -1.6320
 6571SOL     OW31345   3.295   4.733   8.858 -0.1238 -0.0429 -0.2598
 6571SOL    HW131346   3.214   4.719   8.909 -0.6725  1.4423 -0.7249
 6571SOL    HW231347   3.256   0.012   8.772 -1.1849 -0.9835  0.0554
 6572SOL     OW31348   2.692   0.979   4.002 -0.2251 -0.1014 -0.2028
 6572SOL    HW131349   2.614   0.932   3.971  0.1607  0.6782 -2.3291
 6572SOL    HW231350   2.741   0.975   3.920  0.9305  0.3688  0.4629
 6573SOL     OW31351   2.514   2.391  11.475  0.6543  0.5649  0.0072
 6573SOL    HW131352   2.488   2.403  11.566 -2.2189 -3.1149 -0.3366
 6573SOL    HW231353   2.487   2.300  11.460  0.3166  0.2231  2.7303
 6574SOL     OW31354   0.260   4.221   8.913  0.3114 -0.5663  0.0537
 6574SOL    HW131355   0.314   4.177   8.978  0.3827 -1.2713 -0.4780
 6574SOL    HW231356   0.326   4.213   8.844 -0.2543 -0.9569 -0.4500
 6575SOL     OW31357   1.811   3.064   8.277 -0.5374 -0.6493 -0.4298
 6575SOL    HW131358   1.718   3.078   8.257 -0.1043  1.6817 -0.8489
 6575SOL    HW231359   1.824   3.125   8.350 -0.8487 -1.6499  0.4588
 6576SOL     OW31360   0.092   4.136  15.856 -0.9166 -0.1666 -0.1242
 6576SOL    HW131361   0.120   4.170  15.771  1.0682 -0.4832  0.4128
 6576SOL    HW231362   4.731   4.140  15.853 -0.8406  1.8496  0.3910
 6577SOL     OW31363   3.597   2.434   4.435 -0.3680  0.1977 -0.8137
 6577SOL    HW131364   3.592   2.495   4.508  2.1416 -2.6120  1.7061
 6577SOL    HW231365   3.596   2.350   4.481 -0.1066  0.5581 -0.1556
 6578SOL     OW31366   2.085   2.525   0.825  0.5784 -0.1524  0.2439
 6578SOL    HW131367   2.180   2.533   0.818  0.3680  1.9887 -0.0134
 6578SOL    HW231368   2.074   2.442   0.778  1.7106  0.9525 -1.9749
 6579SOL     OW31369   0.896   1.166   6.102  0.2117 -0.6160 -0.5458
 6579SOL    HW131370   0.925   1.256   6.116  0.6018 -0.3897 -2.7437
 6579SOL    HW231371   0.933   1.122   6.178 -1.3465 -1.3540 -0.2111
 6580SOL     OW31372   3.274   0.543   4.178 -0.2329  0.1896 -0.0046
 6580SOL    HW131373   3.231   0.628   4.185  1.5027  1.2102 -1.6256
 6580SOL    HW231374   3.359   0.562   4.218  0.5716 -0.5300 -1.3608
 6581SOL     OW31375   1.205   0.613   7.008  0.0232  0.0817 -0.3446
 6581SOL    HW131376   1.289   0.633   6.968 -1.0472 -0.3480 -2.8286
 6581SOL    HW231377   1.218   0.523   7.038  0.4336 -0.7324 -3.0072
 6582SOL     OW31378   0.318   3.237  10.122  0.1484 -0.1731 -0.8473
 6582SOL    HW131379   0.335   3.193  10.039 -0.4319  0.3446 -1.2439
 6582SOL    HW231380   0.269   3.169  10.169  0.7105 -0.3479 -0.5133
 6583SOL     OW31381   2.035   1.764   9.394 -0.2859  0.6474  0.5829
 6583SOL    HW131382   2.070   1.853   9.396 -3.2977  1.7940  1.7591
 6583SOL    HW231383   1.941   1.781   9.401 -0.4718 -1.7731  4.1584
 6584SOL     OW31384   0.522   4.385   7.016 -0.3202 -0.6087  0.3216
 6584SOL    HW131385   0.523   4.335   7.097  1.6393 -2.1380 -0.6526
 6584SOL    HW231386   0.571   4.461   7.047  0.0567  0.0581 -1.8729
 6585SOL     OW31387   3.675   3.524  15.811 -0.2665 -0.0347 -0.3266
 6585SOL    HW131388   3.678   3.455  15.878 -1.3442  1.6528  1.4599
 6585SOL    HW231389   3.693   3.606  15.858 -1.8037  0.6811 -1.0191
 6586SOL     OW31390   0.166   1.663   1.864  0.3223  0.1465 -0.6494
 6586SOL    HW131391   0.111   1.681   1.940  0.9889  0.1318 -0.1582
 6586SOL    HW231392   0.208   1.581   1.891  1.9433  1.2591  0.1789
 6587SOL     OW31393   4.014   4.047   8.996 -0.7703  0.8666  0.4201
 6587SOL    HW131394   3.928   4.082   8.973 -0.8716  1.4302  1.6640
 6587SOL    HW231395   4.025   4.003   8.911 -1.5157  0.3189  0.6119
 6588SOL     OW31396   4.061   0.738  14.195  0.6283  0.3475 -0.1530
 6588SOL    HW131397   4.025   0.794  14.127 -0.0515  0.6067  0.4137
 6588SOL    HW231398   4.112   0.684  14.135 -0.6975 -2.0753  0.8798
 6589SOL     OW31399   2.334   0.061   4.112  0.3329 -0.7389 -0.5026
 6589SOL    HW131400   2.307   0.021   4.195 -0.6446 -1.2239 -1.0463
 6589SOL    HW231401   2.249   0.098   4.087  0.4620  0.3256  0.6332
 6590SOL     OW31402   2.921   0.479   1.501  0.2095 -0.8303 -0.3087
 6590SOL    HW131403   2.913   0.386   1.481  0.1579 -1.1260  1.1383
 6590SOL    HW231404   2.934   0.497   1.408  0.1111 -1.0817 -0.3699
 6591SOL     OW31405   3.545   1.363  17.255  0.1022  0.4320  0.3375
 6591SOL    HW131406   3.552   1.277  17.214  0.6278  0.5386  0.1977
 6591SOL    HW231407   3.536   1.355  17.350 -2.5368  1.5179  0.1913
 6592SOL     OW31408   0.724   0.889   1.687 -0.0949  0.1022  0.1107
 6592SOL    HW131409   0.816   0.888   1.713 -0.4147 -0.9430  1.1901
 6592SOL    HW231410   0.721   0.951   1.615  0.1164 -0.2834 -0.2276
 6593SOL     OW31411   0.490   4.688  17.164 -0.3100 -0.1924  0.1367
 6593SOL    HW131412   0.398   4.707  17.144  0.1387 -0.3267 -2.0291
 6593SOL    HW231413   0.511   4.628  17.093 -0.2142 -2.1991  1.8451
 6594SOL     OW31414   2.055   0.295   4.029 -0.3338 -0.3351  0.1036
 6594SOL    HW131415   2.076   0.274   4.120 -1.0055  1.7041  0.7412
 6594SOL    HW231416   1.974   0.247   4.017 -1.2207  0.8476  1.3848
 6595SOL     OW31417   2.726   0.610   8.147  0.4281  0.4141 -0.4242
 6595SOL    HW131418   2.819   0.631   8.142  1.1696 -3.2852 -1.9128
 6595SOL    HW231419   2.730   0.565   8.231  1.3560 -1.3911 -1.4259
 6596SOL     OW31420   2.804   2.707   2.131 -0.4918  0.2539 -0.1121
 6596SOL    HW131421   2.849   2.633   2.091 -1.6994 -0.2428 -0.5437
 6596SOL    HW231422   2.754   2.737   2.055 -1.3453  0.3244  0.4809
 6597SOL     OW31423   3.851   0.241   3.758  0.5524 -0.9170  0.0927
 6597SOL    HW131424   3.928   0.241   3.814  1.0410  1.0302 -0.5818
 6597SOL    HW231425   3.803   0.320   3.784  0.6890 -1.3009  1.5311
 6598SOL     OW31426   4.404   4.642   8.636 -0.0173 -0.0462  0.3128
 6598SOL    HW131427   4.372   4.613   8.550  1.1915 -3.0687  0.9147
 6598SOL    HW231428   4.464   4.574   8.664 -0.7859  0.0957  2.2759
 6599SOL     OW31429   0.837   3.112   7.799 -0.4266  0.8219  0.5171
 6599SOL    HW131430   0.850   3.093   7.892 -0.6211 -1.6492  0.0556
 6599SOL    HW231431   0.769   3.179   7.805 -0.9720  0.3361 -0.1066
 6600SOL     OW31432   1.305   4.123   3.427  0.1187  0.4997 -0.0510
 6600SOL    HW131433   1.258   4.192   3.474 -1.3290 -2.3646  2.7157
 6600SOL    HW231434   1.312   4.055   3.494 -0.5845  0.8770  0.4028
 6601SOL     OW31435   1.222   3.495   4.165 -0.4140 -0.6040  0.6161
 6601SOL    HW131436   1.214   3.554   4.090 -0.3832 -0.4541  0.7321
 6601SOL    HW231437   1.161   3.529   4.230 -1.5494  1.5900 -1.5774
 6602SOL     OW31438   1.197   2.687   3.779  0.0731  0.5655 -0.2611
 6602SOL    HW131439   1.198   2.727   3.692  2.5102 -0.2514 -0.6210
 6602SOL    HW231440   1.156   2.751   3.838 -1.0238 -1.3085  1.0122
 6603SOL     OW31441   2.017   4.219   3.338 -0.4250 -0.0842 -0.0361
 6603SOL    HW131442   2.057   4.209   3.424  0.8047  1.9422 -0.3647
 6603SOL    HW231443   1.993   4.312   3.342  0.0468  0.0374 -0.0154
 6604SOL     OW31444   0.413   3.676  10.665 -0.2792 -0.0758  0.7620
 6604SOL    HW131445   0.424   3.763  10.704  2.1662 -0.5841  1.1991
 6604SOL    HW231446   0.391   3.702  10.576 -2.3045 -0.3321  1.1942
 6605SOL     OW31447   2.832   3.678   3.440  0.0351 -0.3234 -0.3199
 6605SOL    HW131448   2.751   3.723   3.464  0.2544 -0.2795  0.3464
 6605SOL    HW231449   2.794   3.644   3.359 -1.0021  1.3920 -0.5568
 6606SOL     OW31450   2.870   1.549  14.158 -0.5758  0.4029  0.0409
 6606SOL    HW131451   2.878   1.570  14.251 -0.1698  2.0854 -0.3639
 6606SOL    HW231452   2.801   1.611  14.133 -0.8724  0.7846  1.7869
 6607SOL     OW31453   0.028   2.223  11.472  0.8358  0.4742 -0.4873
 6607SOL    HW131454   0.121   2.247  11.480  0.5910  0.9099  1.2281
 6607SOL    HW231455   0.020   2.234  11.378  0.8515  0.3041 -0.5077
 6608SOL     OW31456   1.609   2.125   9.713  0.2803  0.5683  0.2927
 6608SOL    HW131457   1.580   2.094   9.627  0.3257 -0.0278  0.4895
 6608SOL    HW231458   1.524   2.161   9.737  0.0005  0.0642  0.0505
 6609SOL     OW31459   3.643   0.960   6.271  0.0591  0.4152  0.3513
 6609SOL    HW131460   3.603   0.903   6.336 -0.5186 -0.4029 -0.7061
 6609SOL    HW231461   3.606   1.047   6.283  0.0720  0.2855  1.2826
 6610SOL     OW31462   1.112   2.926   6.718  0.6274 -0.0599 -0.2570
 6610SOL    HW131463   1.027   2.883   6.714  0.5439  0.2046 -1.4164
 6610SOL    HW231464   1.162   2.866   6.774  0.1120  0.9018  1.2227
 6611SOL     OW31465   1.106   0.770   7.796 -0.5882 -0.1353  0.0572
 6611SOL    HW131466   1.154   0.729   7.723 -0.7791  1.8620 -1.2069
 6611SOL    HW231467   1.180   0.804   7.846 -0.8410  0.4221  0.0584
 6612SOL     OW31468   3.889   0.407   8.054 -0.4401  0.1057  0.0762
 6612SOL    HW131469   3.925   0.401   7.966 -0.3613  0.5246  0.0807
 6612SOL    HW231470   3.958   0.456   8.100 -0.7169 -0.3765  1.0143
 6613SOL     OW31471   1.959   1.044   3.389  0.1816  0.6388 -0.4745
 6613SOL    HW131472   2.037   1.096   3.407  0.6985 -0.5677  0.7502
 6613SOL    HW231473   2.000   0.959   3.375 -0.6061  0.3360 -0.9338
 6614SOL     OW31474   4.523   0.042  12.548 -0.1561 -0.1118 -0.0004
 6614SOL    HW131475   4.589   0.109  12.565  0.3913 -0.0756 -2.2331
 6614SOL    HW231476   4.533   0.032  12.453  1.1433  1.3631 -0.0235
 6615SOL     OW31477   3.433   1.434   6.509 -0.2502 -0.0162 -0.2858
 6615SOL    HW131478   3.491   1.487   6.565  0.1418  1.1954 -1.8539
 6615SOL    HW231479   3.350   1.472   6.535  0.1791  0.8959 -0.2634
 6616SOL     OW31480   4.536   1.928  14.958 -0.4903  0.2526 -0.5000
 6616SOL    HW131481   4.451   1.934  14.914 -0.7842 -0.2244 -0.0068
 6616SOL    HW231482   4.599   1.945  14.889  1.0036 -3.1478  0.0401
 6617SOL     OW31483   3.469   3.248   5.290  0.0415  0.1333 -0.4739
 6617SOL    HW131484   3.442   3.160   5.265  2.6285 -0.5424 -0.8834
 6617SOL    HW231485   3.410   3.298   5.234  2.0919 -0.0745 -2.8208
 6618SOL     OW31486   2.058   2.884   0.565 -0.3003 -0.2415  0.0046
 6618SOL    HW131487   2.137   2.864   0.615  0.4119  1.7379 -0.3583
 6618SOL    HW231488   2.000   2.809   0.578 -0.9189  0.5464  1.7430
 6619SOL     OW31489   2.338   3.833   8.868 -0.1171 -0.6533 -0.4043
 6619SOL    HW131490   2.377   3.753   8.903  0.3739 -0.5080 -0.6214
 6619SOL    HW231491   2.401   3.852   8.798 -3.6951 -2.3027 -4.1019
 6620SOL     OW31492   3.224   0.052   6.518  0.7529  0.1250  0.0512
 6620SOL    HW131493   3.280   4.724   6.564 -0.4333 -0.4044  0.7414
 6620SOL    HW231494   3.172   4.733   6.459  0.5953  0.0771  0.2355
 6621SOL     OW31495   2.198   0.839   7.436 -0.0540 -0.2838  0.2235
 6621SOL    HW131496   2.254   0.917   7.443 -1.5431  0.6308  1.9641
 6621SOL    HW231497   2.193   0.829   7.341 -0.5694 -3.8381  0.6189
 6622SOL     OW31498   2.193   4.654  10.167  0.0223  0.4666  0.2028
 6622SOL    HW131499   2.194   4.578  10.109 -1.5668  1.1082 -0.6738
 6622SOL    HW231500   2.284   4.678  10.183  0.4609 -1.4733  0.6974
 6623SOL     OW31501   4.131   0.719   2.534 -0.3575  0.5171 -0.4126
 6623SOL    HW131502   4.153   0.659   2.463  1.6746 -0.6726  1.2004
 6623SOL    HW231503   4.088   0.660   2.596 -0.2524  1.5770  0.6781
 6624SOL     OW31504   2.586   3.722   6.199  0.6529 -0.2782  0.4961
 6624SOL    HW131505   2.660   3.780   6.218  1.1853 -0.1291 -2.0120
 6624SOL    HW231506   2.598   3.718   6.104  0.4284  0.6712  0.4211
 6625SOL     OW31507   3.723   1.725  13.053  0.8287  0.0466  0.0816
 6625SOL    HW131508   3.651   1.663  13.060 -1.3420  2.3449 -1.7950
 6625SOL    HW231509   3.736   1.719  12.958  1.0648  0.4101  0.0905
 6626SOL     OW31510   3.739   4.188   4.949  0.0608 -0.1211 -0.0402
 6626SOL    HW131511   3.683   4.265   4.937  0.2461  0.0819  0.4365
 6626SOL    HW231512   3.748   4.169   4.855 -1.7444 -1.5049  0.0660
 6627SOL     OW31513   2.645   3.546   6.836  0.3531 -0.8148 -0.1119
 6627SOL    HW131514   2.633   3.641   6.842  1.0915 -0.8277  1.5567
 6627SOL    HW231515   2.601   3.509   6.912 -1.3445  0.2064 -0.5834
 6628SOL     OW31516   0.897   0.027   7.135 -0.7545 -0.0444  0.1802
 6628SOL    HW131517   0.942   0.089   7.078 -0.1808  1.4955  2.3021
 6628SOL    HW231518   0.966   4.708   7.172 -0.9440 -1.7928 -2.0379
 6629SOL     OW31519   3.485   3.676  14.639  0.3705  0.5675 -0.1432
 6629SOL    HW131520   3.530   3.690  14.722  0.8832 -0.7356 -0.1889
 6629SOL    HW231521   3.488   3.769  14.615  0.4701  0.4464 -0.6005
 6630SOL     OW31522   1.981   2.932   9.190 -0.2895 -0.1963  0.0363
 6630SOL    HW131523   2.064   2.887   9.172  0.9089  1.8430  0.3775
 6630SOL    HW231524   1.973   2.998   9.121  2.1790  0.4624  0.3660
 6631SOL     OW31525   4.325   0.261   6.089  0.2466 -0.4780  0.0116
 6631SOL    HW131526   4.314   0.342   6.139  0.4237 -0.7171  0.4414
 6631SOL    HW231527   4.317   0.294   6.000  1.7183  0.9914  0.4227
 6632SOL     OW31528   3.341   4.357  11.315 -0.2377 -0.2478  0.7257
 6632SOL    HW131529   3.388   4.336  11.235 -0.2804 -0.3147  0.7184
 6632SOL    HW231530   3.321   4.268  11.344  1.7647 -0.4865  1.3338
 6633SOL     OW31531   1.330   2.466   5.156  0.5491 -0.0423 -0.3122
 6633SOL    HW131532   1.376   2.548   5.139  2.5534 -1.4008 -1.4995
 6633SOL    HW231533   1.393   2.397   5.136  2.3477  0.4448  3.7207
 6634SOL     OW31534   2.757   3.306   8.766 -0.6484  0.5708 -0.2304
 6634SOL    HW131535   2.736   3.279   8.677 -0.7939  0.5745 -0.1970
 6634SOL    HW231536   2.832   3.253   8.794  0.4137  1.2404 -1.8448
 6635SOL     OW31537   1.341   3.144   5.984  0.0888 -0.3481 -0.3749
 6635SOL    HW131538   1.386   3.162   6.067 -0.4507  1.8612 -0.5662
 6635SOL    HW231539   1.262   3.197   5.994 -0.4471 -0.8714 -1.8660
 6636SOL     OW31540   4.155   2.451   6.833  0.2971 -0.1567 -0.0942
 6636SOL    HW131541   4.112   2.366   6.845  0.9994 -0.2492  1.7351
 6636SOL    HW231542   4.101   2.495   6.767 -1.8447  0.4901  2.0845
 6637SOL     OW31543   1.486   2.241   5.109  0.2317 -0.3132  0.2281
 6637SOL    HW131544   1.507   2.197   5.191  1.2190  0.0070  0.1414
 6637SOL    HW231545   1.567   2.224   5.060  0.9814  1.5481  0.8254
 6638SOL     OW31546   1.178   1.294  13.344  0.1580 -0.0696 -0.7307
 6638SOL    HW131547   1.180   1.388  13.363  0.6860 -0.2351  0.0692
 6638SOL    HW231548   1.140   1.290  13.257  0.7140 -1.7595 -0.8951
 6639SOL     OW31549   1.105   0.286   2.446  0.0298 -0.2794 -0.3630
 6639SOL    HW131550   1.051   0.364   2.463  1.0651 -0.2049  2.6372
 6639SOL    HW231551   1.060   0.249   2.370 -1.9164  0.5337  0.3834
 6640SOL     OW31552   0.138   1.874   4.901 -0.0511 -0.9915 -0.0548
 6640SOL    HW131553   0.196   1.947   4.918  2.7651 -3.2272 -0.0867
 6640SOL    HW231554   0.094   1.907   4.823  0.1035  0.5192  0.4883
 6641SOL     OW31555   4.652   3.333   6.677  0.6432  0.3915  0.1422
 6641SOL    HW131556   4.607   3.408   6.640  0.0846  0.6102  1.2582
 6641SOL    HW231557   4.623   3.268   6.613 -1.2681  2.8435 -1.4871
 6642SOL     OW31558   4.252   1.656   8.682 -0.0417 -0.3486  0.1452
 6642SOL    HW131559   4.300   1.649   8.765  0.2513  2.1070  0.1787
 6642SOL    HW231560   4.313   1.627   8.613 -0.3469  0.1180 -0.3227
 6643SOL     OW31561   3.128   0.562   2.577 -0.1968  0.3896  0.2927
 6643SOL    HW131562   3.167   0.649   2.583  0.6383  0.0774 -0.7105
 6643SOL    HW231563   3.090   0.560   2.664  0.2518  0.2284  0.4833
 6644SOL     OW31564   0.269   0.179   5.737  0.1950 -0.1673  0.2027
 6644SOL    HW131565   0.174   0.182   5.722  0.1367  2.9226  1.2876
 6644SOL    HW231566   0.294   0.260   5.780  0.8261 -0.0923 -0.3091
 6645SOL     OW31567   4.596   4.037   1.315  0.4432 -0.3051  0.2367
 6645SOL    HW131568   4.527   4.092   1.280 -1.2503 -2.5723  0.0026
 6645SOL    HW231569   4.549   3.954   1.330 -2.2868  0.9978 -1.2354
 6646SOL     OW31570   2.408   2.100   7.941 -0.1228 -0.1043  0.0497
 6646SOL    HW131571   2.407   2.083   8.035  2.9026  0.8332  0.2442
 6646SOL    HW231572   2.351   2.176   7.935  0.9647  0.6858 -0.3220
 6647SOL     OW31573   4.438   2.600  11.921  0.3194  0.4385  0.6511
 6647SOL    HW131574   4.511   2.574  11.977  1.0120 -0.6900 -0.7918
 6647SOL    HW231575   4.428   2.693  11.944 -1.8024  0.4389 -0.2717
 6648SOL     OW31576   3.482   2.241   3.626 -0.4030  0.1492  0.2421
 6648SOL    HW131577   3.502   2.147   3.631 -2.4497 -0.3638 -1.2047
 6648SOL    HW231578   3.531   2.271   3.550 -1.2957 -0.7360 -0.6873
 6649SOL     OW31579   2.539   1.273   2.851 -0.1708  0.0016  0.0307
 6649SOL    HW131580   2.604   1.319   2.798 -0.7129  2.0747  1.1371
 6649SOL    HW231581   2.517   1.340   2.916  2.9140  0.6017  0.4227
 6650SOL     OW31582   4.055   3.920  13.622 -0.2848  0.7306 -0.6469
 6650SOL    HW131583   4.079   3.895  13.711 -3.8112  1.8052  0.5944
 6650SOL    HW231584   4.118   3.989  13.599 -0.5391  1.9760  2.4582
 6651SOL     OW31585   0.592   1.646   9.560  0.1881 -0.0930  0.3754
 6651SOL    HW131586   0.614   1.553   9.554 -0.3064 -0.1960  0.1400
 6651SOL    HW231587   0.542   1.642   9.642  0.5150  1.6475  0.6508
 6652SOL     OW31588   0.050   3.206   4.262  0.0159  0.3488 -0.4837
 6652SOL    HW131589   4.727   3.210   4.186 -0.3523 -1.0887 -0.2721
 6652SOL    HW231590   0.114   3.138   4.242  0.2463  0.6537 -0.7748
 6653SOL     OW31591   1.929   0.073  17.120 -0.0499 -0.7077 -0.4249
 6653SOL    HW131592   1.965   0.092  17.206  0.9741 -3.1040 -0.3437
 6653SOL    HW231593   1.982   0.122  17.057 -0.7369  0.9463  0.2628
 6654SOL     OW31594   2.885   3.418   4.342  0.4893 -0.4424  0.0477
 6654SOL    HW131595   2.903   3.497   4.392  0.1796 -0.0236 -0.5092
 6654SOL    HW231596   2.970   3.377   4.361  0.8351  0.2079 -0.1184
 6655SOL     OW31597   1.072   3.840   5.032  0.2914  0.6325 -0.1219
 6655SOL    HW131598   1.135   3.873   5.096 -0.5743 -1.6697  1.8988
 6655SOL    HW231599   1.143   3.807   4.977 -0.5610 -0.8078 -0.3397
 6656SOL     OW31600   0.415   2.167   2.009 -0.2100  0.4615  0.1914
 6656SOL    HW131601   0.351   2.140   1.943 -0.9440 -1.5808  1.7573
 6656SOL    HW231602   0.409   2.261   1.992 -0.4850  0.2738 -0.7524
 6657SOL     OW31603   3.057   0.687   6.359  0.7065 -0.0747 -0.1079
 6657SOL    HW131604   3.151   0.668   6.366  1.1439  1.1572 -2.6150
 6657SOL    HW231605   3.019   0.603   6.386 -1.8440  1.2983  0.5524
 6658SOL     OW31606   2.853   0.275   3.282 -0.3513 -0.0961 -0.0313
 6658SOL    HW131607   2.817   0.309   3.364  2.8570  0.5193  1.1163
 6658SOL    HW231608   2.937   0.234   3.302  0.0785 -0.1873 -1.9959
 6659SOL     OW31609   3.850   0.110  10.584  0.5047  0.1703 -0.5270
 6659SOL    HW131610   3.776   0.092  10.526  0.4267  0.5007 -0.5314
 6659SOL    HW231611   3.818   0.193  10.618 -3.4679 -1.8366  0.6417
 6660SOL     OW31612   2.432   0.319   6.753 -0.2144 -0.1161  0.0041
 6660SOL    HW131613   2.379   0.275   6.686 -1.2102  1.3540 -0.1714
 6660SOL    HW231614   2.388   0.403   6.741  1.4949  0.5426 -1.6074
 6661SOL     OW31615   1.419   3.205   2.419 -0.1755 -0.3758  0.0997
 6661SOL    HW131616   1.432   3.277   2.358  1.8179  0.5331  1.5963
 6661SOL    HW231617   1.336   3.236   2.453  0.5320  2.3450 -0.6663
 6662SOL     OW31618   2.767   4.182   4.147  0.1352  0.1931  0.0128
 6662SOL    HW131619   2.675   4.163   4.126  0.2161 -0.3703  0.1735
 6662SOL    HW231620   2.808   4.096   4.151  0.7764  0.5116  0.1840
 6663SOL     OW31621   2.307   4.581   3.302 -0.3208  0.0939  0.4892
 6663SOL    HW131622   2.276   4.671   3.305  0.7032  0.4323  0.8087
 6663SOL    HW231623   2.272   4.544   3.383  1.0090 -2.1831  0.0446
 6664SOL     OW31624   0.224   0.244   3.882 -0.1769 -0.7191  0.5549
 6664SOL    HW131625   0.135   0.275   3.864  0.3652 -1.7163 -4.0419
 6664SOL    HW231626   0.256   0.233   3.792 -0.3240 -2.4597  0.7249
 6665SOL     OW31627   3.283   3.341   5.110 -0.0348 -0.0443  0.1923
 6665SOL    HW131628   3.324   3.425   5.092 -1.2876  0.4182 -0.4880
 6665SOL    HW231629   3.260   3.297   5.028 -0.8720  0.4800  0.1497
 6666SOL     OW31630   4.506   0.157   7.339  0.2717  0.0189  0.2661
 6666SOL    HW131631   4.472   0.245   7.358 -0.6433 -0.5154  1.1077
 6666SOL    HW231632   4.442   0.123   7.276 -0.8402  0.4754  1.1425
 6667SOL     OW31633   2.467   4.707   4.703  0.1223  0.2408  0.2090
 6667SOL    HW131634   2.459   4.616   4.676 -1.1607  0.4193 -0.0324
 6667SOL    HW231635   2.561   4.708   4.723  0.3855  2.0431 -1.1449
 6668SOL     OW31636   2.481   3.956   2.017 -0.5894 -0.0211 -0.7291
 6668SOL    HW131637   2.400   4.001   1.994 -0.1927  0.5038 -1.0926
 6668SOL    HW231638   2.506   4.016   2.087 -0.8758  0.5977 -1.1624
 6669SOL     OW31639   0.442   3.070   7.995 -0.0100 -0.1069 -0.1407
 6669SOL    HW131640   0.398   3.116   8.067 -0.9194 -0.9349 -0.1696
 6669SOL    HW231641   0.508   3.015   8.036  1.3263  2.0743  0.6235
 6670SOL     OW31642   3.871   2.152   2.986 -0.3070  0.4050 -0.4252
 6670SOL    HW131643   3.950   2.197   2.955 -0.8586  1.8125  0.2237
 6670SOL    HW231644   3.892   2.062   2.959 -1.1599  0.8965 -2.6853
 6671SOL     OW31645   0.053   3.726  12.762  0.4319  0.0580  0.3563
 6671SOL    HW131646   4.721   3.716  12.830 -1.2069  1.0754 -1.0964
 6671SOL    HW231647   0.127   3.684  12.806  2.1184  2.3884 -0.2828
 6672SOL     OW31648   2.313   0.813   4.539 -0.5654  0.1764 -0.0028
 6672SOL    HW131649   2.331   0.903   4.564  0.5765  0.4175 -1.6928
 6672SOL    HW231650   2.244   0.827   4.475 -0.4471 -0.6808 -0.3257
 6673SOL     OW31651   2.348   3.512  16.776  0.3380 -0.1269  0.5489
 6673SOL    HW131652   2.416   3.579  16.768 -0.3951  0.5112 -0.3004
 6673SOL    HW231653   2.320   3.506  16.685 -1.8070  1.3738  1.1249
 6674SOL     OW31654   1.297   4.479   6.608 -0.3434  0.0399  0.3018
 6674SOL    HW131655   1.285   4.554   6.667  0.2829  0.0488  0.4083
 6674SOL    HW231656   1.316   4.404   6.664 -0.7165 -0.6607 -0.5033
 6675SOL     OW31657   4.104   1.013  16.042  0.0500 -0.1010  0.2274
 6675SOL    HW131658   4.196   1.021  16.069  0.7928 -0.9577 -2.0911
 6675SOL    HW231659   4.067   1.081  16.099  3.5402  0.5604  1.7220
 6676SOL     OW31660   0.362   4.318  15.589 -0.0002 -0.5169 -0.3744
 6676SOL    HW131661   0.363   4.360  15.675 -1.2306 -0.6341 -0.3073
 6676SOL    HW231662   0.304   4.381  15.548 -1.7121 -0.4638  2.1262
 6677SOL     OW31663   4.355   1.643   9.230  0.1497 -0.1991 -0.0281
 6677SOL    HW131664   4.392   1.661   9.316  0.2617 -1.0771  0.1078
 6677SOL    HW231665   4.424   1.594   9.185  1.0554  1.5116 -0.4765
 6678SOL     OW31666   3.231   1.556   0.819  0.7413 -0.3013  0.6202
 6678SOL    HW131667   3.177   1.627   0.785 -0.2020 -1.1244  0.4073
 6678SOL    HW231668   3.310   1.601   0.850  0.2843  1.5222 -0.8735
 6679SOL     OW31669   0.369   4.138  17.661  0.1934 -0.6423  0.0742
 6679SOL    HW131670   0.349   4.054  17.621  0.1171 -0.5988  0.0215
 6679SOL    HW231671   0.295   4.191  17.631  2.1743  1.0465 -1.8888
 6680SOL     OW31672   2.899   2.064   1.905  0.4996 -0.3427  0.2221
 6680SOL    HW131673   2.915   2.056   1.810 -1.8285 -0.1316 -0.1902
 6680SOL    HW231674   2.854   2.149   1.906  1.0578 -0.0281 -1.4219
 6681SOL     OW31675   4.020   2.284   4.507 -0.2605 -0.7156 -0.3304
 6681SOL    HW131676   4.111   2.304   4.527 -0.8301  1.3655  0.1565
 6681SOL    HW231677   4.005   2.230   4.585  1.4432  1.4417  1.4965
 6682SOL     OW31678   1.263   4.168   6.444  0.0468  0.2726  0.2335
 6682SOL    HW131679   1.182   4.150   6.396 -0.9584  2.1826  1.2383
 6682SOL    HW231680   1.219   4.169   6.528  2.3273 -0.1693  1.4464
 6683SOL     OW31681   3.045   3.508   0.187 -0.8439 -0.4069  0.5712
 6683SOL    HW131682   3.115   3.443   0.174  0.9562  1.6620 -0.1255
 6683SOL    HW231683   2.975   3.443   0.181  0.3063 -1.4066 -2.1646
 6684SOL     OW31684   2.408   0.476   9.772  0.0930 -0.7525  0.0873
 6684SOL    HW131685   2.400   0.384   9.798  0.5978 -0.5852  0.8254
 6684SOL    HW231686   2.495   0.496   9.804  0.0948  0.3715 -0.5902
 6685SOL     OW31687   0.698   4.197   6.301  0.0442 -0.6795  0.2423
 6685SOL    HW131688   0.739   4.276   6.336 -1.3583  0.5941 -0.9545
 6685SOL    HW231689   0.722   4.141   6.375  1.3166 -1.2176 -0.5821
 6686SOL     OW31690   4.393   1.007   4.692 -0.1795  0.1107 -0.1074
 6686SOL    HW131691   4.385   1.078   4.628 -0.8890  0.8196  0.7624
 6686SOL    HW231692   4.317   1.026   4.748  0.4383 -0.8437  1.0445
 6687SOL     OW31693   1.091   1.920   8.922  0.1307 -0.1470  0.5453
 6687SOL    HW131694   1.005   1.925   8.962  0.9023  0.0893  2.1812
 6687SOL    HW231695   1.103   2.008   8.885  1.8593 -1.2834 -1.6232
 6688SOL     OW31696   2.970   4.461   9.989  0.0260  1.0823  0.0967
 6688SOL    HW131697   2.910   4.496   9.924  0.8626  0.5365 -0.9746
 6688SOL    HW231698   2.906   4.445  10.058 -0.1227 -1.7227 -0.6691
 6689SOL     OW31699   2.106   4.253  13.861  0.0056 -0.8894  0.4658
 6689SOL    HW131700   2.131   4.317  13.927  0.6447 -0.3693 -0.2900
 6689SOL    HW231701   2.024   4.224  13.901  0.3425 -0.8741  1.1682
 6690SOL     OW31702   0.662   0.593   6.604 -0.2394  0.2145 -0.3231
 6690SOL    HW131703   0.694   0.680   6.627 -0.3699  0.1537  0.0893
 6690SOL    HW231704   0.588   0.621   6.549 -1.7634 -0.1625  1.5302
 6691SOL     OW31705   0.813   3.259   1.142  0.3946  0.2027 -0.0132
 6691SOL    HW131706   0.904   3.230   1.131  0.0877 -0.6241 -0.4437
 6691SOL    HW231707   0.804   3.286   1.233 -3.4894  0.5038 -0.5060
 6692SOL     OW31708   2.620   1.610   7.169 -0.3372 -0.0112  0.2841
 6692SOL    HW131709   2.696   1.611   7.227  1.4923 -0.6698 -2.0868
 6692SOL    HW231710   2.655   1.580   7.085  1.0612 -0.1214  0.8980
 6693SOL     OW31711   1.168   3.232   9.069 -0.0922 -0.1312 -0.2524
 6693SOL    HW131712   1.147   3.151   9.023 -0.2305 -0.9075  1.1916
 6693SOL    HW231713   1.157   3.214   9.162  1.4757  1.8106  0.3126
 6694SOL     OW31714   0.638   1.682  14.102  0.1137  0.7242  0.4642
 6694SOL    HW131715   0.604   1.755  14.050 -2.7991 -0.8622  0.0741
 6694SOL    HW231716   0.726   1.674  14.065 -0.9178 -1.8971 -1.4632
 6695SOL     OW31717   1.155   1.362   6.500  0.1338  0.2202  0.1349
 6695SOL    HW131718   1.128   1.276   6.530 -0.8028 -0.4698 -2.7634
 6695SOL    HW231719   1.250   1.353   6.508 -0.1180 -1.2387  1.2769
 6696SOL     OW31720   3.983   0.174  12.393 -0.4613  0.5049  0.4046
 6696SOL    HW131721   4.077   0.186  12.409  0.0288 -1.8228 -0.7313
 6696SOL    HW231722   3.946   0.164  12.481  1.0469 -0.3337  0.9599
 6697SOL     OW31723   2.422   1.410   3.076 -0.3160  0.3277  0.1468
 6697SOL    HW131724   2.483   1.427   3.148  0.7510 -1.8632 -0.2461
 6697SOL    HW231725   2.376   1.337   3.118 -1.3057  0.6213 -0.4323
 6698SOL     OW31726   1.127   4.398   2.449 -0.6765 -0.3428  0.0714
 6698SOL    HW131727   1.186   4.444   2.388 -2.6582  1.4232 -0.5254
 6698SOL    HW231728   1.177   4.322   2.479 -1.8176 -1.5911 -1.1742
 6699SOL     OW31729   1.592   4.285   4.623  0.5100  0.1960 -0.1363
 6699SOL    HW131730   1.662   4.223   4.644  1.4969  1.0874 -0.7751
 6699SOL    HW231731   1.525   4.250   4.682  1.5122  0.5223  1.1956
 6700SOL     OW31732   0.941   2.975  14.520  0.4419  0.2990  0.3274
 6700SOL    HW131733   0.983   2.916  14.583 -0.7814  0.5769  1.3829
 6700SOL    HW231734   0.886   2.914  14.471  0.2821  2.4897 -2.2149
 6701SOL     OW31735   4.094   0.709   0.592  0.1947 -0.0607  0.0971
 6701SOL    HW131736   4.073   0.803   0.596  1.2643  0.0775  2.5321
 6701SOL    HW231737   4.037   0.690   0.518 -1.2278  1.8615  0.6931
 6702SOL     OW31738   1.508   3.540  11.005 -0.0379 -0.2690 -0.1169
 6702SOL    HW131739   1.413   3.536  11.018  0.4021  0.0453  3.0939
 6702SOL    HW231740   1.535   3.597  11.077 -3.5287 -0.4862  1.3792
 6703SOL     OW31741   4.670   4.629   6.571  0.2129  0.4288 -1.0678
 6703SOL    HW131742   4.711   4.715   6.568 -0.5304  0.7683 -1.5529
 6703SOL    HW231743   4.716   4.603   6.651  1.2140  0.8362 -1.5086
 6704SOL     OW31744   0.811   3.229   0.856  0.8439  0.0230  0.0597
 6704SOL    HW131745   0.796   3.134   0.861 -1.4286  0.3944  0.2873
 6704SOL    HW231746   0.815   3.250   0.950 -0.6616  0.0005  0.1322
 6705SOL     OW31747   2.297   1.541   8.488 -0.1497 -0.0543 -0.5449
 6705SOL    HW131748   2.245   1.504   8.559  0.2137  3.1116  1.3812
 6705SOL    HW231749   2.231   1.600   8.453 -0.8479 -0.5847 -0.1236
 6706SOL     OW31750   3.716   4.427  11.511 -0.3980  0.5414  0.4904
 6706SOL    HW131751   3.652   4.470  11.568  0.1473  0.1823  1.3684
 6706SOL    HW231752   3.698   4.481  11.434  3.5171  1.2255  0.0693
 6707SOL     OW31753   0.909   0.612   7.883 -0.1093  0.1649 -0.5375
 6707SOL    HW131754   0.970   0.686   7.877  0.5063 -0.5728 -3.0913
 6707SOL    HW231755   0.874   0.633   7.970  1.5252  3.2771 -0.6398
 6708SOL     OW31756   3.188   1.006  16.293 -0.6183  0.0894 -0.4963
 6708SOL    HW131757   3.170   0.931  16.237 -1.5829  0.5667 -0.8206
 6708SOL    HW231758   3.281   1.029  16.284 -1.0082  0.9278 -2.4188
 6709SOL     OW31759   3.332   4.515   2.004  0.1991  0.8837 -0.1015
 6709SOL    HW131760   3.313   4.603   2.037  0.2171  1.2782 -1.1538
 6709SOL    HW231761   3.420   4.520   1.967 -0.0412  2.5612 -0.4545
 6710SOL     OW31762   2.452   0.026   5.387  0.0358 -0.1364 -0.5435
 6710SOL    HW131763   2.375   0.033   5.331  0.5928 -2.8213 -1.6515
 6710SOL    HW231764   2.455   4.671   5.421 -1.5242 -0.0157 -0.0580
 6711SOL     OW31765   1.793   1.285   7.065 -0.4517 -0.3143 -0.3368
 6711SOL    HW131766   1.767   1.277   6.973  1.2863 -1.9515 -0.6722
 6711SOL    HW231767   1.887   1.298   7.053 -0.9616  1.4932 -2.3730
 6712SOL     OW31768   2.410   1.976   6.998 -0.0911 -0.3039 -0.4417
 6712SOL    HW131769   2.447   1.980   6.910  2.1532 -0.6101  0.4858
 6712SOL    HW231770   2.411   1.885   7.028 -0.2461  0.4645  1.9463
 6713SOL     OW31771   2.982   0.939   8.935 -0.7243  0.9700  0.3911
 6713SOL    HW131772   2.992   1.030   8.910 -0.2749  0.9399  0.4459
 6713SOL    HW231773   2.984   0.930   9.031  1.1487  1.7361  0.4298
 6714SOL     OW31774   0.037   4.017   4.488 -0.2106 -0.1475  0.3685
 6714SOL    HW131775   0.095   3.943   4.507  0.7912  0.1637 -1.5404
 6714SOL    HW231776   0.098   4.090   4.497  0.5321 -0.9122  1.6570
 6715SOL     OW31777   3.918   4.550   6.440 -0.3754  0.0159  0.1117
 6715SOL    HW131778   3.935   4.464   6.479  0.4376 -0.3913 -1.1398
 6715SOL    HW231779   3.956   4.605   6.509  1.4191  0.3671 -1.1488
 6716SOL     OW31780   0.493   3.999   6.730  0.3214 -0.1545  0.2386
 6716SOL    HW131781   0.474   4.035   6.644 -1.6663  1.2542  1.2726
 6716SOL    HW231782   0.456   4.068   6.785 -0.9734 -0.4335 -0.2908
 6717SOL     OW31783   0.722   1.593   3.651  0.6885  0.1462  0.3651
 6717SOL    HW131784   0.663   1.549   3.712 -0.2204 -0.4112 -0.9061
 6717SOL    HW231785   0.682   1.560   3.570  0.1441 -0.3523  0.8329
 6718SOL     OW31786   2.501   0.970   5.998 -0.4887 -0.2848 -0.2490
 6718SOL    HW131787   2.418   0.930   6.024 -0.9349  0.5953 -0.3328
 6718SOL    HW231788   2.563   0.916   6.047 -0.0889 -0.2191 -0.6852
 6719SOL     OW31789   2.907   1.568   7.599 -0.0526 -0.0300  0.2976
 6719SOL    HW131790   2.957   1.603   7.525 -1.2855  3.2326  1.0178
 6719SOL    HW231791   2.835   1.523   7.555 -0.5541 -1.5545  2.6184
 6720SOL     OW31792   2.936   3.954  12.772  0.3829  0.2720 -0.1428
 6720SOL    HW131793   2.842   3.938  12.770  0.6350 -0.8783 -1.9955
 6720SOL    HW231794   2.971   3.893  12.837  1.4158  0.7077 -0.2821
 6721SOL     OW31795   4.166   2.004   9.249 -0.0268 -0.0117 -0.1859
 6721SOL    HW131796   4.229   2.073   9.271 -2.2901  1.8078  0.6149
 6721SOL    HW231797   4.129   1.991   9.337 -2.1202  0.6481 -0.9690
 6722SOL     OW31798   3.909   3.980  10.432 -0.7285 -1.0968  0.3648
 6722SOL    HW131799   3.954   3.914  10.486  2.6183 -0.4727 -1.6308
 6722SOL    HW231800   3.877   4.038  10.501  3.2073 -0.7708  1.9481
 6723SOL     OW31801   1.751   3.918   5.141  0.0643  0.7202  0.3562
 6723SOL    HW131802   1.822   3.891   5.084 -0.2922 -0.8829  0.6839
 6723SOL    HW231803   1.756   3.852   5.209 -1.1207 -0.1304 -0.3717
 6724SOL     OW31804   0.634   3.822   7.378  0.1101 -0.2643 -0.2833
 6724SOL    HW131805   0.588   3.878   7.315  0.4228  2.3182  1.7458
 6724SOL    HW231806   0.723   3.833   7.345  0.4949 -1.5924  0.3167
 6725SOL     OW31807   3.232   4.557   5.626  0.3786 -0.0468 -0.0189
 6725SOL    HW131808   3.243   4.560   5.531  1.2757 -1.5658  0.0313
 6725SOL    HW231809   3.317   4.514   5.637 -0.9098 -2.7201 -0.3855
 6726SOL     OW31810   3.020   0.899   5.164 -0.1208 -0.3971  0.1492
 6726SOL    HW131811   2.935   0.896   5.120  0.5551 -0.7090 -1.1407
 6726SOL    HW231812   3.034   0.805   5.156  0.5078 -0.2574 -0.3770
 6727SOL     OW31813   2.457   0.926   8.771 -0.2494  0.1820 -0.3012
 6727SOL    HW131814   2.386   0.989   8.781  1.3672  2.2161 -1.8398
 6727SOL    HW231815   2.429   0.857   8.711 -0.1839  2.0279 -2.4437
 6728SOL     OW31816   1.796   2.516   4.241  0.2906 -0.5300 -0.1720
 6728SOL    HW131817   1.774   2.597   4.194  0.1331 -0.8237 -0.5991
 6728SOL    HW231818   1.883   2.505   4.202  0.9260  0.1791  1.0444
 6729SOL     OW31819   3.892   2.930   1.912  0.5526 -0.2589 -0.3405
 6729SOL    HW131820   3.952   3.003   1.895 -1.6128  1.2385 -1.4747
 6729SOL    HW231821   3.818   2.983   1.941 -0.6271 -1.5635 -0.9859
 6730SOL     OW31822   0.528   4.040   1.572  0.2486 -0.0550  0.0185
 6730SOL    HW131823   0.475   4.098   1.517  0.1942  0.1551  0.2882
 6730SOL    HW231824   0.557   4.105   1.636 -0.6921  1.0333 -0.6630
 6731SOL     OW31825   2.281   1.975   9.846 -0.5788 -0.1407  0.4357
 6731SOL    HW131826   2.197   1.930   9.839  0.8521 -2.8634  0.5917
 6731SOL    HW231827   2.271   2.041   9.914  0.0704 -0.6241  1.0091
 6732SOL     OW31828   4.210   2.754  15.593  0.3460 -0.4191  0.1018
 6732SOL    HW131829   4.115   2.744  15.599  0.2536  0.2214 -0.3484
 6732SOL    HW231830   4.240   2.749  15.684  0.3952  0.2723  0.1256
 6733SOL     OW31831   1.379   4.730  11.418  0.0476  0.2721 -0.2116
 6733SOL    HW131832   1.420   4.673  11.484  0.6084  1.9512  0.9023
 6733SOL    HW231833   1.454   0.038  11.376  0.2728  1.1005  1.0254
 6734SOL     OW31834   0.025   2.667  16.728 -0.1399 -0.1042 -0.1302
 6734SOL    HW131835   0.066   2.621  16.801 -0.4819  0.6605  0.5434
 6734SOL    HW231836   4.667   2.664  16.750  0.3505  1.0098  2.0514
 6735SOL     OW31837   1.060   1.284   1.977  0.4682 -0.0929 -0.7942
 6735SOL    HW131838   1.149   1.256   1.999  1.4428  2.9314 -0.9309
 6735SOL    HW231839   1.047   1.241   1.892  5.6614 -1.1206 -1.0785
 6736SOL     OW31840   2.205   4.267   8.904  0.1978 -0.1037  0.3148
 6736SOL    HW131841   2.254   4.193   8.941 -0.5071 -1.1055 -0.7581
 6736SOL    HW231842   2.231   4.261   8.812 -2.1481  2.9089 -0.5380
 6737SOL     OW31843   4.679   2.686  10.024  0.1135 -0.2631  0.0998
 6737SOL    HW131844   4.630   2.715  10.101  2.3913 -0.5600  1.6520
 6737SOL    HW231845   4.607   2.669   9.963  0.5424 -0.3481 -0.3826
 6738SOL     OW31846   0.996   1.692   8.580 -0.7083  0.1034 -0.2639
 6738SOL    HW131847   0.921   1.635   8.565 -0.6273 -0.9893  3.6140
 6738SOL    HW231848   0.955   1.778   8.589  1.7401  1.0414  1.9816
 6739SOL     OW31849   2.628   2.872  11.110 -0.4624  0.3995 -0.4698
 6739SOL    HW131850   2.670   2.816  11.176 -0.5869 -0.8708 -1.4636
 6739SOL    HW231851   2.708   2.919  11.085 -0.7932  0.0251 -2.2353
 6740SOL     OW31852   4.372   1.170   5.427 -0.0738  0.9280  0.0122
 6740SOL    HW131853   4.361   1.081   5.461  0.5007  0.1940 -1.7498
 6740SOL    HW231854   4.451   1.164   5.375 -0.2063  0.0375 -0.0897
 6741SOL     OW31855   2.848   1.096   6.472 -0.5215 -0.4542  0.1216
 6741SOL    HW131856   2.794   1.168   6.502  0.0159 -0.0584  0.1487
 6741SOL    HW231857   2.778   1.049   6.428  0.4675  0.2311 -2.1757
 6742SOL     OW31858   0.202   4.049   4.146  0.7332 -0.4234  0.7243
 6742SOL    HW131859   0.122   4.004   4.174 -0.0905  0.4517 -0.2353
 6742SOL    HW231860   0.166   4.135   4.125  1.1054 -0.3527  0.4005
 6743SOL     OW31861   1.099   1.269  14.886  0.0072  0.0809 -0.0110
 6743SOL    HW131862   1.068   1.263  14.977 -0.1222 -2.1028 -0.2063
 6743SOL    HW231863   1.022   1.287  14.832  0.2496 -0.7810 -0.6366
 6744SOL     OW31864   0.953   0.596  11.510  0.1248 -0.5919  0.1838
 6744SOL    HW131865   0.939   0.616  11.603 -0.1956 -0.5304  0.1224
 6744SOL    HW231866   1.032   0.648  11.496 -0.8429  0.6724 -0.5907
 6745SOL     OW31867   1.159   3.594   0.980 -0.0276  0.5552 -0.6235
 6745SOL    HW131868   1.163   3.522   0.918  1.0876  0.0794  0.0136
 6745SOL    HW231869   1.222   3.568   1.047  0.7112  2.3006 -0.6303
 6746SOL     OW31870   4.528   3.061   3.788 -0.4192 -0.3594 -0.8177
 6746SOL    HW131871   4.510   3.023   3.874  0.3977  2.3788  0.5721
 6746SOL    HW231872   4.457   3.124   3.797 -0.3201 -0.1298 -1.6290
 6747SOL     OW31873   1.871   0.373   1.966  0.1056  0.3786 -0.0743
 6747SOL    HW131874   1.799   0.313   1.948  1.8058 -1.5441 -0.5589
 6747SOL    HW231875   1.922   0.364   1.885  0.7199 -1.7074  0.5334
 6748SOL     OW31876   1.430   0.184   3.729 -0.2761  0.3628  0.0401
 6748SOL    HW131877   1.392   0.272   3.722 -0.1836  0.4652  0.9073
 6748SOL    HW231878   1.447   0.172   3.635 -0.3931  0.1265  0.0504
 6749SOL     OW31879   2.095   1.727   5.674  0.5946 -0.6439  0.1531
 6749SOL    HW131880   2.139   1.676   5.742  0.1636 -0.6176  0.4486
 6749SOL    HW231881   2.163   1.770   5.623  0.6206  1.1699  1.7656
 6750SOL     OW31882   0.457   0.518  15.742  0.0120  0.1317 -0.3014
 6750SOL    HW131883   0.406   0.493  15.819 -1.8559 -1.5971 -2.0778
 6750SOL    HW231884   0.386   0.555  15.690 -1.2633 -0.8992  0.7030
 6751SOL     OW31885   4.236   4.677   9.207 -0.2401 -0.8730  0.2251
 6751SOL    HW131886   4.319   4.681   9.159 -1.3214  0.2969 -1.5771
 6751SOL    HW231887   4.194   0.027   9.191 -3.2518 -2.1541  1.3641
 6752SOL     OW31888   0.788   3.573  13.096 -0.3885 -0.6097  0.4322
 6752SOL    HW131889   0.795   3.487  13.054 -0.3893 -0.5869  0.3847
 6752SOL    HW231890   0.817   3.555  13.185  0.3864 -3.3306 -0.3642
 6753SOL     OW31891   1.956   1.871   7.850  0.2992  0.0698  0.1467
 6753SOL    HW131892   1.868   1.896   7.822  0.1814  1.4058  1.7099
 6753SOL    HW231893   2.014   1.897   7.779  2.1678 -1.4635  1.0996
 6754SOL     OW31894   4.646   3.233   4.500 -0.0117  0.5485  0.4135
 6754SOL    HW131895   4.687   3.208   4.418  0.3170  0.0040  0.7440
 6754SOL    HW231896   4.557   3.221   4.469  0.8495  0.9485 -2.2389
 6755SOL     OW31897   3.739   3.407  16.057  0.1895 -0.0557  0.4922
 6755SOL    HW131898   3.708   3.345  16.123 -1.1799 -0.4516 -0.5260
 6755SOL    HW231899   3.832   3.387  16.061  0.7483  2.2516 -1.1765
 6756SOL     OW31900   1.015   3.734   3.015  0.1563 -0.0411 -0.2672
 6756SOL    HW131901   1.007   3.773   3.101 -0.6645 -1.4122  0.2818
 6756SOL    HW231902   1.111   3.743   3.016 -0.0722  2.0702  0.5970
 6757SOL     OW31903   0.512   4.522   8.778 -0.4365 -0.4351  0.1836
 6757SOL    HW131904   0.527   4.499   8.870 -0.2267  0.5983  0.4125
 6757SOL    HW231905   0.550   4.442   8.741  0.7611  0.0694  0.3208
 6758SOL     OW31906   3.652   3.313  14.613 -0.5769 -0.2368 -0.7825
 6758SOL    HW131907   3.699   3.276  14.538  2.7232  0.8278  0.7715
 6758SOL    HW231908   3.577   3.349  14.565 -2.5723 -0.4519  2.1709
 6759SOL     OW31909   1.634   4.386   7.042 -0.4382  0.0800 -0.2142
 6759SOL    HW131910   1.564   4.339   7.087 -1.9233  1.1561 -1.4037
 6759SOL    HW231911   1.710   4.375   7.100 -0.8381 -0.2941  0.2441
 6760SOL     OW31912   0.727   2.179   6.385 -0.0649 -0.2126 -0.1118
 6760SOL    HW131913   0.713   2.087   6.410  1.4320 -0.5944 -0.6888
 6760SOL    HW231914   0.720   2.178   6.290  1.2110 -0.0072 -0.2081
 6761SOL     OW31915   3.465   3.787   4.632  0.3408  0.6096  0.1466
 6761SOL    HW131916   3.515   3.712   4.601  0.8933  0.6020  1.0460
 6761SOL    HW231917   3.518   3.812   4.709 -1.1496 -1.2535  1.7756
 6762SOL     OW31918   2.839   0.551   2.501  0.0551 -1.0675 -0.7141
 6762SOL    HW131919   2.821   0.569   2.593  1.1203 -0.8387 -0.5457
 6762SOL    HW231920   2.926   0.511   2.503  0.0673 -0.9726  0.4456
 6763SOL     OW31921   2.300   4.015   1.328  0.5326  0.1793  0.8117
 6763SOL    HW131922   2.377   3.960   1.343  0.2677 -0.6154 -0.6609
 6763SOL    HW231923   2.319   4.052   1.242  0.8359 -0.0042  0.7992
 6764SOL     OW31924   3.089   1.000   2.496 -0.0751  0.3854 -0.0624
 6764SOL    HW131925   3.140   0.920   2.508  0.0531  0.2907 -1.1654
 6764SOL    HW231926   3.001   0.969   2.517  1.0061  0.1736  3.9949
 6765SOL     OW31927   0.164   0.143   2.686  0.5095 -0.3887  0.3161
 6765SOL    HW131928   0.087   0.149   2.628 -0.0664  0.7815  1.2103
 6765SOL    HW231929   0.126   0.097   2.761  0.4691  1.0145  1.1504
 6766SOL     OW31930   1.814   1.799  12.148 -0.3318  0.4737  0.2512
 6766SOL    HW131931   1.851   1.725  12.198 -3.1994 -0.8315  0.4531
 6766SOL    HW231932   1.886   1.862  12.151  1.1066 -1.1693  0.7884
 6767SOL     OW31933   2.687   2.831   3.894  0.1105 -0.0479 -0.2904
 6767SOL    HW131934   2.604   2.786   3.878  0.0515  0.0685 -0.3163
 6767SOL    HW231935   2.753   2.762   3.889  1.2729  1.0465 -0.0918
 6768SOL     OW31936   0.827   2.036  15.463 -0.3656 -0.0035  0.3542
 6768SOL    HW131937   0.880   2.113  15.443  0.1706 -0.5985 -0.4766
 6768SOL    HW231938   0.889   1.968  15.437 -1.9759 -2.0092  1.6783
 6769SOL     OW31939   0.278   4.437   7.250 -0.8257  0.5747  0.5548
 6769SOL    HW131940   0.229   4.424   7.331 -1.5815  0.8965  0.1470
 6769SOL    HW231941   0.240   4.365   7.201 -0.8153  1.6432 -1.0311
 6770SOL     OW31942   1.684   1.362   6.092 -0.5733 -0.2180  0.4032
 6770SOL    HW131943   1.731   1.296   6.042 -0.5341 -0.4248  0.7145
 6770SOL    HW231944   1.621   1.306   6.136  0.2109 -1.0477  0.4679
 6771SOL     OW31945   1.564   1.332   2.401 -0.0640  0.2125  0.1357
 6771SOL    HW131946   1.627   1.304   2.335 -0.5086 -1.5670  0.4671
 6771SOL    HW231947   1.545   1.252   2.449  0.5416 -1.0471 -1.7672
 6772SOL     OW31948   2.209   1.703   3.504 -0.4432  0.0624  0.2508
 6772SOL    HW131949   2.178   1.717   3.593 -0.3191 -1.8686  0.6132
 6772SOL    HW231950   2.276   1.637   3.522 -0.1961  0.2576  0.0405
 6773SOL     OW31951   0.518   0.420   3.283 -0.4702 -0.4014 -0.1773
 6773SOL    HW131952   0.452   0.380   3.227 -0.3224 -0.2036 -0.4916
 6773SOL    HW231953   0.515   0.351   3.349 -0.5027 -0.9398 -0.7452
 6774SOL     OW31954   0.635   3.551   0.714  0.6591  1.0528  0.1949
 6774SOL    HW131955   0.541   3.551   0.692  0.9576  0.1523 -1.0907
 6774SOL    HW231956   0.672   3.485   0.655 -0.7130  1.1542 -0.7838
 6775SOL     OW31957   2.541   2.143   9.513  0.3414  0.1929 -0.1946
 6775SOL    HW131958   2.615   2.090   9.482 -1.1988 -1.7941 -0.4430
 6775SOL    HW231959   2.491   2.073   9.554 -0.9352  0.1343 -1.8950
 6776SOL     OW31960   4.662   3.970   4.230  0.3110 -0.5557 -0.2716
 6776SOL    HW131961   4.573   3.938   4.243  0.1854  0.6388  1.7104
 6776SOL    HW231962   4.697   3.971   4.319  3.0569 -1.9835 -1.3202
 6777SOL     OW31963   3.631   4.187   5.868  0.2826 -0.4497 -0.3282
 6777SOL    HW131964   3.700   4.251   5.884  1.1201 -0.9141 -2.0831
 6777SOL    HW231965   3.669   4.158   5.785 -1.4011 -0.2419 -1.1798
 6778SOL     OW31966   3.739   2.674  12.985  0.0517 -0.4980  0.2713
 6778SOL    HW131967   3.751   2.721  12.903  0.4464 -0.1600  0.5246
 6778SOL    HW231968   3.812   2.611  12.988  0.9555  0.5141 -0.4916
 6779SOL     OW31969   4.510   1.954   4.524  0.4052  0.3800  0.3332
 6779SOL    HW131970   4.465   2.028   4.484 -0.3860 -0.6306 -0.6711
 6779SOL    HW231971   4.567   1.931   4.451  0.3922 -3.0841  1.4290
 6780SOL     OW31972   3.763   4.713  13.284  0.2549 -0.0492 -0.4023
 6780SOL    HW131973   3.754   4.672  13.370 -0.6647 -0.4094 -0.6753
 6780SOL    HW231974   3.803   0.063  13.304  2.4826 -1.0892 -0.4519
 6781SOL     OW31975   1.044   1.563   7.472  0.1522  0.2569 -0.7165
 6781SOL    HW131976   1.089   1.562   7.557 -0.9330 -0.7299 -0.1451
 6781SOL    HW231977   0.991   1.484   7.483 -0.7840  1.3050  2.4564
 6782SOL     OW31978   1.381   4.596   2.808 -0.6968  0.7309  0.1915
 6782SOL    HW131979   1.377   4.675   2.862  0.4797  2.1144 -1.6909
 6782SOL    HW231980   1.472   4.603   2.777 -1.2455 -0.4137 -1.6676
 6783SOL     OW31981   3.917   4.420   4.035 -0.1001  0.5491  0.0489
 6783SOL    HW131982   3.954   4.331   4.041  1.1316  0.9725 -1.0891
 6783SOL    HW231983   3.996   4.457   4.074 -1.4665  1.2667  2.0959
 6784SOL     OW31984   1.088   3.954   9.178 -0.4173  0.2013 -0.4863
 6784SOL    HW131985   1.123   3.879   9.130 -2.2600 -1.0598  0.1220
 6784SOL    HW231986   0.999   3.930   9.205  0.0432  0.6046  1.4145
 6785SOL     OW31987   0.987   2.550   4.919  0.2545  0.3558  0.2901
 6785SOL    HW131988   0.957   2.627   4.871  1.9456  0.4595 -0.6092
 6785SOL    HW231989   1.070   2.534   4.872  0.5810  1.2214  0.5818
 6786SOL     OW31990   0.706   2.113  12.668  0.5052 -0.0668  0.4209
 6786SOL    HW131991   0.770   2.082  12.733  0.0457  1.5850  1.6670
 6786SOL    HW231992   0.642   2.043  12.656 -0.8622  0.9786  1.6716
 6787SOL     OW31993   0.089   2.989   1.202  0.3100  0.6755  0.3338
 6787SOL    HW131994   0.153   3.050   1.164  0.2443 -0.1720 -1.1484
 6787SOL    HW231995   0.011   3.012   1.153  1.0217  0.1150 -1.0731
 6788SOL     OW31996   3.047   4.436  13.244  0.0114  0.7025 -0.6316
 6788SOL    HW131997   3.010   4.506  13.296 -1.3448 -0.7878  0.4133
 6788SOL    HW231998   2.997   4.458  13.165 -0.5250 -0.5895 -0.6448
 6789SOL     OW31999   3.763   2.366   9.131 -0.0323 -0.1904 -0.2978
 6789SOL    HW132000   3.786   2.339   9.043  1.6959  1.1905 -0.2770
 6789SOL    HW232001   3.852   2.377   9.164 -0.4021  3.5507 -0.5610
 6790SOL     OW32002   2.367   2.688  14.448  0.5501 -0.2407 -0.9773
 6790SOL    HW132003   2.298   2.658  14.507  0.9108  2.0008  0.5513
 6790SOL    HW232004   2.436   2.728  14.500  0.2608 -0.7242 -0.2237
 6791SOL     OW32005   1.149   1.695   5.791  0.6622  0.3352 -0.0938
 6791SOL    HW132006   1.194   1.733   5.715  0.2500 -1.0870 -1.0529
 6791SOL    HW232007   1.159   1.603   5.769 -2.5260  0.5829 -2.4920
 6792SOL     OW32008   2.317   3.262  12.248  0.1173 -0.0488  0.2078
 6792SOL    HW132009   2.304   3.173  12.217 -0.2074  0.2933 -0.6238
 6792SOL    HW232010   2.224   3.287  12.249 -0.3506 -1.7312 -0.7391
 6793SOL     OW32011   3.913   2.314   3.748 -0.4305 -0.0334  0.3930
 6793SOL    HW132012   3.827   2.346   3.775 -0.7353 -0.6730  0.1580
 6793SOL    HW232013   3.947   2.283   3.832  2.0250 -0.2009 -0.6522
 6794SOL     OW32014   2.169   0.881  10.568 -0.0975 -0.3879 -0.4209
 6794SOL    HW132015   2.253   0.907  10.529  0.7736  1.4991  2.6908
 6794SOL    HW232016   2.110   0.899  10.495  0.7624  0.7649 -0.8262
 6795SOL     OW32017   4.110   2.751   2.505  0.0335 -0.1789  0.6669
 6795SOL    HW132018   4.153   2.807   2.440 -1.1597 -0.3945 -0.2968
 6795SOL    HW232019   4.154   2.673   2.471  0.9637  0.6501 -0.0424
 6796SOL     OW32020   0.710   3.364   9.283 -0.4717  0.1398 -0.5078
 6796SOL    HW132021   0.799   3.330   9.281 -0.5399 -0.1015  0.6887
 6796SOL    HW232022   0.718   3.440   9.225  0.0718 -0.5955 -1.4018
 6797SOL     OW32023   3.368   4.733   4.646 -0.3646  0.8451 -0.2852
 6797SOL    HW132024   3.420   0.022   4.569 -1.7743  2.3435 -0.7772
 6797SOL    HW232025   3.439   4.714   4.708 -1.0691 -0.7860  0.0044
 6798SOL     OW32026   2.005   3.055  12.856  0.5117  0.5194 -0.1974
 6798SOL    HW132027   2.005   3.026  12.947 -1.9136 -0.7097 -0.5811
 6798SOL    HW232028   2.003   3.147  12.879  1.4345  0.0501  1.7220
 6799SOL     OW32029   2.006   4.088   5.119 -0.2629 -0.0411  0.1410
 6799SOL    HW132030   2.087   4.076   5.069  0.1554  1.2895  0.5121
 6799SOL    HW232031   2.005   4.014   5.180 -2.3340 -0.0893  0.0450
 6800SOL     OW32032   0.028   0.832   3.494  0.0554 -0.5878 -0.1379
 6800SOL    HW132033   0.043   0.763   3.558  0.8746 -2.0699 -1.9351
 6800SOL    HW232034   4.670   0.817   3.475 -0.7633  4.1228  0.1154
 6801SOL     OW32035   4.575   0.771   4.147 -0.6597 -0.2818 -0.0178
 6801SOL    HW132036   4.631   0.732   4.080  0.4988 -2.1878  2.0347
 6801SOL    HW232037   4.637   0.788   4.219 -1.0662  0.6944  0.0964
 6802SOL     OW32038   4.176   0.809  10.303  0.2618  0.3286  0.2130
 6802SOL    HW132039   4.188   0.904  10.301  0.6514  0.2756  0.1399
 6802SOL    HW232040   4.150   0.790  10.213 -1.2815  1.4392  0.4077
 6803SOL     OW32041   1.208   0.056   1.377 -0.4225 -0.5640 -0.6704
 6803SOL    HW132042   1.144   4.733   1.419  1.3901 -1.3877  0.9599
 6803SOL    HW232043   1.224   0.024   1.288 -0.4523  2.4108 -1.7212
 6804SOL     OW32044   3.273   2.934   2.392  0.0636  0.1871  0.1582
 6804SOL    HW132045   3.350   2.892   2.353  2.3705  1.3616  3.4377
 6804SOL    HW232046   3.203   2.892   2.342  0.3868 -1.7008  1.2930
 6805SOL     OW32047   1.829   2.925   5.508  0.2374  0.0512 -0.0409
 6805SOL    HW132048   1.863   2.897   5.423  0.4110 -0.2233  0.1167
 6805SOL    HW232049   1.888   2.884   5.572  2.0013  1.3401 -0.8554
 6806SOL     OW32050   0.280   3.785   0.591 -0.3039 -0.0089 -0.1561
 6806SOL    HW132051   0.353   3.846   0.576 -0.2246  0.2074  1.0324
 6806SOL    HW232052   0.203   3.832   0.623 -0.7757 -1.6337  1.1273
 6807SOL     OW32053   0.844   2.069   7.149 -0.1632 -0.3052 -0.0551
 6807SOL    HW132054   0.919   2.046   7.093  0.0193  1.7414 -0.6320
 6807SOL    HW232055   0.868   2.012   7.223 -1.2493 -2.8323 -1.6677
 6808SOL     OW32056   0.044   3.272  10.236  0.2083 -0.8136  0.3744
 6808SOL    HW132057   0.048   3.179  10.212 -2.7189 -0.7811 -0.2505
 6808SOL    HW232058   0.070   3.264  10.328 -0.0514  1.0540  0.5985
 6809SOL     OW32059   3.527   2.372   1.442 -0.0652 -0.6572  0.6154
 6809SOL    HW132060   3.590   2.394   1.511  0.8349  2.3478 -1.2049
 6809SOL    HW232061   3.531   2.276   1.450  3.3312 -0.8446 -2.9551
 6810SOL     OW32062   0.357   2.419   1.929 -0.1442 -0.9323  0.7227
 6810SOL    HW132063   0.343   2.400   1.837  1.9911 -0.4026  0.2850
 6810SOL    HW232064   0.308   2.501   1.928  2.2046  0.4459 -1.7472
 6811SOL     OW32065   3.006   4.481   8.390  0.6013 -0.5831  0.0822
 6811SOL    HW132066   3.085   4.528   8.415 -0.8874  2.3801 -0.8390
 6811SOL    HW232067   3.031   4.388   8.393 -0.1417 -0.7629  0.7256
 6812SOL     OW32068   2.488   0.798   3.292  0.0816 -0.1132  0.2146
 6812SOL    HW132069   2.577   0.767   3.274  0.4092  0.8365  0.1857
 6812SOL    HW232070   2.466   0.850   3.215 -1.0868  1.3728  1.5608
 6813SOL     OW32071   3.736   2.285  10.280  0.7209 -0.0838 -0.0074
 6813SOL    HW132072   3.642   2.288  10.262  0.6999  0.0532  0.1243
 6813SOL    HW232073   3.740   2.213  10.343 -0.5387  1.3242  1.6760
 6814SOL     OW32074   4.080   4.607   8.975 -0.4729 -0.1488 -0.4388
 6814SOL    HW132075   4.143   4.645   9.037  0.5298  1.6859 -2.6086
 6814SOL    HW232076   4.135   4.553   8.919 -1.4204 -1.5170 -0.0536
 6815SOL     OW32077   3.664   1.027   3.574 -0.3993  0.7011 -0.6520
 6815SOL    HW132078   3.630   0.978   3.648 -0.4738  0.5237 -0.8035
 6815SOL    HW232079   3.671   1.114   3.614  0.7016 -0.0230  0.7200
 6816SOL     OW32080   2.505   1.900   1.555 -0.5353  0.3343  0.4909
 6816SOL    HW132081   2.423   1.930   1.515  0.1125 -0.3195 -1.3084
 6816SOL    HW232082   2.482   1.895   1.648  1.0130 -1.4286  0.7614
 6817SOL     OW32083   2.458   2.695   8.230 -0.2028 -0.5579  0.9162
 6817SOL    HW132084   2.424   2.618   8.183 -0.4523  0.9268 -1.3577
 6817SOL    HW232085   2.454   2.760   8.160  0.6936 -0.8207  0.6111
 6818SOL     OW32086   3.850   1.393  11.722 -0.4365  0.6454  0.0909
 6818SOL    HW132087   3.784   1.434  11.777  0.7020  0.1708  1.7904
 6818SOL    HW232088   3.874   1.463  11.660 -0.2337 -0.1734 -0.7507
 6819SOL     OW32089   4.486   2.784   8.229 -0.8407 -0.0854  0.0275
 6819SOL    HW132090   4.434   2.798   8.150  0.7503 -0.0021 -0.9895
 6819SOL    HW232091   4.450   2.838   8.299 -1.4558 -0.2124 -0.1937
 6820SOL     OW32092   1.244   0.026   2.264 -0.5733  0.2265 -0.1689
 6820SOL    HW132093   1.318   0.085   2.277 -0.9952  0.6150  0.4333
 6820SOL    HW232094   1.260   4.710   2.184  1.7410 -0.9748  1.0589
 6821SOL     OW32095   4.029   1.056   5.391  0.4217 -0.3467 -0.3398
 6821SOL    HW132096   4.000   1.117   5.458  1.2453 -0.9290  0.5564
 6821SOL    HW232097   4.014   0.976   5.442 -0.2501 -0.2006 -0.3107
 6822SOL     OW32098   3.520   1.536  10.336  0.0674  0.4302 -0.3610
 6822SOL    HW132099   3.499   1.449  10.302 -0.9577  0.5431  0.0107
 6822SOL    HW232100   3.475   1.598  10.280 -0.7219 -0.6772 -0.9409
 6823SOL     OW32101   0.061   3.924   0.545  0.8308  0.0988 -0.0377
 6823SOL    HW132102   0.106   3.998   0.583  1.2171 -0.7890  1.2431
 6823SOL    HW232103   0.006   3.959   0.475  1.4636 -1.6773 -1.4284
 6824SOL     OW32104   2.974   3.631   4.505 -0.2225 -0.3094 -0.2621
 6824SOL    HW132105   3.016   3.649   4.588  0.4236  2.5091 -1.1961
 6824SOL    HW232106   3.012   3.700   4.450 -2.3147 -0.0139 -1.3810
 6825SOL     OW32107   3.387   0.534   7.846  0.0372 -0.3900 -0.0649
 6825SOL    HW132108   3.310   0.492   7.805 -1.6542  1.5077  1.1766
 6825SOL    HW232109   3.338   0.593   7.903  1.6861  0.2965  0.6214
 6826SOL     OW32110   3.130   2.550   4.714  0.7266 -0.0628  0.0999
 6826SOL    HW132111   3.168   2.580   4.631  0.1528 -2.3587 -0.9981
 6826SOL    HW232112   3.077   2.478   4.679 -0.4391  0.7229  0.2770
 6827SOL     OW32113   2.509   3.690   8.049 -0.2672 -0.2191  0.1037
 6827SOL    HW132114   2.542   3.615   8.000 -1.4541 -1.5483  1.3647
 6827SOL    HW232115   2.591   3.733   8.074 -2.0729  2.9597  0.5941
 6828SOL     OW32116   4.330   2.583   8.379  0.2803 -0.0226  0.1592
 6828SOL    HW132117   4.254   2.640   8.383  0.1701 -0.1282 -0.4129
 6828SOL    HW232118   4.401   2.637   8.341 -0.4029  1.2922  0.7546
 6829SOL     OW32119   0.689   0.114   3.702  0.8007 -0.5690  0.4304
 6829SOL    HW132120   0.721   0.090   3.615  0.8521  2.2522 -0.3148
 6829SOL    HW232121   0.673   0.026   3.736  0.1293 -1.1765 -1.4349
 6830SOL     OW32122   2.851   1.208   1.065 -0.2292 -0.1864 -0.4462
 6830SOL    HW132123   2.909   1.267   1.018  0.3848  0.5390  1.2426
 6830SOL    HW232124   2.848   1.242   1.154  1.4393 -0.8436 -0.1495
 6831SOL     OW32125   2.189   1.163   8.206 -0.3908 -0.2837 -0.2375
 6831SOL    HW132126   2.160   1.083   8.163 -0.3499 -1.0052  1.1123
 6831SOL    HW232127   2.219   1.124   8.288  0.7361  1.3186  0.1191
 6832SOL     OW32128   2.429   0.632   5.498  0.0035  0.0934  0.4587
 6832SOL    HW132129   2.499   0.692   5.471  0.7435 -1.4278 -1.0366
 6832SOL    HW232130   2.477   0.582   5.564 -3.5273 -1.2263  1.9794
 6833SOL     OW32131   2.027   1.159   5.743 -0.1697 -0.2204  0.6595
 6833SOL    HW132132   2.095   1.221   5.769  0.6189 -0.6447 -0.3277
 6833SOL    HW232133   2.065   1.086   5.793 -4.0966 -0.7892  2.7468
 6834SOL     OW32134   0.355   1.363   5.142  0.1155 -0.1151 -0.4775
 6834SOL    HW132135   0.291   1.337   5.208 -0.8676  3.9991  0.1919
 6834SOL    HW232136   0.438   1.370   5.189  0.4339 -1.8528 -0.8020
 6835SOL     OW32137   4.234   2.293   3.498 -0.2215 -0.3250 -0.0502
 6835SOL    HW132138   4.189   2.246   3.427  0.5747 -0.2140 -0.6313
 6835SOL    HW232139   4.245   2.379   3.459 -1.8848  0.6477  1.6472
 6836SOL     OW32140   4.080   4.045  15.146 -0.3137 -0.1364 -0.1577
 6836SOL    HW132141   4.107   3.995  15.223  0.5002 -0.2147 -0.5006
 6836SOL    HW232142   4.065   4.134  15.178  1.1533  0.2637 -0.6190
 6837SOL     OW32143   2.803   1.359  16.926 -0.1214 -0.4212 -0.1210
 6837SOL    HW132144   2.849   1.431  16.882  1.3544 -2.3057 -1.6523
 6837SOL    HW232145   2.874   1.304  16.958  0.3620  1.1299  1.4874
 6838SOL     OW32146   1.583   2.599   9.572  0.9094  0.1158 -0.1507
 6838SOL    HW132147   1.538   2.662   9.517 -1.7484 -0.5091  1.3104
 6838SOL    HW232148   1.674   2.625   9.561  0.5724  1.0716 -0.6610
 6839SOL     OW32149   3.714   3.138   0.306  0.1748  0.1288  0.0939
 6839SOL    HW132150   3.635   3.191   0.296 -0.5693 -0.8508  0.7623
 6839SOL    HW232151   3.778   3.172   0.243  1.0655  0.6323  1.2672
 6840SOL     OW32152   1.717   2.592  16.435 -0.2409  0.4318  0.4891
 6840SOL    HW132153   1.745   2.537  16.509  2.2388 -0.9793 -1.5189
 6840SOL    HW232154   1.735   2.536  16.360  0.8227 -1.2541  1.9779
 6841SOL     OW32155   3.168   0.288  15.484  0.8096 -0.1496  0.3911
 6841SOL    HW132156   3.081   0.324  15.465  0.4219 -0.6573  1.2398
 6841SOL    HW232157   3.149   0.199  15.512  1.6627 -0.5421 -0.2937
 6842SOL     OW32158   0.437   1.939   7.876  0.4436  0.1617  0.1813
 6842SOL    HW132159   0.523   1.980   7.887  0.8825 -0.5549 -0.5515
 6842SOL    HW232160   0.454   1.874   7.808 -0.0372 -0.0890  0.3081
 6843SOL     OW32161   1.883   3.493   9.007  0.1866  0.2966 -0.2224
 6843SOL    HW132162   1.885   3.538   9.091 -2.0586  0.4786 -0.2628
 6843SOL    HW232163   1.970   3.502   8.968  0.5767  0.5293  0.7056
 6844SOL     OW32164   1.432   4.035   8.338  0.0677 -0.0153 -0.2013
 6844SOL    HW132165   1.513   4.030   8.388  0.4424 -0.3895 -0.8416
 6844SOL    HW232166   1.375   3.982   8.394 -0.7639 -0.6506 -1.6377
 6845SOL     OW32167   2.768   2.707   5.113  0.4151 -0.1848  0.4391
 6845SOL    HW132168   2.820   2.785   5.135 -0.2847  0.4129 -0.0313
 6845SOL    HW232169   2.718   2.680   5.190  0.8695  0.5145  0.9823
 6846SOL     OW32170   0.836   3.016   6.753 -0.0725  0.1405 -0.4957
 6846SOL    HW132171   0.799   3.005   6.666  0.6462  1.2475 -0.9445
 6846SOL    HW232172   0.927   3.009   6.726 -0.1117 -0.0618 -0.5748
 6847SOL     OW32173   2.815   3.017   1.648  0.0517  0.2026  0.2154
 6847SOL    HW132174   2.766   3.099   1.650 -0.7726 -0.2924  0.5802
 6847SOL    HW232175   2.817   3.005   1.743 -0.5455  1.4970  0.3890
 6848SOL     OW32176   3.730   3.716   1.412 -0.3854  0.1908 -0.2895
 6848SOL    HW132177   3.804   3.746   1.359  1.0799 -0.5123  1.3714
 6848SOL    HW232178   3.691   3.802   1.429  0.1374  0.6452 -1.3689
 6849SOL     OW32179   4.063   0.484   2.688 -0.4985  0.3758  0.3537
 6849SOL    HW132180   4.114   0.451   2.762 -0.6395  1.0435  0.7474
 6849SOL    HW232181   4.107   0.437   2.617 -0.1576  0.1831  0.6873
 6850SOL     OW32182   1.691   4.653   3.538 -0.1516 -0.5096 -0.2796
 6850SOL    HW132183   1.689   0.004   3.497 -1.7313 -0.9516 -1.1463
 6850SOL    HW232184   1.624   4.600   3.495 -0.3097 -1.5028  1.1856
 6851SOL     OW32185   2.673   2.793   2.680 -0.2315 -0.1005 -0.1260
 6851SOL    HW132186   2.584   2.758   2.686 -1.2921  2.7422  0.7980
 6851SOL    HW232187   2.724   2.733   2.624  0.0629  0.4505 -0.4469
 6852SOL     OW32188   2.932   3.809   2.050  0.7909 -0.4710  0.0754
 6852SOL    HW132189   2.967   3.738   1.996  1.4517  0.1492 -0.3232
 6852SOL    HW232190   2.844   3.780   2.070  0.3182  1.0472  0.2026
 6853SOL     OW32191   2.535   3.921   6.573  0.0430  0.0699 -0.3396
 6853SOL    HW132192   2.583   3.845   6.606 -2.1467 -0.1643  2.3040
 6853SOL    HW232193   2.552   3.983   6.645  1.7292  0.8487 -1.4097
 6854SOL     OW32194   0.210   2.410   2.280  0.0584  0.3028 -0.2406
 6854SOL    HW132195   0.246   2.323   2.267 -0.8797 -0.3531  1.5371
 6854SOL    HW232196   0.295   2.452   2.270 -1.5003  3.7686  0.9178
 6855SOL     OW32197   3.869   0.886   5.829  0.2942  0.2285  0.0806
 6855SOL    HW132198   3.827   0.972   5.842  0.9534  0.3059  1.7334
 6855SOL    HW232199   3.793   0.841   5.792  0.0534  1.0376 -0.4207
 6856SOL     OW32200   1.231   0.469   2.181 -0.3481 -0.1199 -0.6729
 6856SOL    HW132201   1.285   0.412   2.236 -0.4267  0.2178 -0.2497
 6856SOL    HW232202   1.282   0.439   2.105 -0.4783  2.5144 -1.7840
 6857SOL     OW32203   3.810   3.856   2.244 -0.1219 -0.3117  0.2123
 6857SOL    HW132204   3.845   3.848   2.333 -2.5532 -0.5229  1.1535
 6857SOL    HW232205   3.724   3.816   2.247 -0.5365  0.5576 -0.1264
 6858SOL     OW32206   1.134   3.037   9.966  0.6223 -0.2282  0.2544
 6858SOL    HW132207   1.149   2.942   9.963  0.9984 -0.0833 -1.9283
 6858SOL    HW232208   1.077   3.048  10.043 -0.7832  0.4382 -0.8918
 6859SOL     OW32209   0.468   2.310   7.591 -0.0247  0.4835  0.5637
 6859SOL    HW132210   0.410   2.367   7.540 -3.0244 -1.5608  1.6698
 6859SOL    HW232211   0.422   2.226   7.584  0.2687  0.4656 -1.1612
 6860SOL     OW32212   2.705   1.097  14.814 -0.6261 -0.1065 -0.2136
 6860SOL    HW132213   2.723   1.144  14.733 -0.9167 -0.4561 -0.4786
 6860SOL    HW232214   2.616   1.066  14.798  0.4846 -2.9084 -0.8579
 6861SOL     OW32215   1.309   0.598   7.339 -0.4177 -0.0464  0.5653
 6861SOL    HW132216   1.363   0.632   7.410 -0.9976 -0.7315  1.3338
 6861SOL    HW232217   1.378   0.555   7.288 -1.2676 -1.3163  0.4876
 6862SOL     OW32218   3.604   2.160   8.386  0.5996 -0.5350 -0.2799
 6862SOL    HW132219   3.563   2.108   8.317 -0.7868 -1.4017  1.1931
 6862SOL    HW232220   3.534   2.210   8.429 -0.1667  0.0438 -2.1999
 6863SOL     OW32221   0.024   0.505   3.217 -0.0007  0.4393 -0.0706
 6863SOL    HW132222   4.724   0.439   3.157  0.0575 -0.7747  1.2248
 6863SOL    HW232223   4.733   0.585   3.171  0.1328  0.4891 -0.0592
 6864SOL     OW32224   4.198   4.591   7.409 -0.3012 -0.6897  0.6330
 6864SOL    HW132225   4.161   4.595   7.497  2.4630 -0.3507  1.7812
 6864SOL    HW232226   4.161   4.674   7.381 -1.7438 -1.9184 -1.1141
 6865SOL     OW32227   0.152   4.030   4.794  0.1643 -0.3099  0.1089
 6865SOL    HW132228   0.200   3.986   4.725  1.5284 -0.6265  1.2816
 6865SOL    HW232229   0.160   3.968   4.866 -0.1219 -0.7485 -0.2349
 6866SOL     OW32230   0.152   2.927   6.562 -0.3807  0.3250 -0.1117
 6866SOL    HW132231   0.130   2.962   6.648 -0.4867  0.7800 -0.3269
 6866SOL    HW232232   0.072   2.875   6.550  1.3910 -2.6389  1.0585
 6867SOL     OW32233   2.054   3.419   2.305 -0.5335 -0.1957 -0.3670
 6867SOL    HW132234   1.979   3.365   2.331 -0.8252  0.1491 -0.4859
 6867SOL    HW232235   2.107   3.360   2.252 -1.0103 -0.2397 -0.8032
 6868SOL     OW32236   4.174   3.015   7.261 -0.2050  0.0836  0.1961
 6868SOL    HW132237   4.116   3.065   7.204 -0.5526  1.2293  1.5651
 6868SOL    HW232238   4.252   3.060   7.229 -1.0810  1.1332 -0.4212
 6869SOL     OW32239   3.654   2.904   9.485 -0.1398  0.0821  0.3457
 6869SOL    HW132240   3.680   2.893   9.577 -0.0973  0.9763  0.4476
 6869SOL    HW232241   3.587   2.972   9.497  1.8188  2.3705 -1.7070
 6870SOL     OW32242   0.282   3.325   6.311 -0.3691  0.2853 -0.7197
 6870SOL    HW132243   0.270   3.392   6.244  3.1293  1.2152 -0.4598
 6870SOL    HW232244   0.242   3.246   6.275  0.1379 -0.2930 -0.0221
 6871SOL     OW32245   0.820   1.422   8.263 -0.5239  0.5484 -0.3426
 6871SOL    HW132246   0.886   1.377   8.315 -2.6539 -2.2596 -0.0383
 6871SOL    HW232247   0.790   1.492   8.321 -0.5464  1.2714 -1.2177
 6872SOL     OW32248   0.394   0.980   9.505  0.0526 -0.2745  0.0429
 6872SOL    HW132249   0.451   0.913   9.540  0.0259 -0.0266  0.5631
 6872SOL    HW232250   0.429   0.992   9.416  0.1891  1.0648  0.2698
 6873SOL     OW32251   3.420   0.603   4.978  0.0841 -0.1239 -0.2790
 6873SOL    HW132252   3.325   0.589   4.978  0.0516  0.0972  0.6071
 6873SOL    HW232253   3.440   0.611   4.885  0.4037  1.3027 -0.0832
 6874SOL     OW32254   0.809   0.880   4.554 -0.7731 -0.1993  0.5573
 6874SOL    HW132255   0.818   0.946   4.484  3.0212  0.2642  1.5013
 6874SOL    HW232256   0.852   0.806   4.513  0.0905  1.0850 -0.8781
 6875SOL     OW32257   3.666   1.056   5.843 -0.0187  0.2967 -0.0990
 6875SOL    HW132258   3.577   1.047   5.808 -0.3460  2.4997  0.1413
 6875SOL    HW232259   3.645   1.066   5.936  1.7564  1.8371  0.1408
 6876SOL     OW32260   4.417   4.628   7.056 -0.2582  0.3638 -0.2579
 6876SOL    HW132261   4.359   4.552   7.068  0.3506  0.0432  0.6450
 6876SOL    HW232262   4.357   4.688   7.100 -0.9517 -0.8038  0.4130
 6877SOL     OW32263   1.183   2.106  14.773 -0.2729  0.1603  0.0369
 6877SOL    HW132264   1.192   2.171  14.843 -0.4252  2.5153 -2.1237
 6877SOL    HW232265   1.099   2.137  14.739 -0.5278 -1.6608 -0.9736
 6878SOL     OW32266   2.442   2.069   7.659 -0.5231  0.2065  0.2815
 6878SOL    HW132267   2.449   2.099   7.750  2.0523  1.2817 -0.2633
 6878SOL    HW232268   2.403   2.138   7.607 -1.4039  0.2749  1.0291
 6879SOL     OW32269   2.655   1.273   6.560 -0.1531  0.2038  0.1644
 6879SOL    HW132270   2.650   1.342   6.494  1.3095 -0.7785 -0.9524
 6879SOL    HW232271   2.568   1.278   6.600  0.5254  1.0808  1.5137
 6880SOL     OW32272   4.362   0.260   1.730  0.2089 -0.4342  0.1065
 6880SOL    HW132273   4.408   0.217   1.802  0.8009  1.0451  0.6290
 6880SOL    HW232274   4.392   0.209   1.655 -3.6714 -0.3754 -1.4762
 6881SOL     OW32275   2.120   2.399   2.882 -0.1845  0.1590 -0.3183
 6881SOL    HW132276   2.172   2.411   2.962 -0.9376 -2.1247  0.5020
 6881SOL    HW232277   2.061   2.474   2.887 -0.0140  0.2997 -0.4096
 6882SOL     OW32278   0.281   1.490   1.434  0.1801 -0.2852  0.2976
 6882SOL    HW132279   0.369   1.495   1.472  0.2807 -0.0151  0.0348
 6882SOL    HW232280   0.232   1.551   1.489 -0.8367 -1.2215  0.4155
 6883SOL     OW32281   3.051   3.999  12.535  0.1661 -0.1582  0.1880
 6883SOL    HW132282   2.994   3.992  12.612 -0.3054  0.3190 -0.1094
 6883SOL    HW232283   3.076   3.907  12.528  2.3620  0.2535  2.7112
 6884SOL     OW32284   0.120   1.446  16.530  0.4865  0.0118 -0.0453
 6884SOL    HW132285   0.065   1.369  16.516 -2.0108  1.6773  0.7711
 6884SOL    HW232286   0.198   1.412  16.574  1.0114  0.4732 -0.6254
 6885SOL     OW32287   1.214   2.383   3.569 -0.1941 -0.3047  0.8201
 6885SOL    HW132288   1.219   2.306   3.512 -2.5571  0.0908  0.0722
 6885SOL    HW232289   1.128   2.410   3.538 -0.2399 -0.2436  0.9957
 6886SOL     OW32290   4.216   4.466   8.821 -0.1546 -0.5418 -0.0135
 6886SOL    HW132291   4.251   4.398   8.879 -0.9570 -1.7280 -0.9442
 6886SOL    HW232292   4.232   4.435   8.732  1.5302 -0.7656  0.3685
 6887SOL     OW32293   3.311   1.073   2.330  0.0248 -0.2272  0.2768
 6887SOL    HW132294   3.258   1.123   2.268  0.1161 -4.2184 -2.9934
 6887SOL    HW232295   3.246   1.044   2.394  2.5852 -0.6327  2.7354
 6888SOL     OW32296   3.477   2.298   7.700 -0.5556  0.1678 -0.7241
 6888SOL    HW132297   3.402   2.356   7.712  0.9785  1.7949  0.9983
 6888SOL    HW232298   3.445   2.219   7.744 -1.5770  2.1982  2.1907
 6889SOL     OW32299   3.652   3.328   7.069 -0.0083  0.1254 -0.2118
 6889SOL    HW132300   3.601   3.311   6.991 -0.9062  1.1356  0.1546
 6889SOL    HW232301   3.726   3.371   7.026 -1.1936  2.6228  0.2694
 6890SOL     OW32302   2.187   4.614  14.813 -0.5072  0.3314 -0.4765
 6890SOL    HW132303   2.224   4.556  14.747  0.1612 -1.1974  1.2414
 6890SOL    HW232304   2.168   4.556  14.887  0.5297  0.9195  0.2593
 6891SOL     OW32305   1.668   1.167   8.398 -0.1147  0.6179  0.5117
 6891SOL    HW132306   1.761   1.150   8.413  0.1670  0.9008 -0.9417
 6891SOL    HW232307   1.664   1.238   8.334  3.4040 -0.5551 -0.9758
 6892SOL     OW32308   1.940   1.800  11.388  0.7124  0.2496  0.1013
 6892SOL    HW132309   1.874   1.830  11.450 -0.7796  0.2235 -1.4962
 6892SOL    HW232310   1.909   1.711  11.371  2.0522  0.0766 -1.4541
 6893SOL     OW32311   0.462   3.384   4.516  0.0836 -0.0267  0.4298
 6893SOL    HW132312   0.483   3.364   4.608  1.9363 -1.3043 -0.2739
 6893SOL    HW232313   0.372   3.416   4.524 -0.6346 -2.1251  0.7611
 6894SOL     OW32314   3.195   3.749   4.683 -0.1120  0.5117  0.2874
 6894SOL    HW132315   3.159   3.836   4.700  1.0724  0.8222  1.2910
 6894SOL    HW232316   3.281   3.765   4.644 -1.1310  0.5130 -1.9552
 6895SOL     OW32317   2.366   0.432   8.639 -0.3494 -0.1330  0.4399
 6895SOL    HW132318   2.358   0.524   8.666 -1.4738 -0.0785 -0.0883
 6895SOL    HW232319   2.400   0.431   8.550  1.9118  0.8326  1.2813
 6896SOL     OW32320   0.796   1.038  11.173  0.5642  0.2147  0.0161
 6896SOL    HW132321   0.888   1.029  11.199  0.0449  2.8871  2.8206
 6896SOL    HW232322   0.750   1.053  11.256 -0.8407 -1.6656 -0.4263
 6897SOL     OW32323   3.988   4.455   8.445 -0.2364  0.2254  0.0231
 6897SOL    HW132324   3.972   4.516   8.517  2.5023 -0.0191  0.8118
 6897SOL    HW232325   4.065   4.411   8.481 -0.0591 -0.1127 -0.7771
 6898SOL     OW32326   0.455   1.596   5.473  0.3906 -0.4214 -0.0036
 6898SOL    HW132327   0.540   1.621   5.439  1.0206  1.0327  2.6646
 6898SOL    HW232328   0.399   1.674   5.478  0.5329 -0.3711  0.8243
 6899SOL     OW32329   4.604   2.417   7.109  0.6736  0.1595  0.2969
 6899SOL    HW132330   4.519   2.460   7.110 -0.0175 -1.1881 -0.2170
 6899SOL    HW232331   4.621   2.405   7.015  2.3529 -0.8901  0.7214
 6900SOL     OW32332   1.120   2.346   5.678  0.1295  0.3672  0.0503
 6900SOL    HW132333   1.142   2.412   5.612  1.0767  0.7162  0.7144
 6900SOL    HW232334   1.075   2.404   5.741 -1.0395 -1.0844  0.5530
 6901SOL     OW32335   3.239   2.523   7.549 -0.5072  0.4897 -0.0176
 6901SOL    HW132336   3.276   2.524   7.637  2.2353  2.4542 -1.1891
 6901SOL    HW232337   3.146   2.505   7.562  0.3640 -1.0270  4.1221
 6902SOL     OW32338   0.822   3.925  17.574  0.2867  0.3478 -0.0869
 6902SOL    HW132339   0.787   3.915  17.486  0.3897  1.6190 -0.2645
 6902SOL    HW232340   0.879   3.849  17.588  0.4156  0.5992  0.7337
 6903SOL     OW32341   3.460   2.064  17.012  0.7244 -0.3030  0.2612
 6903SOL    HW132342   3.518   2.140  17.021  0.1829  0.1857 -0.3684
 6903SOL    HW232343   3.501   2.001  17.070  1.4217  1.6866  1.9358
 6904SOL     OW32344   1.754   1.118   5.699 -0.6625  0.3682 -0.6780
 6904SOL    HW132345   1.849   1.121   5.710 -0.8431  0.5755  0.8595
 6904SOL    HW232346   1.734   1.210   5.682  0.3938  0.5263 -1.0404
 6905SOL     OW32347   1.564   0.940   6.515  0.3843 -1.1215  0.4572
 6905SOL    HW132348   1.611   0.958   6.434 -1.2219  2.5248  0.3603
 6905SOL    HW232349   1.493   0.884   6.482  0.6441 -1.0256 -0.2632
 6906SOL     OW32350   4.108   2.270   3.255 -0.1894  0.3912  0.0585
 6906SOL    HW132351   4.162   2.329   3.203  1.7742 -0.0735  1.6109
 6906SOL    HW232352   4.102   2.194   3.196 -0.0344 -0.0221  0.5730
 6907SOL     OW32353   1.835   1.098   6.373 -0.1982 -0.0688 -0.1201
 6907SOL    HW132354   1.777   1.052   6.313 -0.4100  1.8139 -1.3359
 6907SOL    HW232355   1.917   1.055   6.348 -0.1336  0.3439 -0.6058
 6908SOL     OW32356   2.261   3.001   7.845 -0.4636  0.7223  0.0808
 6908SOL    HW132357   2.184   2.944   7.848 -0.8270  1.2417  0.5877
 6908SOL    HW232358   2.222   3.083   7.815 -0.7690  0.7426  0.5341
 6909SOL     OW32359   3.578   0.726   6.125  0.3227  0.4325 -0.3261
 6909SOL    HW132360   3.541   0.668   6.191  1.3621  0.3001  0.1326
 6909SOL    HW232361   3.604   0.804   6.174  0.9873  0.1280 -0.2014
 6910SOL     OW32362   2.305   2.954  12.112  0.2966  0.7752 -0.3133
 6910SOL    HW132363   2.255   2.951  12.193  0.5157 -0.0189 -0.2095
 6910SOL    HW232364   2.276   3.035  12.070 -1.9800 -0.3908 -0.9327
 6911SOL     OW32365   2.648   2.561  11.316 -0.5294  0.0208 -0.3332
 6911SOL    HW132366   2.608   2.488  11.364  0.8898 -0.7667 -0.3285
 6911SOL    HW232367   2.684   2.604  11.393  0.1040 -1.1871  0.0514
 6912SOL     OW32368   2.522   0.223   4.511 -0.1103 -0.3640  0.3862
 6912SOL    HW132369   2.576   0.279   4.457 -0.1494 -0.8619 -0.1691
 6912SOL    HW232370   2.546   0.249   4.600 -0.4986  0.1559  0.3419
 6913SOL     OW32371   2.662   3.160   9.559 -0.0810 -0.2922  0.0483
 6913SOL    HW132372   2.727   3.208   9.610 -1.4793 -0.7429  2.2499
 6913SOL    HW232373   2.587   3.157   9.618 -1.4561  2.1316 -1.5275
 6914SOL     OW32374   3.908   4.458   5.292 -0.1053 -0.1330  0.4281
 6914SOL    HW132375   3.919   4.512   5.370  2.3684 -0.8045  0.5272
 6914SOL    HW232376   3.983   4.482   5.239  1.4298 -3.5288  1.0179
 6915SOL     OW32377   4.393   2.555   6.613  0.0967  0.3550  0.6633
 6915SOL    HW132378   4.374   2.463   6.632  2.4060 -0.2901 -0.1333
 6915SOL    HW232379   4.432   2.584   6.696  2.1671 -1.9325  0.5067
 6916SOL     OW32380   0.396   2.796   4.862 -0.0083 -0.1090  0.3240
 6916SOL    HW132381   0.419   2.816   4.953 -2.3054 -3.0011  1.5517
 6916SOL    HW232382   0.383   2.883   4.826 -0.1391 -0.0600  0.4870
 6917SOL     OW32383   1.982   3.101   4.329 -0.4514  0.2763  0.2519
 6917SOL    HW132384   2.005   3.194   4.331 -0.3383  0.2655 -0.4315
 6917SOL    HW232385   2.049   3.062   4.384  1.3659  1.8919 -0.7716
 6918SOL     OW32386   0.131   1.636  15.472  0.5348  0.2965  0.2057
 6918SOL    HW132387   0.064   1.672  15.413  0.9675 -2.1766 -1.7611
 6918SOL    HW232388   0.093   1.644  15.560 -1.2038  0.4850 -0.5633
 6919SOL     OW32389   2.550   2.176   4.520  0.4645 -0.0030 -0.6243
 6919SOL    HW132390   2.499   2.227   4.458 -1.1495 -1.1700 -0.2372
 6919SOL    HW232391   2.615   2.128   4.469  0.9238  0.4288 -0.4478
 6920SOL     OW32392   3.301   0.697   6.689 -0.4461 -0.1450  0.0093
 6920SOL    HW132393   3.359   0.656   6.754 -1.5744  1.9753  2.3769
 6920SOL    HW232394   3.312   0.638   6.615  0.2008  2.3237 -1.8385
 6921SOL     OW32395   1.595   4.618  17.413  0.0300  0.3769  0.2005
 6921SOL    HW132396   1.509   4.646  17.445  0.4585 -0.0639  1.7458
 6921SOL    HW232397   1.576   4.589  17.324  0.5820  0.2581  0.1213
 6922SOL     OW32398   3.762   4.041   3.871 -0.1447  0.1814  0.0265
 6922SOL    HW132399   3.744   4.133   3.891 -1.5203  0.1497 -1.0538
 6922SOL    HW232400   3.686   3.994   3.903  1.5147 -2.7662 -0.3693
 6923SOL     OW32401   3.650   2.535  17.556  0.2246  0.2632  0.6144
 6923SOL    HW132402   3.729   2.589  17.558 -0.3209  1.0721  0.3198
 6923SOL    HW232403   3.674   2.472  17.488  1.6722 -0.0452  1.4097
 6924SOL     OW32404   2.351   1.993  15.025  0.1787  0.0612 -0.1101
 6924SOL    HW132405   2.416   1.969  14.959 -0.2219  0.7998 -0.7779
 6924SOL    HW232406   2.384   2.080  15.047 -2.5204  1.1977 -0.5551
 6925SOL     OW32407   4.564   4.142   1.670  0.4037 -0.9255  0.2488
 6925SOL    HW132408   4.504   4.071   1.693  1.1498 -0.9422  2.1324
 6925SOL    HW232409   4.642   4.128   1.724  0.3419 -0.7783  0.3798
 6926SOL     OW32410   2.596   2.851   4.152 -0.6153 -0.1831 -0.3761
 6926SOL    HW132411   2.672   2.800   4.181 -1.8568 -1.8428 -0.0165
 6926SOL    HW232412   2.628   2.870   4.063  1.3064 -0.5337  0.2249
 6927SOL     OW32413   3.022   1.563   7.154 -0.6961  0.2557 -0.4301
 6927SOL    HW132414   2.958   1.564   7.083 -0.8227 -3.4262 -0.3473
 6927SOL    HW232415   2.998   1.508   7.228  1.9367 -0.1782  0.1011
 6928SOL     OW32416   0.137   3.869  12.543 -0.1617 -0.2304 -0.3238
 6928SOL    HW132417   0.103   3.817  12.616  1.2681 -1.2228 -0.3456
 6928SOL    HW232418   0.141   3.953  12.588  0.8167  1.5241 -3.7602
 6929SOL     OW32419   1.001   0.729   4.429  0.3437  0.0016  0.0624
 6929SOL    HW132420   1.053   0.713   4.507  0.7557 -0.2934 -0.2764
 6929SOL    HW232421   1.053   0.787   4.373  2.0049 -1.3228  0.2406
 6930SOL     OW32422   0.587   4.102   7.959 -0.6167  0.2650  0.6516
 6930SOL    HW132423   0.588   4.021   7.907 -0.4038  1.1177 -0.6595
 6930SOL    HW232424   0.523   4.145   7.902  0.4858  1.6049  0.4438
 6931SOL     OW32425   1.462   2.604   2.213  0.0623 -0.5939  0.2388
 6931SOL    HW132426   1.516   2.608   2.292 -2.1766 -0.8955  1.7833
 6931SOL    HW232427   1.510   2.552   2.148 -0.7521 -1.3174  0.2250
 6932SOL     OW32428   2.521   4.687  17.093 -0.0683 -0.3264  0.1066
 6932SOL    HW132429   2.460   4.727  17.155 -0.8727 -1.6015  0.1440
 6932SOL    HW232430   2.604   4.688  17.141  1.0347  1.4445 -1.8638
 6933SOL     OW32431   4.221   2.540   7.737  0.7267  0.0030 -0.2727
 6933SOL    HW132432   4.278   2.565   7.665  1.6859 -1.1853  0.0735
 6933SOL    HW232433   4.216   2.448   7.709  3.4342 -0.5219  0.9245
 6934SOL     OW32434   1.675   1.270  14.554 -0.3528  0.3431  0.1717
 6934SOL    HW132435   1.706   1.350  14.596  0.7544 -0.4570  0.9121
 6934SOL    HW232436   1.755   1.231  14.518 -1.0866  0.8794 -1.9909
 6935SOL     OW32437   2.149   2.315   6.869 -0.4293  0.0837  0.4368
 6935SOL    HW132438   2.072   2.311   6.812 -1.5301 -1.1427  2.0060
 6935SOL    HW232439   2.222   2.317   6.808  0.7359 -1.5095  1.7762
 6936SOL     OW32440   4.365   3.468   3.786  0.9630  0.4197 -0.3238
 6936SOL    HW132441   4.280   3.513   3.789  0.9209  0.3223 -0.0582
 6936SOL    HW232442   4.409   3.496   3.706  1.3603  3.5543  0.9786
 6937SOL     OW32443   3.630   1.669   4.971  0.0073 -0.1921 -0.0323
 6937SOL    HW132444   3.565   1.672   5.042 -0.1240  0.5857 -0.1871
 6937SOL    HW232445   3.711   1.685   5.020  0.5895 -0.0759 -1.0336
 6938SOL     OW32446   0.587   2.646   3.799  0.7368 -0.2167 -0.0758
 6938SOL    HW132447   0.521   2.580   3.821  2.7594 -2.8353 -1.7088
 6938SOL    HW232448   0.649   2.588   3.755  0.2630 -0.9306  0.1989
 6939SOL     OW32449   2.857   2.959   3.073  0.7172 -0.1523 -0.0630
 6939SOL    HW132450   2.831   2.867   3.080  0.7283 -0.0765  0.9387
 6939SOL    HW232451   2.789   2.993   3.014  0.0998 -2.2690 -0.5667
 6940SOL     OW32452   1.410   0.166   6.957  0.1137 -0.2565 -0.1891
 6940SOL    HW132453   1.449   0.080   6.973 -1.5379 -0.9672  0.0697
 6940SOL    HW232454   1.487   0.220   6.941 -1.1928  1.2158 -1.4349
 6941SOL     OW32455   4.461   3.885   4.561 -0.2565  0.1589  0.4991
 6941SOL    HW132456   4.445   3.848   4.648 -1.3025 -1.4252 -0.3622
 6941SOL    HW232457   4.498   3.967   4.595 -1.0513  0.6893  0.0894
 6942SOL     OW32458   2.631   4.175   1.264 -0.2497  0.5776 -0.2486
 6942SOL    HW132459   2.562   4.208   1.207  0.1118 -1.2301 -1.7051
 6942SOL    HW232460   2.713   4.201   1.221 -0.0256 -1.6199 -1.1235
 6943SOL     OW32461   4.711   2.439   6.025  0.3275  0.0270 -0.1784
 6943SOL    HW132462   4.720   2.393   6.109  0.8761 -0.9154 -0.7532
 6943SOL    HW232463   4.688   2.524   6.063 -1.7550 -0.0925 -1.1949
 6944SOL     OW32464   4.136   0.122   3.257 -0.6392 -0.0269  0.2264
 6944SOL    HW132465   4.041   0.122   3.255 -0.7174 -0.0197  4.2298
 6944SOL    HW232466   4.150   0.171   3.338 -3.8575 -1.2600  1.5302
 6945SOL     OW32467   2.313   4.058   9.017  0.5833 -0.3100  0.1373
 6945SOL    HW132468   2.287   4.018   9.100 -1.7814  1.3007  0.1616
 6945SOL    HW232469   2.353   3.982   8.975  0.5456 -0.2008 -0.0966
 6946SOL     OW32470   1.854   0.411   7.829 -0.7121  0.0869  0.5430
 6946SOL    HW132471   1.820   0.371   7.750  2.7859 -0.1823 -0.8194
 6946SOL    HW232472   1.809   0.496   7.824 -1.7392 -0.4416  0.9810
 6947SOL     OW32473   4.144   3.819   9.071  0.8137 -0.5611 -0.0696
 6947SOL    HW132474   4.102   3.905   9.070 -0.9264 -1.4031 -0.2461
 6947SOL    HW232475   4.072   3.760   9.094  0.3908  0.1569  0.4463
 6948SOL     OW32476   2.134   4.213  11.757 -0.2268  0.4555  0.5043
 6948SOL    HW132477   2.146   4.252  11.843 -0.2708 -0.3945  0.8947
 6948SOL    HW232478   2.187   4.136  11.780 -0.4179  0.9007  2.3832
 6949SOL     OW32479   2.600   0.262  14.270 -0.1521  0.1809  0.1505
 6949SOL    HW132480   2.574   0.174  14.245  0.4470  1.0342 -3.4502
 6949SOL    HW232481   2.530   0.317  14.234 -0.2480 -0.7758 -1.1061
 6950SOL     OW32482   4.700   3.685   1.403 -0.4983  0.2153  0.1811
 6950SOL    HW132483   0.041   3.738   1.381 -0.6150  1.1155  1.9307
 6950SOL    HW232484   4.733   3.596   1.387 -0.1943  0.3255  0.2026
 6951SOL     OW32485   1.111   2.991   7.138  0.3045 -0.4447  0.7266
 6951SOL    HW132486   1.197   2.960   7.166  1.3787 -0.3378 -2.3975
 6951SOL    HW232487   1.119   3.064   7.076  0.1734 -0.9597  0.0933
 6952SOL     OW32488   3.072   4.633   6.102  0.5874 -0.4391  0.2262
 6952SOL    HW132489   3.154   4.640   6.053 -1.6265  0.9677 -3.2538
 6952SOL    HW232490   3.048   4.720   6.070  2.4778  0.0374  0.1289
 6953SOL     OW32491   3.819   2.001   6.376 -0.2499  0.5064 -0.1119
 6953SOL    HW132492   3.868   1.959   6.447  0.5563  0.2576 -0.8211
 6953SOL    HW232493   3.889   1.995   6.312 -1.7371 -0.1864 -1.6704
 6954SOL     OW32494   1.684   0.182   1.937 -0.1773 -0.8271  0.2182
 6954SOL    HW132495   1.609   0.195   1.878  1.1756 -3.1808 -1.9957
 6954SOL    HW232496   1.708   0.092   1.913 -3.0433 -1.2381 -1.1619
 6955SOL     OW32497   2.805   1.719  11.824 -0.5689  0.1483 -0.3361
 6955SOL    HW132498   2.781   1.728  11.917 -1.0984  0.9807 -0.5589
 6955SOL    HW232499   2.888   1.671  11.822 -0.4868  0.1085  3.2458
 6956SOL     OW32500   1.618   1.609  15.722  0.2649 -0.4072 -0.3366
 6956SOL    HW132501   1.679   1.542  15.753  0.4135  0.7869  1.8774
 6956SOL    HW232502   1.565   1.614  15.801  0.7005 -0.4561 -0.0424
 6957SOL     OW32503   1.964   2.737   3.185  0.7374 -0.0425 -0.0605
 6957SOL    HW132504   2.014   2.790   3.123  0.3336  2.2765  1.6274
 6957SOL    HW232505   1.877   2.739   3.146  0.1209  0.3998  1.3394
 6958SOL     OW32506   0.298   3.136   3.800 -0.0536  0.3760  0.0308
 6958SOL    HW132507   0.386   3.118   3.831  0.6715  1.8194 -1.1370
 6958SOL    HW232508   0.231   3.093   3.852  0.5239 -0.2065  0.2899
 6959SOL     OW32509   4.080   0.445  16.001 -0.2155 -0.1411  0.0227
 6959SOL    HW132510   3.987   0.468  16.010 -0.8354 -2.0411 -1.3700
 6959SOL    HW232511   4.125   0.523  16.034  1.0247 -0.6222 -0.5575
 6960SOL     OW32512   4.317   3.220   9.332  0.2346  0.3025 -0.1126
 6960SOL    HW132513   4.257   3.161   9.287  1.9237 -0.7717 -0.9852
 6960SOL    HW232514   4.390   3.214   9.270 -1.0666 -3.7366 -1.2650
 6961SOL     OW32515   1.063   4.691   6.862  0.0990  0.6796  0.5111
 6961SOL    HW132516   1.135   0.018   6.857 -0.6952  1.3716 -2.3360
 6961SOL    HW232517   1.042   4.667   6.772 -2.6381  2.0681  0.7665
 6962SOL     OW32518   4.413   2.814   6.398  0.5167 -0.4781  0.2230
 6962SOL    HW132519   4.471   2.794   6.472  1.2011  0.9008  0.0560
 6962SOL    HW232520   4.475   2.831   6.327 -1.9608  1.8224 -1.3800
 6963SOL     OW32521   3.222   1.477  11.532  0.2713  0.3032 -0.0649
 6963SOL    HW132522   3.166   1.429  11.471  1.5949 -0.4193 -0.7166
 6963SOL    HW232523   3.272   1.526  11.467  0.5139 -2.1102 -1.7055
 6964SOL     OW32524   2.921   4.240  14.692 -0.0271 -0.0004 -0.0595
 6964SOL    HW132525   2.993   4.178  14.683  1.7681  1.5925  3.1175
 6964SOL    HW232526   2.944   4.281  14.776  0.8830 -1.9306  0.6543
 6965SOL     OW32527   2.493   0.230   7.681 -0.2256  0.9663 -1.0458
 6965SOL    HW132528   2.576   0.195   7.648  1.4957  2.6079  1.5067
 6965SOL    HW232529   2.535   0.266   7.759  0.3645  0.0165 -0.9245
 6966SOL     OW32530   3.713   4.732   3.133 -0.4918  0.6620  0.3720
 6966SOL    HW132531   3.644   0.022   3.070  0.2412 -0.4450 -0.8773
 6966SOL    HW232532   3.788   4.724   3.073 -0.4720 -1.2081  0.6420
 6967SOL     OW32533   3.606   0.445   8.815 -0.4711  0.2236 -0.4458
 6967SOL    HW132534   3.589   0.408   8.901  1.2652 -0.6652 -0.4797
 6967SOL    HW232535   3.517   0.466   8.786 -1.4871 -2.4094  0.7152
 6968SOL     OW32536   1.840   3.472   4.065 -0.0327  0.3662  0.0024
 6968SOL    HW132537   1.913   3.533   4.068 -0.7313  1.1497  0.7038
 6968SOL    HW232538   1.879   3.387   4.044  2.4189  1.9362 -1.7315
 6969SOL     OW32539   4.418   3.650   3.021  0.5804  0.1081  0.1543
 6969SOL    HW132540   4.328   3.680   3.032  0.0807 -1.4544  0.4221
 6969SOL    HW232541   4.397   3.566   2.979  0.8732 -0.2428  0.7039
 6970SOL     OW32542   4.674   0.971   6.088  0.0728  0.0394 -0.0582
 6970SOL    HW132543   4.717   1.056   6.096 -0.9174  0.6570 -1.3336
 6970SOL    HW232544   0.009   0.907   6.096  1.9494  2.0608 -0.2485
 6971SOL     OW32545   2.868   3.780   2.986 -0.0333 -0.0007  0.2618
 6971SOL    HW132546   2.805   3.731   3.039  1.0801 -0.3454  1.2788
 6971SOL    HW232547   2.954   3.740   2.997  1.8103  3.5026 -1.3205
 6972SOL     OW32548   3.874   2.921   4.045  0.0832 -0.2571 -0.1790
 6972SOL    HW132549   3.863   2.837   4.090 -2.0291  0.0872 -0.0115
 6972SOL    HW232550   3.788   2.964   4.055  0.2037  0.5329 -2.5799
 6973SOL     OW32551   0.720   1.573   2.901 -0.5729  0.0410 -0.8057
 6973SOL    HW132552   0.708   1.630   2.825  0.1848 -0.5364 -1.3436
 6973SOL    HW232553   0.812   1.548   2.909 -0.4398  0.7923  0.1211
 6974SOL     OW32554   0.248   1.096  13.954  0.1221 -0.3417 -0.1891
 6974SOL    HW132555   0.201   1.169  13.995 -0.2522 -0.8157  0.2243
 6974SOL    HW232556   0.281   1.148  13.881 -0.6668  0.3781 -0.0358
 6975SOL     OW32557   0.619   4.684   7.936 -0.4813  0.6718  0.1903
 6975SOL    HW132558   0.599   0.034   7.895 -1.2652  0.5218  0.2655
 6975SOL    HW232559   0.536   4.640   7.923  1.0535 -1.8831 -0.8074
 6976SOL     OW32560   2.693   2.379   5.000 -0.6251  0.0236 -0.5388
 6976SOL    HW132561   2.647   2.340   5.075 -2.1477  1.6883 -0.6187
 6976SOL    HW232562   2.640   2.336   4.933  1.3078 -0.7171 -1.5705
 6977SOL     OW32563   0.415   3.481   0.394  0.2350  0.5508  0.4315
 6977SOL    HW132564   0.329   3.510   0.363 -0.7610 -1.3459  1.3443
 6977SOL    HW232565   0.417   3.389   0.365 -2.6534  0.5650  0.1301
 6978SOL     OW32566   0.716   1.088   1.240  0.0111  0.3578 -0.0367
 6978SOL    HW132567   0.638   1.065   1.191 -1.3965  1.6084  1.6133
 6978SOL    HW232568   0.761   1.004   1.244 -0.0952  0.2171 -1.9280
 6979SOL     OW32569   1.552   3.159   9.709 -0.0427  0.4617 -0.0439
 6979SOL    HW132570   1.468   3.116   9.698  2.0678 -3.7480  0.4229
 6979SOL    HW232571   1.614   3.095   9.674  2.9723  1.3895  3.6040
 6980SOL     OW32572   1.001   2.652   7.765 -0.6930  0.7311 -0.0870
 6980SOL    HW132573   1.031   2.688   7.849  1.6906  0.3866 -0.7805
 6980SOL    HW232574   0.960   2.728   7.725  0.3179  1.0182 -0.5814
 6981SOL     OW32575   3.296   0.731   3.322  0.0943  0.3724  0.2137
 6981SOL    HW132576   3.295   0.674   3.246  1.0330 -0.3958  0.7819
 6981SOL    HW232577   3.358   0.802   3.305  0.2714  0.2523  0.3575
 6982SOL     OW32578   2.073   3.803  17.377  0.0457  0.8649  0.0782
 6982SOL    HW132579   2.079   3.730  17.439  1.3282  0.3197 -0.6753
 6982SOL    HW232580   2.109   3.762  17.298 -2.0557  0.0490 -0.4466
 6983SOL     OW32581   1.194   2.618  13.853 -0.1873  0.0935 -0.3964
 6983SOL    HW132582   1.111   2.666  13.853  0.7555  1.7117 -3.8047
 6983SOL    HW232583   1.163   2.552  13.916  0.1080  0.7626  0.4525
 6984SOL     OW32584   0.015   4.243  13.634 -0.2169  0.1168  0.2812
 6984SOL    HW132585   4.722   4.315  13.689 -0.4544 -0.3824  0.8051
 6984SOL    HW232586   4.665   4.210  13.605  0.2161 -1.7002  1.0440
 6985SOL     OW32587   1.753   4.644   0.949 -0.2559 -0.0812  0.2634
 6985SOL    HW132588   1.752   4.634   1.045  2.6524 -0.7056  0.2021
 6985SOL    HW232589   1.663   4.676   0.940 -0.4670 -1.3564 -2.1395
 6986SOL     OW32590   4.148   0.442   6.260  0.4372  0.1769  0.0248
 6986SOL    HW132591   4.166   0.536   6.271  2.0814  0.1024 -1.9659
 6986SOL    HW232592   4.069   0.435   6.314  0.4489 -0.0824  0.0074
 6987SOL     OW32593   0.314   1.902   1.818  0.0799  0.8296  0.0293
 6987SOL    HW132594   0.261   1.822   1.818  1.4190 -0.0538 -1.1086
 6987SOL    HW232595   0.252   1.970   1.844  1.6787  1.7449  1.4820
 6988SOL     OW32596   1.930   4.328   8.496  0.6093 -0.3956 -0.8408
 6988SOL    HW132597   1.973   4.249   8.530  0.0374 -0.1663  0.4202
 6988SOL    HW232598   1.876   4.286   8.429 -1.8927  2.6460 -0.7498
 6989SOL     OW32599   1.927   4.369   5.708  0.0383  0.4648  0.0963
 6989SOL    HW132600   1.843   4.399   5.672 -0.8435 -0.9764  0.9493
 6989SOL    HW232601   1.955   4.452   5.747 -0.1598  1.2705 -1.4525
 6990SOL     OW32602   2.373   4.658   6.597  0.3625  0.3908  0.0673
 6990SOL    HW132603   2.363   4.585   6.659 -0.7073 -0.3711 -1.0050
 6990SOL    HW232604   2.290   4.659   6.549  0.6432 -0.2373 -0.4354
 6991SOL     OW32605   0.307   3.396   3.718 -0.2423 -0.3411  0.0960
 6991SOL    HW132606   0.335   3.309   3.745  0.3766  0.2587  1.4248
 6991SOL    HW232607   0.222   3.373   3.681 -0.8635  2.9853 -0.5363
 6992SOL     OW32608   3.050   1.616   8.519 -0.1235  0.3030 -0.2098
 6992SOL    HW132609   3.006   1.617   8.435  0.1353 -0.6922 -0.3584
 6992SOL    HW232610   3.103   1.536   8.523  0.0554  0.5438  2.5447
 6993SOL     OW32611   1.136   0.286   9.425 -0.3381  0.7766  0.1332
 6993SOL    HW132612   1.046   0.252   9.423 -0.3360  0.8635 -0.9205
 6993SOL    HW232613   1.175   0.214   9.476 -0.8526 -0.6484 -1.4857
 6994SOL     OW32614   2.132   1.880  11.214  0.3315  0.5149 -0.3236
 6994SOL    HW132615   2.091   1.922  11.139 -1.5309 -0.2563  0.2652
 6994SOL    HW232616   2.053   1.851  11.261 -0.4685 -0.8276 -2.5510
 6995SOL     OW32617   3.631   0.269   4.134 -0.7395  0.1618  0.5199
 6995SOL    HW132618   3.694   0.340   4.131  1.3435 -1.6878  0.7837
 6995SOL    HW232619   3.613   0.273   4.040 -0.2616  0.0523  0.4246
 6996SOL     OW32620   1.347   1.887   2.223 -0.2778  0.5950 -0.1720
 6996SOL    HW132621   1.420   1.829   2.201  1.0117  1.9886  0.4124
 6996SOL    HW232622   1.348   1.877   2.318 -0.5430  0.0409 -0.2287
 6997SOL     OW32623   0.597   4.469   5.452 -0.2601  0.2141  0.0820
 6997SOL    HW132624   0.529   4.431   5.507  1.3791 -2.0765  0.5137
 6997SOL    HW232625   0.675   4.481   5.505 -0.1904  1.8825 -0.3922
 6998SOL     OW32626   3.081   4.687   5.264 -0.5221  0.1320  0.7628
 6998SOL    HW132627   3.162   4.643   5.290  0.1316  1.3894  0.8554
 6998SOL    HW232628   3.018   4.655   5.327 -0.6112 -0.0025  0.6041
 6999SOL     OW32629   3.666   3.258  10.859  0.2676 -0.0475 -0.3323
 6999SOL    HW132630   3.661   3.353  10.863 -0.4689 -0.1879  2.0204
 6999SOL    HW232631   3.751   3.262  10.903  1.1275  0.3628 -2.0568
 7000SOL     OW32632   2.623   3.956   3.279  0.1723  0.4551  0.0756
 7000SOL    HW132633   2.691   3.973   3.345  1.2907 -0.3151 -0.8736
 7000SOL    HW232634   2.562   3.902   3.329 -1.9902  1.5210 -1.4222
 7001SOL     OW32635   0.370   2.544  14.253  0.4366  0.2150 -0.3970
 7001SOL    HW132636   0.379   2.592  14.171 -1.7416  1.2468 -0.0313
 7001SOL    HW232637   0.376   2.460  14.209 -1.1656  0.2862 -0.7424
 7002SOL     OW32638   2.752   2.220   7.095 -0.0694  0.1078 -0.6444
 7002SOL    HW132639   2.770   2.180   7.180 -1.2419 -2.5553 -1.6466
 7002SOL    HW232640   2.657   2.213   7.095 -0.1808  1.7463  0.3507
 7003SOL     OW32641   3.767   1.459   2.132 -0.6057  0.1545 -0.2789
 7003SOL    HW132642   3.818   1.455   2.213 -0.7562 -2.4551 -0.3163
 7003SOL    HW232643   3.836   1.421   2.077 -0.5117 -0.5908  0.3704
 7004SOL     OW32644   1.728   0.843  15.470  0.3248 -0.6667  0.3142
 7004SOL    HW132645   1.723   0.795  15.388  2.0519 -0.8373  0.3190
 7004SOL    HW232646   1.640   0.877  15.490  0.1577 -0.5464 -0.6604
 7005SOL     OW32647   4.108   3.995   0.161  0.1890 -0.3587  0.3141
 7005SOL    HW132648   4.056   3.922   0.195 -0.0917 -0.8582 -1.2017
 7005SOL    HW232649   4.080   4.073   0.210 -0.2317  0.8199 -1.7895
 7006SOL     OW32650   0.090   2.227   3.750 -0.8218  0.2098 -0.4842
 7006SOL    HW132651   0.035   2.255   3.824 -0.0662 -2.3895  1.0365
 7006SOL    HW232652   0.170   2.279   3.761  0.9656 -2.6260 -0.1640
 7007SOL     OW32653   1.509   3.640   0.214  0.3751  0.7134  0.1539
 7007SOL    HW132654   1.507   3.682   0.129 -0.3897  0.6046  0.1250
 7007SOL    HW232655   1.419   3.626   0.242  0.5169  2.1842  1.3795
 7008SOL     OW32656   3.088   1.520   7.812  0.5035  0.3841  0.3838
 7008SOL    HW132657   3.135   1.599   7.787  1.3861  0.4531  2.2602
 7008SOL    HW232658   3.034   1.523   7.733 -0.7696 -1.4605  1.1870
 7009SOL     OW32659   2.061   4.679  13.754  0.8861  0.8011  0.2276
 7009SOL    HW132660   2.090   0.032  13.777  0.4895  1.1583 -0.6340
 7009SOL    HW232661   2.010   4.662  13.834  0.8572  0.1915  0.0785
 7010SOL     OW32662   3.697   2.435   5.569 -0.5110 -0.0775  0.4790
 7010SOL    HW132663   3.604   2.445   5.548 -0.8458 -1.4189  1.3012
 7010SOL    HW232664   3.729   2.522   5.546 -0.6765  0.1072  0.9492
 7011SOL     OW32665   3.380   3.566   1.706  0.3415 -0.1709 -0.2007
 7011SOL    HW132666   3.448   3.633   1.693  0.0916  0.1154 -0.0323
 7011SOL    HW232667   3.301   3.618   1.693 -1.2755 -2.5156  0.3377
 7012SOL     OW32668   2.680   0.272   8.568  0.1023 -0.3042 -0.0477
 7012SOL    HW132669   2.613   0.302   8.507  1.4511 -0.0940 -1.4233
 7012SOL    HW232670   2.685   0.340   8.636 -1.8765 -1.3781  1.1781
 7013SOL     OW32671   4.715   0.622   6.303  0.2675  0.3090 -0.8349
 7013SOL    HW132672   4.660   0.546   6.281  1.8010 -0.2907 -2.5931
 7013SOL    HW232673   4.660   0.675   6.361  1.4275  0.5459  0.0380
 7014SOL     OW32674   2.498   4.527   7.159 -0.8211 -0.0576 -0.2286
 7014SOL    HW132675   2.431   4.517   7.091 -2.3209 -1.4092  1.4457
 7014SOL    HW232676   2.502   4.623   7.158 -2.0985 -0.0017  1.7439
 7015SOL     OW32677   2.741   2.017   3.669  0.4781  0.4391  0.8973
 7015SOL    HW132678   2.675   1.998   3.602  0.1729 -0.1449  1.3699
 7015SOL    HW232679   2.734   2.113   3.670  0.0178  0.4116  0.3372
 7016SOL     OW32680   2.944   1.780   5.229  0.1179 -0.5241 -0.6469
 7016SOL    HW132681   2.904   1.841   5.292  0.6535  1.0269 -1.7958
 7016SOL    HW232682   3.022   1.744   5.270 -0.5172 -0.9372  0.2102
 7017SOL     OW32683   1.850   2.892   8.066 -0.5830  0.0188 -0.6402
 7017SOL    HW132684   1.860   2.813   8.119 -2.4957  1.5923  2.0433
 7017SOL    HW232685   1.836   2.964   8.128  1.1425 -0.2580  0.0907
 7018SOL     OW32686   1.480   1.029   2.978  1.0418  0.2823  0.1740
 7018SOL    HW132687   1.514   1.100   3.033  1.4813  0.1579  0.0628
 7018SOL    HW232688   1.544   0.961   2.999  1.1388  1.1778  2.7610
 7019SOL     OW32689   3.367   0.872   9.894 -0.0109  0.1047 -0.3107
 7019SOL    HW132690   3.331   0.800   9.947 -1.9682 -0.8374 -2.9177
 7019SOL    HW232691   3.312   0.859   9.817 -1.3736 -1.1186  0.8527
 7020SOL     OW32692   0.267   1.103   4.315  0.0747  0.2834 -0.1397
 7020SOL    HW132693   0.197   1.157   4.352  0.9366 -0.8631  3.1190
 7020SOL    HW232694   0.257   1.022   4.366  1.7609 -1.0065 -1.8508
 7021SOL     OW32695   0.114   0.454  11.718 -0.7083  0.8301  0.0348
 7021SOL    HW132696   0.085   0.371  11.757 -2.3162  1.3318 -0.1122
 7021SOL    HW232697   0.144   0.512  11.787  1.2101 -0.6111  0.4088
 7022SOL     OW32698   0.827   3.746   1.359  0.8385  0.1370 -0.5316
 7022SOL    HW132699   0.917   3.713   1.355  1.4153  1.6655 -0.3120
 7022SOL    HW232700   0.787   3.718   1.277 -1.3446 -0.5666  0.7804
 7023SOL     OW32701   0.955   0.737   2.408 -0.0427  0.6005 -0.0754
 7023SOL    HW132702   1.027   0.799   2.400  0.4379 -0.1492 -1.5557
 7023SOL    HW232703   0.885   0.794   2.438  1.0936  1.2539  1.3381
 7024SOL     OW32704   4.326   0.682   7.455  0.0707  0.1451 -0.2323
 7024SOL    HW132705   4.367   0.768   7.463 -2.2101  1.2801 -0.5231
 7024SOL    HW232706   4.242   0.716   7.422 -0.3125  0.2757  0.8426
 7025SOL     OW32707   0.191   2.043   7.796 -0.5075 -0.1811  0.7821
 7025SOL    HW132708   0.276   2.006   7.823  0.1140  0.8619  0.2517
 7025SOL    HW232709   0.204   2.030   7.702 -1.3875 -0.4835  0.7053
 7026SOL     OW32710   4.531   1.650   2.463 -0.5434 -0.3778  0.3289
 7026SOL    HW132711   4.440   1.678   2.479  0.0609  1.0728  1.2918
 7026SOL    HW232712   4.529   1.679   2.372 -0.1650  1.4548  0.8925
 7027SOL     OW32713   1.244   1.721  11.715  0.2292  0.4996  0.2195
 7027SOL    HW132714   1.173   1.682  11.765 -0.7330 -1.5569 -2.7396
 7027SOL    HW232715   1.318   1.715  11.775 -0.5675 -1.0110  1.0622
 7028SOL     OW32716   3.683   0.449  16.744  0.6392 -0.0975  0.0601
 7028SOL    HW132717   3.719   0.446  16.833  0.0099  2.4115  0.3948
 7028SOL    HW232718   3.590   0.453  16.763  0.3853 -0.6636 -1.1195
 7029SOL     OW32719   0.020   3.015   2.055  0.1346 -0.3857 -0.4049
 7029SOL    HW132720   4.700   2.978   1.986  0.1601  0.2075 -0.7416
 7029SOL    HW232721   0.039   2.938   2.109 -0.7267  0.5678  1.2504
 7030SOL     OW32722   1.447   0.686   3.359 -0.5743  0.5431 -0.2098
 7030SOL    HW132723   1.525   0.740   3.377 -1.2062  1.4277 -0.1182
 7030SOL    HW232724   1.449   0.665   3.266  1.1255 -3.3385  0.7229
 7031SOL     OW32725   1.309   1.079   9.061 -0.0453 -0.1673  0.0106
 7031SOL    HW132726   1.386   1.054   9.010  0.9199  0.1340  1.3148
 7031SOL    HW232727   1.339   1.152   9.114 -3.9282  1.0970  0.4669
 7032SOL     OW32728   1.535   0.490   4.046 -0.6909 -0.5521 -0.6690
 7032SOL    HW132729   1.496   0.567   4.004  0.2612  0.2339 -0.1268
 7032SOL    HW232730   1.625   0.523   4.053 -1.0149  0.4530 -1.2109
 7033SOL     OW32731   3.657   1.039  11.375 -0.2899  0.1077 -0.0041
 7033SOL    HW132732   3.591   1.055  11.443  0.0783  1.8557 -0.0605
 7033SOL    HW232733   3.718   1.100  11.415 -1.1731  1.8630 -1.3501
 7034SOL     OW32734   4.141   3.280   8.748 -0.3089 -0.0857  0.0250
 7034SOL    HW132735   4.139   3.189   8.720 -0.2906  0.0718 -0.4855
 7034SOL    HW232736   4.054   3.288   8.787 -0.2190  0.2251  0.1650
 7035SOL     OW32737   2.325   0.450   7.031 -0.7371 -0.0944  0.8648
 7035SOL    HW132738   2.265   0.380   7.003 -1.3301  0.2864  1.1830
 7035SOL    HW232739   2.265   0.524   7.029 -2.1942 -1.3048 -0.2161
 7036SOL     OW32740   4.084   2.135   7.124 -0.3046  0.0356  0.1386
 7036SOL    HW132741   4.141   2.190   7.177  0.2801 -1.4596  1.0748
 7036SOL    HW232742   4.129   2.052   7.141 -2.0283 -0.9140  0.0616
 7037SOL     OW32743   0.265   1.858   9.572  0.0777 -0.1884 -0.0127
 7037SOL    HW132744   0.219   1.846   9.654 -1.8536 -0.0553 -1.0907
 7037SOL    HW232745   0.289   1.950   9.588 -1.5948  0.0798  0.9174
 7038SOL     OW32746   0.872   3.332  12.135  0.0955 -0.1653 -0.3554
 7038SOL    HW132747   0.860   3.322  12.229  0.3203  0.9109 -0.2129
 7038SOL    HW232748   0.958   3.374  12.133  0.1362 -0.3411 -2.2284
 7039SOL     OW32749   2.656   1.102   2.209 -0.0738 -0.2129 -0.1558
 7039SOL    HW132750   2.690   1.126   2.123  0.9236 -1.1921 -0.0433
 7039SOL    HW232751   2.715   1.152   2.266  0.2117  0.0549 -0.6872
 7040SOL     OW32752   2.224   0.121   3.359 -0.1258 -0.2747  0.3835
 7040SOL    HW132753   2.312   0.115   3.398 -1.8680  0.4852  4.4069
 7040SOL    HW232754   2.252   0.187   3.295 -1.7291 -1.1697 -1.2134
 7041SOL     OW32755   3.034   0.311   6.253  0.6054  0.0819 -0.1560
 7041SOL    HW132756   3.054   0.312   6.159  0.6539  0.3845 -0.1425
 7041SOL    HW232757   2.968   0.377   6.270 -1.2082 -1.9706  0.8073
 7042SOL     OW32758   3.160   1.798   8.726 -0.0586  0.5175 -0.3183
 7042SOL    HW132759   3.240   1.846   8.702  0.8075 -0.1869  1.1620
 7042SOL    HW232760   3.152   1.761   8.638  0.6436 -0.8479  0.1831
 7043SOL     OW32761   1.196   2.428  17.629 -0.5915  0.1383  0.4867
 7043SOL    HW132762   1.128   2.373  17.588 -1.2395  1.6167 -0.4040
 7043SOL    HW232763   1.172   2.516  17.600 -0.2378  0.0508 -0.0658
 7044SOL     OW32764   3.715   3.115   4.352 -0.3685  0.3883 -0.1748
 7044SOL    HW132765   3.792   3.061   4.336 -0.2816  0.3357  0.4082
 7044SOL    HW232766   3.662   3.086   4.278  1.1291 -0.5790 -0.8628
 7045SOL     OW32767   0.001   4.316   7.819 -0.6218  0.2644  0.7226
 7045SOL    HW132768   0.033   4.406   7.820 -0.2059  0.1277 -0.2029
 7045SOL    HW232769   4.669   4.333   7.753 -0.2380  3.0983  1.0514
 7046SOL     OW32770   2.212   0.411   5.113  0.3010  0.4881  0.2285
 7046SOL    HW132771   2.279   0.348   5.086  1.1805  0.8697  1.4803
 7046SOL    HW232772   2.127   0.371   5.097  1.7294 -2.0697 -1.0294
 7047SOL     OW32773   0.268   4.044   7.116  0.1538  0.0749  0.0167
 7047SOL    HW132774   0.237   4.070   7.029  0.8868 -3.1692 -1.2199
 7047SOL    HW232775   0.187   4.041   7.167 -0.8719 -1.4063 -1.6980
 7048SOL     OW32776   3.857   2.791  13.972 -0.8588 -0.0853  0.2913
 7048SOL    HW132777   3.846   2.714  13.918 -3.0321 -0.5322  1.3669
 7048SOL    HW232778   3.779   2.833  13.937 -1.9376 -0.5490  2.1251
 7049SOL     OW32779   2.347   0.471   5.754 -0.0425  0.1481 -0.4125
 7049SOL    HW132780   2.438   0.471   5.785  0.0024  1.2462 -0.5322
 7049SOL    HW232781   2.358   0.459   5.660  3.4883  3.3753 -0.4517
 7050SOL     OW32782   2.888   0.001   5.030 -0.1224 -0.5583 -0.0093
 7050SOL    HW132783   2.957   4.714   5.092  0.5134  2.2190  0.2248
 7050SOL    HW232784   2.934   0.059   4.970  1.4401 -2.8078 -1.0217
 7051SOL     OW32785   1.746   4.262  13.506 -0.0084  0.5118  0.7838
 7051SOL    HW132786   1.671   4.271  13.565  2.0575 -0.5247  3.5871
 7051SOL    HW232787   1.815   4.317  13.543 -1.1061  0.4331  2.9474
 7052SOL     OW32788   0.662   3.244  16.777  0.2919 -0.4477 -0.0804
 7052SOL    HW132789   0.640   3.254  16.685  2.2124 -3.9899 -0.9170
 7052SOL    HW232790   0.725   3.172  16.772 -0.0484 -0.8039  0.7332
 7053SOL     OW32791   1.661   3.952  13.078 -0.1630  0.9709  0.1450
 7053SOL    HW132792   1.680   4.042  13.103 -0.0205  0.6802  1.0979
 7053SOL    HW232793   1.724   3.909  13.137 -0.2406 -1.1614 -1.3027
 7054SOL     OW32794   4.025   2.900   8.245  0.0796 -0.4752 -0.3859
 7054SOL    HW132795   4.020   2.968   8.178  1.1533  0.0158  0.0339
 7054SOL    HW232796   4.033   2.962   8.318  3.1501  0.7025 -1.7493
 7055SOL     OW32797   4.624   1.058   8.430  0.1172 -0.1127 -0.6011
 7055SOL    HW132798   4.564   0.984   8.444  0.2597 -0.2452 -0.6997
 7055SOL    HW232799   4.560   1.114   8.385 -2.3912 -1.6088  1.1158
 7056SOL     OW32800   1.485   4.071  14.389  0.0565 -0.3869  0.8107
 7056SOL    HW132801   1.415   4.077  14.324 -0.0063 -0.8780  0.8377
 7056SOL    HW232802   1.510   3.983  14.361 -0.1617 -1.2729  3.4591
 7057SOL     OW32803   4.488   1.357   4.142 -0.0782 -0.3245  0.1686
 7057SOL    HW132804   4.418   1.339   4.079 -0.7497 -3.7828  1.8784
 7057SOL    HW232805   4.512   1.438   4.097 -0.5754 -0.6171 -0.6215
 7058SOL     OW32806   4.491   2.259  15.614 -0.2285 -0.4248 -0.0150
 7058SOL    HW132807   4.431   2.316  15.566 -0.5701 -2.0811 -1.5456
 7058SOL    HW232808   4.501   2.190  15.549  0.1648 -2.4175  2.1467
 7059SOL     OW32809   0.003   2.022  10.145 -0.0129  0.3572  0.1223
 7059SOL    HW132810   0.093   2.052  10.160  0.4496 -1.4356  0.9665
 7059SOL    HW232811   0.008   1.951  10.209  0.6613 -0.1207 -0.4574
 7060SOL     OW32812   0.000   2.218  10.367 -0.3609 -0.4048  0.3519
 7060SOL    HW132813   0.054   2.178  10.298 -0.7340 -0.6547  0.2070
 7060SOL    HW232814   0.038   2.175  10.443 -0.0444 -0.5811  0.0956
 7061SOL     OW32815   2.981   3.547   7.904  0.2964 -0.8227 -0.1329
 7061SOL    HW132816   3.070   3.582   7.894  0.1503 -0.6208 -0.7320
 7061SOL    HW232817   2.928   3.596   7.841  0.0520 -1.8432 -0.7102
 7062SOL     OW32818   3.988   4.106   5.836  0.0994  0.2251 -0.1121
 7062SOL    HW132819   3.947   4.185   5.870 -1.1497 -0.5320  0.1484
 7062SOL    HW232820   4.073   4.142   5.862 -0.4858  0.5104  1.4047
 7063SOL     OW32821   1.805   3.872  13.867 -0.1490 -0.1841 -0.1624
 7063SOL    HW132822   1.858   3.811  13.815 -1.5984 -1.6854  0.1180
 7063SOL    HW232823   1.722   3.866  13.820 -0.1396 -0.5724 -0.1324
 7064SOL     OW32824   1.741   2.620   1.694  0.1550 -0.0803  0.5022
 7064SOL    HW132825   1.682   2.632   1.769 -0.6517 -0.4515 -0.0792
 7064SOL    HW232826   1.725   2.696   1.638 -0.3531  0.2447  1.0860
 7065SOL     OW32827   4.006   0.697  12.904 -0.4339  0.1332  0.5476
 7065SOL    HW132828   4.078   0.712  12.843 -1.3792  3.0962  0.1630
 7065SOL    HW232829   3.981   0.789  12.911 -0.0022  0.2305  0.8437
 7066SOL     OW32830   1.094   4.296   5.978  0.0029 -0.1724  0.2186
 7066SOL    HW132831   1.003   4.267   5.987  0.6038 -2.4337 -0.9394
 7066SOL    HW232832   1.100   4.273   5.886 -2.7498  0.9540 -0.2517
 7067SOL     OW32833   1.622   2.219   3.474 -0.5766 -0.4565 -0.0646
 7067SOL    HW132834   1.591   2.306   3.451  0.0243 -0.8335 -2.2810
 7067SOL    HW232835   1.554   2.194   3.537 -1.3868  0.1679 -0.6925
 7068SOL     OW32836   1.060   0.038  15.568 -0.1191 -0.6443 -0.1012
 7068SOL    HW132837   1.072   4.701  15.505  0.9742  1.5718 -2.4175
 7068SOL    HW232838   0.975   0.072  15.538  0.4117 -0.2686 -1.1618
 7069SOL     OW32839   1.761   3.476   6.775 -0.0832 -0.0787 -0.6081
 7069SOL    HW132840   1.771   3.399   6.720  1.9591  0.8887 -1.5917
 7069SOL    HW232841   1.739   3.434   6.858 -0.8972  2.0657  0.2651
 7070SOL     OW32842   2.073   1.265   9.265 -0.0705 -0.5107  0.4518
 7070SOL    HW132843   2.060   1.188   9.210  0.4573 -0.0475 -0.3162
 7070SOL    HW232844   2.159   1.288   9.230 -0.5413  0.7001  0.0931
 7071SOL     OW32845   0.214   0.467   6.382 -0.3572 -0.5804  0.0153
 7071SOL    HW132846   0.143   0.526   6.357 -0.2562 -1.5232 -2.4432
 7071SOL    HW232847   0.178   0.380   6.362 -0.8611 -0.4468  0.3200
 7072SOL     OW32848   3.875   2.378  12.622 -0.0430 -0.1803  0.2432
 7072SOL    HW132849   3.868   2.338  12.535  3.0168 -1.9574  0.8195
 7072SOL    HW232850   3.800   2.336  12.664 -1.4186  2.9392  0.9212
 7073SOL     OW32851   0.353   3.878  11.784 -0.0929  0.2365 -0.3603
 7073SOL    HW132852   0.365   3.912  11.696  0.4610 -2.0413 -1.1622
 7073SOL    HW232853   0.307   3.795  11.773 -0.3085  0.3934 -0.6649
 7074SOL     OW32854   4.282   0.008  14.963 -0.0163  0.1628 -0.7892
 7074SOL    HW132855   4.264   4.722  15.055 -0.1940  0.7005 -0.7041
 7074SOL    HW232856   4.370   4.705  14.957  0.2004  0.3754  1.0170
 7075SOL     OW32857   4.264   4.024   1.404 -0.2693  0.2170 -0.1544
 7075SOL    HW132858   4.192   3.980   1.448  0.1434 -1.1421 -0.8391
 7075SOL    HW232859   4.339   3.965   1.414 -0.1086  0.4456 -0.0040
 7076SOL     OW32860   1.786   0.139   3.376 -0.4197  0.0002 -0.1135
 7076SOL    HW132861   1.742   0.219   3.405 -2.3600 -1.7463  1.7968
 7076SOL    HW232862   1.839   0.185   3.311  0.0964  0.7862  0.8681
 7077SOL     OW32863   4.024   0.445   9.253  0.1293  0.1546  0.3037
 7077SOL    HW132864   4.004   0.531   9.291  0.1989  1.0591 -1.6759
 7077SOL    HW232865   3.941   0.432   9.206  0.2546  0.0505  0.1115
 7078SOL     OW32866   1.933   2.567   7.723 -0.3243 -0.0004 -0.3282
 7078SOL    HW132867   1.859   2.575   7.783 -0.4185  0.4946 -0.5088
 7078SOL    HW232868   1.939   2.656   7.688  0.5322  0.2234  0.3659
 7079SOL     OW32869   2.747   3.042   4.488  0.1128 -0.7651  0.0063
 7079SOL    HW132870   2.709   2.954   4.491 -1.1887 -0.1818  0.8804
 7079SOL    HW232871   2.714   3.084   4.568  1.9129  1.2111 -0.2948
 7080SOL     OW32872   3.561   1.895  16.560  0.1531 -0.1130 -0.0877
 7080SOL    HW132873   3.466   1.892  16.552  0.1708  0.1643 -0.4024
 7080SOL    HW232874   3.568   1.944  16.641 -0.8182  0.6952 -0.5035
 7081SOL     OW32875   1.411   3.891   6.862  0.0234 -0.7156 -0.2366
 7081SOL    HW132876   1.369   3.842   6.933  0.2454  0.4596  0.6989
 7081SOL    HW232877   1.425   3.819   6.801 -3.2262  1.8735 -4.0182
 7082SOL     OW32878   1.751   1.275  10.444  0.0704  0.1710 -0.3336
 7082SOL    HW132879   1.667   1.231  10.432 -1.2131  1.3043  4.3725
 7082SOL    HW232880   1.709   1.360  10.446 -0.7689 -0.2805  1.3424
 7083SOL     OW32881   3.105   1.827   5.766  0.1844 -0.2294  0.4464
 7083SOL    HW132882   3.196   1.840   5.795  0.0255  0.6472  0.5579
 7083SOL    HW232883   3.094   1.889   5.694 -0.4572 -0.1346  0.6307
 7084SOL     OW32884   2.115   4.070   0.105 -0.2387 -0.6924 -0.2942
 7084SOL    HW132885   2.095   4.029   0.021 -0.5769  2.4345 -1.7610
 7084SOL    HW232886   2.210   4.059   0.101 -0.2574 -1.5163  1.6678
 7085SOL     OW32887   0.131   4.606  17.315 -0.1135  0.9154 -0.1920
 7085SOL    HW132888   0.120   4.648  17.230  1.1756  0.6226 -0.4934
 7085SOL    HW232889   0.201   4.544  17.296 -0.3544  0.4374  0.4690
 7086SOL     OW32890   2.443   3.821   0.361  0.7496  0.6925 -0.4836
 7086SOL    HW132891   2.423   3.768   0.438  0.8141  0.2924 -0.7467
 7086SOL    HW232892   2.356   3.857   0.340 -0.3903 -1.8514 -0.1377
 7087SOL     OW32893   1.566   3.415   9.113 -0.4369 -0.4874  0.0219
 7087SOL    HW132894   1.604   3.501   9.096 -1.4884  0.2287  1.3383
 7087SOL    HW232895   1.483   3.438   9.154  0.1457  0.9423  0.3740
 7088SOL     OW32896   4.104   4.729   6.621 -0.3925 -0.1830 -0.1253
 7088SOL    HW132897   4.133   4.638   6.614  0.7548  0.2312 -0.8018
 7088SOL    HW232898   4.180   0.050   6.602 -0.7212 -0.4074 -2.0735
 7089SOL     OW32899   3.296   1.355  11.093 -0.3178  0.0487 -0.6738
 7089SOL    HW132900   3.324   1.265  11.079 -2.1335 -0.5908 -0.2211
 7089SOL    HW232901   3.374   1.403  11.064  0.2687 -0.3014  0.3009
 7090SOL     OW32902   3.248   3.369  12.450 -0.6095  0.1792  0.8959
 7090SOL    HW132903   3.283   3.369  12.539 -0.2757  1.4188  0.7725
 7090SOL    HW232904   3.282   3.452  12.415 -1.4313  1.2303  2.5841
 7091SOL     OW32905   2.046   0.355  14.273 -0.1083 -0.0893  0.4797
 7091SOL    HW132906   1.968   0.388  14.317 -0.4034  0.6885 -0.6143
 7091SOL    HW232907   2.008   0.372  14.186  1.4164 -1.1599 -0.3953
 7092SOL     OW32908   0.947   3.276   6.231 -0.8835 -0.0003  0.0942
 7092SOL    HW132909   0.852   3.268   6.234 -1.0436  1.1963 -2.0113
 7092SOL    HW232910   0.957   3.353   6.287  2.6366  1.7826 -3.0190
 7093SOL     OW32911   2.972   4.361  11.889 -0.5199  0.1019  0.6625
 7093SOL    HW132912   3.067   4.361  11.890 -0.5185  0.5670  0.1448
 7093SOL    HW232913   2.955   4.441  11.939  0.0485  0.5267  0.1656
 7094SOL     OW32914   4.609   3.549   1.086 -0.2744  0.4218  0.7313
 7094SOL    HW132915   4.624   3.504   1.169 -0.7763  0.3808  0.8014
 7094SOL    HW232916   4.514   3.540   1.075  0.2330 -1.1732 -2.4047
 7095SOL     OW32917   2.738   1.127   3.338 -0.1021  0.2066  0.5130
 7095SOL    HW132918   2.676   1.139   3.266 -0.0988 -1.0190  0.3002
 7095SOL    HW232919   2.749   1.032   3.333  1.0762  0.3150  0.9946
 7096SOL     OW32920   2.674   1.374  11.039  0.2101  0.5151  0.0033
 7096SOL    HW132921   2.639   1.285  11.032 -0.7426  1.1607 -3.0633
 7096SOL    HW232922   2.594   1.425  11.023 -1.1251 -2.2347 -2.0147
 7097SOL     OW32923   0.977   2.214  16.273 -0.2617  0.1116 -0.5039
 7097SOL    HW132924   1.010   2.303  16.288  1.3625 -0.2914 -1.7364
 7097SOL    HW232925   0.891   2.226  16.316  0.1296 -1.2678  0.6727
 7098SOL     OW32926   3.377   3.697   5.009  0.1093  0.2304  0.0273
 7098SOL    HW132927   3.452   3.744   4.971 -0.7201  0.6450 -1.1119
 7098SOL    HW232928   3.426   3.626   5.050 -0.5690  0.9432  2.0607
 7099SOL     OW32929   0.172   0.133   7.478  0.3874 -0.1289  0.1228
 7099SOL    HW132930   0.119   0.114   7.555 -0.2021 -3.1273 -1.0197
 7099SOL    HW232931   0.257   0.129   7.523  0.3715  1.1010  0.2591
 7100SOL     OW32932   3.237   1.136   5.274 -0.3630  0.3064  1.1224
 7100SOL    HW132933   3.269   1.223   5.251 -0.0485 -0.2128 -0.4643
 7100SOL    HW232934   3.224   1.096   5.188  1.1289 -0.3384  1.1895
 7101SOL     OW32935   2.546   3.349   1.790  0.0960 -0.1590  0.3372
 7101SOL    HW132936   2.529   3.383   1.878 -2.0540 -2.6358  0.8824
 7101SOL    HW232937   2.638   3.332   1.811  0.2914 -0.8824 -1.1532
 7102SOL     OW32938   3.584   4.565   1.954 -0.3509  0.4125 -0.0338
 7102SOL    HW132939   3.627   4.610   2.028 -0.8055  0.1506  0.3927
 7102SOL    HW232940   3.663   4.522   1.922  0.1957  0.6616  0.9541
 7103SOL     OW32941   3.746   3.731   3.112 -0.1076 -0.4536 -0.1696
 7103SOL    HW132942   3.721   3.771   3.028 -2.2118  0.2830  0.7982
 7103SOL    HW232943   3.767   3.642   3.085 -0.0873 -1.3536  2.8201
 7104SOL     OW32944   0.253   4.032   8.301  0.4810  0.6680  0.2471
 7104SOL    HW132945   0.253   3.985   8.217 -0.6373 -1.5918  1.5178
 7104SOL    HW232946   0.173   3.994   8.338 -0.6964  1.3161 -1.6332
 7105SOL     OW32947   0.616   3.818   7.047 -0.0468  0.2123  0.0053
 7105SOL    HW132948   0.600   3.849   6.957 -1.1857 -0.5495 -0.0628
 7105SOL    HW232949   0.540   3.859   7.088 -1.2179 -0.4930 -1.4418
 7106SOL     OW32950   2.547   2.004   3.488  0.2731  0.2905 -0.6188
 7106SOL    HW132951   2.560   2.090   3.447  1.4258  0.9086  1.0211
 7106SOL    HW232952   2.457   1.992   3.460  0.5515 -0.3965 -1.2340
 7107SOL     OW32953   1.300   1.278   1.366  0.3604  0.2319 -0.2167
 7107SOL    HW132954   1.341   1.232   1.293 -0.8544 -0.7677 -0.2755
 7107SOL    HW232955   1.207   1.264   1.345  0.2982 -0.6274  0.6121
 7108SOL     OW32956   0.829   3.980   1.486  0.7262  0.3319 -0.8757
 7108SOL    HW132957   0.836   3.895   1.443 -2.4808  0.9472 -2.6529
 7108SOL    HW232958   0.921   3.995   1.509  0.1893  0.4364  1.2473
 7109SOL     OW32959   2.801   3.909   8.896 -0.2389 -0.2467 -0.1324
 7109SOL    HW132960   2.802   3.993   8.944  0.0733 -0.0584 -0.4673
 7109SOL    HW232961   2.784   3.850   8.970  1.9308  0.7660  1.2116
 7110SOL     OW32962   4.512   3.582   5.727 -0.0641  0.1972 -0.0457
 7110SOL    HW132963   4.584   3.645   5.719  0.4597 -0.1528  1.8793
 7110SOL    HW232964   4.446   3.633   5.775 -0.9227 -1.4143  0.5079
 7111SOL     OW32965   0.070   4.109   2.316  0.2638 -0.3064 -0.2560
 7111SOL    HW132966   4.727   4.066   2.282 -0.8337  2.1357 -0.8445
 7111SOL    HW232967   0.104   4.035   2.366 -0.7535 -0.9847 -0.5646
 7112SOL     OW32968   4.266   0.510  15.711 -0.1661 -0.1667  0.0583
 7112SOL    HW132969   4.290   0.603  15.712  0.9112 -0.4539  0.3953
 7112SOL    HW232970   4.170   0.515  15.714 -0.2089  0.2178 -1.5899
 7113SOL     OW32971   0.668   2.929  13.976 -0.2401 -0.3607  0.0254
 7113SOL    HW132972   0.650   2.897  14.065  1.4852 -0.3648  0.3714
 7113SOL    HW232973   0.634   3.018  13.984 -0.4662 -0.6384  2.0887
 7114SOL     OW32974   3.985   1.405   8.865  0.0690 -0.3167  0.0563
 7114SOL    HW132975   3.992   1.492   8.828 -4.2315 -0.4824 -1.0849
 7114SOL    HW232976   3.901   1.413   8.909 -0.4789  0.1254 -1.0801
 7115SOL     OW32977   3.987   2.540   4.577 -0.2887  0.2696 -0.3196
 7115SOL    HW132978   3.933   2.561   4.653  0.0627  0.1620 -0.0378
 7115SOL    HW232979   3.961   2.451   4.552 -1.3748  0.7157 -0.7923
 7116SOL     OW32980   2.599   3.881   8.743  0.5871 -0.6247  0.7505
 7116SOL    HW132981   2.670   3.880   8.806 -0.8979 -2.1816  2.3902
 7116SOL    HW232982   2.610   3.968   8.704 -2.0067 -1.1274 -1.0984
 7117SOL     OW32983   1.579   3.043   4.706  0.0955 -0.8752 -0.0542
 7117SOL    HW132984   1.584   3.102   4.781 -1.1602 -0.7986 -0.0367
 7117SOL    HW232985   1.673   3.044   4.690  0.2145 -2.5324  0.5169
 7118SOL     OW32986   3.684   1.361   1.540  0.3503  0.0861 -0.2619
 7118SOL    HW132987   3.777   1.341   1.538  0.7496  1.9858 -0.4678
 7118SOL    HW232988   3.655   1.332   1.454  0.0466 -1.0142  0.2169
 7119SOL     OW32989   0.809   1.892   2.945  0.4484  0.0973 -0.6045
 7119SOL    HW132990   0.845   1.835   3.013 -3.1695  0.8286  1.9554
 7119SOL    HW232991   0.732   1.919   2.994  0.8808  0.7299 -0.2826
 7120SOL     OW32992   2.506   1.063   1.881 -0.0004 -0.0552  0.0495
 7120SOL    HW132993   2.594   1.102   1.884  0.4044 -1.0962  1.3711
 7120SOL    HW232994   2.456   1.131   1.927 -1.0401 -2.2118  2.0739
 7121SOL     OW32995   0.815   0.229   3.173 -0.2981 -0.4632  0.4350
 7121SOL    HW132996   0.881   0.186   3.120 -2.0713 -2.2632 -0.3216
 7121SOL    HW232997   0.790   0.165   3.240 -0.3008  0.4018  1.2783
 7122SOL     OW32998   1.276   2.171  15.740  0.0721 -0.5566  0.2288
 7122SOL    HW132999   1.280   2.123  15.657  0.0680 -0.5268  0.2113
 7122SOL    HW233000   1.194   2.219  15.725 -0.1096 -1.1518 -0.6373
 7123SOL     OW33001   0.275   1.619   5.091  0.6692 -0.4045  0.1829
 7123SOL    HW133002   0.206   1.614   5.025 -0.6788  2.8387  1.3439
 7123SOL    HW233003   0.289   1.525   5.103 -1.1086 -0.4527  1.7961
 7124SOL     OW33004   2.551   4.401   6.226  0.6949  0.2930 -0.2010
 7124SOL    HW133005   2.468   4.433   6.191  2.1382  1.2285 -2.8226
 7124SOL    HW233006   2.556   4.311   6.194 -0.9336  0.7729 -1.7881
 7125SOL     OW33007   0.316   0.975   7.252  0.9133  0.5974  0.4143
 7125SOL    HW133008   0.364   0.893   7.260  0.3998  0.2441 -0.1067
 7125SOL    HW233009   0.312   0.990   7.346 -0.1833  1.0252  0.2964
 7126SOL     OW33010   1.565   4.489   7.935  0.0811 -0.7112  0.0781
 7126SOL    HW133011   1.586   4.582   7.924  0.9918 -1.0074 -0.6348
 7126SOL    HW233012   1.471   4.503   7.947 -0.4072 -2.7088 -1.5201
 7127SOL     OW33013   1.121   3.505   8.971  0.7870 -0.2869 -0.3011
 7127SOL    HW133014   1.095   3.509   8.879 -0.5008  4.1166  0.2535
 7127SOL    HW233015   1.137   3.412   8.986  2.8453  0.0039 -0.7525
 7128SOL     OW33016   1.772   2.569   6.775  0.0082 -0.0551  0.5246
 7128SOL    HW133017   1.819   2.544   6.855 -1.4613  1.6154  1.8951
 7128SOL    HW233018   1.824   2.537   6.701 -2.0249 -2.5786  0.1858
 7129SOL     OW33019   1.962   2.188  11.194  0.1993 -0.2651  0.3574
 7129SOL    HW133020   2.045   2.191  11.242 -0.6711  0.0375  1.8482
 7129SOL    HW233021   1.892   2.196  11.259  1.1176 -1.2002  1.4428
 7130SOL     OW33022   1.143   1.101  10.247  0.3578 -0.4459  0.6688
 7130SOL    HW133023   1.175   1.135  10.330 -0.7210  1.0289  0.4811
 7130SOL    HW233024   1.123   1.012  10.277  0.2144 -0.6095  0.0921
 7131SOL     OW33025   0.352   0.972   3.887 -0.2961  0.2188 -0.6937
 7131SOL    HW133026   0.289   0.991   3.818 -1.4814 -0.4532  0.2090
 7131SOL    HW233027   0.366   0.878   3.874  0.3337  0.3357 -0.8679
 7132SOL     OW33028   2.974   0.642   0.082  0.2637  0.4131 -0.0578
 7132SOL    HW133029   3.002   0.601   0.164  1.6660 -0.5102 -1.0112
 7132SOL    HW233030   2.893   0.688   0.107 -0.5451 -1.0500 -0.0126
 7133SOL     OW33031   2.194   2.898   5.030  0.1902 -0.0382  0.1695
 7133SOL    HW133032   2.168   2.895   5.122 -2.3152  2.4292 -0.4592
 7133SOL    HW233033   2.242   2.981   5.029 -2.4059  1.4799  0.6416
 7134SOL     OW33034   2.266   0.988   6.766  0.6086  0.7941 -0.2446
 7134SOL    HW133035   2.325   0.915   6.746 -0.8651 -0.4225 -0.1269
 7134SOL    HW233036   2.187   0.935   6.759  0.6779  0.7845 -1.0589
 7135SOL     OW33037   1.284   3.330   5.493  0.2806  0.0614 -0.0695
 7135SOL    HW133038   1.294   3.330   5.588 -0.2101  0.9449 -0.0185
 7135SOL    HW233039   1.261   3.421   5.477 -1.4726 -0.3674  0.0721
 7136SOL     OW33040   0.953   2.507   3.494  0.0189  0.5426  0.2382
 7136SOL    HW133041   0.948   2.601   3.475 -1.3294  0.6448  1.1451
 7136SOL    HW233042   0.948   2.471   3.405 -0.1958 -0.1387  0.5272
 7137SOL     OW33043   2.483   3.823   6.868  0.2382 -0.9258 -0.2393
 7137SOL    HW133044   2.528   3.893   6.915  0.0645 -0.8293 -0.2169
 7137SOL    HW233045   2.408   3.830   6.926  0.7803  0.6184  0.2762
 7138SOL     OW33046   2.378   4.286  11.625  0.7212 -0.4058 -0.1472
 7138SOL    HW133047   2.297   4.261  11.670  2.6084 -2.1754  2.3143
 7138SOL    HW233048   2.427   4.336  11.691  1.5626 -1.1707 -0.1909
 7139SOL     OW33049   1.612   2.664   4.712 -0.0267 -0.7523 -0.1427
 7139SOL    HW133050   1.676   2.703   4.653  0.3204  0.6770  1.2027
 7139SOL    HW233051   1.622   2.571   4.689 -1.7771 -0.4527 -2.1112
 7140SOL     OW33052   0.315   0.598   7.834 -0.1212 -0.2595 -0.2717
 7140SOL    HW133053   0.234   0.588   7.884  0.1278  1.8287  0.5281
 7140SOL    HW233054   0.302   0.690   7.813  0.0178 -0.2265 -0.2073
 7141SOL     OW33055   4.148   0.724   6.316  0.4128 -0.4987  0.4326
 7141SOL    HW133056   4.061   0.757   6.335  0.9247  1.0791  0.0180
 7141SOL    HW233057   4.184   0.812   6.326 -3.5409  1.2952 -1.2536
 7142SOL     OW33058   1.450   2.677   6.420  0.0224  0.1196  0.3468
 7142SOL    HW133059   1.478   2.592   6.453 -1.7947 -0.7990 -0.4574
 7142SOL    HW233060   1.429   2.717   6.504 -0.1208  1.2748 -0.2485
 7143SOL     OW33061   1.492   2.432   3.283  0.0579  0.0463  0.7033
 7143SOL    HW133062   1.507   2.399   3.195 -2.8922 -2.4717  1.1575
 7143SOL    HW233063   1.399   2.452   3.274 -0.1493 -0.0960  2.4158
 7144SOL     OW33064   3.867   4.267  17.719 -0.7061  0.5504 -0.1361
 7144SOL    HW133065   3.811   4.194   0.006  0.3276 -0.5423 -0.9799
 7144SOL    HW233066   3.911   4.241  17.638 -1.8277  1.2021 -0.9600
 7145SOL     OW33067   1.862   4.636  14.693 -0.3466  0.3532 -0.1782
 7145SOL    HW133068   1.894   4.551  14.722 -1.4784  0.4092  1.2240
 7145SOL    HW233069   1.817   4.662  14.774  0.5089 -2.8184  1.3291
 7146SOL     OW33070   0.667   0.821   1.131 -0.1739  0.4120  0.0070
 7146SOL    HW133071   0.655   0.731   1.100 -0.7548 -0.2307  2.0707
 7146SOL    HW233072   0.629   0.870   1.058 -0.2335 -0.3837 -0.4873
 7147SOL     OW33073   4.545   2.822   6.163  0.1740 -0.0875  0.0441
 7147SOL    HW133074   4.590   2.906   6.175  0.7958 -0.6122  1.4260
 7147SOL    HW233075   4.610   2.780   6.106  0.2880 -0.5615  0.5301
 7148SOL     OW33076   1.095   1.602   3.209  0.3999  0.5539 -0.0006
 7148SOL    HW133077   1.055   1.527   3.253 -2.4920  1.4532 -1.1119
 7148SOL    HW233078   1.184   1.566   3.208 -0.3031 -1.2022 -0.0323
 7149SOL     OW33079   1.208   0.697  16.719  0.3600 -0.0549 -0.3621
 7149SOL    HW133080   1.173   0.614  16.750 -0.6237  0.7895  0.7867
 7149SOL    HW233081   1.255   0.674  16.639  3.6301 -1.5301  1.9589
 7150SOL     OW33082   0.912   3.613  17.051 -0.2562  0.2800  0.2256
 7150SOL    HW133083   0.879   3.539  17.000  0.2053  1.2757 -1.5210
 7150SOL    HW233084   0.950   3.568  17.127 -0.1529  1.5636  0.9434
 7151SOL     OW33085   3.013   4.552   6.742 -0.0151 -0.4858 -0.7415
 7151SOL    HW133086   2.960   4.522   6.816 -0.1708 -2.2404 -1.5826
 7151SOL    HW233087   2.962   4.630   6.720  0.8166 -0.5423 -2.8310
 7152SOL     OW33088   1.485   3.757   3.804 -0.1135 -0.0509 -0.0206
 7152SOL    HW133089   1.434   3.680   3.779  0.3085 -0.4172  0.2609
 7152SOL    HW233090   1.564   3.742   3.751 -0.8237 -1.4023 -0.7033
 7153SOL     OW33091   3.490   3.282   5.829  0.1219  0.6735  0.6803
 7153SOL    HW133092   3.504   3.290   5.734  1.6490  0.7682  0.9128
 7153SOL    HW233093   3.394   3.281   5.829  0.1462 -1.5289  0.4335
 7154SOL     OW33094   2.832   4.219  12.999 -0.0973 -0.0592  0.0185
 7154SOL    HW133095   2.842   4.211  12.904 -1.3137 -3.1664  0.1442
 7154SOL    HW233096   2.861   4.308  13.019 -0.9361  0.4128 -0.9362
 7155SOL     OW33097   1.102   2.873  14.733 -0.0145 -0.6453 -0.2017
 7155SOL    HW133098   1.137   2.835  14.813 -0.0228 -0.9142 -0.3259
 7155SOL    HW233099   1.043   2.942  14.762  1.8127  0.9598 -0.2395
 7156SOL     OW33100   4.536   2.653   3.977  0.1428 -0.8305  0.6698
 7156SOL    HW133101   4.496   2.738   3.992  2.0254  0.1783  0.0018
 7156SOL    HW233102   4.470   2.603   4.024 -2.8203  1.9209 -0.5691
 7157SOL     OW33103   1.356   2.026   4.638 -0.7983 -0.4451  0.3506
 7157SOL    HW133104   1.351   2.086   4.712 -3.9389 -0.3299  0.0561
 7157SOL    HW233105   1.264   2.001   4.627 -0.8833  0.2827 -0.5614
 7158SOL     OW33106   0.543   1.865  13.946  0.0767  1.0334 -0.5621
 7158SOL    HW133107   0.450   1.861  13.924  0.5016  0.9966 -2.3117
 7158SOL    HW233108   0.575   1.863  13.856  0.0909 -0.2432 -0.5235
 7159SOL     OW33109   3.948   0.448  12.788  0.5226  0.1765 -0.1749
 7159SOL    HW133110   3.972   0.538  12.811  2.6766 -0.5858  0.6358
 7159SOL    HW233111   3.853   0.457  12.784  0.6710  0.9191 -1.8819
 7160SOL     OW33112   0.644   1.230  16.560  0.5251 -0.3405 -0.5911
 7160SOL    HW133113   0.723   1.284  16.565 -1.0975  1.9969 -0.2478
 7160SOL    HW233114   0.668   1.169  16.631 -1.7988  1.7349  1.9942
 7161SOL     OW33115   0.342   0.255   8.238 -0.0482  0.3111  0.0008
 7161SOL    HW133116   0.396   0.312   8.293 -1.7843  2.2117 -0.2344
 7161SOL    HW233117   0.346   0.291   8.149  0.0088 -0.4061 -0.2815
 7162SOL     OW33118   4.082   0.780   7.360 -0.1048 -0.2997  0.2846
 7162SOL    HW133119   4.101   0.784   7.266 -0.1301 -0.1782  0.2852
 7162SOL    HW233120   3.993   0.745   7.358 -0.1552 -0.1968  1.0759
 7163SOL     OW33121   0.580   2.247   3.092 -0.0478  0.0003 -0.2820
 7163SOL    HW133122   0.617   2.318   3.144  0.3701 -0.0218 -0.5503
 7163SOL    HW233123   0.621   2.174   3.138 -0.5412  0.2660  0.5641
 7164SOL     OW33124   1.705   0.506   6.233 -0.3066 -0.1085 -0.3586
 7164SOL    HW133125   1.772   0.452   6.190 -0.6418  0.1633 -1.2342
 7164SOL    HW233126   1.632   0.444   6.236  0.8800 -1.3816  1.7075
 7165SOL     OW33127   4.008   2.326   5.382 -0.1078  0.6192 -0.0695
 7165SOL    HW133128   4.072   2.269   5.340 -1.7166 -0.8126 -0.6145
 7165SOL    HW233129   4.066   2.364   5.447 -0.2580 -0.6640  0.8061
 7166SOL     OW33130   2.474   3.471   6.588 -0.0271  0.0179 -0.4971
 7166SOL    HW133131   2.404   3.503   6.645 -0.1661  0.8843 -1.1548
 7166SOL    HW233132   2.545   3.478   6.651 -0.9065 -1.1260  0.6400
 7167SOL     OW33133   0.840   2.854   1.431 -0.3156  0.0486 -0.2769
 7167SOL    HW133134   0.840   2.759   1.441  0.7896  0.3565  2.7420
 7167SOL    HW233135   0.900   2.872   1.503 -0.9586  2.8500 -0.4204
 7168SOL     OW33136   1.434   2.817   9.841 -0.5926 -0.8450 -0.5476
 7168SOL    HW133137   1.349   2.784   9.872 -1.8875  0.9174 -2.1944
 7168SOL    HW233138   1.390   2.866   9.772  1.1150  0.2174 -0.8791
 7169SOL     OW33139   3.857   1.450  12.310 -0.2651 -0.5333  0.7590
 7169SOL    HW133140   3.904   1.534  12.312 -0.7342 -0.2736  1.0057
 7169SOL    HW233141   3.774   1.486  12.276  1.3068  2.6899  0.2660
 7170SOL     OW33142   3.864   0.625   5.034  0.7476 -0.3963 -0.1523
 7170SOL    HW133143   3.843   0.701   4.980  0.7148  0.2157  0.7338
 7170SOL    HW233144   3.782   0.609   5.080  0.1694  2.3007 -0.2753
 7171SOL     OW33145   1.293   0.433   7.863 -0.3587  0.0542 -0.3724
 7171SOL    HW133146   1.295   0.364   7.797  0.1850  0.6830 -1.0257
 7171SOL    HW233147   1.210   0.418   7.907  0.9329  0.0950  2.0623
 7172SOL     OW33148   1.824   3.207   0.376  0.0499 -0.5731 -0.1594
 7172SOL    HW133149   1.795   3.209   0.285 -0.5121 -2.2607 -0.0166
 7172SOL    HW233150   1.813   3.296   0.409  0.9777 -0.6120  0.2592
 7173SOL     OW33151   0.265   4.200   2.150  0.6939  0.2511  0.4614
 7173SOL    HW133152   0.207   4.152   2.209  2.7034 -0.4751  1.8313
 7173SOL    HW233153   0.345   4.147   2.152 -0.0091 -0.7981  0.5182
 7174SOL     OW33154   0.524   0.183   7.851 -0.5474 -0.1138  0.0821
 7174SOL    HW133155   0.594   0.245   7.873  1.4868 -1.9088 -1.2795
 7174SOL    HW233156   0.460   0.222   7.910 -0.1703 -0.8450  0.9789
 7175SOL     OW33157   4.089   3.956  15.872 -0.2633  0.1069  0.3315
 7175SOL    HW133158   4.055   4.029  15.821 -0.4169  0.5447  1.0567
 7175SOL    HW233159   4.009   3.944  15.922 -0.4722  0.5609  0.1030
 7176SOL     OW33160   4.269   2.569   8.748 -0.2841 -0.6543 -0.3041
 7176SOL    HW133161   4.305   2.641   8.799  1.4083 -0.8225 -1.2495
 7176SOL    HW233162   4.207   2.605   8.685 -0.2116 -1.1213 -0.6457
 7177SOL     OW33163   1.193   2.132   3.406 -0.2947 -0.1279  0.0331
 7177SOL    HW133164   1.204   2.049   3.359  1.2105  0.0529  0.0627
 7177SOL    HW233165   1.151   2.100   3.486 -0.8828  4.0281  1.3857
 7178SOL     OW33166   3.635   0.325   2.719  0.4429 -0.3793 -0.1910
 7178SOL    HW133167   3.554   0.349   2.673  0.4283  0.1208  0.0859
 7178SOL    HW233168   3.679   0.410   2.717  0.3232 -0.3426 -1.1946
 7179SOL     OW33169   1.691   4.334   6.611 -0.7054  0.0609  0.4086
 7179SOL    HW133170   1.613   4.284   6.634  0.6652 -1.4986  1.6874
 7179SOL    HW233171   1.756   4.292   6.667 -0.0467  1.4753  0.7068
 7180SOL     OW33172   4.166   2.031   5.770 -0.6102  0.0191 -0.0360
 7180SOL    HW133173   4.189   1.957   5.827 -1.4354 -0.1347  0.1003
 7180SOL    HW233174   4.249   2.053   5.729 -1.7980  0.0135 -2.4480
 7181SOL     OW33175   2.787   1.617   7.941 -0.6302 -0.1075 -0.1904
 7181SOL    HW133176   2.833   1.592   7.860  0.8798 -0.6234  0.8216
 7181SOL    HW233177   2.778   1.542   7.999  0.4872 -0.5182 -0.5566
 7182SOL     OW33178   2.188   4.056  14.070 -0.1433 -0.0305  0.2842
 7182SOL    HW133179   2.242   3.990  14.028  1.2454 -0.6697  3.0703
 7182SOL    HW233180   2.215   4.035  14.159 -2.0902 -0.3091  0.8086
 7183SOL     OW33181   3.444   0.881   1.601  0.0116  0.5493  0.3405
 7183SOL    HW133182   3.515   0.914   1.546 -0.0217  1.8187  1.0677
 7183SOL    HW233183   3.490   0.886   1.684 -1.7825  0.3205  1.3457
 7184SOL     OW33184   2.012   3.303   4.678 -0.2279  0.0971  0.7453
 7184SOL    HW133185   2.031   3.393   4.651  1.8863 -0.3139  0.8787
 7184SOL    HW233186   1.929   3.311   4.725  0.3596  3.1128  1.2990
 7185SOL     OW33187   4.469   2.680   9.829 -0.0401 -0.2223  0.5265
 7185SOL    HW133188   4.482   2.771   9.855  0.4903 -0.3884  0.8472
 7185SOL    HW233189   4.382   2.681   9.789 -0.3675  0.4492  1.2387
 7186SOL     OW33190   0.159   0.099   2.101 -0.5651  0.2734  0.2124
 7186SOL    HW133191   0.140   0.101   2.195  0.0817  0.9255  0.3325
 7186SOL    HW233192   0.098   0.032   2.071  2.5161 -1.0796 -2.9961
 7187SOL     OW33193   3.528   2.774   3.994  0.1686 -0.0838 -0.0306
 7187SOL    HW133194   3.476   2.696   3.979 -0.4904  0.7390 -2.0184
 7187SOL    HW233195   3.590   2.732   4.054  1.0508  1.3933  0.0859
 7188SOL     OW33196   4.016   3.034  16.582  0.1033  0.1421 -0.1206
 7188SOL    HW133197   3.955   3.023  16.509  1.1208 -0.6498 -0.8475
 7188SOL    HW233198   3.955   3.087  16.635  1.9828  1.7349  0.4364
 7189SOL     OW33199   3.130   0.219   7.889 -0.2021 -0.3005  0.4274
 7189SOL    HW133200   3.069   0.149   7.864  1.2923 -0.8156 -1.7073
 7189SOL    HW233201   3.205   0.160   7.893 -1.0914 -1.3304  2.0767
 7190SOL     OW33202   2.529   1.802   7.677 -0.2588 -0.0965 -0.1222
 7190SOL    HW133203   2.489   1.740   7.616 -2.7781  1.1057  0.3162
 7190SOL    HW233204   2.520   1.886   7.633  1.1258  0.7300  1.1607
 7191SOL     OW33205   4.663   1.411   8.584  0.6229 -0.1085 -0.0355
 7191SOL    HW133206   0.024   1.413   8.575  0.6287 -0.2125  0.0079
 7191SOL    HW233207   4.656   1.417   8.679  0.1942  2.2425 -0.2023
 7192SOL     OW33208   4.604   2.466   6.816  0.2729 -0.4393  0.0468
 7192SOL    HW133209   4.614   2.372   6.807 -1.9590 -1.0932  4.0521
 7192SOL    HW233210   4.643   2.491   6.732  0.7951 -0.8499  0.1634
 7193SOL     OW33211   2.026   0.781   2.623 -0.2157  0.1117  0.4710
 7193SOL    HW133212   2.050   0.737   2.542 -0.7346  0.1461  0.3015
 7193SOL    HW233213   2.102   0.839   2.636 -0.2100  0.7388 -2.2594
 7194SOL     OW33214   2.597   1.282   7.655 -0.2354 -0.1187  0.0556
 7194SOL    HW133215   2.509   1.244   7.658  0.0299 -0.8537 -1.4646
 7194SOL    HW233216   2.624   1.258   7.744 -2.0833  0.6800  0.8459
 7195SOL     OW33217   0.682   3.491   0.018  0.7791 -0.3285 -0.7570
 7195SOL    HW133218   0.764   3.441   0.024  0.8461 -0.1995 -0.6158
 7195SOL    HW233219   0.683   3.522  17.666 -1.4796 -3.2713 -1.7932
 7196SOL     OW33220   3.752   1.942   4.714 -0.4431  0.3833 -0.3234
 7196SOL    HW133221   3.773   1.988   4.796 -0.0389 -0.4789  0.0515
 7196SOL    HW233222   3.831   1.892   4.693  1.2287  2.7580  0.2062
 7197SOL     OW33223   3.798   2.464   7.421 -0.0828  0.0951 -0.0643
 7197SOL    HW133224   3.741   2.538   7.443 -2.7836 -1.0770 -3.1817
 7197SOL    HW233225   3.875   2.518   7.406  1.0004 -1.7513 -1.0551
 7198SOL     OW33226   1.186   4.018   2.080  0.6983  0.0837  0.4513
 7198SOL    HW133227   1.252   4.026   2.012 -0.1460  0.1444 -0.3569
 7198SOL    HW233228   1.114   3.974   2.037  0.6311  0.9280 -0.3022
 7199SOL     OW33229   1.458   3.941  14.814  0.3581  0.0715  0.0953
 7199SOL    HW133230   1.445   3.882  14.740  0.0103 -0.6944  0.7628
 7199SOL    HW233231   1.380   3.931  14.869 -1.8693 -0.1435 -3.0701
 7200SOL     OW33232   0.858   0.248   1.396 -0.6163 -0.3541  0.2292
 7200SOL    HW133233   0.883   0.335   1.429 -0.1724 -0.4289  0.0833
 7200SOL    HW233234   0.844   0.200   1.478 -0.6440  0.7615  0.8821
 7201SOL     OW33235   3.669   3.411   3.629 -0.2174 -0.4375 -0.3267
 7201SOL    HW133236   3.727   3.351   3.676 -1.8009 -1.1041  0.7967
 7201SOL    HW233237   3.721   3.433   3.552 -0.5219 -0.4004 -0.5236
 7202SOL     OW33238   1.242   3.800   8.240  0.0141  0.2125  0.4560
 7202SOL    HW133239   1.257   3.852   8.319  2.1873 -2.3709  1.7028
 7202SOL    HW233240   1.154   3.832   8.217 -0.6899 -1.6964  0.5172
 7203SOL     OW33241   2.240   3.764   7.975 -0.2201  0.0159  0.2936
 7203SOL    HW133242   2.250   3.721   7.890 -1.4826  0.1832  0.0538
 7203SOL    HW233243   2.320   3.736   8.020  0.3300 -0.9781 -1.2825
 7204SOL     OW33244   0.631   3.632   1.174  0.3130 -0.2128 -0.3193
 7204SOL    HW133245   0.662   3.611   1.086  0.7546 -0.6396 -0.0574
 7204SOL    HW233246   0.552   3.682   1.154  1.4158  0.9145 -1.8331
 7205SOL     OW33247   3.243   2.757  16.026 -0.7452 -0.3056  0.6074
 7205SOL    HW133248   3.332   2.743  15.993 -0.0718  3.4441  0.8125
 7205SOL    HW233249   3.225   2.844  15.990  1.0360 -0.2233 -0.0825
 7206SOL     OW33250   2.876   3.156  14.762  0.8113  0.7231  0.1707
 7206SOL    HW133251   2.845   3.209  14.836  0.4886  1.4246 -0.4613
 7206SOL    HW233252   2.960   3.197  14.743  1.3731 -0.0509  0.9959
 7207SOL     OW33253   0.743   4.696   3.216 -0.4013  0.0090 -0.2763
 7207SOL    HW133254   0.727   4.713   3.123 -0.0531 -1.6678 -0.6320
 7207SOL    HW233255   0.754   4.601   3.212  1.7958  0.3622 -2.4911
 7208SOL     OW33256   3.318   1.711   1.246  0.3637  0.8816 -0.2846
 7208SOL    HW133257   3.237   1.702   1.196 -0.4941  2.2020  0.8691
 7208SOL    HW233258   3.349   1.797   1.217 -0.8701  1.5363  0.3631
 7209SOL     OW33259   3.468   0.335   2.178 -0.0718  0.1487  0.2435
 7209SOL    HW133260   3.441   0.424   2.201 -3.0862 -0.9284  0.9003
 7209SOL    HW233261   3.407   0.303   2.112  0.0752 -1.5143  0.9035
 7210SOL     OW33262   4.322   3.313   0.034 -0.2776  0.5254 -0.3728
 7210SOL    HW133263   4.235   3.288   0.004 -0.7952 -2.2681  3.4205
 7210SOL    HW233264   4.321   3.367   0.113  0.3004 -2.6602  1.8299
 7211SOL     OW33265   4.424   2.921   4.024  0.1841  1.0377 -0.1924
 7211SOL    HW133266   4.343   2.970   4.012  1.0628  2.9298  1.6488
 7211SOL    HW233267   4.467   2.980   4.086  1.4999 -0.5917  0.4683
 7212SOL     OW33268   2.907   1.437  15.350 -0.2800 -0.2219  0.9070
 7212SOL    HW133269   3.000   1.429  15.371  0.0359 -1.9475 -1.2745
 7212SOL    HW233270   2.889   1.399  15.264 -0.3212  1.2405  0.2731
 7213SOL     OW33271   3.121   4.100  14.335  0.2664  0.3384  0.3209
 7213SOL    HW133272   3.049   4.155  14.364  0.0568  0.2916 -0.1041
 7213SOL    HW233273   3.195   4.161  14.345 -0.6392  1.7573 -1.6374
 7214SOL     OW33274   2.528   1.826   8.229 -0.5584  0.2810 -0.3562
 7214SOL    HW133275   2.548   1.834   8.136 -0.3264  0.2723 -0.3076
 7214SOL    HW233276   2.532   1.732   8.247  1.6961  0.1681 -1.3817
 7215SOL     OW33277   3.768   2.464  17.179  0.5954  0.7883  0.2194
 7215SOL    HW133278   3.828   2.533  17.206  0.8481  0.2264  1.0789
 7215SOL    HW233279   3.774   2.422  17.264 -1.9249 -0.5838 -0.2707
 7216SOL     OW33280   2.264   3.912  16.100  0.0631  0.4758 -0.1222
 7216SOL    HW133281   2.336   3.944  16.156  0.4265  0.8196 -0.7786
 7216SOL    HW233282   2.208   3.989  16.108  0.6244  0.7100  1.6318
 7217SOL     OW33283   0.031   0.010   4.975 -0.2314  0.1429  0.5004
 7217SOL    HW133284   0.070   4.672   4.926 -0.5616 -0.3059  0.9069
 7217SOL    HW233285   0.054   0.085   4.920  1.2359 -0.6273  0.0672
 7218SOL     OW33286   2.100   1.077   6.951 -0.0581  0.0542 -0.1400
 7218SOL    HW133287   2.015   1.072   6.907  0.3380  1.0157 -1.0225
 7218SOL    HW233288   2.174   1.046   6.898  0.6983 -2.1885  2.2315
 7219SOL     OW33289   0.487   1.265   4.386  0.0878  0.2541  0.4184
 7219SOL    HW133290   0.452   1.295   4.471  0.2485 -1.9834  1.2744
 7219SOL    HW233291   0.410   1.215   4.358  0.7772 -1.0208  0.7899
 7220SOL     OW33292   2.249   2.225   2.664 -0.4154  0.1475 -0.2862
 7220SOL    HW133293   2.194   2.291   2.706 -0.8359 -0.5438  0.2523
 7220SOL    HW233294   2.264   2.270   2.581  0.4878  3.8158  1.8671
 7221SOL     OW33295   3.102   4.367  16.915  0.1757  0.5222  0.3341
 7221SOL    HW133296   3.095   4.331  17.003  1.3965  0.6550  0.4812
 7221SOL    HW233297   3.159   4.443  16.923  1.3980 -0.1951 -1.4561
 7222SOL     OW33298   0.541   4.275   7.278 -0.3066  0.4071  0.6604
 7222SOL    HW133299   0.574   4.249   7.364  0.7540  0.9011  0.4091
 7222SOL    HW233300   0.509   4.363   7.299 -0.2791  0.8169 -0.9951
 7223SOL     OW33301   2.098   3.563   3.052 -0.2151 -0.2171 -0.1557
 7223SOL    HW133302   2.006   3.590   3.047 -0.0881 -0.1811 -2.3165
 7223SOL    HW233303   2.106   3.476   3.091 -0.1167 -1.4456 -2.9629
 7224SOL     OW33304   2.674   3.552   8.867 -0.6136  0.0312 -0.7819
 7224SOL    HW133305   2.701   3.466   8.837 -1.1258 -0.1638 -0.6789
 7224SOL    HW233306   2.725   3.601   8.802  0.9522  1.2315  1.3375
 7225SOL     OW33307   3.301   0.602  15.227  0.0118  0.9936  0.1733
 7225SOL    HW133308   3.394   0.584  15.210 -0.3364 -0.5597 -0.0944
 7225SOL    HW233309   3.291   0.545  15.303 -2.5065  0.9319 -0.2062
 7226SOL     OW33310   0.433   4.451   7.569 -0.4576 -0.3223 -0.1164
 7226SOL    HW133311   0.393   4.515   7.629  0.1196 -2.0148  2.0806
 7226SOL    HW233312   0.350   4.405   7.557 -1.2762  1.4204 -1.1561
 7227SOL     OW33313   4.427   3.637  15.226  0.8992 -0.6927  0.0886
 7227SOL    HW133314   4.392   3.618  15.139  2.0805 -0.5414 -0.4070
 7227SOL    HW233315   4.340   3.640  15.267  0.2086  1.1980 -1.5345
 7228SOL     OW33316   4.466   2.135   2.652 -1.0024  0.1786  0.3238
 7228SOL    HW133317   4.546   2.183   2.633 -0.2928 -0.2259  2.2606
 7228SOL    HW233318   4.488   2.099   2.738  0.8534  3.1850  1.1244
 7229SOL     OW33319   3.068   2.610   5.432 -0.8602  0.0012  0.4426
 7229SOL    HW133320   3.112   2.668   5.370  0.1069  0.2210  1.3253
 7229SOL    HW233321   3.049   2.532   5.379  0.8483  1.7065 -2.6539
 7230SOL     OW33322   0.618   3.570   5.697 -0.2205 -0.1717  0.1897
 7230SOL    HW133323   0.700   3.587   5.651  0.5892 -0.4782  1.5274
 7230SOL    HW233324   0.652   3.567   5.786 -2.1172 -0.8617  0.9011
 7231SOL     OW33325   0.060   0.828   7.372 -0.0777  0.5315  0.0604
 7231SOL    HW133326   0.103   0.806   7.454 -1.1406 -0.4464  0.3556
 7231SOL    HW233327   0.067   0.750   7.317  1.8014  0.0133  1.0196
 7232SOL     OW33328   1.791   1.048   9.129 -0.6359 -0.1367  0.0903
 7232SOL    HW133329   1.729   1.121   9.128  1.6051  1.7755 -2.7655
 7232SOL    HW233330   1.822   1.067   9.040  1.8221  0.0657  0.9870
 7233SOL     OW33331   0.664   4.260   2.973  0.4170  0.6984  0.1762
 7233SOL    HW133332   0.603   4.287   2.903  0.0269  1.2048  0.7171
 7233SOL    HW233333   0.731   4.205   2.933 -0.7155 -1.3228  1.0423
 7234SOL     OW33334   3.209   1.018   4.913  0.4460 -0.2224  0.3430
 7234SOL    HW133335   3.158   1.079   4.859 -0.6104 -2.8899 -1.6415
 7234SOL    HW233336   3.147   1.001   4.984  1.9530 -0.4275  1.6160
 7235SOL     OW33337   2.090   0.260   7.082  0.6674  0.1490 -0.0481
 7235SOL    HW133338   2.060   0.345   7.113  3.2305  0.2343  2.2155
 7235SOL    HW233339   2.088   0.211   7.164 -0.9204 -1.8956 -1.3062
 7236SOL     OW33340   2.010   4.142   5.468 -0.3023  0.2487 -0.2346
 7236SOL    HW133341   2.095   4.102   5.450 -0.0549  0.8748 -0.4807
 7236SOL    HW233342   2.014   4.154   5.563  1.2814 -1.9869 -0.0242
 7237SOL     OW33343   3.203   0.478  17.168 -0.2838  0.1412  0.6058
 7237SOL    HW133344   3.186   0.540  17.098 -1.3215 -0.0143  0.7173
 7237SOL    HW233345   3.157   0.506  17.247 -1.2508 -0.1924  0.1633
 7238SOL     OW33346   3.543   4.580  13.181 -0.0336 -0.1316  0.5066
 7238SOL    HW133347   3.568   4.512  13.119 -0.1317  1.4807 -1.3001
 7238SOL    HW233348   3.624   4.622  13.210  0.4983 -1.7302  1.3345
 7239SOL     OW33349   2.798   2.601   1.850 -0.4719 -0.3717  0.0711
 7239SOL    HW133350   2.762   2.631   1.767  0.6950 -1.4251 -0.8188
 7239SOL    HW233351   2.884   2.644   1.852 -0.9947  0.6938 -0.6968
 7240SOL     OW33352   3.770   2.143   9.610 -0.1790 -0.1224  0.2670
 7240SOL    HW133353   3.724   2.178   9.534  0.2225  1.4028  0.7299
 7240SOL    HW233354   3.733   2.193   9.683  1.1593 -0.2520  1.0207
 7241SOL     OW33355   2.530   3.425  12.354 -0.6420  0.0884  0.5498
 7241SOL    HW133356   2.451   3.378  12.325  0.8748 -1.4623 -1.0984
 7241SOL    HW233357   2.569   3.353  12.403 -2.1655 -1.4330 -0.4701
 7242SOL     OW33358   1.419   3.211  16.430  0.1171  0.6678 -0.3700
 7242SOL    HW133359   1.461   3.145  16.375  0.3051 -0.5158  1.1962
 7242SOL    HW233360   1.484   3.281  16.423  0.4454  0.3404 -0.6281
 7243SOL     OW33361   3.499   3.333   5.549  0.1966 -0.0456  0.1495
 7243SOL    HW133362   3.470   3.423   5.540  0.2689 -0.2385 -1.9407
 7243SOL    HW233363   3.483   3.298   5.461  1.3032 -0.7330  0.2125
 7244SOL     OW33364   4.733   1.817  10.318 -0.1460 -0.0572  0.1403
 7244SOL    HW133365   4.691   1.737  10.348 -0.6335  0.0949 -0.1445
 7244SOL    HW233366   4.707   1.875  10.390  0.1712  0.7116 -0.3518
 7245SOL     OW33367   1.870   1.706   3.828 -0.2168  0.2400  0.3800
 7245SOL    HW133368   1.818   1.659   3.764 -0.5397  0.6136  0.3630
 7245SOL    HW233369   1.802   1.767   3.859 -0.1261  0.2115  0.6358
 7246SOL     OW33370   0.503   3.116   7.665  0.0977 -0.0035  0.7514
 7246SOL    HW133371   0.450   3.047   7.624 -0.0480  0.0283  0.8846
 7246SOL    HW233372   0.534   3.164   7.588  1.5893 -3.7363 -1.0096
 7247SOL     OW33373   1.418   2.886   8.082  0.1424  0.8728 -0.5884
 7247SOL    HW133374   1.468   2.913   8.005 -0.0261 -0.4934 -1.1719
 7247SOL    HW233375   1.464   2.805   8.101 -0.6731 -0.0333 -2.5000
 7248SOL     OW33376   1.111   0.162   6.154  0.5148  0.2486  0.2957
 7248SOL    HW133377   1.041   0.162   6.088  0.0728  0.3725  0.7582
 7248SOL    HW233378   1.062   0.213   6.218 -0.7671  1.6296 -1.7809
 7249SOL     OW33379   3.313   2.159  13.337 -0.2462  0.5582  0.3743
 7249SOL    HW133380   3.374   2.086  13.343 -0.5358  0.4096  1.6004
 7249SOL    HW233381   3.284   2.177  13.427  0.2620  0.0363  0.6362
 7250SOL     OW33382   3.814   1.445   8.508  0.3208 -0.1839  0.2269
 7250SOL    HW133383   3.750   1.498   8.461 -1.9463 -1.6439  1.6216
 7250SOL    HW233384   3.885   1.506   8.526  0.6064  0.2879 -2.4684
 7251SOL     OW33385   4.292   1.114   1.593 -0.0047 -0.5365  0.4444
 7251SOL    HW133386   4.360   1.083   1.653 -0.4339 -1.9145  0.2204
 7251SOL    HW233387   4.323   1.081   1.508 -0.7382 -1.0812  0.3934
 7252SOL     OW33388   4.415   1.878  14.619  0.0637 -0.5750 -0.5273
 7252SOL    HW133389   4.495   1.859  14.669 -0.6717 -1.3956  0.3299
 7252SOL    HW233390   4.358   1.906  14.690  1.5459 -2.3959  1.3698
 7253SOL     OW33391   0.010   4.425   3.000  0.6090  0.0542 -0.0081
 7253SOL    HW133392   4.684   4.489   3.037  0.7440 -0.1661  0.6021
 7253SOL    HW233393   4.713   4.421   2.910 -2.3686 -0.1447  1.0560
 7254SOL     OW33394   1.781   4.137  13.230  0.0428 -0.3090  0.0733
 7254SOL    HW133395   1.745   4.169  13.312  0.3351 -1.2550  0.5630
 7254SOL    HW233396   1.855   4.089  13.265 -0.3274 -2.2206 -1.8076
 7255SOL     OW33397   0.335   3.090   5.118  0.2609  0.1555 -0.0244
 7255SOL    HW133398   0.250   3.071   5.078  1.4635 -1.7758 -1.6479
 7255SOL    HW233399   0.303   3.141   5.192  1.0143  1.4943 -0.6030
 7256SOL     OW33400   1.199   2.108   0.096 -0.0067  0.0097 -0.3246
 7256SOL    HW133401   1.178   2.016   0.114  0.5031 -0.3791 -1.7036
 7256SOL    HW233402   1.185   2.156   0.178 -1.1380  0.5024 -0.8132
 7257SOL     OW33403   3.781   1.613  11.568  0.0612  0.4760  0.1590
 7257SOL    HW133404   3.734   1.626  11.651 -0.5072 -1.5825  0.1565
 7257SOL    HW233405   3.710   1.563  11.528  1.7530 -0.7737 -1.2740
 7258SOL     OW33406   2.294   4.418  16.358 -1.0715 -0.5840  0.3980
 7258SOL    HW133407   2.289   4.323  16.344 -1.3383 -0.7318  1.5130
 7258SOL    HW233408   2.371   4.422  16.415 -1.0883 -2.9712  0.6081
 7259SOL     OW33409   0.525   4.407   2.283  0.3283  0.3674 -0.0600
 7259SOL    HW133410   0.433   4.434   2.284 -0.2616 -1.6315  0.6914
 7259SOL    HW233411   0.570   4.477   2.330 -0.6466  0.6849  0.3896
 7260SOL     OW33412   1.641   3.825   7.213  0.1309  0.4931 -0.3268
 7260SOL    HW133413   1.719   3.816   7.158  1.2444  1.3679  1.1286
 7260SOL    HW233414   1.680   3.871   7.287  0.3320 -1.1693  0.5934
 7261SOL     OW33415   4.085   0.992   9.034 -0.2393 -0.3923  0.5592
 7261SOL    HW133416   3.999   1.031   9.046 -0.8286 -1.4453 -0.3113
 7261SOL    HW233417   4.124   1.072   8.999 -0.6609 -0.2338  0.4552
 7262SOL     OW33418   4.134   2.159   5.189  0.4354  0.3441  0.1151
 7262SOL    HW133419   4.225   2.172   5.216  0.3211  2.0688 -0.3597
 7262SOL    HW233420   4.146   2.107   5.109 -1.5593 -0.2408  0.1892
 7263SOL     OW33421   1.194   0.617   6.562 -0.0513  0.0462  0.3355
 7263SOL    HW133422   1.129   0.553   6.531  0.7184 -0.3980 -0.3647
 7263SOL    HW233423   1.253   0.554   6.605  0.8134  1.2854  0.9540
 7264SOL     OW33424   0.934   2.695  14.233  0.2705 -0.2546  0.2810
 7264SOL    HW133425   0.919   2.720  14.141  0.1260  3.9200  1.4099
 7264SOL    HW233426   0.885   2.756  14.289  0.3684 -0.0364  0.1310
 7265SOL     OW33427   4.105   2.650   4.022  0.1172 -0.0223 -0.0644
 7265SOL    HW133428   4.199   2.661   4.033  0.5345 -2.5430 -1.1676
 7265SOL    HW233429   4.084   2.617   4.110  1.1610 -1.1553 -0.2439
 7266SOL     OW33430   3.036   0.330   5.575 -0.1642 -0.5754  0.4879
 7266SOL    HW133431   3.113   0.366   5.619 -1.3713  1.3589  1.0123
 7266SOL    HW233432   3.010   0.270   5.645 -1.0098 -1.2900 -0.4344
 7267SOL     OW33433   3.882   3.455   3.156  0.3541  0.5037  0.4626
 7267SOL    HW133434   3.907   3.476   3.066 -2.5096  1.7198 -0.0449
 7267SOL    HW233435   3.807   3.397   3.145  1.0296 -0.0002 -1.5599
 7268SOL     OW33436   4.502   3.265   6.236 -0.0755  0.2173 -0.5538
 7268SOL    HW133437   4.443   3.203   6.279 -0.2135  0.4383 -0.4204
 7268SOL    HW233438   4.436   3.291   6.172  0.6601  0.9093 -1.0356
 7269SOL     OW33439   4.151   3.417   9.438 -0.1277 -0.0803 -0.1168
 7269SOL    HW133440   4.210   3.354   9.396  2.1718  1.2244  1.1606
 7269SOL    HW233441   4.146   3.395   9.531 -2.6146 -0.5624 -0.3489
 7270SOL     OW33442   0.711   1.949   2.303  0.0232 -0.1503  0.0058
 7270SOL    HW133443   0.780   1.883   2.306 -0.5457 -0.7165  0.6087
 7270SOL    HW233444   0.739   2.016   2.365 -1.1694 -0.2495  0.6502
 7271SOL     OW33445   3.590   1.979  10.236 -0.3263  0.5947 -0.1340
 7271SOL    HW133446   3.653   2.035  10.281 -0.6184  1.0521 -0.3014
 7271SOL    HW233447   3.501   1.994  10.270 -0.9104 -2.2415 -0.3487
 7272SOL     OW33448   0.600   1.943   3.096 -0.4040 -0.6838 -0.0442
 7272SOL    HW133449   0.522   1.893   3.122 -1.5610  1.0322 -0.2618
 7272SOL    HW233450   0.637   1.973   3.179 -0.5762 -2.0709  0.5475
 7273SOL     OW33451   1.803   3.749   6.077 -0.3061  1.0265  0.2311
 7273SOL    HW133452   1.855   3.672   6.055 -0.1046  1.1192  0.3792
 7273SOL    HW233453   1.874   3.813   6.077  0.9971 -0.3997  0.8468
 7274SOL     OW33454   2.386   0.660   9.538 -0.2530  0.2142 -0.2140
 7274SOL    HW133455   2.416   0.633   9.625 -3.4335 -0.6875  0.6222
 7274SOL    HW233456   2.290   0.655   9.537 -0.2395  0.1208 -1.9355
 7275SOL     OW33457   1.273   3.365  16.265 -0.4167 -0.0469 -0.7929
 7275SOL    HW133458   1.328   3.307  16.317 -1.6891  0.9069  1.6283
 7275SOL    HW233459   1.307   3.451  16.291  0.1686 -0.3631 -0.5097
 7276SOL     OW33460   0.878   4.343   4.457  0.2206 -0.3610  0.4746
 7276SOL    HW133461   0.783   4.353   4.466  0.7116  1.3214  3.5995
 7276SOL    HW233462   0.885   4.329   4.362  1.9631 -0.4476  0.6230
 7277SOL     OW33463   0.860   3.293   2.957 -0.0303 -0.2454  0.3708
 7277SOL    HW133464   0.793   3.240   3.000  0.3414 -1.0050  0.0292
 7277SOL    HW233465   0.889   3.353   3.025  0.9038 -0.1359 -0.1140
 7278SOL     OW33466   1.956   3.158   1.673 -0.4314  0.4354 -1.0502
 7278SOL    HW133467   1.893   3.144   1.743  2.2643 -1.4126  1.0230
 7278SOL    HW233468   2.040   3.180   1.714 -0.9828 -0.8329  0.7424
 7279SOL     OW33469   0.161   4.620  14.280  0.3916 -0.1271 -0.4353
 7279SOL    HW133470   0.201   4.654  14.360  0.1008  0.7755 -0.6777
 7279SOL    HW233471   0.110   4.559  14.333 -0.4935  1.4213  0.4870
 7280SOL     OW33472   2.032   0.736  11.045 -0.4540  0.3732 -0.4305
 7280SOL    HW133473   2.017   0.725  10.951  2.4856  0.4448 -0.9001
 7280SOL    HW233474   2.126   0.736  11.058 -0.3748  0.9577 -0.9962
 7281SOL     OW33475   1.823   0.712   9.733  0.1211 -0.4147 -0.3126
 7281SOL    HW133476   1.828   0.637   9.792  4.0120 -0.8450 -1.1862
 7281SOL    HW233477   1.746   0.704   9.677  0.0239  0.6965 -0.3436
 7282SOL     OW33478   4.016   2.408   9.206  0.4286  0.3151  0.1151
 7282SOL    HW133479   4.065   2.485   9.179 -0.3164  0.6339 -0.3322
 7282SOL    HW233480   4.054   2.382   9.290 -3.0141  0.8942  1.8496
 7283SOL     OW33481   3.082   4.476   7.076 -0.1764 -0.4721  0.3374
 7283SOL    HW133482   3.029   4.474   7.156  1.3887 -1.6030  1.3423
 7283SOL    HW233483   3.018   4.495   7.007 -0.2061  0.8776  0.7484
 7284SOL     OW33484   2.333   3.184  11.694 -0.1033  0.4391 -0.3440
 7284SOL    HW133485   2.407   3.238  11.721  0.2260  0.1971 -0.7635
 7284SOL    HW233486   2.302   3.162  11.782 -0.0534  0.2688 -0.3695
 7285SOL     OW33487   2.417   3.946   6.120  0.1729 -0.2765 -0.2857
 7285SOL    HW133488   2.409   3.854   6.094  1.9319 -0.4459 -0.2325
 7285SOL    HW233489   2.370   3.936   6.203  1.5194  0.7569  0.6016
 7286SOL     OW33490   4.585   1.597  10.105 -0.4678 -0.0249  0.4850
 7286SOL    HW133491   4.557   1.505  10.100 -2.9247  0.7170  0.7399
 7286SOL    HW233492   4.527   1.642  10.166  0.0495  0.6388  0.4759
 7287SOL     OW33493   1.766   4.336   7.435  0.4476 -0.4141  0.3541
 7287SOL    HW133494   1.717   4.366   7.512 -0.6897  1.4113 -1.0504
 7287SOL    HW233495   1.697   4.289   7.387  1.1667 -1.3691  0.2748
 7288SOL     OW33496   2.814   3.630   8.626 -0.0247 -0.1227 -0.5701
 7288SOL    HW133497   2.847   3.697   8.566  0.1105 -2.0695 -2.6760
 7288SOL    HW233498   2.882   3.564   8.618 -0.4538 -0.4207 -1.8419
 7289SOL     OW33499   4.723   2.402   9.423  0.2651 -0.5010 -0.5258
 7289SOL    HW133500   4.673   2.357   9.356  0.5705 -0.1882 -0.9599
 7289SOL    HW233501   0.073   2.417   9.382  0.1337  1.3283 -0.0995
 7290SOL     OW33502   2.929   3.294  12.448  0.1146  0.1281 -0.5683
 7290SOL    HW133503   2.933   3.378  12.402  3.0930  0.0444 -0.4674
 7290SOL    HW233504   2.838   3.269  12.434  0.2262 -1.0027  0.6686
 7291SOL     OW33505   1.790   3.692  12.338 -0.1421 -0.3313 -0.2501
 7291SOL    HW133506   1.803   3.760  12.272 -0.6755  1.1295  1.1498
 7291SOL    HW233507   1.788   3.745  12.418 -0.3112 -0.4332 -0.1876
 7292SOL     OW33508   0.956   3.970   3.223 -0.2172  0.7649 -0.0931
 7292SOL    HW133509   0.865   3.975   3.250 -0.3289  1.5953 -0.6231
 7292SOL    HW233510   1.007   4.001   3.298  1.1282 -0.0989 -0.6446
 7293SOL     OW33511   1.692   1.381   1.169  0.5533 -0.0414  0.1611
 7293SOL    HW133512   1.615   1.426   1.204 -0.9240 -2.3244 -0.1356
 7293SOL    HW233513   1.728   1.457   1.123 -1.9722  0.2756 -1.2680
 7294SOL     OW33514   1.370   3.390   7.495  0.0309  0.1210 -0.1133
 7294SOL    HW133515   1.409   3.333   7.562  1.7313  0.5273 -0.7415
 7294SOL    HW233516   1.293   3.338   7.473 -1.0428  1.4908  0.3553
 7295SOL     OW33517   2.076   4.355  13.603 -0.4183 -0.3605  0.0798
 7295SOL    HW133518   2.122   4.350  13.687  1.6961  0.8668 -1.0227
 7295SOL    HW233519   1.988   4.366  13.640 -1.0152 -2.2059 -0.7590
 7296SOL     OW33520   1.943   1.320   3.728 -0.0548  0.2177  0.3131
 7296SOL    HW133521   1.901   1.406   3.717 -1.5161 -0.7087 -1.1788
 7296SOL    HW233522   1.876   1.271   3.776 -0.7582  1.5269  0.6679
 7297SOL     OW33523   0.672   2.985   4.415  0.5734  0.2818  0.2246
 7297SOL    HW133524   0.752   2.942   4.384 -0.6447 -0.2783 -2.1047
 7297SOL    HW233525   0.711   3.029   4.491 -0.4900  0.2769  0.7750
 7298SOL     OW33526   2.091   1.243   6.613 -0.0103  0.0911  0.0642
 7298SOL    HW133527   2.058   1.296   6.686 -0.0332 -1.4785  1.1935
 7298SOL    HW233528   2.146   1.173   6.649 -0.0029  0.3814  0.6262
 7299SOL     OW33529   3.989   1.964   4.287  0.1380 -0.1112 -0.3348
 7299SOL    HW133530   3.911   1.992   4.335 -0.9983 -1.4167 -1.4388
 7299SOL    HW233531   3.966   1.959   4.195  1.4677 -2.7741 -0.5357
 7300SOL     OW33532   1.248   0.080   2.928  0.0354 -0.2958  0.1868
 7300SOL    HW133533   1.300   0.147   2.972 -1.4931 -0.4525  2.2549
 7300SOL    HW233534   1.233   0.124   2.845  1.4692 -1.2421 -0.5595
 7301SOL     OW33535   2.448   1.548   4.203  0.3426  0.3894 -0.2157
 7301SOL    HW133536   2.498   1.591   4.272  1.1224  0.5390 -0.8651
 7301SOL    HW233537   2.427   1.469   4.253  1.4668  0.4827  0.4079
 7302SOL     OW33538   3.305   1.705   3.800  0.2343 -0.5365  0.2317
 7302SOL    HW133539   3.265   1.790   3.783  1.5647  0.4637  2.1014
 7302SOL    HW233540   3.300   1.653   3.720 -0.6643  0.7366 -0.5497
 7303SOL     OW33541   1.613   2.285   4.239  0.1666  0.2956  0.2739
 7303SOL    HW133542   1.650   2.371   4.254  0.6860  0.3834 -1.4881
 7303SOL    HW233543   1.555   2.275   4.314 -2.0370 -0.4895 -1.5407
 7304SOL     OW33544   2.083   4.138  12.383 -0.3003  0.0752  0.0226
 7304SOL    HW133545   2.014   4.092  12.336  0.2506 -1.1367  0.3874
 7304SOL    HW233546   2.136   4.063  12.414  0.5918  0.6749 -0.0482
 7305SOL     OW33547   0.913   1.935   7.380 -0.3668  0.2738 -0.2552
 7305SOL    HW133548   1.004   1.939   7.409 -0.3019 -0.1251 -0.3997
 7305SOL    HW233549   0.881   2.001   7.441 -1.5043  0.5396 -1.1567
 7306SOL     OW33550   2.730   0.914   8.567 -0.2364  0.2527  0.0347
 7306SOL    HW133551   2.743   0.970   8.644  1.9385 -0.0627 -0.1091
 7306SOL    HW233552   2.656   0.962   8.529 -0.2908  0.4235  0.3498
 7307SOL     OW33553   0.130   4.448  15.511  0.1025 -0.2291  0.3831
 7307SOL    HW133554   0.073   4.468  15.437 -0.0962  0.0529  0.6129
 7307SOL    HW233555   0.118   4.531  15.558  0.5832  0.0618 -0.0068
 7308SOL     OW33556   3.407   3.757   3.043  0.3447 -0.1968 -0.2328
 7308SOL    HW133557   3.472   3.822   3.017 -0.6143  1.4009  1.3506
 7308SOL    HW233558   3.343   3.761   2.972 -0.4993 -0.3519  0.5173
 7309SOL     OW33559   1.342   3.483   6.052  0.1806 -0.5076  0.2931
 7309SOL    HW133560   1.311   3.573   6.059  1.2873  0.0253 -1.3866
 7309SOL    HW233561   1.257   3.440   6.049  0.3152 -0.7811  0.4970
 7310SOL     OW33562   2.923   4.451   8.883  0.5320  0.3186 -0.1515
 7310SOL    HW133563   2.928   4.546   8.872  4.0950 -0.1348 -2.5466
 7310SOL    HW233564   2.928   4.457   8.978 -1.3410  0.9795 -0.0999
 7311SOL     OW33565   2.687   2.696   3.427 -0.4253  0.1270  0.1536
 7311SOL    HW133566   2.691   2.785   3.462 -2.4942 -0.7350  2.5258
 7311SOL    HW233567   2.731   2.653   3.501 -0.0416  0.7649  0.2995
 7312SOL     OW33568   2.278   0.647   5.221 -0.0828  0.4031 -0.0268
 7312SOL    HW133569   2.237   0.563   5.200 -0.6386  0.6535  0.0591
 7312SOL    HW233570   2.354   0.619   5.272 -1.0806  0.7598  1.6566
 7313SOL     OW33571   3.871   0.620   3.938  0.5550 -0.0315  0.3010
 7313SOL    HW133572   3.870   0.708   3.974  2.3222  1.2816 -2.8215
 7313SOL    HW233573   3.920   0.569   4.003  1.3654  0.0942 -0.2002
 7314SOL     OW33574   3.932   0.861   3.698 -0.3684 -0.3240  0.4969
 7314SOL    HW133575   3.977   0.946   3.702 -0.8532  0.0221 -1.4805
 7314SOL    HW233576   3.881   0.876   3.778 -0.8720 -0.2399  0.1591
 7315SOL     OW33577   0.055   2.217   1.517 -0.1968  0.1969 -0.5511
 7315SOL    HW133578   0.034   2.136   1.470 -1.2068  1.1939 -1.8496
 7315SOL    HW233579   0.033   2.276   1.444 -3.2291 -0.0165  0.1837
 7316SOL     OW33580   4.181   1.404   4.960  0.4729  0.4716 -0.1274
 7316SOL    HW133581   4.201   1.487   5.005  1.2429  0.5389 -0.6034
 7316SOL    HW233582   4.086   1.396   4.970  0.0834  1.7802 -2.8694
 7317SOL     OW33583   2.054   3.711   6.482 -0.5583 -0.0573  0.0698
 7317SOL    HW133584   1.966   3.747   6.496 -0.2184  1.5303 -1.7886
 7317SOL    HW233585   2.091   3.784   6.532  1.7716 -0.4862 -1.0182
 7318SOL     OW33586   4.000   3.475   8.977  0.5570  0.0139  0.1911
 7318SOL    HW133587   3.975   3.508   9.063 -0.9656 -0.1358 -0.2013
 7318SOL    HW233588   3.971   3.383   8.978 -0.2088  0.2638  2.3127
 7319SOL     OW33589   4.057   2.101  10.035  0.3131  0.0140  0.1228
 7319SOL    HW133590   4.052   2.065   9.946 -3.0484  2.9588 -0.8984
 7319SOL    HW233591   4.056   2.195  10.020 -2.1038  0.4021  2.6854
 7320SOL     OW33592   0.379   4.429  14.257  0.4395 -0.2376  0.1052
 7320SOL    HW133593   0.471   4.401  14.249  0.6842  0.5149  0.2369
 7320SOL    HW233594   0.357   4.399  14.345 -0.6281 -1.0237 -0.4457
 7321SOL     OW33595   4.097   2.885   4.713  1.0171 -0.1647  0.3968
 7321SOL    HW133596   4.127   2.975   4.703  0.2847  0.1167  0.7607
 7321SOL    HW233597   4.005   2.886   4.687  1.7251  0.3287 -2.1351
 7322SOL     OW33598   2.453   2.529   8.698 -0.0874 -0.2445 -0.4940
 7322SOL    HW133599   2.358   2.524   8.690  0.0415 -0.9481 -1.4976
 7322SOL    HW233600   2.482   2.573   8.619 -0.3393 -1.0977 -1.0612
 7323SOL     OW33601   1.063   0.547  10.218 -0.2284 -0.2604 -0.3606
 7323SOL    HW133602   1.137   0.495  10.248 -0.0636  0.5983  0.7082
 7323SOL    HW233603   0.996   0.533  10.285 -0.5338  2.1005 -0.1695
 7324SOL     OW33604   2.032   0.566  17.001  0.0219 -0.0124 -0.5657
 7324SOL    HW133605   2.037   0.538  16.909 -0.9531 -1.6335 -0.1251
 7324SOL    HW233606   1.947   0.529  17.024  1.3118 -2.1665  0.7314
 7325SOL     OW33607   4.269   3.988   5.474  0.5310  0.3408 -0.1192
 7325SOL    HW133608   4.295   4.049   5.405 -0.3946  0.3849 -0.4198
 7325SOL    HW233609   4.180   4.018   5.490  0.8080  0.1584  1.7820
 7326SOL     OW33610   3.885   4.549   2.324  0.4205 -0.2057  0.9313
 7326SOL    HW133611   3.942   4.534   2.400  1.5581  0.0440  0.1359
 7326SOL    HW233612   3.813   4.491   2.350  0.5814 -0.9482 -0.2672
 7327SOL     OW33613   0.368   3.327   7.761  0.0753  0.1148  0.7887
 7327SOL    HW133614   0.411   3.351   7.843 -0.1775 -0.7148  1.1776
 7327SOL    HW233615   0.398   3.241   7.731  1.3758  0.7939  0.1670
 7328SOL     OW33616   0.568   1.155   8.987  0.1379  0.0573  0.4028
 7328SOL    HW133617   0.661   1.154   8.969 -0.1360  1.0468 -1.0450
 7328SOL    HW233618   0.534   1.076   8.945  0.7273  1.8164 -3.4072
 7329SOL     OW33619   2.959   2.413   5.255  0.4169 -0.3052 -0.4476
 7329SOL    HW133620   2.994   2.420   5.167  1.3221 -0.6800 -0.1176
 7329SOL    HW233621   2.875   2.370   5.242  0.2369 -0.5853  1.6189
 7330SOL     OW33622   0.339   4.563   5.239  0.1259 -0.1711  0.2553
 7330SOL    HW133623   0.313   4.610   5.160 -1.8350 -0.4249  0.7455
 7330SOL    HW233624   0.364   4.473   5.221 -1.6503 -0.6708  0.3278
 7331SOL     OW33625   3.698   4.617   1.596 -0.0962  0.1914 -0.2594
 7331SOL    HW133626   3.635   4.685   1.570  0.6058  0.0026 -2.4859
 7331SOL    HW233627   3.739   4.668   1.666 -1.2769  0.6414  0.1137
 7332SOL     OW33628   2.744   0.883   6.714  0.0539  0.6172  0.1807
 7332SOL    HW133629   2.817   0.933   6.750  2.2881 -0.9746 -2.2023
 7332SOL    HW233630   2.784   0.798   6.694  0.5915  1.0547 -0.5557
 7333SOL     OW33631   1.448   1.961  10.762 -0.2084  0.1494 -0.6824
 7333SOL    HW133632   1.426   2.040  10.713  0.6070  0.7690 -0.0459
 7333SOL    HW233633   1.533   1.948  10.718 -1.0879 -0.5648 -2.1569
 7334SOL     OW33634   1.955   1.596   7.774 -0.6322 -0.0601 -0.1661
 7334SOL    HW133635   1.874   1.563   7.814 -0.9378 -0.2131 -0.9218
 7334SOL    HW233636   1.941   1.688   7.796 -0.3820  0.0526 -0.4806
 7335SOL     OW33637   2.411   2.696   3.931 -0.6572  0.9528  0.3724
 7335SOL    HW133638   2.385   2.722   3.843  0.0073  0.2616 -0.0253
 7335SOL    HW233639   2.330   2.713   3.978 -0.3964 -1.3914  1.6568
 7336SOL     OW33640   1.748   3.730   6.670 -0.6014  0.1162  0.2869
 7336SOL    HW133641   1.764   3.643   6.707  2.0925  1.6582  2.7976
 7336SOL    HW233642   1.653   3.724   6.662 -0.5123 -1.2172  0.1849
 7337SOL     OW33643   0.975   1.815   7.682  0.2230 -0.1259  0.5650
 7337SOL    HW133644   1.042   1.796   7.748  0.6579  0.9066  0.4155
 7337SOL    HW233645   1.020   1.805   7.598  0.9470 -0.8399  1.0375
 7338SOL     OW33646   3.455   2.134   3.344 -0.0979 -0.3513  0.4004
 7338SOL    HW133647   3.504   2.215   3.356 -1.4849  0.4644  0.6277
 7338SOL    HW233648   3.514   2.081   3.291  1.2373  1.8499 -0.3203
 7339SOL     OW33649   3.077   3.750   4.097  0.8098  0.2222 -0.1911
 7339SOL    HW133650   3.055   3.696   4.022  0.6278 -0.8481  0.6333
 7339SOL    HW233651   3.111   3.688   4.161  1.3536 -1.7977 -2.4397
 7340SOL     OW33652   2.529   4.033   5.477  0.4926  0.2738  0.0624
 7340SOL    HW133653   2.539   4.063   5.387 -0.3485 -0.1984 -0.1887
 7340SOL    HW233654   2.599   3.967   5.478 -0.7671 -1.0571 -1.3654
 7341SOL     OW33655   2.027   0.993  16.722  0.2716 -0.7686  0.7036
 7341SOL    HW133656   1.944   1.013  16.679  1.1473  2.3666  0.4654
 7341SOL    HW233657   2.095   1.021  16.660 -0.0504 -1.5878 -0.0108
 7342SOL     OW33658   0.682   1.111   7.336 -0.1189  0.0584 -0.2660
 7342SOL    HW133659   0.759   1.053   7.327  2.6290  3.7008 -0.2148
 7342SOL    HW233660   0.637   1.066   7.407 -2.1652 -0.4163 -1.8577
 7343SOL     OW33661   0.611   0.726   0.778 -0.1528 -0.3552  0.1341
 7343SOL    HW133662   0.619   0.652   0.838  0.3940 -0.2581  0.1821
 7343SOL    HW233663   0.693   0.727   0.728 -0.5035  1.2357 -0.4233
 7344SOL     OW33664   4.135   2.255  13.060 -0.4832 -0.2296 -0.2896
 7344SOL    HW133665   4.059   2.301  13.024 -0.8797  0.5228  1.4996
 7344SOL    HW233666   4.119   2.162  13.043  0.0942 -0.2513 -0.6958
 7345SOL     OW33667   2.633   0.447   7.872  0.0966 -0.5066  0.3394
 7345SOL    HW133668   2.721   0.409   7.877  0.6113  0.7053  0.4559
 7345SOL    HW233669   2.590   0.396   7.940  0.0058 -0.2790  0.4502
 7346SOL     OW33670   0.295   3.565  11.449 -0.0492  0.5592  0.1724
 7346SOL    HW133671   0.278   3.507  11.375  0.1463  0.2820  0.3412
 7346SOL    HW233672   0.219   3.622  11.441 -1.5617 -1.3472  1.0620
 7347SOL     OW33673   2.984   3.025   3.306 -0.0590  0.1460 -0.1065
 7347SOL    HW133674   2.996   3.119   3.294  1.9881 -0.0934  0.2048
 7347SOL    HW233675   2.930   3.001   3.230 -0.3773  0.6500 -0.0393
 7348SOL     OW33676   4.191   3.784   7.375 -0.5619  0.1839 -0.6837
 7348SOL    HW133677   4.161   3.872   7.355  1.4830  0.3750 -2.9784
 7348SOL    HW233678   4.218   3.738   7.295 -0.7052  1.5698 -1.5339
 7349SOL     OW33679   1.755   2.736   4.487 -0.2913 -0.5032 -0.9462
 7349SOL    HW133680   1.714   2.820   4.467  1.9963  0.9885  0.7514
 7349SOL    HW233681   1.817   2.732   4.414 -0.6308 -0.5296 -1.2371
 7350SOL     OW33682   4.614   3.826   5.256  0.0322 -0.2641  0.1517
 7350SOL    HW133683   4.528   3.805   5.219 -0.4159 -1.6415  1.9787
 7350SOL    HW233684   4.653   3.895   5.204 -1.4353  0.4223 -0.0395
 7351SOL     OW33685   2.216   2.483  10.172 -0.0698  0.4424 -0.0283
 7351SOL    HW133686   2.138   2.430  10.155  0.9178 -0.8379 -0.5330
 7351SOL    HW233687   2.179   2.546  10.234 -1.6132  0.1867 -0.6710
 7352SOL     OW33688   4.237   2.943  14.634 -0.3710 -0.1535 -0.5187
 7352SOL    HW133689   4.275   3.015  14.583 -0.0575  1.6488  2.2349
 7352SOL    HW233690   4.290   2.939  14.713 -0.4800  1.1629 -0.3720
 7353SOL     OW33691   2.491   0.966   0.758  0.0740 -0.7997 -0.4796
 7353SOL    HW133692   2.438   1.023   0.703  0.8278  0.2288 -0.1353
 7353SOL    HW233693   2.536   1.033   0.809  0.4210 -1.0008 -0.5171
 7354SOL     OW33694   0.651   1.290   2.877 -1.0006  0.3132 -0.1378
 7354SOL    HW133695   0.718   1.224   2.896 -0.5103  1.1735  1.0678
 7354SOL    HW233696   0.694   1.362   2.922  2.4423 -0.9277 -1.4581
 7355SOL     OW33697   4.392   0.945   3.545 -0.7122  0.6406  0.2276
 7355SOL    HW133698   4.323   0.979   3.488 -1.5447 -2.8958 -0.8834
 7355SOL    HW233699   4.338   0.886   3.599 -2.5925  0.4553 -1.8337
 7356SOL     OW33700   4.007   2.640   6.145 -0.0041 -0.5808  0.2619
 7356SOL    HW133701   4.052   2.556   6.155  0.4323 -0.6318 -2.0948
 7356SOL    HW233702   4.018   2.665   6.237 -0.6011 -0.1050  0.1987
 7357SOL     OW33703   3.824   1.485   5.648 -0.0099 -0.1239  0.2336
 7357SOL    HW133704   3.731   1.509   5.641 -0.2709 -0.6285  2.0679
 7357SOL    HW233705   3.838   1.496   5.742 -0.1895  0.7170  0.1632
 7358SOL     OW33706   2.169   4.425   5.457 -0.5436  0.0953 -0.7512
 7358SOL    HW133707   2.097   4.486   5.474  0.1489  0.4797  0.7866
 7358SOL    HW233708   2.178   4.425   5.361  2.1030 -0.8842 -0.5047
 7359SOL     OW33709   4.462   1.381   7.933 -0.5155 -0.0650  0.2285
 7359SOL    HW133710   4.418   1.457   7.894 -0.4095  0.8955  1.9555
 7359SOL    HW233711   4.535   1.415   7.985 -1.7686 -0.4985  2.3011
 7360SOL     OW33712   2.975   0.801   8.426 -0.0585  0.1479  0.2396
 7360SOL    HW133713   2.995   0.781   8.518  1.3985 -0.1974 -0.1654
 7360SOL    HW233714   2.884   0.833   8.432 -0.9657 -2.5957  1.3221
 7361SOL     OW33715   4.326   4.383   4.346  0.2865 -0.0856 -0.2926
 7361SOL    HW133716   4.367   4.467   4.325 -0.5325 -0.1461 -2.1389
 7361SOL    HW233717   4.401   4.323   4.346  0.2979 -0.0936  2.2319
 7362SOL     OW33718   3.374   3.307  11.289  0.3804  0.3770 -0.1444
 7362SOL    HW133719   3.288   3.265  11.296  0.1840  0.7973 -0.0621
 7362SOL    HW233720   3.383   3.351  11.373 -2.6444  2.5414 -0.9663
 7363SOL     OW33721   2.268   4.122   8.078  0.1945  0.2937 -0.7116
 7363SOL    HW133722   2.350   4.167   8.093  0.4016 -0.0678 -0.7625
 7363SOL    HW233723   2.278   4.090   7.988  1.0458 -0.9879 -0.1622
 7364SOL     OW33724   4.162   2.040   1.455  0.5995  0.8008  0.0550
 7364SOL    HW133725   4.213   1.987   1.393 -1.0011  1.5610 -1.9119
 7364SOL    HW233726   4.220   2.056   1.530  0.2959  1.8484  0.0562
 7365SOL     OW33727   0.678   2.053   7.964  0.4073  0.1268  0.6123
 7365SOL    HW133728   0.613   2.079   8.030  0.1429 -0.6810  0.6815
 7365SOL    HW233729   0.744   2.011   8.019 -1.0423 -1.3800  1.2225
 7366SOL     OW33730   3.789   3.939   5.963  0.3710  0.2414  0.4416
 7366SOL    HW133731   3.711   3.994   5.959 -0.0259 -0.3692 -0.4795
 7366SOL    HW233732   3.848   3.985   5.903 -0.1550  2.1667  1.4160
 7367SOL     OW33733   0.875   3.377  15.380 -0.3082  0.1624 -0.2490
 7367SOL    HW133734   0.796   3.427  15.402 -0.9903 -1.7309  1.6121
 7367SOL    HW233735   0.939   3.419  15.438 -0.8027 -0.7484  0.9446
 7368SOL     OW33736   0.383   1.784   3.178 -0.8070  0.0515  0.4124
 7368SOL    HW133737   0.431   1.722   3.122  0.0759  1.2026 -0.0991
 7368SOL    HW233738   0.304   1.734   3.199  0.8967 -1.4379  3.2697
 7369SOL     OW33739   2.645   0.186   5.328 -0.3450 -0.5805 -0.2213
 7369SOL    HW133740   2.640   0.186   5.233 -0.5415  1.2886 -0.2101
 7369SOL    HW233741   2.568   0.130   5.339 -1.5424  1.1640  0.3070
 7370SOL     OW33742   2.402   3.628   1.105  0.0256 -0.4870  0.2935
 7370SOL    HW133743   2.324   3.625   1.161  0.5243 -0.5864  0.9906
 7370SOL    HW233744   2.460   3.698   1.135 -0.2056 -1.5862  3.3557
 7371SOL     OW33745   3.354   1.033  10.610 -0.2610  0.2185 -0.0665
 7371SOL    HW133746   3.305   1.087  10.672 -0.2161 -0.0110  0.1698
 7371SOL    HW233747   3.436   1.083  10.618 -0.1576  0.3844 -2.2900
 7372SOL     OW33748   3.292   2.098   6.477  0.3401  0.0814  0.1273
 7372SOL    HW133749   3.283   2.043   6.555 -0.2458  1.0568  0.7498
 7372SOL    HW233750   3.379   2.136   6.483  0.2834  0.2674 -0.2577
 7373SOL     OW33751   0.736   1.618   7.643 -0.3867 -0.5425 -0.7429
 7373SOL    HW133752   0.819   1.642   7.684  0.1419 -0.8379 -1.6615
 7373SOL    HW233753   0.752   1.544   7.585  0.3068 -0.9886  0.0121
 7374SOL     OW33754   3.750   1.574   9.605 -0.3957  0.2989  0.4879
 7374SOL    HW133755   3.749   1.610   9.517  3.6789  0.7477  0.5999
 7374SOL    HW233756   3.723   1.485   9.584  0.1093 -0.2071  1.9467
 7375SOL     OW33757   3.246   3.184   4.882  0.1180 -0.5276  0.3943
 7375SOL    HW133758   3.215   3.096   4.859 -0.0764 -0.3662  0.0358
 7375SOL    HW233759   3.189   3.246   4.836  0.9620 -0.1234 -0.0905
 7376SOL     OW33760   1.647   1.092   2.609 -0.0534  0.0355  0.5051
 7376SOL    HW133761   1.743   1.097   2.604 -0.0986  1.0201  0.6855
 7376SOL    HW233762   1.631   1.146   2.686 -0.7763 -2.9412  2.4494
 7377SOL     OW33763   4.174   0.782   3.635  0.4413  0.1907 -0.0253
 7377SOL    HW133764   4.085   0.802   3.662  2.4167  4.8405  2.9503
 7377SOL    HW233765   4.209   0.715   3.694  0.6522 -0.2491 -0.6420
 7378SOL     OW33766   0.675   0.453  13.587  0.1800 -0.4220  0.0579
 7378SOL    HW133767   0.765   0.425  13.604  0.3801  1.1484  1.5651
 7378SOL    HW233768   0.663   0.423  13.497 -2.1368 -2.2366  0.9419
 7379SOL     OW33769   1.862   2.410   5.677 -0.0469  0.9781 -0.0028
 7379SOL    HW133770   1.920   2.338   5.653 -0.4156 -0.0830  2.3635
 7379SOL    HW233771   1.790   2.360   5.716 -2.3308  2.0384 -2.8132
 7380SOL     OW33772   2.033   2.530  16.575 -0.0219 -0.3217  0.2322
 7380SOL    HW133773   2.005   2.560  16.662 -0.8883  0.0951 -0.1909
 7380SOL    HW233774   1.953   2.480  16.561  1.4599 -3.2726  2.2286
 7381SOL     OW33775   1.917   3.203  15.248  0.6870  0.0041 -0.4528
 7381SOL    HW133776   1.958   3.186  15.333 -0.3080 -0.3837 -0.0563
 7381SOL    HW233777   1.861   3.128  15.226 -0.7078  0.2510  2.3322
 7382SOL     OW33778   4.541   0.518  14.782  0.5554 -0.2461 -0.1887
 7382SOL    HW133779   4.612   0.477  14.734  1.8141 -0.9957  2.3171
 7382SOL    HW233780   4.469   0.466  14.747 -1.4185  0.4643  2.7999
 7383SOL     OW33781   1.726   2.111   8.404  0.4139  0.0505 -0.1325
 7383SOL    HW133782   1.660   2.131   8.336  0.7421 -0.3435 -0.5691
 7383SOL    HW233783   1.809   2.127   8.360  1.4607 -2.3992  0.9413
 7384SOL     OW33784   2.260   0.266   6.280  0.1175 -0.1947  0.1454
 7384SOL    HW133785   2.281   0.194   6.222 -0.1060 -0.5298  0.4790
 7384SOL    HW233786   2.318   0.334   6.245 -0.0811 -0.0056  0.1749
 7385SOL     OW33787   3.017   1.101   3.175  0.6125  1.1697 -0.3294
 7385SOL    HW133788   3.024   1.009   3.197  1.8770  1.4896  0.5867
 7385SOL    HW233789   3.108   1.127   3.190  1.0631 -0.6393  0.0888
 7386SOL     OW33790   3.067   4.437   5.804 -0.2589  0.0952 -0.0973
 7386SOL    HW133791   3.128   4.455   5.733  0.0257  2.2793  0.6906
 7386SOL    HW233792   3.032   4.352   5.776 -0.3559  0.0922  0.0329
 7387SOL     OW33793   1.752   2.353  16.582  0.3568  0.5384  0.2805
 7387SOL    HW133794   1.729   2.264  16.554  0.5926 -0.1713  2.3368
 7387SOL    HW233795   1.694   2.358  16.658  3.3675  0.7708  2.5546
 7388SOL     OW33796   2.649   4.416   8.614  1.1320 -0.3815  0.2088
 7388SOL    HW133797   2.618   4.458   8.694  0.3034 -1.3644  0.3945
 7388SOL    HW233798   2.573   4.440   8.562  0.4146 -1.4752  0.7440
 7389SOL     OW33799   1.858   1.762   2.772 -0.3126 -0.0024  0.7175
 7389SOL    HW133800   1.898   1.839   2.730  2.0799 -0.9623  1.2528
 7389SOL    HW233801   1.849   1.787   2.864  1.8394 -1.8358  1.4247
 7390SOL     OW33802   0.939   2.406   8.743 -0.4164 -0.4560 -0.0729
 7390SOL    HW133803   0.935   2.468   8.671 -2.9253  0.3231  0.7571
 7390SOL    HW233804   0.896   2.334   8.698 -1.1798 -1.6165  2.4864
 7391SOL     OW33805   1.392   4.734   0.128  0.6952  0.2319 -0.4478
 7391SOL    HW133806   1.442   4.653   0.117  0.4691 -0.3915  3.1114
 7391SOL    HW233807   1.336   4.722   0.205  0.5054 -1.6427 -0.8920
 7392SOL     OW33808   4.164   3.445   1.638  0.2260  0.3285  0.2206
 7392SOL    HW133809   4.231   3.383   1.611  0.8505  0.7074  0.9133
 7392SOL    HW233810   4.154   3.507   1.566  1.5324 -0.4043 -0.5778
 7393SOL     OW33811   1.817   0.183   4.567 -0.1759  0.3209 -0.1408
 7393SOL    HW133812   1.799   0.222   4.653 -2.8460 -1.3874  0.0763
 7393SOL    HW233813   1.731   0.188   4.525 -0.0107  0.7876 -0.4234
 7394SOL     OW33814   2.566   4.576  12.026  0.2682 -0.6678  0.5346
 7394SOL    HW133815   2.545   4.505  12.087  1.8084 -1.9200 -0.3688
 7394SOL    HW233816   2.524   4.647  12.076 -1.7389 -1.5500  0.0962
 7395SOL     OW33817   1.508   0.410   5.500 -0.3933 -0.0263 -0.1045
 7395SOL    HW133818   1.447   0.379   5.433  0.5637 -2.7798  0.3138
 7395SOL    HW233819   1.522   0.495   5.456  1.3903 -0.1065  0.3007
 7396SOL     OW33820   4.271   3.594   4.695  0.0291  0.2624 -0.6430
 7396SOL    HW133821   4.187   3.579   4.738  0.8207  0.0149  0.8049
 7396SOL    HW233822   4.292   3.678   4.736  3.7243 -2.0686  2.2554
 7397SOL     OW33823   0.007   2.476   9.706 -0.7892 -0.1446  0.3277
 7397SOL    HW133824   0.023   2.426   9.626  1.3571  0.6958  0.2266
 7397SOL    HW233825   0.023   2.404   9.767  2.3880 -0.4263 -0.8180
 7398SOL     OW33826   3.399   1.595   2.642  0.2650 -0.5682  0.4511
 7398SOL    HW133827   3.377   1.685   2.669  0.5493 -0.6923  1.0891
 7398SOL    HW233828   3.413   1.553   2.726  1.9463 -0.0897  0.4152
 7399SOL     OW33829   4.151   3.629  15.277 -0.4463 -0.1440  0.0998
 7399SOL    HW133830   4.076   3.597  15.328 -1.6704  0.6132 -1.2165
 7399SOL    HW233831   4.143   3.719  15.309 -2.7946  0.4873 -2.2997
 7400SOL     OW33832   0.570   3.731   9.348 -0.0187  0.3986  0.0300
 7400SOL    HW133833   0.568   3.811   9.399 -0.3428 -1.3051  2.6948
 7400SOL    HW233834   0.484   3.695   9.372  1.0785 -2.8666 -0.8316
 7401SOL     OW33835   3.812   3.095   9.743  0.1899  0.2822 -0.0873
 7401SOL    HW133836   3.875   3.088   9.671  1.4107  0.7262  0.9462
 7401SOL    HW233837   3.739   3.139   9.700 -1.1648 -1.4327  0.4868
 7402SOL     OW33838   1.714   1.576   4.126  0.0776 -0.2633  0.2919
 7402SOL    HW133839   1.713   1.656   4.074  0.7124 -0.3615  0.1395
 7402SOL    HW233840   1.696   1.613   4.213  0.5450  0.4458  0.0852
 7403SOL     OW33841   0.142   3.321   7.955 -0.0603 -0.3035  0.3690
 7403SOL    HW133842   0.206   3.307   7.885  2.0265 -1.9416  2.5922
 7403SOL    HW233843   0.196   3.293   8.029  0.1203 -0.8115  0.0480
 7404SOL     OW33844   1.756   0.661   8.009  0.2876 -0.1277 -0.3746
 7404SOL    HW133845   1.750   0.604   8.085 -1.3071  0.2413 -0.2338
 7404SOL    HW233846   1.670   0.666   7.968  0.0284  2.9470  0.5360
 7405SOL     OW33847   2.370   2.494   5.482 -0.4945  0.3847 -0.0797
 7405SOL    HW133848   2.442   2.543   5.521 -1.6558  1.4124  0.7761
 7405SOL    HW233849   2.375   2.407   5.523 -1.9204 -0.1104 -0.9505
 7406SOL     OW33850   3.894   2.172   2.068  0.5107  0.0753  0.3666
 7406SOL    HW133851   3.898   2.130   1.982  2.6585 -0.5498  0.7805
 7406SOL    HW233852   3.964   2.237   2.064 -0.1387  0.8331  1.2066
 7407SOL     OW33853   2.317   2.260   6.676 -0.2581  0.6080  0.2846
 7407SOL    HW133854   2.299   2.174   6.640 -1.1041  1.0982 -0.4378
 7407SOL    HW233855   2.408   2.271   6.647 -0.7388  1.2060 -0.9918
 7408SOL     OW33856   2.722   2.714   2.999  0.2649 -0.1595 -0.0573
 7408SOL    HW133857   2.666   2.733   2.924  1.4544 -0.8868 -1.1414
 7408SOL    HW233858   2.796   2.659   2.970 -1.8492 -1.6409 -2.6242
 7409SOL     OW33859   3.298   1.832   7.442  0.2676  0.2407  0.0168
 7409SOL    HW133860   3.359   1.780   7.494 -1.1274  1.0813  2.5307
 7409SOL    HW233861   3.358   1.892   7.398 -1.6977  0.7483 -1.9896
 7410SOL     OW33862   4.112   0.314   1.831  0.0816  0.0143 -0.2090
 7410SOL    HW133863   4.119   0.244   1.896 -0.6545 -1.2007 -1.4413
 7410SOL    HW233864   4.193   0.306   1.781  0.6307 -0.6257  0.7768
 7411SOL     OW33865   0.713   0.762   3.091 -0.1662 -0.4858  0.1095
 7411SOL    HW133866   0.788   0.821   3.075 -1.4802  1.1417 -0.0244
 7411SOL    HW233867   0.744   0.671   3.088  0.4424 -0.2273 -1.4153
 7412SOL     OW33868   0.859   1.863   6.098  0.0631  0.1099  0.4879
 7412SOL    HW133869   0.773   1.904   6.097  0.0090 -0.0140  0.1318
 7412SOL    HW233870   0.867   1.839   6.191 -0.3754  0.2510  0.5612
 7413SOL     OW33871   2.824   4.495   5.186 -0.4366  0.1076  0.0628
 7413SOL    HW133872   2.807   4.581   5.147 -0.4404  0.1806  0.2292
 7413SOL    HW233873   2.826   4.523   5.277 -0.2760 -0.0196  0.0982
 7414SOL     OW33874   2.554   2.879   1.101  0.1233 -0.0424  0.9119
 7414SOL    HW133875   2.476   2.934   1.098 -2.0638 -3.1464  0.4583
 7414SOL    HW233876   2.584   2.884   1.010 -2.0673  0.7484  0.2275
 7415SOL     OW33877   4.030   0.316   6.836  0.3814 -0.3249  0.0276
 7415SOL    HW133878   3.973   0.269   6.775 -0.9403  0.4938  0.6358
 7415SOL    HW233879   4.029   0.397   6.786  0.3047  0.5054  1.3718
 7416SOL     OW33880   3.899   4.426   9.424  1.3338  0.4035  0.0843
 7416SOL    HW133881   3.980   4.411   9.375  1.3617 -3.3217  1.2855
 7416SOL    HW233882   3.858   4.495   9.372 -1.5208 -1.5175 -0.2183
 7417SOL     OW33883   3.551   3.248   9.353 -0.5183 -0.3646 -0.2188
 7417SOL    HW133884   3.614   3.229   9.283 -1.4396 -0.3694 -1.0442
 7417SOL    HW233885   3.468   3.250   9.304 -0.5732  2.3991 -0.0218
 7418SOL     OW33886   1.386   3.995   1.866 -0.1475  0.5541  0.4131
 7418SOL    HW133887   1.450   4.058   1.833  0.2681 -1.7548 -3.2268
 7418SOL    HW233888   1.349   3.952   1.789  1.4413 -0.7514  0.3754
 7419SOL     OW33889   1.700   2.198   8.978 -0.2604  0.0758 -0.3964
 7419SOL    HW133890   1.756   2.189   9.055  0.2980 -0.4411 -0.8683
 7419SOL    HW233891   1.623   2.144   8.998  0.1116 -0.2193  0.2253
 7420SOL     OW33892   2.519   3.339  15.584  0.5755  0.3218  0.3649
 7420SOL    HW133893   2.610   3.335  15.557  0.1740  0.7292 -1.0515
 7420SOL    HW233894   2.491   3.423  15.546  0.6111  1.2054  2.2524
 7421SOL     OW33895   1.346   2.056   8.483 -0.1318 -0.0584  0.3785
 7421SOL    HW133896   1.432   2.073   8.445 -0.1805 -3.2511 -1.1404
 7421SOL    HW233897   1.291   2.110   8.426  0.5683 -0.7425 -0.9430
 7422SOL     OW33898   2.476   0.231   9.963  0.8148  0.8470  0.3664
 7422SOL    HW133899   2.492   0.251  10.055  2.9598  0.4477  0.0910
 7422SOL    HW233900   2.560   0.263   9.929  1.0290 -0.9309 -0.7924
 7423SOL     OW33901   4.389   2.764   5.018  0.3209  0.0239  0.2553
 7423SOL    HW133902   4.429   2.696   4.963  1.0817  0.4647  0.2565
 7423SOL    HW233903   4.296   2.750   5.002  0.6589 -0.0051 -1.5815
 7424SOL     OW33904   0.284   3.129   6.002 -0.5134  0.5429 -0.0847
 7424SOL    HW133905   0.236   3.128   5.920 -0.2042  0.9877 -0.2722
 7424SOL    HW233906   0.221   3.102   6.069 -1.8780  0.0360 -1.5733
 7425SOL     OW33907   4.661   1.772   9.080  0.4055  0.1997 -0.4365
 7425SOL    HW133908   0.018   1.796   9.095 -0.3094  2.2788  0.5773
 7425SOL    HW233909   4.661   1.679   9.099 -1.1583  0.4975  0.9773
 7426SOL     OW33910   2.800   4.452   8.021  0.1472 -0.5132  0.0693
 7426SOL    HW133911   2.826   4.365   7.991  3.1583  0.6259 -0.7107
 7426SOL    HW233912   2.853   4.464   8.100  0.2188 -1.0599  0.1016
 7427SOL     OW33913   2.031   1.342   5.372  0.0630 -0.2459 -0.2222
 7427SOL    HW133914   2.064   1.259   5.408 -1.6344 -0.4031  0.9883
 7427SOL    HW233915   2.103   1.400   5.395  0.0864  0.7384 -2.7958
 7428SOL     OW33916   2.221   1.466   4.782 -0.4817 -0.2523  0.0791
 7428SOL    HW133917   2.139   1.462   4.832 -0.7823  0.3301 -0.3514
 7428SOL    HW233918   2.243   1.559   4.776 -1.8628  0.2174  2.5019
 7429SOL     OW33919   0.924   3.225   8.542 -0.5860 -0.7599 -0.0883
 7429SOL    HW133920   0.992   3.246   8.606 -2.9280 -1.6555  2.6913
 7429SOL    HW233921   0.894   3.138   8.567  2.2637 -1.8824 -0.6291
 7430SOL     OW33922   1.041   2.429   1.127  0.7411 -0.0876  0.2480
 7430SOL    HW133923   0.996   2.362   1.178  0.5255 -0.2083 -0.1037
 7430SOL    HW233924   1.124   2.444   1.173  1.9089 -1.4320 -1.4596
 7431SOL     OW33925   3.573   0.952  10.329  0.0405  0.9157 -0.5028
 7431SOL    HW133926   3.583   1.008  10.405 -0.3414  0.1869  0.0816
 7431SOL    HW233927   3.498   0.997  10.290 -0.3148  2.0096  1.4744
 7432SOL     OW33928   1.664   2.667   3.255  0.4004 -0.0156 -0.1287
 7432SOL    HW133929   1.739   2.669   3.314 -0.0714  1.1197  0.4187
 7432SOL    HW233930   1.610   2.595   3.286 -0.6361 -0.3107 -2.5704
 7433SOL     OW33931   3.053   2.680   4.976  0.1036  0.0123 -0.0021
 7433SOL    HW133932   3.085   2.615   4.913  1.8915 -0.2334  1.1667
 7433SOL    HW233933   2.959   2.664   4.966  0.0299  1.3844 -1.6178
 7434SOL     OW33934   1.188   2.614   9.654 -0.1763 -0.4771  0.8633
 7434SOL    HW133935   1.209   2.554   9.582  1.1282 -0.1384  0.9499
 7434SOL    HW233936   1.236   2.696   9.642  0.3444 -1.3189 -2.6297
 7435SOL     OW33937   0.823   0.741   5.243  0.8315  0.4519  0.1432
 7435SOL    HW133938   0.787   0.825   5.274 -1.3251  0.3362 -2.0863
 7435SOL    HW233939   0.842   0.757   5.151  0.3451 -3.2521 -0.5990
 7436SOL     OW33940   2.720   0.929   1.492  0.1382 -0.6798 -0.4533
 7436SOL    HW133941   2.763   0.858   1.539  1.2615 -0.9450 -1.8774
 7436SOL    HW233942   2.795   0.980   1.462 -1.0572  2.2182  1.3912
 7437SOL     OW33943   4.669   1.905   8.223 -0.6560  0.2632 -0.1513
 7437SOL    HW133944   4.622   1.988   8.225  1.3667  1.3964  0.9530
 7437SOL    HW233945   4.624   1.865   8.149  0.3148 -0.6796 -0.2337
 7438SOL     OW33946   2.966   0.833   7.749  0.4495 -0.1465  0.3517
 7438SOL    HW133947   2.911   0.904   7.717 -1.7477 -1.3323  1.5021
 7438SOL    HW233948   2.973   0.861   7.840 -2.0636 -1.6830  1.0224
 7439SOL     OW33949   3.433   1.159  12.898  0.1538  0.2760  0.2822
 7439SOL    HW133950   3.481   1.125  12.973 -2.3337 -0.1842  1.6538
 7439SOL    HW233951   3.489   1.138  12.823 -1.6443 -0.9737 -0.7109
 7440SOL     OW33952   2.889   3.015   4.222 -0.3630 -0.7200  0.3228
 7440SOL    HW133953   2.842   2.974   4.295 -1.1396 -1.4091 -0.5652
 7440SOL    HW233954   2.823   3.075   4.188  1.5509  1.4954  0.5536
 7441SOL     OW33955   0.462   1.476  14.152 -0.3478  0.5842  0.2913
 7441SOL    HW133956   0.376   1.517  14.161 -0.4761  0.7126 -1.4965
 7441SOL    HW233957   0.515   1.555  14.142 -0.2289  0.4698 -0.0013
 7442SOL     OW33958   0.490   1.011  14.075 -0.3796  0.2148  0.4546
 7442SOL    HW133959   0.397   1.014  14.052 -0.3483  1.5432  0.4754
 7442SOL    HW233960   0.476   0.992  14.168  1.0390 -2.3851  0.1210
 7443SOL     OW33961   1.930   0.312   3.182  0.1174  0.2083 -0.2480
 7443SOL    HW133962   1.930   0.283   3.091 -0.5319  0.2651 -0.2681
 7443SOL    HW233963   1.861   0.379   3.179  0.4760  0.6367  1.0575
 7444SOL     OW33964   4.263   1.213   7.235  0.8940  0.0782 -0.1812
 7444SOL    HW133965   4.228   1.162   7.307 -3.0006  1.8133 -0.8272
 7444SOL    HW233966   4.185   1.264   7.212  0.2832 -1.4284 -1.4497
 7445SOL     OW33967   0.870   2.150   7.538 -0.0478 -0.0140 -0.3173
 7445SOL    HW133968   0.925   2.208   7.590 -3.0971  0.7569  1.9826
 7445SOL    HW233969   0.826   2.107   7.611  1.4923 -0.2560  0.4625
 7446SOL     OW33970   3.429   0.792   5.897 -0.6492  0.5845 -0.2821
 7446SOL    HW133971   3.357   0.733   5.919  0.5129  0.2278  2.4986
 7446SOL    HW233972   3.492   0.750   5.956  0.0550  1.6238 -0.2991
 7447SOL     OW33973   4.025   0.806   1.215  0.2033  0.2504 -0.4197
 7447SOL    HW133974   3.983   0.741   1.271  0.4524  2.0757  1.8774
 7447SOL    HW233975   3.990   0.778   1.130  1.5611 -1.6630 -0.3622
 7448SOL     OW33976   1.854   3.033   4.646 -0.1839 -0.1373  0.0781
 7448SOL    HW133977   1.898   2.954   4.615 -1.1774 -0.4734 -0.4717
 7448SOL    HW233978   1.932   3.074   4.682  0.0530  0.3503 -0.9758
 7449SOL     OW33979   0.887   3.741  15.447  0.3884 -0.0566  0.3716
 7449SOL    HW133980   0.831   3.706  15.378  0.1407  0.0931  0.4926
 7449SOL    HW233981   0.833   3.816  15.475 -0.0640  0.9696 -3.2865
 7450SOL     OW33982   3.381   0.885  12.652  0.0108  0.4133 -0.0180
 7450SOL    HW133983   3.432   0.807  12.675 -0.0652  0.7524  1.3576
 7450SOL    HW233984   3.303   0.840  12.622  0.8973 -1.1772  0.0792
 7451SOL     OW33985   1.743   0.420  13.084 -0.0233  0.2789 -0.2394
 7451SOL    HW133986   1.709   0.482  13.020 -0.7763 -1.1244 -1.1914
 7451SOL    HW233987   1.692   0.340  13.070  0.1738  0.1181 -0.0424
 7452SOL     OW33988   0.289   0.320   4.619 -0.4430  0.2133 -0.0633
 7452SOL    HW133989   0.244   0.405   4.613  1.3832  1.1544 -0.4363
 7452SOL    HW233990   0.285   0.290   4.528 -1.6018  0.6557 -0.1537
 7453SOL     OW33991   3.878   2.744   7.516  0.0992  0.1452  0.7978
 7453SOL    HW133992   3.862   2.831   7.479  0.2292 -0.2482 -0.1987
 7453SOL    HW233993   3.952   2.725   7.458 -2.1040 -0.3709 -1.8562
 7454SOL     OW33994   1.891   1.723   6.347  0.1100  0.2495 -0.7995
 7454SOL    HW133995   1.919   1.696   6.260  1.0441  0.8551 -0.6830
 7454SOL    HW233996   1.796   1.716   6.339  0.0948 -1.0813  0.5727
 7455SOL     OW33997   4.624   2.109   7.811  0.0940  0.5098  0.4957
 7455SOL    HW133998   4.706   2.061   7.797  0.3043  1.5634 -1.8730
 7455SOL    HW233999   4.568   2.074   7.741 -0.2033  0.4768  0.7521
 7456SOL     OW34000   1.253   1.159   4.218 -0.2838 -0.1351  0.1393
 7456SOL    HW134001   1.201   1.236   4.242  1.5701  1.1094  0.2292
 7456SOL    HW234002   1.295   1.142   4.302  0.2194  0.0401 -0.0769
 7457SOL     OW34003   1.528   3.954   3.337  0.2126 -0.1921 -0.4740
 7457SOL    HW134004   1.462   4.023   3.333  1.2174  0.8596  1.0605
 7457SOL    HW234005   1.477   3.883   3.299 -0.8358  0.3057  0.0208
 7458SOL     OW34006   1.071   0.416  16.087 -0.0214  0.0265  0.0960
 7458SOL    HW134007   1.034   0.363  16.157  0.7163  1.2359  1.4087
 7458SOL    HW234008   1.147   0.359  16.077 -1.1432 -1.0315 -2.2477
 7459SOL     OW34009   2.534   0.795   7.004 -0.2851  0.3159  0.2469
 7459SOL    HW134010   2.579   0.878   6.988  0.4107  0.3169  2.1218
 7459SOL    HW234011   2.502   0.803   7.094  1.0068 -1.3932  0.8602
 7460SOL     OW34012   0.073   2.606   4.896  0.1632  0.0472 -0.3165
 7460SOL    HW134013   0.110   2.625   4.982 -1.0495  1.3249 -0.0624
 7460SOL    HW234014   0.033   2.691   4.875 -0.0659 -0.2802 -1.1770
 7461SOL     OW34015   2.575   2.402   6.361 -0.1750 -0.4196 -0.1057
 7461SOL    HW134016   2.505   2.350   6.321 -0.6477  0.6182 -0.6283
 7461SOL    HW234017   2.543   2.492   6.358  1.2006  0.0170 -1.2627
 7462SOL     OW34018   2.676   1.530   3.716 -0.0763  0.2307  0.5472
 7462SOL    HW134019   2.656   1.466   3.784  0.8547  2.0129  2.4863
 7462SOL    HW234020   2.603   1.525   3.655  1.9004 -0.9017 -1.7267
 7463SOL     OW34021   4.312   1.217   9.913  0.0940 -0.0132  0.1293
 7463SOL    HW134022   4.365   1.139   9.925 -0.0831 -0.2145 -0.3948
 7463SOL    HW234023   4.376   1.272   9.866  1.5703 -0.9122  1.0980
 7464SOL     OW34024   4.207   0.519   9.075  0.4464  0.0471  0.0030
 7464SOL    HW134025   4.146   0.576   9.028 -0.8527 -1.4925 -0.2221
 7464SOL    HW234026   4.154   0.475   9.143 -1.7507  0.1947 -1.6131
 7465SOL     OW34027   4.223   2.614   5.384  0.0084 -0.4009  0.0892
 7465SOL    HW134028   4.311   2.624   5.420 -0.6732 -1.8024  2.1816
 7465SOL    HW234029   4.179   2.676   5.443 -1.2262  0.2997 -1.5543
 7466SOL     OW34030   3.065   1.584   4.016  0.1345 -0.1989 -0.1460
 7466SOL    HW134031   3.013   1.588   3.936 -0.8582  3.1611  0.6508
 7466SOL    HW234032   3.079   1.677   4.033 -2.2122  0.0131  0.5351
 7467SOL     OW34033   1.296   1.436   3.193  0.0973 -0.0130 -0.1798
 7467SOL    HW134034   1.382   1.445   3.153 -0.9728  1.5089 -2.1419
 7467SOL    HW234035   1.317   1.383   3.270  1.3267 -0.7052 -1.0100
 7468SOL     OW34036   3.701   2.543   0.974 -0.1709  0.2910  0.2333
 7468SOL    HW134037   3.721   2.624   0.927 -0.6639  0.7149  0.7428
 7468SOL    HW234038   3.791   2.513   0.983  0.4250  2.1504  0.3842
 7469SOL     OW34039   2.734   1.010  10.300 -0.5679 -0.0012  0.1716
 7469SOL    HW134040   2.650   0.965  10.294 -0.5409 -0.0208 -0.0682
 7469SOL    HW234041   2.702   1.099  10.317  0.1102  0.1469  0.6532
 7470SOL     OW34042   3.294   1.404   7.106 -0.1276  0.3862 -0.8897
 7470SOL    HW134043   3.313   1.495   7.083 -1.8900  0.6363 -1.4009
 7470SOL    HW234044   3.202   1.395   7.080 -0.5797 -0.0146  0.8879
 7471SOL     OW34045   3.704   0.103   8.269  0.3867  0.5425 -0.0085
 7471SOL    HW134046   3.798   0.097   8.253  0.2741  0.7074 -0.7365
 7471SOL    HW234047   3.673   0.155   8.195 -0.3562  0.7991  0.4778
 7472SOL     OW34048   1.754   1.139   3.920  0.1085 -0.6486 -0.1911
 7472SOL    HW134049   1.761   1.050   3.954  2.3482  0.5355  2.4734
 7472SOL    HW234050   1.816   1.183   3.979 -1.3834  0.1125  0.8285
 7473SOL     OW34051   2.247   3.505   8.621  0.6091  0.3903 -0.2459
 7473SOL    HW134052   2.286   3.420   8.605 -1.7820 -1.3588  3.2345
 7473SOL    HW234053   2.323   3.562   8.607  0.3084  0.8200 -0.1574
 7474SOL     OW34054   0.508   0.493   5.681 -0.6232  0.0764 -0.5686
 7474SOL    HW134055   0.585   0.550   5.675  1.3272 -2.6241 -0.6636
 7474SOL    HW234056   0.449   0.558   5.721  0.6837  0.8669  0.1000
 7475SOL     OW34057   0.110   2.388   4.048  0.6186  0.3296  0.2816
 7475SOL    HW134058   0.152   2.301   4.048  0.9107  0.4663  1.0600
 7475SOL    HW234059   0.165   2.439   4.108 -2.3001  1.5110  1.9445
 7476SOL     OW34060   3.441   2.429   0.721 -0.4174 -0.1492 -0.3061
 7476SOL    HW134061   3.389   2.415   0.643 -1.6806 -0.9743  0.6729
 7476SOL    HW234062   3.449   2.524   0.730  0.2332  0.0692 -3.2238
 7477SOL     OW34063   2.274   3.597   6.769 -0.7404 -0.3020  0.1781
 7477SOL    HW134064   2.295   3.683   6.806  0.7847 -1.3614  1.8027
 7477SOL    HW234065   2.207   3.566   6.829 -1.0143 -1.0240 -0.4973
 7478SOL     OW34066   4.501   2.968   9.356  0.3602 -0.3092 -0.2112
 7478SOL    HW134067   4.527   3.060   9.354  1.5708 -0.6838 -1.2270
 7478SOL    HW234068   4.578   2.932   9.313 -0.1302 -0.8124 -0.6544
 7479SOL     OW34069   1.402   3.788  13.567 -0.6441 -0.3238 -0.3846
 7479SOL    HW134070   1.325   3.839  13.542  0.6078  2.3691  1.2968
 7479SOL    HW234071   1.454   3.848  13.619  0.2521 -2.8028  1.5759
 7480SOL     OW34072   1.342   4.108   0.478 -0.2463 -0.5034  0.2245
 7480SOL    HW134073   1.360   4.163   0.402 -1.0733 -1.9231 -1.0039
 7480SOL    HW234074   1.299   4.035   0.433 -1.1741 -0.1920  0.6128
 7481SOL     OW34075   1.613   2.836  10.871 -0.0347  0.2753 -0.7969
 7481SOL    HW134076   1.697   2.829  10.917 -0.7159  0.4866  0.4839
 7481SOL    HW234077   1.627   2.899  10.800  0.3952 -2.6700 -3.3322
 7482SOL     OW34078   1.465   2.894   1.754 -0.6139 -0.3921  0.2122
 7482SOL    HW134079   1.421   2.853   1.679  0.0825  2.6169 -1.8608
 7482SOL    HW234080   1.512   2.820   1.795 -0.0695 -1.1439 -1.7568
 7483SOL     OW34081   0.939   2.169   5.952  0.1133 -0.1591 -0.3910
 7483SOL    HW134082   1.022   2.198   5.991  1.1275 -1.7752 -1.3859
 7483SOL    HW234083   0.887   2.167   6.033 -4.0389  1.8450 -2.9982
 7484SOL     OW34084   3.922   2.580  17.553 -0.9432 -0.3582  0.2618
 7484SOL    HW134085   4.007   2.615  17.527 -0.6502  0.4459  2.2752
 7484SOL    HW234086   3.908   2.621  17.639  0.4083  0.2209  0.2054
 7485SOL     OW34087   1.193   3.358  10.688  0.1953 -0.0673  0.1339
 7485SOL    HW134088   1.200   3.321  10.776 -0.3510  0.4733  0.4072
 7485SOL    HW234089   1.274   3.334  10.644 -0.4834 -1.3809 -0.4097
 7486SOL     OW34090   2.315   1.718   4.004 -0.2500  0.2815 -0.1157
 7486SOL    HW134091   2.254   1.764   4.061 -1.1055  0.0566 -0.8491
 7486SOL    HW234092   2.367   1.685   4.078  2.0186  4.7192  0.2607
 7487SOL     OW34093   3.999   3.669  16.657 -0.0655 -0.5534 -0.5999
 7487SOL    HW134094   4.079   3.666  16.605  0.3509 -0.6888  0.0420
 7487SOL    HW234095   3.970   3.756  16.632  0.9476 -0.8575 -2.8356
 7488SOL     OW34096   1.589   1.027   6.900  0.1801 -0.2113 -0.0834
 7488SOL    HW134097   1.583   1.101   6.959 -1.9386 -0.4652  0.0026
 7488SOL    HW234098   1.497   1.001   6.895  0.0175 -0.0231  1.8540
 7489SOL     OW34099   1.580   2.735   7.090  0.3515 -0.7880  0.6522
 7489SOL    HW134100   1.587   2.641   7.107  0.8530 -0.9466 -0.4133
 7489SOL    HW234101   1.613   2.758   7.003  0.4443  1.5391  1.3062
 7490SOL     OW34102   4.512   3.119  13.523 -0.0274 -0.4240 -0.3922
 7490SOL    HW134103   4.479   3.051  13.464  1.8702 -1.1664 -0.6012
 7490SOL    HW234104   4.591   3.075  13.555 -1.4733 -2.1553  0.8609
 7491SOL     OW34105   2.907   3.504   6.863  0.9396  0.1149  0.6770
 7491SOL    HW134106   2.911   3.540   6.951 -0.0361  2.2365 -0.1349
 7491SOL    HW234107   2.814   3.515   6.840  1.1020 -0.5211 -0.3181
 7492SOL     OW34108   3.738   4.031   8.660  0.2422  0.4400  0.1149
 7492SOL    HW134109   3.701   4.107   8.615  1.2813  0.7675 -0.1978
 7492SOL    HW234110   3.798   3.998   8.594 -0.3726  1.8450 -1.1446
 7493SOL     OW34111   4.545   1.778   5.996  0.1247  0.3915 -0.3792
 7493SOL    HW134112   4.595   1.714   5.946  0.9597  0.1867  0.7282
 7493SOL    HW234113   4.583   1.753   6.080 -1.8822 -0.3215  0.3062
 7494SOL     OW34114   4.362   3.976   8.741 -0.1894 -0.4278 -0.5968
 7494SOL    HW134115   4.417   3.941   8.811  1.3523  2.3866 -0.3675
 7494SOL    HW234116   4.309   3.897   8.728  0.0904 -0.5332 -1.1212
 7495SOL     OW34117   0.922   0.013   9.703 -0.0905 -0.1212  0.7000
 7495SOL    HW134118   0.835   0.036   9.735 -0.4353 -2.1684  1.2436
 7495SOL    HW234119   0.898   4.677   9.643 -2.9220  0.3411  1.3332
 7496SOL     OW34120   3.245   1.844   7.803  0.1338 -0.2801 -0.1173
 7496SOL    HW134121   3.316   1.794   7.843 -0.1914  1.0460  2.1366
 7496SOL    HW234122   3.280   1.862   7.716  0.9611  0.8073  0.4437
 7497SOL     OW34123   0.229   2.746   3.047  0.2394 -0.1315 -0.1121
 7497SOL    HW134124   0.156   2.796   3.084 -1.1592 -2.3046  0.0469
 7497SOL    HW234125   0.242   2.665   3.097 -1.3476  0.5277  1.3873
 7498SOL     OW34126   1.751   1.532   2.058  0.1904  0.9715 -0.3564
 7498SOL    HW134127   1.694   1.528   2.135  0.5451 -0.9257 -0.2119
 7498SOL    HW234128   1.717   1.454   2.014  3.8779 -0.9405  0.1800
 7499SOL     OW34129   2.291   2.269   5.121 -0.1661 -0.1311 -0.6669
 7499SOL    HW134130   2.218   2.326   5.144 -0.9038 -1.8858  1.3985
 7499SOL    HW234131   2.279   2.216   5.201 -1.7258  0.2875 -0.6201
 7500SOL     OW34132   2.925   2.979   3.561 -0.1549  0.4530 -0.2371
 7500SOL    HW134133   2.943   2.980   3.467 -0.3288  0.6587 -0.2695
 7500SOL    HW234134   2.839   2.937   3.558  1.3623 -2.7540  0.4080
 7501SOL     OW34135   4.124   2.006   6.382  0.4185  0.2915  0.2810
 7501SOL    HW134136   4.100   2.087   6.427 -2.4309  1.1736 -2.7728
 7501SOL    HW234137   4.187   1.969   6.443 -0.7259  0.1335  1.3872
 7502SOL     OW34138   0.067   0.232   3.319  0.2016 -0.0064  0.3759
 7502SOL    HW134139   0.017   0.274   3.249  0.6361  0.1102  0.1292
 7502SOL    HW234140   0.150   0.258   3.279  0.4915 -1.7224 -0.1597
 7503SOL     OW34141   2.395   0.656   4.725 -0.2307  0.3664 -0.6400
 7503SOL    HW134142   2.324   0.605   4.763 -1.1171  0.4906 -2.1129
 7503SOL    HW234143   2.353   0.717   4.663 -1.0504 -0.3919 -0.8313
 7504SOL     OW34144   2.731   0.644   5.370  0.4313 -0.0969 -0.1354
 7504SOL    HW134145   2.729   0.611   5.280 -2.3265 -1.7637  0.5164
 7504SOL    HW234146   2.731   0.564   5.422  0.8587 -0.5718 -0.8648
 7505SOL     OW34147   1.359   0.427   6.711  0.1298 -0.1259  0.1234
 7505SOL    HW134148   1.395   0.356   6.658 -1.4372 -1.2848  0.5867
 7505SOL    HW234149   1.442   0.460   6.745  0.2938  1.1106 -1.4726
 7506SOL     OW34150   0.788   3.688  12.715 -0.2417  0.1187  0.0837
 7506SOL    HW134151   0.851   3.739  12.766  1.0550 -1.1004 -0.3108
 7506SOL    HW234152   0.715   3.721  12.767 -1.0806 -1.0106 -0.3881
 7507SOL     OW34153   3.122   0.786  10.130  0.1053 -0.0401  0.5199
 7507SOL    HW134154   3.029   0.766  10.127  0.2843 -0.6639 -0.7483
 7507SOL    HW234155   3.125   0.869  10.178 -0.4279  0.6915 -0.7100
 7508SOL     OW34156   2.445   0.481   4.149  0.4215  0.0350  0.4171
 7508SOL    HW134157   2.368   0.450   4.196  0.4092 -1.0401 -0.3226
 7508SOL    HW234158   2.452   0.568   4.189 -3.1431  0.7530 -0.4965
 7509SOL     OW34159   2.882   1.881   3.003 -0.2789 -0.6370  0.0916
 7509SOL    HW134160   2.916   1.834   2.927 -2.4122 -0.4906 -0.9644
 7509SOL    HW234161   2.788   1.867   2.990  0.2167 -3.1366 -0.6811
 7510SOL     OW34162   3.511   4.069   2.872  0.0116  0.1883 -0.3052
 7510SOL    HW134163   3.526   4.148   2.821 -0.2372  0.2591 -0.2694
 7510SOL    HW234164   3.475   4.109   2.951  1.5220  0.2273  0.3668
 7511SOL     OW34165   1.346   3.792   2.136 -0.0965  0.1911  0.4572
 7511SOL    HW134166   1.294   3.757   2.209  1.0974 -0.7164  0.8623
 7511SOL    HW234167   1.284   3.858   2.106  1.3470  1.7629  0.9430
 7512SOL     OW34168   3.696   3.323  16.901 -0.1955  0.5517 -0.3723
 7512SOL    HW134169   3.657   3.251  16.950 -1.8393  1.6518 -0.0354
 7512SOL    HW234170   3.733   3.283  16.823 -0.5511 -0.6300  0.0664
 7513SOL     OW34171   2.642   2.496   7.237 -0.0345 -0.5882 -0.4609
 7513SOL    HW134172   2.704   2.425   7.218  2.3309  1.0957  0.9679
 7513SOL    HW234173   2.640   2.500   7.333 -1.9175 -2.0572 -0.4284
 7514SOL     OW34174   4.011   2.454   7.098 -0.4726  0.4996 -0.3118
 7514SOL    HW134175   4.089   2.434   7.046  0.5306  0.1682  1.3493
 7514SOL    HW234176   3.941   2.432   7.036 -2.4593  1.0894  1.7323
 7515SOL     OW34177   2.481   3.720   5.926  0.1794 -0.2696  0.4295
 7515SOL    HW134178   2.413   3.654   5.916  0.5268 -0.5886  0.1452
 7515SOL    HW234179   2.464   3.786   5.858 -2.1632 -2.6818 -1.3311
 7516SOL     OW34180   2.740   3.802   8.127 -0.0945  0.0074 -0.7477
 7516SOL    HW134181   2.752   3.848   8.211  0.5286 -0.5700 -0.5252
 7516SOL    HW234182   2.810   3.738   8.137 -1.4286 -1.1260  1.3892
 7517SOL     OW34183   4.370   4.429   7.270 -0.2449 -0.2323 -0.3981
 7517SOL    HW134184   4.304   4.488   7.306  2.1028  0.4180  2.8590
 7517SOL    HW234185   4.434   4.499   7.258 -0.6263  0.3958  1.2136
 7518SOL     OW34186   1.000   2.775  10.329  0.9892  0.1872 -0.0414
 7518SOL    HW134187   1.073   2.713  10.331  1.5821  0.8560 -1.3824
 7518SOL    HW234188   0.924   2.721  10.306  0.9946  0.2145 -0.1247
 7519SOL     OW34189   2.022   1.241   7.484 -1.1246 -0.3521 -0.3192
 7519SOL    HW134190   2.041   1.335   7.483  0.0012 -0.5658  0.3189
 7519SOL    HW234191   2.070   1.206   7.409  1.4821  0.0712  1.1447
 7520SOL     OW34192   2.126   1.529   3.066 -0.1633 -0.2379 -0.0843
 7520SOL    HW134193   2.037   1.495   3.072 -0.2308  0.0092  0.3290
 7520SOL    HW234194   2.162   1.515   3.153 -0.9638 -0.3720  0.2223
 7521SOL     OW34195   3.495   1.868  13.262  0.5340 -0.2218  0.0621
 7521SOL    HW134196   3.527   1.902  13.345 -1.6105  1.5616  0.1553
 7521SOL    HW234197   3.456   1.785  13.291  0.5244 -0.3472 -0.3120
 7522SOL     OW34198   0.608   1.510   6.761 -0.2695  0.2059 -0.2639
 7522SOL    HW134199   0.529   1.494   6.813  0.8232  1.7732  1.8636
 7522SOL    HW234200   0.596   1.449   6.688  1.1658 -1.6458  1.0575
 7523SOL     OW34201   4.389   2.949   3.196  0.0065 -0.3046 -0.5668
 7523SOL    HW134202   4.360   2.910   3.114  0.9416 -0.8837 -0.6223
 7523SOL    HW234203   4.317   2.928   3.256 -1.6748  1.8429 -1.8400
 7524SOL     OW34204   3.052   3.871   8.779  0.1333 -0.0992 -0.0405
 7524SOL    HW134205   3.082   3.954   8.817 -0.1955 -1.1221  2.4752
 7524SOL    HW234206   2.962   3.878   8.813 -0.6557 -0.1238 -2.1191
 7525SOL     OW34207   4.280   2.551   2.444 -0.0030  0.2949 -0.4367
 7525SOL    HW134208   4.342   2.569   2.515 -0.8494 -3.2915  1.2588
 7525SOL    HW234209   4.296   2.457   2.431  3.7881  0.8345  0.2788
 7526SOL     OW34210   2.629   4.072   7.445  0.1222 -0.3605  0.2903
 7526SOL    HW134211   2.617   4.167   7.451  0.6562 -0.2709 -0.0219
 7526SOL    HW234212   2.611   4.044   7.535  1.7608 -0.8542  0.4590
 7527SOL     OW34213   3.797   0.156  12.003  0.2523  0.2614  0.4705
 7527SOL    HW134214   3.770   0.193  11.919 -2.3245 -2.3291  0.1203
 7527SOL    HW234215   3.745   0.076  12.010  0.8964 -0.2469 -0.4954
 7528SOL     OW34216   0.249   3.045   4.210  0.0496 -0.3139 -0.3095
 7528SOL    HW134217   0.341   3.027   4.186 -0.2201 -1.8141 -0.2178
 7528SOL    HW234218   0.250   3.012   4.300 -0.0696 -0.8342 -0.4980
 7529SOL     OW34219   4.619   4.154  16.574  0.2288 -0.0847  0.3059
 7529SOL    HW134220   4.668   4.140  16.493 -0.8367 -0.5614 -0.2470
 7529SOL    HW234221   4.583   4.243  16.581 -5.6230 -2.0971 -4.4313
 7530SOL     OW34222   3.246   2.205   0.773 -0.3303 -0.0548  0.1074
 7530SOL    HW134223   3.181   2.269   0.804 -2.0230 -1.5842 -0.2496
 7530SOL    HW234224   3.318   2.256   0.736 -1.3656  1.9463  0.8724
 7531SOL     OW34225   0.731   2.785   9.780 -0.1058  0.0940 -0.1917
 7531SOL    HW134226   0.739   2.700   9.823 -1.8535  0.3970  0.7312
 7531SOL    HW234227   0.640   2.795   9.751  0.0966  0.7580 -0.6092
 7532SOL     OW34228   3.905   2.135   1.542  0.1165  0.1939  0.5336
 7532SOL    HW134229   3.819   2.103   1.513 -0.1883  1.4010  0.1085
 7532SOL    HW234230   3.962   2.116   1.468  0.8303  1.5837  0.7193
 7533SOL     OW34231   0.750   3.112   3.202 -0.1318  0.2272  0.2010
 7533SOL    HW134232   0.682   3.144   3.260  1.0795 -0.5041  2.0401
 7533SOL    HW234233   0.826   3.163   3.228  0.1800  0.0369 -0.3230
 7534SOL     OW34234   0.577   2.488   8.606  0.0276 -0.0105 -0.1047
 7534SOL    HW134235   0.659   2.458   8.567 -0.3108  0.2001 -0.9718
 7534SOL    HW234236   0.536   2.401   8.608  1.0768 -0.5034  0.3315
 7535SOL     OW34237   0.252   3.497   3.967  0.1556 -0.4229 -0.0313
 7535SOL    HW134238   0.282   3.585   3.944 -3.8757  0.8905 -0.2886
 7535SOL    HW234239   0.305   3.459   3.897 -1.0850  1.1365 -1.8312
 7536SOL     OW34240   4.261   3.929   6.076 -0.6847  0.0682  0.5390
 7536SOL    HW134241   4.231   3.993   6.140  0.1186  2.3778 -1.3850
 7536SOL    HW234242   4.245   3.849   6.125 -0.7004 -0.1232  0.2227
 7537SOL     OW34243   3.424   0.822   8.981 -0.2294  0.2123  0.0583
 7537SOL    HW134244   3.378   0.896   9.020  0.3072  0.7565 -0.3279
 7537SOL    HW234245   3.510   0.854   9.009 -0.2088 -0.4769  0.7650
 7538SOL     OW34246   3.988   2.021   5.428 -0.4657  0.0901 -0.5448
 7538SOL    HW134247   3.976   2.034   5.523 -1.4266  1.0510 -0.7903
 7538SOL    HW234248   4.042   2.094   5.399  0.9945 -0.5456  0.5967
 7539SOL     OW34249   1.121   2.214   1.794 -0.2896 -0.1398 -0.0997
 7539SOL    HW134250   1.168   2.136   1.823  1.6138  0.4256 -1.6578
 7539SOL    HW234251   1.052   2.190   1.731  1.3298 -1.6720 -1.2817
 7540SOL     OW34252   1.071   1.280   5.188 -0.4329 -0.5124  0.7279
 7540SOL    HW134253   1.143   1.328   5.229  0.3203 -0.5558 -0.5249
 7540SOL    HW234254   1.054   1.335   5.112  1.6881  0.2727  0.8051
 7541SOL     OW34255   2.494   4.294  12.639 -0.6616  0.1780  0.8562
 7541SOL    HW134256   2.563   4.346  12.597 -1.0798  1.0475  1.2317
 7541SOL    HW234257   2.446   4.259  12.563  2.1334 -0.8173 -0.4463
 7542SOL     OW34258   0.929   1.477   3.814  0.4992 -0.1796 -0.1006
 7542SOL    HW134259   0.869   1.545   3.784  0.0522 -0.7286 -0.4457
 7542SOL    HW234260   0.867   1.404   3.815  0.1754  0.0912 -0.7610
 7543SOL     OW34261   0.522   0.909   4.208  0.0251 -0.1606 -0.1062
 7543SOL    HW134262   0.441   0.859   4.207 -0.5897  0.8487 -0.3320
 7543SOL    HW234263   0.582   0.846   4.167  2.3480 -0.4672  3.6924
 7544SOL     OW34264   1.833   1.794   1.988 -0.2008 -0.1711  0.5431
 7544SOL    HW134265   1.798   1.707   2.006  2.2084 -1.0747  0.9206
 7544SOL    HW234266   1.751   1.835   1.960 -1.5412 -2.4271  1.1717
 7545SOL     OW34267   1.811   2.228   7.145  0.2573  0.1742  0.0966
 7545SOL    HW134268   1.867   2.179   7.084  0.7758  0.3285  0.4495
 7545SOL    HW234269   1.755   2.158   7.179 -0.1835  0.3547 -0.2641
 7546SOL     OW34270   1.418   3.504   2.362 -0.3351  0.0696  0.2995
 7546SOL    HW134271   1.373   3.568   2.418 -2.2756 -0.4861 -0.6291
 7546SOL    HW234272   1.356   3.484   2.292 -1.2020 -2.1154  1.6843
 7547SOL     OW34273   0.352   4.016  15.982  0.0041 -0.3436 -0.2116
 7547SOL    HW134274   0.270   4.043  15.938 -1.1012  1.4590  2.9852
 7547SOL    HW234275   0.412   4.061  15.923  0.6400 -1.2515 -0.2446
 7548SOL     OW34276   2.054   1.821   3.092 -0.4430  0.3393 -0.8424
 7548SOL    HW134277   2.106   1.874   3.032 -2.1530  1.2137 -1.5433
 7548SOL    HW234278   2.106   1.741   3.084 -0.4666  0.2447  0.0338
 7549SOL     OW34279   4.552   4.642   5.368  0.5025 -0.4022 -0.3183
 7549SOL    HW134280   4.491   4.597   5.426  0.5138  0.0797  0.0660
 7549SOL    HW234281   4.568   4.578   5.299  0.5922  1.7159 -2.2515
 7550SOL     OW34282   3.760   4.161   7.309 -0.1014 -0.0996  0.1318
 7550SOL    HW134283   3.824   4.230   7.325  0.4546 -0.4951 -0.4114
 7550SOL    HW234284   3.808   4.080   7.295  0.2142  0.0320  0.4809
 7551SOL     OW34285   3.826   1.331   3.286 -0.2870  0.0615 -0.6041
 7551SOL    HW134286   3.880   1.256   3.263 -0.6177  0.1798 -1.7725
 7551SOL    HW234287   3.885   1.388   3.336 -0.4262  0.8325 -1.3170
 7552SOL     OW34288   1.377   1.894   2.958  0.2055 -0.2028  0.0901
 7552SOL    HW134289   1.299   1.942   2.930  0.4610  0.0565 -0.1768
 7552SOL    HW234290   1.429   1.971   2.982  0.5992 -0.6175  0.5768
 7553SOL     OW34291   3.731   4.652   7.038 -0.3227 -0.4697  0.2209
 7553SOL    HW134292   3.636   4.659   7.042 -0.3398 -1.3600  1.6374
 7553SOL    HW234293   3.755   0.008   7.053  1.4098 -0.7595 -0.8248
 7554SOL     OW34294   1.658   2.472   7.110 -0.7975  0.0699 -0.7652
 7554SOL    HW134295   1.590   2.460   7.043  0.3015 -0.1255 -1.8376
 7554SOL    HW234296   1.687   2.382   7.124 -1.8406  0.1000  1.6006
 7555SOL     OW34297   0.802   1.935  14.557 -0.3906  0.0201  0.7855
 7555SOL    HW134298   0.873   1.961  14.497 -0.4040  0.2335  0.8639
 7555SOL    HW234299   0.844   1.870  14.613 -1.7832 -1.8360 -0.3109
 7556SOL     OW34300   4.678   3.695   3.018  0.8964  0.2333 -0.1230
 7556SOL    HW134301   4.584   3.681   3.026  0.8149  0.6492 -0.3451
 7556SOL    HW234302   4.681   3.778   2.971  0.7982  0.1507 -0.2770
 7557SOL     OW34303   3.351   3.864   0.778 -0.8065 -0.5749  0.3560
 7557SOL    HW134304   3.333   3.911   0.696  0.2950 -0.0724  0.4061
 7557SOL    HW234305   3.328   3.933   0.841  3.1427 -0.8704  2.1125
 7558SOL     OW34306   0.695   4.236   5.605 -0.8314 -0.2126 -0.0274
 7558SOL    HW134307   0.716   4.158   5.657  3.1039  1.7292  1.3086
 7558SOL    HW234308   0.782   4.254   5.570 -0.1081 -2.4340  0.6416
 7559SOL     OW34309   4.547   2.831  12.179  0.0396  0.3948  0.3884
 7559SOL    HW134310   4.568   2.745  12.216 -1.4671 -0.5860 -1.0384
 7559SOL    HW234311   4.637   2.854  12.155  0.9979 -0.9882  2.6714
 7560SOL     OW34312   3.644   0.917  11.812  0.0010 -0.2362 -0.0939
 7560SOL    HW134313   3.644   1.003  11.771 -1.3437 -0.3520 -0.3397
 7560SOL    HW234314   3.651   0.947  11.902 -1.3856  1.4749 -0.5561
 7561SOL     OW34315   0.395   2.202   2.281  0.1073 -0.2085 -0.2252
 7561SOL    HW134316   0.395   2.114   2.317 -1.7855 -1.3861 -3.0345
 7561SOL    HW234317   0.431   2.181   2.194 -1.0135  1.7776 -1.1639
 7562SOL     OW34318   1.087   3.663   4.350  0.4385 -0.0969 -0.3072
 7562SOL    HW134319   1.041   3.677   4.432  0.7384  2.0358 -0.4812
 7562SOL    HW234320   1.050   3.728   4.290  1.2397  0.3197 -0.3662
 7563SOL     OW34321   2.378   2.646   4.313  0.2852 -0.1475  0.2925
 7563SOL    HW134322   2.423   2.700   4.249  1.3205  0.1796  1.2961
 7563SOL    HW234323   2.447   2.627   4.377 -0.2150 -0.1424  0.8443
 7564SOL     OW34324   1.202   1.896   3.291  0.1558  0.0459 -0.4673
 7564SOL    HW134325   1.194   1.904   3.196 -1.8091  1.8661 -0.1632
 7564SOL    HW234326   1.218   1.803   3.307  0.7011  0.4820  1.4995
 7565SOL     OW34327   0.984   2.577  13.255 -0.3153  0.3543 -0.0576
 7565SOL    HW134328   0.907   2.631  13.235 -1.3770 -0.8469  0.8354
 7565SOL    HW234329   0.967   2.555  13.346 -0.6016 -2.2894 -0.7415
 7566SOL     OW34330   0.282   4.710   6.333 -0.4478  0.4615 -0.4015
 7566SOL    HW134331   0.350   4.650   6.363 -1.6435 -0.6043  0.1764
 7566SOL    HW234332   0.332   0.035   6.277  0.0074  0.5191  0.0671
 7567SOL     OW34333   1.268   4.042  13.553 -0.1499  0.2272 -0.2519
 7567SOL    HW134334   1.194   4.056  13.494  0.4634 -0.2341 -1.1463
 7567SOL    HW234335   1.341   4.090  13.514  0.5306 -1.5597 -1.1767
 7568SOL     OW34336   2.329   0.145   2.268  0.1473 -0.8221 -0.1518
 7568SOL    HW134337   2.252   0.102   2.231 -1.4836  1.1161  0.9722
 7568SOL    HW234338   2.371   0.073   2.315  1.5058 -0.2612 -0.5224
 7569SOL     OW34339   3.195   0.828   7.546  0.1631 -0.9554 -0.1494
 7569SOL    HW134340   3.142   0.760   7.588 -1.8184  1.8428  1.8390
 7569SOL    HW234341   3.141   0.877   7.484 -0.0406 -0.7507  0.1911
 7570SOL     OW34342   1.117   2.036   8.623 -0.8882  0.0729  0.2183
 7570SOL    HW134343   1.151   1.997   8.704 -0.6779 -1.2945 -0.5431
 7570SOL    HW234344   1.202   2.060   8.588  0.0428 -2.0872  1.0204
 7571SOL     OW34345   2.119   2.225   5.877 -0.0248  0.0672 -0.1596
 7571SOL    HW134346   2.068   2.292   5.922  1.2224  0.7418  0.2568
 7571SOL    HW234347   2.049   2.199   5.817 -0.7694 -0.3213  0.8640
 7572SOL     OW34348   0.987   0.966  12.631 -0.4691 -0.3392 -0.3653
 7572SOL    HW134349   1.007   0.907  12.558 -2.9210  1.1070 -2.2068
 7572SOL    HW234350   0.893   0.969  12.617  0.0307  1.3231 -3.3255
 7573SOL     OW34351   3.129   3.713   3.764 -0.2782 -0.1584 -0.7585
 7573SOL    HW134352   3.057   3.769   3.794  0.6724  2.4737 -3.4586
 7573SOL    HW234353   3.134   3.729   3.670  0.2558 -1.1565 -0.9040
 7574SOL     OW34354   4.014   2.277  10.962  0.2636 -0.3511  0.8568
 7574SOL    HW134355   3.943   2.252  10.903  1.5461 -0.6607 -0.5505
 7574SOL    HW234356   4.012   2.372  10.963  2.0492 -0.3127  0.6035
 7575SOL     OW34357   3.368   3.822   8.898 -0.5141 -0.6799 -0.2645
 7575SOL    HW134358   3.358   3.896   8.837  0.6325  0.3353  0.7894
 7575SOL    HW234359   3.462   3.804   8.889  0.1953  2.7371  0.1215
 7576SOL     OW34360   0.814   3.697  10.581 -0.1525  0.2966  0.2409
 7576SOL    HW134361   0.877   3.640  10.625 -0.7461 -0.7516 -0.2828
 7576SOL    HW234362   0.798   3.646  10.502 -0.0855 -1.0237  1.0733
 7577SOL     OW34363   1.485   0.257   7.299 -0.1289  0.2715  0.0186
 7577SOL    HW134364   1.581   0.259   7.298 -0.1942  2.8986 -0.5745
 7577SOL    HW234365   1.475   0.198   7.374  0.1121 -1.0672 -1.0044
 7578SOL     OW34366   0.972   4.517   4.980 -0.0897  0.3989 -0.4954
 7578SOL    HW134367   1.051   4.570   4.972  0.1666 -0.3525 -3.0287
 7578SOL    HW234368   0.913   4.559   4.918 -0.7169  0.0718 -0.1288
 7579SOL     OW34369   1.610   3.620  14.856 -0.3335  0.6416 -0.2010
 7579SOL    HW134370   1.550   3.675  14.906 -0.3362  0.1559  0.3269
 7579SOL    HW234371   1.579   3.641  14.768 -0.1354  2.9274  0.2791
 7580SOL     OW34372   2.770   2.923   6.822  0.0585 -0.0105  0.1159
 7580SOL    HW134373   2.726   2.842   6.797  0.9247 -0.5994  0.4771
 7580SOL    HW234374   2.741   2.928   6.914  1.2140 -1.8613  0.5796
 7581SOL     OW34375   1.054   1.288  11.889  0.1473 -0.4103 -0.0412
 7581SOL    HW134376   1.091   1.302  11.801 -0.1338 -2.6763 -0.5081
 7581SOL    HW234377   1.115   1.222  11.922 -1.6904 -1.1322  1.9390
 7582SOL     OW34378   2.981   1.107   3.543  0.6520  0.6468  0.5142
 7582SOL    HW134379   2.971   1.126   3.450 -0.2195 -2.2252  0.0131
 7582SOL    HW234380   2.991   1.190   3.589 -0.6472  1.2190 -0.2510
 7583SOL     OW34381   0.255   1.005  13.670  0.8328  0.1405 -0.5175
 7583SOL    HW134382   0.212   1.022  13.586 -1.4555  0.8283  0.8122
 7583SOL    HW234383   0.301   1.089  13.679  1.3210 -0.2201  0.3466
 7584SOL     OW34384   3.549   2.701  14.132 -0.2817  0.2471  0.2324
 7584SOL    HW134385   3.485   2.706  14.061  0.0531  1.0693 -0.0168
 7584SOL    HW234386   3.580   2.791  14.142 -0.9527  0.4780  0.3038
 7585SOL     OW34387   0.571   4.367   3.911 -0.7787  0.2256 -0.0242
 7585SOL    HW134388   0.641   4.312   3.877 -0.0090 -0.0122  1.9466
 7585SOL    HW234389   0.497   4.322   3.870 -0.8682 -0.5124  0.9566
 7586SOL     OW34390   2.708   2.063  15.084 -0.4213 -0.1349 -0.3958
 7586SOL    HW134391   2.692   2.051  14.991 -1.0127  2.2012 -0.5801
 7586SOL    HW234392   2.804   2.066  15.083 -0.4743  1.0915 -1.1271
 7587SOL     OW34393   3.910   3.801   3.787 -0.0395  0.2986  0.3411
 7587SOL    HW134394   3.933   3.727   3.731 -0.4921  1.4430 -1.3797
 7587SOL    HW234395   3.814   3.798   3.786  0.0159 -2.5509  3.4844
 7588SOL     OW34396   4.278   1.918  14.846 -0.3427  0.0666  0.6513
 7588SOL    HW134397   4.234   1.937  14.929 -0.2182  1.2943  0.4271
 7588SOL    HW234398   4.201   1.895  14.795 -0.1762  2.5715 -0.6796
 7589SOL     OW34399   2.153   4.687   2.797  0.1299 -0.4286 -0.1099
 7589SOL    HW134400   2.129   4.701   2.705  0.8740 -1.2273 -0.4257
 7589SOL    HW234401   2.212   4.611   2.797 -0.0938 -0.5989  0.4910
 7590SOL     OW34402   3.319   1.481   4.075 -0.1797  0.0138 -0.4607
 7590SOL    HW134403   3.238   1.527   4.050  0.6844  1.1597 -1.1634
 7590SOL    HW234404   3.386   1.506   4.012  0.5836 -2.0836 -0.4685
 7591SOL     OW34405   0.778   0.139   7.675 -0.6049 -0.3133 -0.3562
 7591SOL    HW134406   0.791   0.233   7.669  0.1703 -0.4937 -1.5484
 7591SOL    HW234407   0.685   0.131   7.657 -0.8054  0.1274  0.4758
 7592SOL     OW34408   2.526   0.867  10.154  0.3564  0.5721 -0.4219
 7592SOL    HW134409   2.489   0.815  10.083  0.5843 -1.1606  0.7426
 7592SOL    HW234410   2.534   0.950  10.106  1.7350  2.1383  2.4506
 7593SOL     OW34411   0.580   3.473  13.532 -0.4591  0.7703  0.0729
 7593SOL    HW134412   0.610   3.394  13.487 -2.1201  0.0040  0.3367
 7593SOL    HW234413   0.487   3.456  13.542  0.1022 -0.8205  2.6879
 7594SOL     OW34414   2.870   2.067   8.554  0.1847  0.1277  0.6625
 7594SOL    HW134415   2.830   2.001   8.498 -0.2249  1.3294 -0.4680
 7594SOL    HW234416   2.837   2.145   8.510 -0.3370  0.5027  1.7068
 7595SOL     OW34417   4.683   3.103   9.137  0.0114 -0.6565  0.4008
 7595SOL    HW134418   4.716   3.172   9.079  0.9321 -0.0379  1.6625
 7595SOL    HW234419   4.694   3.135   9.226  3.0693 -0.2064 -0.1169
 7596SOL     OW34420   0.398   1.715  15.491  0.2666  0.4420  0.1273
 7596SOL    HW134421   0.309   1.679  15.491  0.2911  0.3887  1.4325
 7596SOL    HW234422   0.392   1.788  15.553  0.8261 -1.2025  2.1272
 7597SOL     OW34423   1.620   3.957   0.891  0.1579  0.4191 -0.1013
 7597SOL    HW134424   1.526   3.967   0.907  0.2243  1.2989 -0.2918
 7597SOL    HW234425   1.643   4.049   0.882 -1.9116  1.0580  1.2157
 7598SOL     OW34426   4.022   3.850  16.381 -0.3575  0.0081  0.7667
 7598SOL    HW134427   4.047   3.914  16.314 -1.4326  0.1213  0.4625
 7598SOL    HW234428   3.971   3.910  16.435 -1.9630 -1.4931  0.9200
 7599SOL     OW34429   0.260   4.585   5.672  0.0283  0.4272  0.4200
 7599SOL    HW134430   0.237   4.605   5.581  2.8656  1.8991  0.0284
 7599SOL    HW234431   0.265   4.490   5.662 -0.8069  0.2829  1.4025
 7600SOL     OW34432   2.103   0.992   1.415 -0.8676  0.0589  0.3481
 7600SOL    HW134433   2.016   1.001   1.453 -0.3464  1.4442  1.2537
 7600SOL    HW234434   2.122   1.077   1.373  0.5548  0.8218  2.5259
 7601SOL     OW34435   4.187   3.815   1.629 -0.7302  0.1770 -0.4616
 7601SOL    HW134436   4.114   3.816   1.691 -0.3549 -1.8145  0.0120
 7601SOL    HW234437   4.158   3.755   1.561 -0.4203 -0.9603  0.4257
 7602SOL     OW34438   1.676   0.837   3.013 -0.1005  0.4165  0.2718
 7602SOL    HW134439   1.692   0.776   2.941 -1.7204 -1.8171  1.8365
 7602SOL    HW234440   1.745   0.815   3.075  2.0543 -0.7072 -2.4909
 7603SOL     OW34441   2.042   4.051   8.538  0.1358 -0.0254  0.6076
 7603SOL    HW134442   2.130   4.045   8.500 -0.5596 -0.2746 -0.9931
 7603SOL    HW234443   1.989   4.041   8.459  0.1554  0.5080  0.5226
 7604SOL     OW34444   3.629   2.617  15.249 -0.0567 -0.1620  0.0038
 7604SOL    HW134445   3.686   2.547  15.220  0.7047  0.8253 -0.8747
 7604SOL    HW234446   3.602   2.666  15.171  1.9469  1.7902  0.5358
 7605SOL     OW34447   3.919   3.981   2.745 -0.1511 -0.4371 -0.0993
 7605SOL    HW134448   3.978   3.906   2.738 -2.7577 -2.6037  0.6350
 7605SOL    HW234449   3.924   4.000   2.838  1.1408 -0.9982 -0.0631
 7606SOL     OW34450   4.694   1.489   3.632 -0.2531  0.0724  0.0751
 7606SOL    HW134451   4.685   1.545   3.555 -1.3997  0.6355  0.6132
 7606SOL    HW234452   4.669   1.546   3.705 -3.2261  1.3078 -1.9160
 7607SOL     OW34453   2.631   4.145   5.212 -0.0132 -0.0119  0.4261
 7607SOL    HW134454   2.678   4.171   5.133 -1.4584 -2.9827 -1.3753
 7607SOL    HW234455   2.598   4.232   5.236 -1.3487 -0.8475  1.6195
 7608SOL     OW34456   0.387   1.408   2.837  0.6026 -0.2774 -0.4011
 7608SOL    HW134457   0.467   1.362   2.811 -0.8551 -1.6816 -2.4193
 7608SOL    HW234458   0.322   1.339   2.824 -1.5178  1.4518  1.2279
 7609SOL     OW34459   2.650   2.137   1.131  0.1807  0.2188 -0.2497
 7609SOL    HW134460   2.665   2.132   1.225  0.7747 -0.9748 -0.4013
 7609SOL    HW234461   2.725   2.084   1.103 -1.0101 -0.8025 -1.5465
 7610SOL     OW34462   1.448   2.166  16.655 -0.3494  0.2364  0.4537
 7610SOL    HW134463   1.536   2.130  16.666  0.2334  2.4690  3.2247
 7610SOL    HW234464   1.447   2.160  16.560  1.1831  1.0062  0.3855
 7611SOL     OW34465   2.858   1.447   3.412 -0.3919  0.1473  0.1331
 7611SOL    HW134466   2.798   1.512   3.374  0.7195  1.3000  0.3563
 7611SOL    HW234467   2.815   1.366   3.385 -0.2416  1.1245 -3.0881
 7612SOL     OW34468   3.245   0.305   2.499 -0.0314  0.7167 -0.4122
 7612SOL    HW134469   3.195   0.361   2.559 -0.6208 -0.3229  0.0625
 7612SOL    HW234470   3.176   0.271   2.443 -0.3684 -1.8400  1.5651
 7613SOL     OW34471   1.404   4.586   3.884  0.5733  0.3447  0.1389
 7613SOL    HW134472   1.346   4.512   3.902  0.6347  0.5094  1.0074
 7613SOL    HW234473   1.483   4.542   3.853  1.2782  0.7961  1.3181
 7614SOL     OW34474   3.871   3.789   6.178  0.0901 -0.1170 -0.1055
 7614SOL    HW134475   3.965   3.805   6.173  0.1459 -0.9371 -1.5178
 7614SOL    HW234476   3.831   3.862   6.131  0.0237  1.8585  3.0163
 7615SOL     OW34477   2.387   0.837   8.168  0.0072  0.8299  0.0169
 7615SOL    HW134478   2.482   0.837   8.180  0.2551 -2.9218 -1.8734
 7615SOL    HW234479   2.366   0.873   8.081  1.1399  0.2976 -0.4810
 7616SOL     OW34480   4.296   1.010   8.562  0.7484  0.1277 -0.2739
 7616SOL    HW134481   4.365   0.959   8.520  2.4385  1.7990  0.4468
 7616SOL    HW234482   4.348   1.087   8.587  1.2075  0.8062 -3.2904
 7617SOL     OW34483   0.139   3.930   2.751  0.1186  0.2198  0.3937
 7617SOL    HW134484   0.108   3.944   2.841  1.5694 -0.2975  0.9771
 7617SOL    HW234485   0.234   3.942   2.755  0.2778 -0.1192 -2.4055
 7618SOL     OW34486   4.556   2.201  11.935  0.1176  0.2272 -0.1843
 7618SOL    HW134487   4.597   2.283  11.964 -0.3223 -0.1662  1.5364
 7618SOL    HW234488   4.606   2.138  11.986  3.3839 -0.0486 -3.6684
 7619SOL     OW34489   3.495   2.028   5.624 -0.0236  0.0667 -0.8899
 7619SOL    HW134490   3.513   2.099   5.562 -1.8521  0.5126 -0.8990
 7619SOL    HW234491   3.401   2.038   5.633 -0.3574 -3.4491 -0.2985
 7620SOL     OW34492   2.379   3.991   0.047  0.4203 -0.5812 -0.0339
 7620SOL    HW134493   2.361   3.898   0.032 -1.0238 -0.1890 -0.7213
 7620SOL    HW234494   2.454   3.986   0.105  0.0685 -1.1239  0.3786
 7621SOL     OW34495   2.054   2.359   1.784 -0.2157  0.4092 -0.1046
 7621SOL    HW134496   2.116   2.330   1.851  0.4515  0.1413 -0.8478
 7621SOL    HW234497   2.115   2.403   1.725 -1.7533 -1.3492 -3.0037
 7622SOL     OW34498   1.875   0.840   8.323 -0.5126 -0.5479 -0.5950
 7622SOL    HW134499   1.954   0.826   8.271 -0.0525 -0.1885  0.0151
 7622SOL    HW234500   1.826   0.896   8.262  1.3501  0.4103 -1.2040
 7623SOL     OW34501   0.659   4.048  16.366  0.1956  0.3398  0.2198
 7623SOL    HW134502   0.733   4.016  16.314 -1.0588  0.0104 -1.3574
 7623SOL    HW234503   0.643   3.972  16.422  1.7970  0.9925  1.5549
 7624SOL     OW34504   4.527   3.774   6.195  0.2014  1.0989 -0.1315
 7624SOL    HW134505   4.584   3.850   6.205 -0.3115  1.2171  1.7870
 7624SOL    HW234506   4.519   3.756   6.288  0.6840 -1.0956 -0.5120
 7625SOL     OW34507   1.497   2.353  15.751 -0.1813 -0.0066 -0.2211
 7625SOL    HW134508   1.457   2.424  15.701  0.7142 -1.3569 -2.8633
 7625SOL    HW234509   1.416   2.316  15.787 -0.8804  1.2240 -0.5211
 7626SOL     OW34510   3.986   1.564  12.915  0.2358  0.5338 -0.2714
 7626SOL    HW134511   4.051   1.615  12.868  0.7008 -0.0817 -0.2966
 7626SOL    HW234512   3.912   1.592  12.861  0.0212  1.8690  0.7264
 7627SOL     OW34513   2.759   2.639   9.933 -0.5591  0.3573 -0.1732
 7627SOL    HW134514   2.799   2.689   9.861 -0.1122  0.1739 -0.0457
 7627SOL    HW234515   2.704   2.575   9.887 -0.8093 -0.1509  0.8441
 7628SOL     OW34516   2.631   3.887   2.807 -0.3465 -0.2639 -0.0128
 7628SOL    HW134517   2.630   3.850   2.895  2.1226 -1.4885 -0.4971
 7628SOL    HW234518   2.559   3.831   2.781  1.1437 -2.0120 -0.3380
 7629SOL     OW34519   3.061   0.613   7.672  0.0420  0.0953 -0.1356
 7629SOL    HW134520   3.029   0.697   7.706 -1.8605  0.0586 -1.8339
 7629SOL    HW234521   3.098   0.579   7.753 -1.3563 -0.7535  0.1501
 7630SOL     OW34522   0.755   2.244   1.839 -0.2636  0.0696 -0.2711
 7630SOL    HW134523   0.812   2.317   1.866  1.2283 -1.5765  0.9998
 7630SOL    HW234524   0.800   2.169   1.877  0.2102  0.4989  0.0251
 7631SOL     OW34525   0.865   0.226   4.842  0.1278 -0.3818 -0.1784
 7631SOL    HW134526   0.782   0.180   4.854 -0.0958  0.6828  2.1670
 7631SOL    HW234527   0.884   0.191   4.755 -1.5381 -1.0307 -0.2811
 7632SOL     OW34528   0.721   3.612   9.147 -0.1379  0.1459  0.1662
 7632SOL    HW134529   0.687   3.650   9.228 -1.0457  0.9324 -0.5811
 7632SOL    HW234530   0.651   3.633   9.085  0.8295 -0.8739 -1.2566
 7633SOL     OW34531   4.355   2.437   0.235 -0.5660  0.3617 -0.2699
 7633SOL    HW134532   4.281   2.454   0.176 -0.3919  1.9532 -0.0183
 7633SOL    HW234533   4.376   2.345   0.220  1.7112  0.7077  0.8962
 7634SOL     OW34534   4.142   1.029   5.116  0.2145  0.8180  0.2107
 7634SOL    HW134535   4.234   1.005   5.111 -0.2378 -0.9052  0.2754
 7634SOL    HW234536   4.117   1.002   5.205  1.3579 -1.9339 -0.3134
 7635SOL     OW34537   2.056   0.400   3.427  0.2536 -0.5967 -0.1961
 7635SOL    HW134538   1.999   0.475   3.408  0.0940 -0.4934  0.6875
 7635SOL    HW234539   2.040   0.334   3.359  1.1413 -2.3563  1.3089
 7636SOL     OW34540   2.271   3.933  12.443  0.2745  0.0260  0.5354
 7636SOL    HW134541   2.269   3.922  12.538 -1.7781  0.9442  0.5983
 7636SOL    HW234542   2.289   3.845  12.409 -2.9636  0.1981 -1.6514
 7637SOL     OW34543   0.057   3.025   9.633 -0.9546  0.1693 -0.2661
 7637SOL    HW134544   0.037   2.931   9.632 -0.5236  0.0821 -1.1390
 7637SOL    HW234545   0.149   3.019   9.605 -1.0672 -1.8490 -0.2654
 7638SOL     OW34546   1.035   1.670  12.168  0.3975 -0.7046  0.3102
 7638SOL    HW134547   0.947   1.644  12.191 -0.9559  1.9630 -1.7789
 7638SOL    HW234548   1.013   1.742  12.109 -0.1164 -0.9282  0.2305
 7639SOL     OW34549   2.572   1.345   7.269  0.1179  0.3541 -0.3265
 7639SOL    HW134550   2.629   1.352   7.345 -0.8935  3.2155  0.1827
 7639SOL    HW234551   2.556   1.436   7.244 -0.0245  0.6443  0.8408
 7640SOL     OW34552   0.607   1.573   6.124  0.3277  0.2359 -0.0771
 7640SOL    HW134553   0.645   1.527   6.199 -1.5445 -2.1183 -0.5799
 7640SOL    HW234554   0.587   1.658   6.163  0.3304  0.3563 -0.3352
 7641SOL     OW34555   1.664   4.347  17.351 -0.2822  0.3567 -0.0931
 7641SOL    HW134556   1.709   4.327  17.268  1.1612 -0.1424  0.8101
 7641SOL    HW234557   1.680   4.441  17.359 -0.2597  0.1607  2.0246
 7642SOL     OW34558   2.923   3.072   7.852  0.3298  0.3233  0.1560
 7642SOL    HW134559   2.936   3.091   7.945 -0.8976  0.8161  0.2259
 7642SOL    HW234560   2.835   3.103   7.835  0.1729  0.8164  1.8513
 7643SOL     OW34561   3.445   3.920   5.862  0.5809 -0.2706  0.0947
 7643SOL    HW134562   3.491   3.888   5.939  0.1202 -2.5576 -0.5966
 7643SOL    HW234563   3.452   4.015   5.875 -1.3669  0.0710 -1.2957
 7644SOL     OW34564   4.052   3.164   4.404  0.3604 -0.0130  0.0183
 7644SOL    HW134565   4.099   3.150   4.486  0.7624  0.8521 -0.0688
 7644SOL    HW234566   4.037   3.073   4.378 -0.5553 -0.4385  2.0199
 7645SOL     OW34567   3.572   3.189   6.348 -0.5362 -0.4453 -0.0677
 7645SOL    HW134568   3.586   3.190   6.254  0.2264 -2.6086  0.0234
 7645SOL    HW234569   3.523   3.268   6.369 -1.7737 -1.2076 -0.0691
 7646SOL     OW34570   3.877   1.563  14.400  0.1887  0.2076 -0.2300
 7646SOL    HW134571   3.877   1.658  14.413  0.5093 -0.0936  1.9961
 7646SOL    HW234572   3.782   1.549  14.395  0.1959 -0.3881  1.2715
 7647SOL     OW34573   1.859   0.438   2.906 -0.1798  0.7214  0.1317
 7647SOL    HW134574   1.847   0.512   2.846  0.4791 -0.6230 -1.6623
 7647SOL    HW234575   1.840   0.482   2.989 -2.1857  0.9138 -0.4244
 7648SOL     OW34576   4.006   0.685   2.928  0.1722 -0.9885 -0.3290
 7648SOL    HW134577   3.936   0.666   2.866  1.9795  0.3967 -2.7757
 7648SOL    HW234578   3.962   0.740   2.992 -1.6020  0.7624 -3.0813
 7649SOL     OW34579   1.082   3.188   1.112  0.2628 -0.4538 -0.2495
 7649SOL    HW134580   1.122   3.219   1.194  1.0831  1.7590 -1.4995
 7649SOL    HW234581   1.132   3.108   1.097 -0.4284 -1.0619  0.6308
 7650SOL     OW34582   1.850   3.324   4.930  0.0971 -0.2824  0.6819
 7650SOL    HW134583   1.886   3.263   4.994  0.9380  2.7313  3.0827
 7650SOL    HW234584   1.808   3.387   4.988 -2.4304 -1.9665  0.6856
 7651SOL     OW34585   1.582   2.136   2.201  0.0743  0.4903  0.4185
 7651SOL    HW134586   1.616   2.047   2.211 -0.5105  0.2412  0.1762
 7651SOL    HW234587   1.606   2.174   2.286 -0.5550 -0.1692  0.8883
 7652SOL     OW34588   3.613   2.314   3.842  0.2888  0.0292 -0.6607
 7652SOL    HW134589   3.567   2.277   3.767  1.1373 -2.4256  0.0527
 7652SOL    HW234590   3.606   2.248   3.910 -1.0754  0.5244 -0.3224
 7653SOL     OW34591   1.438   3.225   7.109  0.2561  0.1700 -0.0045
 7653SOL    HW134592   1.501   3.207   7.039  0.1974 -0.3476  0.0754
 7653SOL    HW234593   1.381   3.285   7.061  0.4468  2.4792  2.6698
 7654SOL     OW34594   4.192   3.494  16.467  0.1394  0.3401 -0.6855
 7654SOL    HW134595   4.104   3.513  16.435  1.5201  1.4910 -3.8203
 7654SOL    HW234596   4.238   3.570  16.432  0.3110  0.6440  0.2152
 7655SOL     OW34597   4.537   1.944   9.959 -0.3155 -0.3032  0.1518
 7655SOL    HW134598   4.460   1.996   9.981 -0.6388 -0.5204 -0.4633
 7655SOL    HW234599   4.583   1.963  10.041 -1.3191  0.0958  0.6263
 7656SOL     OW34600   1.792   1.344   4.365 -0.9724  0.1277  0.1586
 7656SOL    HW134601   1.720   1.407   4.358  1.6047  3.2358  1.5449
 7656SOL    HW234602   1.819   1.333   4.274 -1.0343 -1.4585  0.3274
 7657SOL     OW34603   2.579   4.242   8.931  0.2426 -0.1953 -0.1474
 7657SOL    HW134604   2.501   4.185   8.927 -0.7914  1.1431  0.8555
 7657SOL    HW234605   2.554   4.331   8.909 -1.8547 -0.4701  1.1191
 7658SOL     OW34606   3.805   3.245   3.797  0.6047  0.3079  0.1863
 7658SOL    HW134607   3.761   3.302   3.860  0.7157 -0.1724  0.7012
 7658SOL    HW234608   3.756   3.163   3.803  0.5487  0.2034 -1.6811
 7659SOL     OW34609   1.290   3.221   4.190 -0.2111 -0.1884 -0.1021
 7659SOL    HW134610   1.269   3.310   4.160 -0.8858 -0.7165 -1.1861
 7659SOL    HW234611   1.300   3.250   4.281 -1.8730 -1.0212  0.3365
 7660SOL     OW34612   2.037   0.421   6.548 -0.1505 -0.4435 -0.5313
 7660SOL    HW134613   2.008   0.395   6.461 -1.9446 -3.6271  1.0099
 7660SOL    HW234614   2.106   0.355   6.554  0.9290  0.7651  0.2575
 7661SOL     OW34615   0.066   0.903  16.063  1.0436 -0.1636  0.3842
 7661SOL    HW134616   0.007   0.979  16.064  1.9912  0.5611  1.0214
 7661SOL    HW234617   0.044   0.873  16.151  2.0210  0.6083  0.8839
 7662SOL     OW34618   4.718   2.808  17.002 -1.3550  0.2093 -0.2101
 7662SOL    HW134619   0.020   2.863  17.071 -0.6867 -2.3144  1.4447
 7662SOL    HW234620   4.726   2.869  16.928 -1.4121 -1.2774 -1.4295
 7663SOL     OW34621   2.066   2.659   1.779  0.2430 -0.4470  0.4938
 7663SOL    HW134622   2.110   2.729   1.732  1.1144 -1.6754 -0.5299
 7663SOL    HW234623   2.006   2.619   1.716  0.5135  0.0900 -0.1039
 7664SOL     OW34624   0.022   3.317   6.091 -0.2017 -0.2350  0.0563
 7664SOL    HW134625   4.681   3.297   6.145 -0.1144 -2.5549 -0.6880
 7664SOL    HW234626   4.720   3.324   6.003 -0.9569  0.4717  0.4330
 7665SOL     OW34627   3.412   3.534  15.887 -0.2936 -0.1490  0.2182
 7665SOL    HW134628   3.492   3.497  15.852 -0.6850  0.0006 -0.8295
 7665SOL    HW234629   3.410   3.489  15.971 -0.1281  0.3425  0.4895
 7666SOL     OW34630   3.909   2.247   7.879  0.0196  0.4276  0.2149
 7666SOL    HW134631   3.844   2.197   7.930 -1.8688 -0.0698 -2.6593
 7666SOL    HW234632   3.850   2.315   7.845 -1.4127 -1.6785 -1.5083
 7667SOL     OW34633   0.363   4.489  12.370  0.0615  0.3494  0.1514
 7667SOL    HW134634   0.311   4.500  12.291 -0.9157  2.2195  1.0443
 7667SOL    HW234635   0.453   4.499  12.340  0.0264 -0.3619 -0.1878
 7668SOL     OW34636   0.579   4.187   1.843 -0.2043  0.3084  0.4462
 7668SOL    HW134637   0.651   4.227   1.795 -1.1838  0.3748 -0.9687
 7668SOL    HW234638   0.594   4.219   1.932  0.2215 -1.0241  0.8508
 7669SOL     OW34639   3.743   3.407   9.665  0.4549 -0.4068 -0.6198
 7669SOL    HW134640   3.775   3.417   9.755 -0.8639 -0.8398 -0.1026
 7669SOL    HW234641   3.805   3.467   9.623 -0.2714  1.6958  1.3286
 7670SOL     OW34642   4.606   2.042   3.186 -0.0394 -0.5085  0.5599
 7670SOL    HW134643   4.571   2.057   3.274  0.6188 -0.1515  0.7614
 7670SOL    HW234644   4.660   2.120   3.171 -2.4834  1.5399  2.2018
 7671SOL     OW34645   0.187   4.280  12.515  0.4459 -0.3532 -0.0894
 7671SOL    HW134646   0.252   4.350  12.512 -1.0624  1.1091  1.2349
 7671SOL    HW234647   0.184   4.270  12.420  0.5775 -0.1870 -0.1109
 7672SOL     OW34648   1.147   1.335   0.702 -0.7178 -0.0625 -0.3892
 7672SOL    HW134649   1.121   1.328   0.794 -1.0605 -0.9205 -0.5482
 7672SOL    HW234650   1.114   1.420   0.673  0.1388  0.7044  0.8751
 7673SOL     OW34651   1.174   0.056   5.772  0.1022  0.4800 -0.1468
 7673SOL    HW134652   1.142   0.031   5.685 -0.0599 -0.4654  0.1959
 7673SOL    HW234653   1.138   0.144   5.778  0.1073  0.3922  1.1326
 7674SOL     OW34654   3.875   2.388  13.057  0.2850 -1.3529  0.3933
 7674SOL    HW134655   3.808   2.333  13.016  0.0830 -0.5752 -0.3196
 7674SOL    HW234656   3.833   2.409  13.140 -0.1221  2.3263 -0.7505
 7675SOL     OW34657   1.060   3.166   3.220  0.1037  0.0275 -0.4203
 7675SOL    HW134658   1.057   3.256   3.190  0.1439 -0.3680 -1.6130
 7675SOL    HW234659   1.087   3.177   3.311  2.2022  0.8917 -1.1652
 7676SOL     OW34660   0.670   3.142   4.905 -0.5793  0.1690  0.2729
 7676SOL    HW134661   0.688   3.050   4.923 -0.9004 -0.3158 -1.9597
 7676SOL    HW234662   0.617   3.157   4.983 -0.7185  0.0556  0.1998
 7677SOL     OW34663   2.656   2.072   1.400 -0.1664  0.2861  0.0810
 7677SOL    HW134664   2.606   1.996   1.431  2.1511 -1.0336  0.6111
 7677SOL    HW234665   2.670   2.108   1.487  2.3323 -0.1129 -0.1533
 7678SOL     OW34666   4.680   2.483  15.705  0.8654 -0.2476  0.0205
 7678SOL    HW134667   4.721   2.484  15.791  0.5114 -0.8003  0.1887
 7678SOL    HW234668   4.657   2.390  15.702 -1.1385  0.2386  0.0709
 7679SOL     OW34669   4.584   4.295   0.498  0.2940 -0.0243  0.6538
 7679SOL    HW134670   4.507   4.283   0.444  2.6788  0.2573 -2.7757
 7679SOL    HW234671   4.542   4.321   0.580  0.5131 -2.3584  1.5082
 7680SOL     OW34672   1.337   4.543   4.240  0.1671  0.4962  0.6024
 7680SOL    HW134673   1.389   4.469   4.269  0.1385  0.3641  0.3211
 7680SOL    HW234674   1.382   4.573   4.161 -1.4101  0.4937 -0.3160
 7681SOL     OW34675   1.295   4.653   2.017  0.2849 -0.3841 -0.1119
 7681SOL    HW134676   1.266   4.565   1.995 -1.3996 -0.4885  2.4646
 7681SOL    HW234677   1.256   4.707   1.948  2.2725  2.3060  0.8542
 7682SOL     OW34678   0.287   1.822   2.863  0.4524 -0.3000  0.6419
 7682SOL    HW134679   0.345   1.762   2.911  1.0071 -0.2521  0.0359
 7682SOL    HW234680   0.291   1.903   2.913  0.3177  1.9075 -2.9556
 7683SOL     OW34681   2.131   4.406  15.973 -0.4968 -0.2708 -0.0561
 7683SOL    HW134682   2.177   4.472  16.025  1.0489  0.9235 -2.9659
 7683SOL    HW234683   2.151   4.425  15.882  1.8104  3.5672  1.2203
 7684SOL     OW34684   0.376   3.710   2.810  0.1846  0.0466 -0.1222
 7684SOL    HW134685   0.322   3.680   2.736  3.3506 -1.1213 -1.9615
 7684SOL    HW234686   0.312   3.695   2.880 -0.7709 -1.5131 -1.3216
 7685SOL     OW34687   1.739   1.105   1.774  0.2232  0.0781 -0.6211
 7685SOL    HW134688   1.819   1.117   1.825 -0.4907 -1.1412  0.8073
 7685SOL    HW234689   1.714   1.021   1.814 -2.5474  2.1100  1.9463
 7686SOL     OW34690   2.971   2.258   1.152 -0.2305 -0.2500 -0.0021
 7686SOL    HW134691   2.970   2.172   1.109  0.5499 -1.7532  3.0343
 7686SOL    HW234692   3.039   2.309   1.108 -1.4890  1.1281 -0.3500
 7687SOL     OW34693   0.270   4.010  11.251  0.3247 -0.0983  0.0032
 7687SOL    HW134694   0.238   4.088  11.206 -3.7738 -0.1559  2.8250
 7687SOL    HW234695   0.363   4.025  11.237  0.2098  0.9902  0.4089
 7688SOL     OW34696   0.783   1.464   2.134  0.0473 -0.2757  0.0012
 7688SOL    HW134697   0.700   1.418   2.144 -0.5165  1.1918  2.1358
 7688SOL    HW234698   0.833   1.404   2.080  1.4054  1.1360 -0.3195
 7689SOL     OW34699   4.244   2.028  15.238  0.2011  0.0814 -0.2853
 7689SOL    HW134700   4.249   2.060  15.148  3.0014  0.5551  0.0298
 7689SOL    HW234701   4.326   2.060  15.276 -0.1065  0.0274  0.4283
 7690SOL     OW34702   4.683   0.400   4.190 -0.1541  0.0594  0.0989
 7690SOL    HW134703   4.683   0.309   4.161 -0.8694 -0.5612  2.0204
 7690SOL    HW234704   4.669   0.401   4.285 -0.8861  0.1501 -0.0091
 7691SOL     OW34705   3.465   3.023  14.724 -0.6729  0.3828  0.4845
 7691SOL    HW134706   3.528   3.062  14.784 -0.2456 -1.6003  1.2919
 7691SOL    HW234707   3.399   2.986  14.782 -0.2859 -0.0548  0.6404
 7692SOL     OW34708   4.413   3.789   9.164  0.7961  0.0118 -0.0908
 7692SOL    HW134709   4.416   3.783   9.260  2.8186  0.7320 -0.0947
 7692SOL    HW234710   4.322   3.772   9.139  0.8729 -0.6578  0.0882
 7693SOL     OW34711   2.714   3.855   2.355 -0.2602  0.3452 -0.3610
 7693SOL    HW134712   2.646   3.792   2.379 -0.9713  1.2170 -0.0858
 7693SOL    HW234713   2.724   3.836   2.262 -1.0476  1.1394 -0.6176
 7694SOL     OW34714   0.622   4.304   9.759  0.2083 -0.0307 -0.2284
 7694SOL    HW134715   0.597   4.389   9.796  0.8093 -0.6630  1.5896
 7694SOL    HW234716   0.615   4.255   9.840 -1.3651 -0.4230 -0.5929
 7695SOL     OW34717   2.216   2.725   2.768  0.2204 -0.2153  0.2092
 7695SOL    HW134718   2.141   2.668   2.781  1.1509 -1.7388 -1.0829
 7695SOL    HW234719   2.185   2.769   2.689 -1.7907  1.4756  1.9216
 7696SOL     OW34720   2.078   1.153   7.210 -0.2073 -0.4185  0.0370
 7696SOL    HW134721   2.169   1.128   7.226 -0.0510 -1.1215 -1.9287
 7696SOL    HW234722   2.077   1.139   7.115 -1.9842 -0.2427  0.0277
 7697SOL     OW34723   3.365   4.036   0.543 -0.0788 -0.2790  0.0824
 7697SOL    HW134724   3.274   4.061   0.525 -0.7416 -2.7186  0.0831
 7697SOL    HW234725   3.414   4.112   0.512 -3.3371  1.4375 -0.8441
 7698SOL     OW34726   2.862   1.668  15.190 -0.1443  0.1240  0.3701
 7698SOL    HW134727   2.841   1.613  15.265  0.2327  1.1514  1.2449
 7698SOL    HW234728   2.956   1.657  15.208 -0.2054 -1.7841 -0.5615
 7699SOL     OW34729   1.384   4.334   0.310 -0.5845  0.0467  0.7467
 7699SOL    HW134730   1.300   4.380   0.307 -0.3682  0.3924 -0.2202
 7699SOL    HW234731   1.451   4.402   0.307  2.2612 -2.8995 -2.2545
 7700SOL     OW34732   1.388   2.018  11.042 -0.5463  0.8787 -0.6880
 7700SOL    HW134733   1.429   1.969  10.970 -0.6914 -0.5540  0.2159
 7700SOL    HW234734   1.308   2.054  11.006 -1.0755  1.7589  1.4008
 7701SOL     OW34735   3.828   0.880   3.419  0.0568  0.2470 -0.3634
 7701SOL    HW134736   3.899   0.882   3.483  1.7978 -1.4091 -2.2468
 7701SOL    HW234737   3.771   0.945   3.461  0.0409 -0.2818  0.4360
 7702SOL     OW34738   4.563   3.671  14.951  0.7840 -0.2383 -0.1470
 7702SOL    HW134739   4.589   3.581  14.937  0.7800 -0.5479  1.7869
 7702SOL    HW234740   4.536   3.699  14.864  4.4055  1.7577 -0.6080
 7703SOL     OW34741   3.178   4.023   5.038 -0.6002  0.3242  0.3671
 7703SOL    HW134742   3.161   3.980   4.954  1.5302 -0.2936  0.2502
 7703SOL    HW234743   3.270   3.999   5.049 -1.0712 -2.2775 -1.2586
 7704SOL     OW34744   1.226   1.310   4.814 -0.6366  0.1544 -0.2799
 7704SOL    HW134745   1.249   1.387   4.761  0.7890  0.7957  1.2728
 7704SOL    HW234746   1.225   1.359   4.896  1.3183 -0.3445  0.0413
 7705SOL     OW34747   1.747   3.485   8.741  0.1592  0.2176 -0.5416
 7705SOL    HW134748   1.682   3.423   8.774 -0.7564  0.7650 -1.3429
 7705SOL    HW234749   1.795   3.494   8.824 -0.0610 -2.6538 -0.0791
 7706SOL     OW34750   1.947   0.215   8.174 -0.3472  0.1952  0.0952
 7706SOL    HW134751   2.039   0.189   8.184 -0.5010 -0.2021  0.4549
 7706SOL    HW234752   1.949   0.259   8.259  2.1181  0.6985 -0.2174
 7707SOL     OW34753   0.239   0.421   2.597 -0.2157 -0.1843  0.2084
 7707SOL    HW134754   0.236   0.326   2.599 -0.0738 -0.2497 -2.0857
 7707SOL    HW234755   0.315   0.443   2.651  1.8199  0.5853 -2.9707
 7708SOL     OW34756   1.298   1.849  14.414  0.4134 -0.1560 -0.2891
 7708SOL    HW134757   1.242   1.832  14.490 -0.4011  2.3253 -0.3081
 7708SOL    HW234758   1.234   1.850  14.342 -0.1348  0.3069  0.1952
 7709SOL     OW34759   1.769   0.278   8.590 -0.0915  0.5966  0.4616
 7709SOL    HW134760   1.806   0.234   8.666  3.4221  1.3390 -0.8005
 7709SOL    HW234761   1.683   0.236   8.587  0.9179 -1.4716  0.5460
 7710SOL     OW34762   4.439   0.023   6.820 -0.1524 -0.8288  0.4682
 7710SOL    HW134763   4.529   0.050   6.838 -0.6720  0.8865  0.4970
 7710SOL    HW234764   4.422   4.705   6.899 -0.6473 -2.2616 -0.5941
 7711SOL     OW34765   2.817   2.511  10.482 -0.0335 -0.6605  0.4226
 7711SOL    HW134766   2.864   2.578  10.532 -0.4524 -0.1550  0.1504
 7711SOL    HW234767   2.812   2.543  10.392  1.9452 -0.9823  0.1939
 7712SOL     OW34768   0.950   3.270   5.418  0.0233  0.6114  0.0688
 7712SOL    HW134769   0.946   3.236   5.507  0.7354  1.5743  0.4677
 7712SOL    HW234770   0.895   3.348   5.425 -0.3119  0.6070 -2.4108
 7713SOL     OW34771   2.435   2.339  13.167  0.4421 -0.3116 -0.2374
 7713SOL    HW134772   2.515   2.360  13.119  0.7643 -0.8329  0.0698
 7713SOL    HW234773   2.427   2.415  13.225  1.0107 -1.9933  2.0724
 7714SOL     OW34774   4.468   2.610   3.017  0.7621  0.3691 -0.0167
 7714SOL    HW134775   4.512   2.565   2.945 -0.3757 -2.2960  0.9357
 7714SOL    HW234776   4.539   2.595   3.079  0.6483  0.4822  0.1408
 7715SOL     OW34777   2.278   3.113  15.646  0.0421  0.3513 -0.9846
 7715SOL    HW134778   2.285   3.110  15.741  1.9197  2.0109 -1.0662
 7715SOL    HW234779   2.351   3.167  15.615 -0.2788  1.3028 -0.0783
 7716SOL     OW34780   3.947   1.993  10.582  0.3485 -0.1709 -0.3436
 7716SOL    HW134781   3.981   2.017  10.496 -0.0198  0.7549 -0.2219
 7716SOL    HW234782   3.944   1.897  10.574 -4.2441 -0.1346  1.0407
 7717SOL     OW34783   2.135   0.489   9.803  0.0241 -0.4430 -0.2466
 7717SOL    HW134784   2.226   0.481   9.774 -0.0579 -0.0752 -0.6125
 7717SOL    HW234785   2.124   0.582   9.783 -0.4351 -0.4726 -0.1457
 7718SOL     OW34786   3.816   3.337   2.021  0.5447 -0.1322  0.2636
 7718SOL    HW134787   3.904   3.371   2.003  0.0952  0.8830 -0.0461
 7718SOL    HW234788   3.817   3.345   2.116 -0.2975 -1.6022  0.3887
 7719SOL     OW34789   4.612   1.373   5.697 -0.5012 -0.3068 -0.5116
 7719SOL    HW134790   4.536   1.385   5.640 -1.9629 -0.3345  1.4173
 7719SOL    HW234791   4.616   1.277   5.689  0.0946 -0.1768 -1.7306
 7720SOL     OW34792   2.474   0.166   3.465  1.2749 -0.6642 -0.4125
 7720SOL    HW134793   2.535   0.160   3.539  2.8188 -2.1516 -1.8249
 7720SOL    HW234794   2.515   0.091   3.423  0.7278 -1.6832  0.8582
 7721SOL     OW34795   1.033   3.022   6.325 -0.3927  1.1308  0.3889
 7721SOL    HW134796   1.083   3.008   6.244 -1.0087  0.4132  0.1339
 7721SOL    HW234797   0.986   3.101   6.299 -0.6692  0.5210 -0.9583
 7722SOL     OW34798   2.504   0.914   5.188  0.1401 -0.0901 -0.2392
 7722SOL    HW134799   2.458   0.859   5.124 -0.7365 -1.7465  1.7994
 7722SOL    HW234800   2.433   0.963   5.229 -0.3657  1.6262 -3.1810
 7723SOL     OW34801   1.657   2.115   8.709 -0.2488 -0.0207 -0.1645
 7723SOL    HW134802   1.699   2.145   8.790  0.5519  2.8079 -1.6021
 7723SOL    HW234803   1.718   2.145   8.642  1.9730  1.2293  2.4351
 7724SOL     OW34804   0.174   0.630   7.241  0.1580  0.4087  0.3709
 7724SOL    HW134805   0.212   0.547   7.270 -0.0672  0.2548  0.2287
 7724SOL    HW234806   0.256   0.680   7.242  0.6782 -0.3863 -1.7151
 7725SOL     OW34807   0.466   4.228   5.080  0.2656  0.1630  0.0690
 7725SOL    HW134808   0.545   4.276   5.103  1.7362 -1.0878 -2.4340
 7725SOL    HW234809   0.484   4.193   4.993 -0.7776  0.5046 -0.2857
 7726SOL     OW34810   4.709   0.910   2.556 -1.1099  0.0145  0.6066
 7726SOL    HW134811   4.650   0.897   2.482 -2.5984  0.7503  1.6683
 7726SOL    HW234812   4.700   0.825   2.599  2.0128 -1.6362 -1.9325
 7727SOL     OW34813   4.355   3.345   8.562  0.1989  0.0321 -0.7193
 7727SOL    HW134814   4.369   3.278   8.494 -2.0727 -0.7256 -0.4393
 7727SOL    HW234815   4.274   3.312   8.600 -0.6023  1.2326 -1.3918
 7728SOL     OW34816   0.639   0.251   0.549 -0.1719  0.3551 -0.0558
 7728SOL    HW134817   0.690   0.244   0.469 -0.0701  2.3013 -0.1669
 7728SOL    HW234818   0.709   0.301   0.591 -0.0055 -0.4336  0.6023
 7729SOL     OW34819   2.441   0.491  15.661 -0.0937  0.3563 -0.4896
 7729SOL    HW134820   2.499   0.567  15.658  1.9453 -1.1590  0.4337
 7729SOL    HW234821   2.501   0.420  15.684 -1.5466 -0.9608 -0.7287
 7730SOL     OW34822   2.344   1.169   0.164  0.4550 -0.5839  0.9493
 7730SOL    HW134823   2.253   1.183   0.137  0.4598 -1.2109  0.6039
 7730SOL    HW234824   2.372   1.087   0.122  0.5628  1.0417 -2.1499
 7731SOL     OW34825   2.843   1.143  17.309 -0.2088 -0.2494 -0.2506
 7731SOL    HW134826   2.860   1.231  17.275 -0.4101 -0.2373 -0.3182
 7731SOL    HW234827   2.763   1.160  17.359 -0.3956 -0.6611 -0.4016
 7732SOL     OW34828   3.498   4.264  14.262  0.0069 -0.3784 -0.0523
 7732SOL    HW134829   3.587   4.262  14.297  0.6058 -1.3917 -1.5997
 7732SOL    HW234830   3.502   4.345  14.211 -0.9108  0.4065  1.1400
 7733SOL     OW34831   4.654   3.115   1.382  0.5223 -0.2629  0.4463
 7733SOL    HW134832   4.702   3.197   1.393  0.6965 -0.4411  1.0431
 7733SOL    HW234833   4.713   3.065   1.325 -0.0882  0.7318 -1.0426
 7734SOL     OW34834   3.961   1.338   2.038  0.0043  1.2418  0.3164
 7734SOL    HW134835   4.014   1.389   1.977  0.4832 -1.4991 -1.5525
 7734SOL    HW234836   3.959   1.260   1.982  2.1859  0.8042  0.8156
 7735SOL     OW34837   3.738   1.946  14.195 -0.2384  0.3447  0.8192
 7735SOL    HW134838   3.759   2.034  14.165  1.0286 -0.7532 -1.4935
 7735SOL    HW234839   3.711   1.898  14.117  2.0413 -1.5913  1.2255
 7736SOL     OW34840   4.033   2.625   2.173  0.3073 -0.5164  0.7445
 7736SOL    HW134841   3.978   2.694   2.135  0.5407 -0.2604  0.8716
 7736SOL    HW234842   4.111   2.679   2.186  0.9023 -0.9622 -0.9294
 7737SOL     OW34843   2.264   2.778   5.591  0.4196  0.3202  0.6439
 7737SOL    HW134844   2.331   2.833   5.551 -0.1570  0.2320 -0.4504
 7737SOL    HW234845   2.309   2.694   5.581  0.0082 -0.0115  1.6094
 7738SOL     OW34846   4.525   2.072   5.954 -0.1012  0.1948  1.0208
 7738SOL    HW134847   4.462   2.028   6.010  0.1445 -0.1099  1.0544
 7738SOL    HW234848   4.602   2.016   5.960  0.6132  1.0544 -0.0839
 7739SOL     OW34849   0.141   1.121   8.456  0.3576 -0.0524  0.6479
 7739SOL    HW134850   0.123   1.190   8.521  1.4520 -1.2460  2.2278
 7739SOL    HW234851   0.056   1.077   8.448 -0.2373  1.2041  0.0155
 7740SOL     OW34852   2.828   4.658   4.398  0.4054  1.2230 -0.9483
 7740SOL    HW134853   2.846   4.615   4.314 -3.1047  0.3078 -1.2626
 7740SOL    HW234854   2.754   4.707   4.363  0.2202  0.4854 -1.5921
 7741SOL     OW34855   0.107   2.524   7.729 -0.3063 -0.1305  0.1674
 7741SOL    HW134856   0.126   2.601   7.782  2.8975  0.0692 -1.2655
 7741SOL    HW234857   0.164   2.463   7.776 -0.4501 -0.1772  0.2824
 7742SOL     OW34858   4.711   2.396  12.943 -0.1286 -0.2346  0.1978
 7742SOL    HW134859   0.009   2.358  13.024 -0.2346 -1.8055 -0.4928
 7742SOL    HW234860   4.617   2.379  12.935 -0.2489  1.2374 -1.6477
 7743SOL     OW34861   4.516   2.031   9.023 -0.1094  0.2866  0.2575
 7743SOL    HW134862   4.591   2.062   8.971  0.7205 -0.3578  1.0682
 7743SOL    HW234863   4.540   1.941   9.044 -0.0820  0.3930  0.6673
 7744SOL     OW34864   0.624   3.779   1.645  0.4470 -0.2932 -0.1395
 7744SOL    HW134865   0.619   3.870   1.618  0.5937 -0.6041 -1.2339
 7744SOL    HW234866   0.719   3.773   1.649  0.4945  0.1111 -0.5945
 7745SOL     OW34867   4.559   0.422   6.229  0.1567 -0.2357 -0.1134
 7745SOL    HW134868   4.501   0.496   6.210 -0.4222 -0.3874  1.0581
 7745SOL    HW234869   4.583   0.384   6.145 -0.1309 -1.1046  0.1985
 7746SOL     OW34870   4.033   0.660  15.818  0.5894  0.1286  0.5121
 7746SOL    HW134871   4.060   0.679  15.908 -0.5214  1.4987  0.5553
 7746SOL    HW234872   4.040   0.745  15.775  0.1076 -0.7022 -1.2085
 7747SOL     OW34873   0.830   4.474   8.661  0.3465 -0.7900 -0.5642
 7747SOL    HW134874   0.871   4.392   8.687  0.9411 -0.7944 -1.5081
 7747SOL    HW234875   0.750   4.445   8.618 -0.2167  0.6944 -0.5275
 7748SOL     OW34876   4.029   2.095  16.477 -0.2763  0.2762  0.0722
 7748SOL    HW134877   4.015   2.007  16.442  2.0657  1.1607 -3.1124
 7748SOL    HW234878   4.124   2.106  16.473 -0.2777  0.2155 -0.1495
 7749SOL     OW34879   1.340   1.040   1.520 -0.2790  0.4174  0.0201
 7749SOL    HW134880   1.291   0.968   1.479 -0.7935  0.9222 -0.2463
 7749SOL    HW234881   1.313   1.112   1.463  0.8344 -0.0129 -1.0429
 7750SOL     OW34882   0.980   0.891  16.754  0.0160  0.0980 -0.4936
 7750SOL    HW134883   1.042   0.819  16.765  0.7307  0.5657 -1.5473
 7750SOL    HW234884   0.930   0.892  16.835  1.1429  0.8194  0.1960
 7751SOL     OW34885   0.914   2.886   7.654 -0.2580  0.2870  0.5459
 7751SOL    HW134886   0.880   2.972   7.679  0.9733  1.0195 -0.3132
 7751SOL    HW234887   0.872   2.867   7.570  0.8464 -0.0311  0.0687
 7752SOL     OW34888   4.711   3.067   5.969 -0.1217 -0.7847  0.4870
 7752SOL    HW134889   4.685   3.138   6.027 -0.0794  0.4711 -1.0288
 7752SOL    HW234890   4.692   3.104   5.883 -0.3806 -0.7502  0.5591
 7753SOL     OW34891   3.035   0.819   3.234  0.1523  0.5102  0.0482
 7753SOL    HW134892   3.117   0.791   3.276  0.6015  0.4379 -0.8823
 7753SOL    HW234893   2.988   0.735   3.239  1.5331 -0.2898 -0.4348
 7754SOL     OW34894   3.731   1.988  13.133 -0.1063 -0.2394  0.0487
 7754SOL    HW134895   3.669   1.928  13.175 -0.5705 -0.3431 -0.7684
 7754SOL    HW234896   3.771   1.930  13.067  1.8799  1.6603 -0.4117
 7755SOL     OW34897   0.635   4.019   8.635  0.8342  0.3554 -0.5186
 7755SOL    HW134898   0.614   3.958   8.564 -2.1043 -0.4658  1.0826
 7755SOL    HW234899   0.730   4.018   8.624  0.8433 -2.1454 -0.1792
 7756SOL     OW34900   0.850   4.373  12.949 -0.0153  0.4997  0.1290
 7756SOL    HW134901   0.933   4.332  12.926  0.8055  1.5500  1.2118
 7756SOL    HW234902   0.787   4.313  12.910  0.8770  0.0538 -0.6403
 7757SOL     OW34903   2.693   3.297   7.065  0.3704 -0.1611 -0.4824
 7757SOL    HW134904   2.772   3.337   7.101 -0.0941  0.2573  0.0693
 7757SOL    HW234905   2.730   3.229   7.008  1.8355  1.4401 -1.4516
 7758SOL     OW34906   0.874   1.947   8.528 -0.2129 -0.1948  0.3658
 7758SOL    HW134907   0.870   1.978   8.438 -0.0216 -1.2902 -0.0231
 7758SOL    HW234908   0.957   1.990   8.548 -0.4067  0.9577 -1.3565
 7759SOL     OW34909   3.654   0.794  12.763  0.2108 -0.6270 -0.5615
 7759SOL    HW134910   3.739   0.779  12.722 -0.5622  0.4296 -2.5383
 7759SOL    HW234911   3.614   0.866  12.715 -1.5436 -1.8823 -1.0127
 7760SOL     OW34912   3.061   3.772   6.021 -0.0541 -0.0449 -0.0277
 7760SOL    HW134913   2.979   3.741   5.983 -0.8659  0.3276  1.4406
 7760SOL    HW234914   3.089   3.846   5.967 -0.9659  2.0534  2.3572
 7761SOL     OW34915   0.382   3.405  16.503  0.9781 -0.5069 -0.7271
 7761SOL    HW134916   0.413   3.320  16.469 -0.0414 -1.6288  1.1487
 7761SOL    HW234917   0.348   3.440  16.421 -1.2106  0.2309  0.5269
 7762SOL     OW34918   0.194   2.865  12.364 -0.7887 -0.5333  0.0770
 7762SOL    HW134919   0.267   2.827  12.413 -1.0942 -0.0324  0.9140
 7762SOL    HW234920   0.215   2.835  12.275  0.8943 -0.7604  0.5608
 7763SOL     OW34921   1.377   1.909   8.731 -0.1923  0.4729  0.7419
 7763SOL    HW134922   1.372   1.951   8.645 -2.4807  0.8227  1.0375
 7763SOL    HW234923   1.372   1.814   8.718  0.9935  0.5492 -0.2450
 7764SOL     OW34924   3.730   4.517  14.545 -0.1972 -0.1428  0.0077
 7764SOL    HW134925   3.773   4.533  14.628 -0.7538 -0.9589  0.4581
 7764SOL    HW234926   3.752   4.590  14.488  1.0959  0.8910  1.8536
 7765SOL     OW34927   1.754   4.693   5.186 -0.0544 -0.2104  0.7648
 7765SOL    HW134928   1.803   4.715   5.107 -0.5971 -0.2215  0.4270
 7765SOL    HW234929   1.826   4.683   5.248 -0.5269  0.2681  1.4028
 7766SOL     OW34930   0.310   1.189   3.378 -0.4596 -0.1324 -0.3256
 7766SOL    HW134931   0.360   1.189   3.297  1.4907 -2.9916  0.9099
 7766SOL    HW234932   0.220   1.185   3.347 -0.6377 -1.7402  0.4186
 7767SOL     OW34933   1.223   1.730   1.712 -0.3770  0.0586 -0.2404
 7767SOL    HW134934   1.178   1.788   1.651  1.3264  1.6199 -0.0130
 7767SOL    HW234935   1.178   1.646   1.700 -2.1163  0.8071  1.0168
 7768SOL     OW34936   3.036   4.251   4.728 -0.0114  0.1043 -0.2865
 7768SOL    HW134937   3.095   4.310   4.681 -0.1331 -1.0631 -1.8783
 7768SOL    HW234938   2.994   4.320   4.779 -0.7538 -0.6784  0.1564
 7769SOL     OW34939   3.281   3.790  14.376  0.1455 -0.3518 -0.2071
 7769SOL    HW134940   3.202   3.738  14.390  0.3539 -0.2154  1.4920
 7769SOL    HW234941   3.288   3.780  14.281 -0.1536 -0.9855 -0.1606
 7770SOL     OW34942   1.123   3.708   9.885  0.2997 -0.2459 -0.0912
 7770SOL    HW134943   1.117   3.614   9.898  2.0288 -0.6071 -1.9685
 7770SOL    HW234944   1.151   3.713   9.794 -0.0393 -1.8055 -0.2728
 7771SOL     OW34945   1.364   1.264  14.820  0.2127 -0.1595  0.0941
 7771SOL    HW134946   1.270   1.261  14.838  0.2588 -1.2531  0.1668
 7771SOL    HW234947   1.372   1.220  14.735 -0.0029 -0.0017 -0.0075
 7772SOL     OW34948   4.547   2.717   5.512  0.1496 -0.0610 -1.0425
 7772SOL    HW134949   4.545   2.621   5.519 -0.9026 -0.0665 -1.5485
 7772SOL    HW234950   4.462   2.742   5.548  1.6152 -1.2088  3.2480
 7773SOL     OW34951   2.364   3.453   9.202  0.5232 -0.2174  0.1195
 7773SOL    HW134952   2.407   3.435   9.286 -1.1704 -0.7495  0.8783
 7773SOL    HW234953   2.277   3.487   9.223  0.1635  0.1075 -1.8962
 7774SOL     OW34954   0.644   3.808   4.508  0.3009 -0.0121  0.2944
 7774SOL    HW134955   0.564   3.841   4.549 -1.3088 -3.0674 -0.3275
 7774SOL    HW234956   0.658   3.862   4.430 -0.3221 -2.0413 -1.2433
 7775SOL     OW34957   0.258   2.829   8.141 -0.6778 -0.2091  0.3964
 7775SOL    HW134958   0.311   2.766   8.092 -1.1285  0.2505 -0.6855
 7775SOL    HW234959   0.169   2.818   8.106  1.0377  0.4080 -4.1921
 7776SOL     OW34960   0.533   2.281   8.094  0.3410  0.2451  0.4373
 7776SOL    HW134961   0.448   2.310   8.060 -0.1888 -2.0088 -0.1528
 7776SOL    HW234962   0.583   2.313   8.018 -0.4708 -0.2429 -0.3059
 7777SOL     OW34963   2.431   3.589   8.965  0.0724  0.1445  0.3772
 7777SOL    HW134964   2.437   3.515   9.026 -0.5882 -0.6766 -0.5560
 7777SOL    HW234965   2.523   3.582   8.939 -0.1943 -0.4832 -0.4003
 7778SOL     OW34966   0.650   2.332   2.651 -0.4395 -0.1581 -0.1954
 7778SOL    HW134967   0.685   2.366   2.733 -1.2293 -0.6946  0.3649
 7778SOL    HW234968   0.557   2.321   2.671 -0.2329 -0.4931  0.5655
 7779SOL     OW34969   0.885   1.849  11.977  0.6423 -0.0587 -0.6857
 7779SOL    HW134970   0.811   1.872  12.034  0.4435 -1.0918 -0.5349
 7779SOL    HW234971   0.883   1.913  11.907  0.9001  0.4804 -0.2045
 7780SOL     OW34972   1.218   1.045   8.008 -0.1823  0.2998  0.0736
 7780SOL    HW134973   1.275   0.981   8.049  0.3189 -0.5544 -1.9416
 7780SOL    HW234974   1.270   1.075   7.933  0.8847  3.1655  1.9496
 7781SOL     OW34975   0.356   1.786   8.089 -0.0664 -0.4319  0.1575
 7781SOL    HW134976   0.281   1.738   8.054  0.5434 -1.5048  0.3275
 7781SOL    HW234977   0.385   1.839   8.014  0.8369 -2.1121 -0.6876
 7782SOL     OW34978   3.364   4.107  11.167  0.1967  0.1605  0.2367
 7782SOL    HW134979   3.281   4.073  11.135  0.1856 -0.1340  0.5674
 7782SOL    HW234980   3.401   4.042  11.227  0.0376  0.0421  0.2050
 7783SOL     OW34981   4.493   0.124   2.860  0.2634  0.0679  0.0317
 7783SOL    HW134982   4.489   0.040   2.815  1.3319 -0.0746  0.2151
 7783SOL    HW234983   4.404   0.122   2.895  0.4973 -4.0758  0.4093
 7784SOL     OW34984   2.107   0.741  14.577  0.1976  0.9802 -0.7949
 7784SOL    HW134985   2.143   0.693  14.502 -0.5735 -1.2004  0.2529
 7784SOL    HW234986   2.026   0.693  14.590 -0.1810  1.2613 -2.0751
 7785SOL     OW34987   3.518   0.842   8.275  0.4351  0.4683 -0.2270
 7785SOL    HW134988   3.487   0.756   8.248 -0.6991  0.2319  1.8172
 7785SOL    HW234989   3.437   0.878   8.312  0.1934 -1.7679  1.4032
 7786SOL     OW34990   1.329   1.225  10.104 -0.0850  0.4734  0.0076
 7786SOL    HW134991   1.279   1.288  10.052  0.4465  0.7874 -0.1229
 7786SOL    HW234992   1.268   1.167  10.150  0.3473  0.2408  0.2907
 7787SOL     OW34993   0.910   0.281   2.188  0.2433  0.0213 -0.0129
 7787SOL    HW134994   0.888   0.277   2.095  0.2810  0.9945 -0.0615
 7787SOL    HW234995   0.933   0.373   2.199 -0.4406  0.2104 -0.1450
 7788SOL     OW34996   3.937   0.350   5.507 -0.0452  0.0663 -0.1370
 7788SOL    HW134997   3.859   0.395   5.476  1.3212  1.6215 -1.3248
 7788SOL    HW234998   3.903   0.277   5.559  3.0575 -0.0263  1.7783
 7789SOL     OW34999   3.356   0.866   3.883  0.0246  0.5764  0.4369
 7789SOL    HW135000   3.371   0.920   3.961  0.2714 -0.2715  0.9692
 7789SOL    HW235001   3.267   0.894   3.862 -0.6930 -2.5950 -0.6944
 7790SOL     OW35002   0.308   3.328   2.375  0.0116 -0.3810 -0.3456
 7790SOL    HW135003   0.251   3.306   2.448 -0.8507 -0.8020 -1.1446
 7790SOL    HW235004   0.390   3.333   2.425  1.6198 -2.1497 -2.8014
 7791SOL     OW35005   3.229   3.317   8.740  0.9441  0.2890 -0.2969
 7791SOL    HW135006   3.221   3.224   8.760  0.2212  0.3997 -0.0576
 7791SOL    HW235007   3.267   3.355   8.819  0.1972  3.3705 -1.4050
 7792SOL     OW35008   3.681   0.298  14.923 -0.0477 -0.0581  0.3996
 7792SOL    HW135009   3.693   0.275  14.831  1.7276  0.9497  0.3593
 7792SOL    HW235010   3.725   0.227  14.968 -0.7853  0.3863  1.8194
 7793SOL     OW35011   1.751   3.256   2.158  0.3826 -0.3978  0.7799
 7793SOL    HW135012   1.799   3.196   2.214 -0.8126  0.1997  2.4326
 7793SOL    HW235013   1.725   3.323   2.222  1.6691  1.5224 -0.6723
 7794SOL     OW35014   3.137   0.038   7.260  0.0676 -0.3085  0.0989
 7794SOL    HW135015   3.120   0.039   7.354  0.7142 -0.2364  0.2185
 7794SOL    HW235016   3.216   4.718   7.263  1.2276  1.2488 -2.2951
 7795SOL     OW35017   3.305   0.485   9.794  0.0402  0.8810 -0.3017
 7795SOL    HW135018   3.312   0.566   9.845 -1.4793  0.5503  0.4476
 7795SOL    HW235019   3.230   0.437   9.831  0.5872  1.0779  1.0502
 7796SOL     OW35020   1.837   2.824   2.829  0.6157 -0.2710  0.5359
 7796SOL    HW135021   1.820   2.894   2.765  2.4183  2.1144  2.6771
 7796SOL    HW235022   1.795   2.855   2.909  1.0145 -0.1563  0.6997
 7797SOL     OW35023   2.993   2.483   9.286  0.0454  0.4698 -0.1803
 7797SOL    HW135024   2.915   2.446   9.246 -0.6825  1.1863  0.5652
 7797SOL    HW235025   3.054   2.473   9.212 -0.0607  2.5095 -0.5436
 7798SOL     OW35026   1.314   0.593  15.015  0.3804 -0.0107  0.1450
 7798SOL    HW135027   1.332   0.680  14.981  2.8672 -0.3221  0.6753
 7798SOL    HW235028   1.223   0.588  14.983 -0.1049 -0.6518  1.6202
 7799SOL     OW35029   2.972   2.155   3.028  0.4330 -0.1611 -0.2206
 7799SOL    HW135030   2.930   2.071   3.012  0.5897  0.1696 -2.4229
 7799SOL    HW235031   3.057   2.137   2.988  1.6223  0.2163  2.1408
 7800SOL     OW35032   1.811   2.740   8.455 -0.2566 -0.6667  0.1134
 7800SOL    HW135033   1.829   2.804   8.524  0.8265 -0.8437 -0.0088
 7800SOL    HW235034   1.818   2.660   8.507  3.1997 -1.5794 -1.7673
 7801SOL     OW35035   0.467   3.835   1.390 -0.4891 -0.1620  0.0396
 7801SOL    HW135036   0.479   3.912   1.446  2.5703 -0.6634  0.0383
 7801SOL    HW235037   0.499   3.863   1.304 -1.7367  3.9169  0.8822
 7802SOL     OW35038   0.630   3.251   5.615 -0.1461  0.0199 -0.7960
 7802SOL    HW135039   0.722   3.229   5.634 -0.4338  0.2931  0.8853
 7802SOL    HW235040   0.652   3.313   5.546 -1.3008  2.1902  0.7944
 7803SOL     OW35041   1.384   2.596   4.242  0.0374 -0.6237  0.3997
 7803SOL    HW135042   1.402   2.594   4.148 -2.3735  0.8748 -0.0904
 7803SOL    HW235043   1.419   2.684   4.256  0.2368 -0.6939  0.3417
 7804SOL     OW35044   3.804   1.220   6.954  0.4107 -0.5149  0.0244
 7804SOL    HW135045   3.877   1.171   6.991  0.9560 -0.4839 -1.0162
 7804SOL    HW235046   3.726   1.172   6.979 -0.1290 -0.1296 -0.9377
 7805SOL     OW35047   0.229   0.840   2.230 -0.1668  0.5748  0.4750
 7805SOL    HW135048   0.284   0.789   2.290  1.4955  0.3718 -1.2365
 7805SOL    HW235049   0.243   0.794   2.147  1.1105  0.7076  0.6210
 7806SOL     OW35050   1.265   0.798  12.179 -0.5185  0.3637 -0.3900
 7806SOL    HW135051   1.248   0.709  12.207  2.2673 -0.3822 -1.0171
 7806SOL    HW235052   1.303   0.839  12.257 -0.0116 -2.5199  0.8562
 7807SOL     OW35053   2.245   3.228   5.741 -0.6815  0.0202  0.3511
 7807SOL    HW135054   2.266   3.253   5.831  0.2921 -0.3566  0.2314
 7807SOL    HW235055   2.253   3.133   5.750  0.4992  0.0778  0.0273
 7808SOL     OW35056   4.189   2.541  10.811 -0.9260  0.3365  0.6699
 7808SOL    HW135057   4.197   2.599  10.734  0.1552  1.3792  1.5639
 7808SOL    HW235058   4.119   2.482  10.783 -0.3055  1.2683 -2.8899
 7809SOL     OW35059   2.184   4.060  13.666  0.5419 -0.6905 -0.2402
 7809SOL    HW135060   2.162   4.119  13.738 -0.0778  1.1806 -1.9211
 7809SOL    HW235061   2.142   4.109  13.595 -1.2924  0.4499  1.6267
 7810SOL     OW35062   4.095   1.310  15.213 -0.4770 -0.2311 -0.5564
 7810SOL    HW135063   4.178   1.328  15.168  0.0467 -0.1272  0.4405
 7810SOL    HW235064   4.097   1.214  15.209 -0.5745 -0.2312 -0.6006
 7811SOL     OW35065   1.580   3.441   0.608 -0.2085 -0.6840  0.2651
 7811SOL    HW135066   1.641   3.473   0.541  1.1422 -1.9697  0.8766
 7811SOL    HW235067   1.506   3.441   0.548 -1.6323 -2.0309  2.0635
 7812SOL     OW35068   3.227   0.839   9.661 -0.4061  0.2902  0.1347
 7812SOL    HW135069   3.210   0.933   9.660 -2.0782 -0.0484 -2.8416
 7812SOL    HW235070   3.250   0.822   9.570  3.6021  1.1450  0.9887
 7813SOL     OW35071   1.355   0.299   2.347 -0.0054  0.2825 -0.0708
 7813SOL    HW135072   1.435   0.257   2.377  0.2729  0.1508 -0.9878
 7813SOL    HW235073   1.289   0.280   2.414  1.2343 -2.1380  0.4688
 7814SOL     OW35074   3.930   1.243   5.535  0.5915  0.2991 -0.0769
 7814SOL    HW135075   3.838   1.222   5.547  1.2220 -0.4729  3.4094
 7814SOL    HW235076   3.930   1.328   5.580 -1.4434  0.7696 -0.9821
 7815SOL     OW35077   0.459   1.964   1.583  0.1460  0.5955 -0.3168
 7815SOL    HW135078   0.411   1.980   1.664 -0.7351  0.9553 -0.9051
 7815SOL    HW235079   0.505   1.884   1.607  1.5918  1.6682  0.5229
 7816SOL     OW35080   0.541   3.356   4.769  0.4602  0.4265  0.0304
 7816SOL    HW135081   0.603   3.289   4.799  1.6405  1.4786 -0.0411
 7816SOL    HW235082   0.532   3.405   4.851 -1.5673  0.4633 -0.2304
 7817SOL     OW35083   0.266   4.166   4.496  0.0443  0.0419 -0.1358
 7817SOL    HW135084   0.282   4.145   4.404 -0.2415  1.9845 -0.6306
 7817SOL    HW235085   0.351   4.167   4.541  0.9071 -0.4200 -1.7829
 7818SOL     OW35086   4.101   2.102   1.010  0.0736  0.3463 -0.5518
 7818SOL    HW135087   4.146   2.072   0.931  0.1532 -2.3321  0.4962
 7818SOL    HW235088   4.030   2.158   0.979 -2.1120 -2.0936 -0.0394
 7819SOL     OW35089   0.162   0.635   1.746 -0.3198  0.1587  0.0542
 7819SOL    HW135090   0.237   0.680   1.785  0.2638 -0.4365 -0.3679
 7819SOL    HW235091   0.147   0.673   1.659 -0.4570  0.0637  0.0364
 7820SOL     OW35092   3.761   4.446   0.173 -0.2035  0.7872  0.2349
 7820SOL    HW135093   3.832   4.500   0.208 -0.9453  1.3464  0.8743
 7820SOL    HW235094   3.813   4.391   0.114  0.4187 -1.2246  2.6584
 7821SOL     OW35095   4.136   3.357   5.120  0.4657 -0.4596  0.1091
 7821SOL    HW135096   4.222   3.391   5.147  0.1460  0.3228  0.1484
 7821SOL    HW235097   4.089   3.353   5.204 -0.4092 -5.0374 -0.5843
 7822SOL     OW35098   2.330   4.590   6.947  0.6392  0.2213 -0.1936
 7822SOL    HW135099   2.343   4.678   6.911 -0.9277  0.3952 -0.3365
 7822SOL    HW235100   2.376   4.544   6.877  1.8527 -0.4310  1.0642
 7823SOL     OW35101   3.468   2.025   2.538 -0.4365 -0.3389  0.5888
 7823SOL    HW135102   3.499   1.974   2.464 -0.7238 -0.2996  0.4425
 7823SOL    HW235103   3.544   2.051   2.591  0.4306 -0.7277 -0.4651
 7824SOL     OW35104   1.367   3.829   0.984  0.0485 -0.4213  0.5162
 7824SOL    HW135105   1.276   3.806   1.001  0.1724  0.2591  2.1461
 7824SOL    HW235106   1.389   3.777   0.907 -1.7722 -0.6516  0.1382
 7825SOL     OW35107   1.346   1.921   1.410  0.4097  0.0575 -0.2423
 7825SOL    HW135108   1.418   1.956   1.462  0.5998  0.0894 -0.5249
 7825SOL    HW235109   1.357   1.971   1.329  1.0264 -0.6778 -0.6142
 7826SOL     OW35110   0.604   0.472   4.336  0.1954 -0.1192  0.3820
 7826SOL    HW135111   0.663   0.419   4.282 -1.3952 -2.0224  0.5068
 7826SOL    HW235112   0.640   0.473   4.425  0.9283  0.5112  0.0809
 7827SOL     OW35113   1.886   1.757   4.478 -0.3815 -0.4590 -0.1638
 7827SOL    HW135114   1.953   1.699   4.442  0.0342  0.1050 -0.3012
 7827SOL    HW235115   1.888   1.839   4.429 -0.7276 -0.4885 -0.2232
 7828SOL     OW35116   2.331   3.206   3.271 -0.7062  0.1532  0.4457
 7828SOL    HW135117   2.374   3.174   3.350  0.6162 -1.1345 -0.7810
 7828SOL    HW235118   2.396   3.205   3.200 -0.4792  1.6382  0.6259
 7829SOL     OW35119   2.813   1.943  14.349 -0.0964  0.2706  0.0346
 7829SOL    HW135120   2.733   1.982  14.315  0.8027  2.9794  0.9731
 7829SOL    HW235121   2.853   1.891  14.280 -2.1691 -0.3676 -0.6579
 7830SOL     OW35122   4.343   1.776  14.379 -0.7216  0.0700 -0.6517
 7830SOL    HW135123   4.388   1.818  14.453  0.4530 -0.2693 -1.1768
 7830SOL    HW235124   4.308   1.700  14.424  2.4060 -2.3056 -2.2397
 7831SOL     OW35125   2.153   0.680  16.438 -0.3904 -0.0457  0.3470
 7831SOL    HW135126   2.204   0.648  16.364  1.5690  0.8935  1.2669
 7831SOL    HW235127   2.226   0.724  16.483 -0.3173  0.2526 -0.0653
 7832SOL     OW35128   2.246   3.558   9.548  0.2117  0.0497  0.8258
 7832SOL    HW135129   2.333   3.520   9.537 -0.0017  0.2402 -1.5699
 7832SOL    HW235130   2.248   3.632   9.488  0.0882  0.7297  1.6590
 7833SOL     OW35131   4.644   4.715  17.450 -0.3272  0.1241 -0.2970
 7833SOL    HW135132   4.674   0.036  17.522 -0.8962 -1.6270  1.2934
 7833SOL    HW235133   4.731   4.698  17.414 -0.5708 -2.6858  0.4095
 7834SOL     OW35134   4.274   0.905  11.024 -0.1787 -0.2476  0.0935
 7834SOL    HW135135   4.317   0.970  10.968 -2.1922 -0.8469 -2.1197
 7834SOL    HW235136   4.194   0.891  10.974 -0.5928  2.2156  0.0284
 7835SOL     OW35137   0.871   3.193   4.228  0.1010  0.1316 -0.4872
 7835SOL    HW135138   0.781   3.221   4.244  0.7978  1.4122  1.1998
 7835SOL    HW235139   0.915   3.255   4.287 -1.4794  0.8544 -0.0398
 7836SOL     OW35140   1.832   0.751   1.458 -0.0662  0.1284  0.2347
 7836SOL    HW135141   1.863   0.842   1.459  2.0878 -0.5620 -1.2940
 7836SOL    HW235142   1.885   0.715   1.386 -0.9629 -3.2481  1.2867
 7837SOL     OW35143   2.976   1.616   8.253 -0.4164  0.4399  0.8144
 7837SOL    HW135144   2.885   1.635   8.234 -0.7141 -0.3442  1.4128
 7837SOL    HW235145   2.999   1.545   8.192 -1.9084 -0.4173  1.2515
 7838SOL     OW35146   2.150   3.159   8.623  0.0488 -0.2198  0.2906
 7838SOL    HW135147   2.230   3.209   8.606  0.6053 -1.9779 -2.3032
 7838SOL    HW235148   2.155   3.099   8.548 -2.8495 -2.5613  1.9785
 7839SOL     OW35149   4.386   4.667   8.059  0.2548  0.0076  0.0127
 7839SOL    HW135150   4.382   4.572   8.047  1.7645 -0.2222  1.3272
 7839SOL    HW235151   4.407   4.664   8.153 -2.7604 -1.2936  0.6482
 7840SOL     OW35152   3.853   0.119   6.290  0.1181  0.2390 -0.3326
 7840SOL    HW135153   3.939   0.136   6.251  0.6404  0.3175  0.8773
 7840SOL    HW235154   3.845   0.182   6.361  0.1900  3.0707 -2.8269
 7841SOL     OW35155   4.280   1.133   2.665  0.2753 -0.0414 -0.7789
 7841SOL    HW135156   4.330   1.060   2.628  0.5115  0.1700 -0.8798
 7841SOL    HW235157   4.276   1.197   2.593 -0.0694  1.7749  0.8778
 7842SOL     OW35158   3.042   0.362   4.561  0.0301 -0.0246 -0.3301
 7842SOL    HW135159   3.045   0.456   4.547 -0.8475  0.4505  2.6783
 7842SOL    HW235160   3.121   0.349   4.614  0.2025  0.3777 -0.4912
 7843SOL     OW35161   0.750   1.735   7.373 -0.3503  0.5102 -0.3556
 7843SOL    HW135162   0.780   1.682   7.447  1.2067  0.2523 -1.1710
 7843SOL    HW235163   0.809   1.810   7.371 -0.7570  0.8634  0.8641
 7844SOL     OW35164   0.798   0.478  10.750 -0.2173 -0.3833 -0.6251
 7844SOL    HW135165   0.735   0.488  10.679 -0.2541  2.6220 -0.1871
 7844SOL    HW235166   0.785   0.547  10.815  0.1825  0.4425 -1.4213
 7845SOL     OW35167   3.218   2.567   5.623  0.2695  0.0012  0.3117
 7845SOL    HW135168   3.173   2.647   5.648 -3.2479 -2.0388  0.4974
 7845SOL    HW235169   3.173   2.554   5.539  0.0160  0.3990  0.3912
 7846SOL     OW35170   3.890   4.185  10.245  0.6045 -1.4594 -0.4558
 7846SOL    HW135171   3.820   4.157  10.186  1.1280  0.3476 -1.9121
 7846SOL    HW235172   3.895   4.123  10.319  2.9279  0.0378  0.6344
 7847SOL     OW35173   1.242   0.628   4.220  0.1588 -0.2790  0.2284
 7847SOL    HW135174   1.288   0.679   4.287  0.2875 -0.1711  0.0580
 7847SOL    HW235175   1.287   0.544   4.213  0.8902 -0.0190  1.9081
 7848SOL     OW35176   3.526   1.520  12.932  0.6389 -0.1477  0.0738
 7848SOL    HW135177   3.435   1.498  12.952  0.7930  0.5798  1.5883
 7848SOL    HW235178   3.508   1.579  12.859 -0.1191  2.3532  2.2599
 7849SOL     OW35179   1.830   3.981   8.713 -0.1662 -0.6255 -0.0424
 7849SOL    HW135180   1.908   3.996   8.660 -0.2623 -0.7919 -0.2273
 7849SOL    HW235181   1.869   3.977   8.801 -0.3854  0.6491  0.1197
 7850SOL     OW35182   0.886   1.138   9.866 -0.2428  0.5535 -0.1566
 7850SOL    HW135183   0.827   1.080   9.915  0.2252 -0.6898 -1.0571
 7850SOL    HW235184   0.959   1.077   9.878 -1.6810 -1.2276 -0.3505
 7851SOL     OW35185   0.609   3.812  16.480  0.5198  0.3080 -0.5302
 7851SOL    HW135186   0.683   3.767  16.521  0.8649  1.4074  0.0593
 7851SOL    HW235187   0.543   3.752  16.515 -0.8396  1.1052 -1.7250
 7852SOL     OW35188   4.397   2.819  15.391 -0.3648  0.1912 -0.2086
 7852SOL    HW135189   4.348   2.814  15.473 -1.3763  2.1957 -0.7042
 7852SOL    HW235190   4.466   2.766  15.431 -1.7962 -0.9992  0.6823
 7853SOL     OW35191   3.995   3.282   5.341 -0.1541 -0.2807  0.0980
 7853SOL    HW135192   3.915   3.251   5.298 -0.3124  1.0695 -0.5743
 7853SOL    HW235193   4.000   3.230   5.422 -1.3520 -1.1312 -0.3787
 7854SOL     OW35194   3.927   0.060   2.900 -0.3102  0.1414  0.2629
 7854SOL    HW135195   3.994   0.093   2.841  0.0556  1.4245  1.4009
 7854SOL    HW235196   3.870   0.028   2.830 -0.2986 -1.9310  1.1925
 7855SOL     OW35197   1.169   2.055   5.673  0.1403 -0.1999  0.8454
 7855SOL    HW135198   1.111   1.985   5.641  1.2974 -0.3793 -0.8460
 7855SOL    HW235199   1.118   2.135   5.660 -1.5105 -1.5799 -1.2681
 7856SOL     OW35200   1.965   4.730   4.454  0.3604  0.0588 -0.1913
 7856SOL    HW135201   1.903   0.051   4.501  1.9611  0.4878  1.3924
 7856SOL    HW235202   2.034   4.734   4.520 -1.2401  0.7756  1.4636
 7857SOL     OW35203   3.101   1.178   8.481 -0.3453 -0.2057  0.0709
 7857SOL    HW135204   3.095   1.190   8.576 -0.3081  0.5066 -0.0155
 7857SOL    HW235205   3.025   1.228   8.452 -0.0983 -0.3474 -0.8207
 7858SOL     OW35206   2.174   1.487   6.122  0.5833 -0.3488  0.2522
 7858SOL    HW135207   2.236   1.484   6.195 -1.2909  0.1424  1.8677
 7858SOL    HW235208   2.142   1.397   6.123 -0.8521  0.1450 -2.3383
 7859SOL     OW35209   3.913   1.746   6.967  0.7455  0.8000 -0.3258
 7859SOL    HW135210   3.915   1.756   7.062 -1.5912  1.6129 -0.3799
 7859SOL    HW235211   3.933   1.653   6.954 -1.3385  0.5840 -2.0116
 7860SOL     OW35212   1.688   3.833   4.301  0.3224 -0.4918 -0.0872
 7860SOL    HW135213   1.634   3.756   4.286  1.4064 -1.3084  0.1884
 7860SOL    HW235214   1.722   3.810   4.388  0.1051 -0.5235 -0.0115
 7861SOL     OW35215   3.122   1.848   1.647  0.3525  0.1986 -0.5064
 7861SOL    HW135216   3.114   1.807   1.733  0.2900 -2.7002 -1.8961
 7861SOL    HW235217   3.038   1.893   1.648 -0.1461 -0.7266 -0.7602
 7862SOL     OW35218   1.249   1.407   5.508  0.4865  0.1301  0.3414
 7862SOL    HW135219   1.258   1.312   5.513 -0.4792 -0.0363 -1.2087
 7862SOL    HW235220   1.205   1.420   5.592  0.5624 -1.7839  0.6843
 7863SOL     OW35221   0.119   1.672   1.570 -0.0283 -0.0458  0.2866
 7863SOL    HW135222   0.099   1.761   1.544  1.2030 -0.1724 -1.0751
 7863SOL    HW235223   0.096   1.676   1.663 -0.5048 -2.7517  0.2893
 7864SOL     OW35224   1.473   0.129   3.424 -0.5036  0.5557  0.0275
 7864SOL    HW135225   1.462   0.224   3.412 -2.9599  0.4704  1.5214
 7864SOL    HW235226   1.474   0.092   3.335  0.9058 -0.2978  0.4053
 7865SOL     OW35227   0.860   0.127   5.254 -0.5846 -0.2204  0.2229
 7865SOL    HW135228   0.799   0.138   5.327  0.2246  1.2283  0.6684
 7865SOL    HW235229   0.809   0.057   5.213  1.2347 -0.1059 -2.2515
 7866SOL     OW35230   4.086   4.182   2.603 -0.1546  0.1820  0.6622
 7866SOL    HW135231   4.141   4.132   2.543 -0.0228  2.1585 -0.8618
 7866SOL    HW235232   4.039   4.103   2.631  1.2173 -1.1930 -0.8779
 7867SOL     OW35233   4.578   2.474  14.678 -0.3301  0.5613  0.5246
 7867SOL    HW135234   4.657   2.513  14.715  0.6881  0.1899 -1.2778
 7867SOL    HW235235   4.518   2.546  14.696 -1.6152 -0.3375 -0.2116
 7868SOL     OW35236   3.492   1.527   9.417 -0.1021 -0.2367  0.4615
 7868SOL    HW135237   3.571   1.556   9.370  0.0066 -0.7413  0.3298
 7868SOL    HW235238   3.438   1.483   9.351  0.3059  0.9623 -0.6604
 7869SOL     OW35239   0.447   0.810   2.978  0.1247  0.0747 -0.1816
 7869SOL    HW135240   0.529   0.767   3.002  0.7025  0.2209 -1.9311
 7869SOL    HW235241   0.392   0.732   2.981  0.1576 -0.0529 -3.2034
 7870SOL     OW35242   4.605   0.699   0.447 -0.4350 -0.1887  0.4618
 7870SOL    HW135243   4.562   0.617   0.470  1.1685 -0.5680  2.0667
 7870SOL    HW235244   4.656   0.698   0.528  0.2747  0.2887  0.0252
 7871SOL     OW35245   2.108   0.117   0.652  0.3028 -0.2442 -0.1936
 7871SOL    HW135246   2.190   0.144   0.691  0.2455  1.6552 -1.4029
 7871SOL    HW235247   2.059   0.109   0.734 -1.9540 -0.8681 -1.5702
 7872SOL     OW35248   1.861   1.052  11.016 -0.0407  0.5604  0.7961
 7872SOL    HW135249   1.933   1.052  10.954 -0.3664  1.3658  0.4077
 7872SOL    HW235250   1.782   1.060  10.961 -1.0428  2.4859  2.4772
 7873SOL     OW35251   0.283   0.652  16.588 -0.2047 -0.0201  0.1122
 7873SOL    HW135252   0.269   0.740  16.622 -0.4556  0.5795 -1.5136
 7873SOL    HW235253   0.236   0.649  16.504 -2.7233  2.5437  1.4240
 7874SOL     OW35254   0.636   2.863   3.417  0.1445 -1.3172 -0.2484
 7874SOL    HW135255   0.547   2.870   3.454  0.5968  0.2155  0.5543
 7874SOL    HW235256   0.634   2.924   3.344  1.6102  0.7932  1.4810
 7875SOL     OW35257   1.288   3.562  17.645 -0.2225  0.1849  0.1307
 7875SOL    HW135258   1.250   3.589  17.561  0.9334 -1.3432 -0.8902
 7875SOL    HW235259   1.349   3.634  17.659  1.6879 -1.5212  0.6080
 7876SOL     OW35260   1.436   4.516   3.391 -0.0794 -0.3439 -0.1996
 7876SOL    HW135261   1.346   4.539   3.367 -0.0527 -1.3535 -1.3186
 7876SOL    HW235262   1.477   4.542   3.308  0.8387  0.4979  0.5256
 7877SOL     OW35263   0.703   2.260  13.842  0.3780  0.0612  0.4233
 7877SOL    HW135264   0.686   2.195  13.910  1.5058  0.2043  0.8488
 7877SOL    HW235265   0.654   2.330  13.887 -0.0069  0.5367 -0.7278
 7878SOL     OW35266   1.292   1.139   5.492  0.1986  0.0533 -0.1720
 7878SOL    HW135267   1.295   1.103   5.404  1.3884 -1.8762  0.6612
 7878SOL    HW235268   1.256   1.064   5.539 -0.8837  0.2960 -0.6078
 7879SOL     OW35269   0.992   1.771   6.323  0.4071  0.2934  0.0426
 7879SOL    HW135270   0.977   1.784   6.417 -0.0045 -0.5060  0.0903
 7879SOL    HW235271   1.084   1.793   6.310 -0.0329  1.7678 -0.5438
 7880SOL     OW35272   0.895   3.361  17.680  0.5835 -0.3483  0.1436
 7880SOL    HW135273   0.964   3.380  17.617 -0.5768  1.1184 -0.6765
 7880SOL    HW235274   0.872   3.277  17.640 -0.2794  1.4827 -3.1716
 7881SOL     OW35275   3.177   2.402   9.514 -0.6437  0.7101 -0.2032
 7881SOL    HW135276   3.138   2.440   9.435  0.3804 -0.0836 -1.0787
 7881SOL    HW235277   3.099   2.358   9.548  0.0509 -0.7192 -0.4881
 7882SOL     OW35278   3.439   3.363  16.076 -0.0908  0.4802 -0.4515
 7882SOL    HW135279   3.501   3.309  16.028 -0.2561  0.6438 -0.8489
 7882SOL    HW235280   3.364   3.308  16.101 -0.7827  1.5041 -0.2824
 7883SOL     OW35281   1.330   2.520  14.908  0.0093  0.1262 -0.6332
 7883SOL    HW135282   1.261   2.456  14.894  0.2236  0.1112 -1.6856
 7883SOL    HW235283   1.383   2.469  14.969  0.7069 -0.3449 -1.6196
 7884SOL     OW35284   0.097   2.010  16.020  0.2045  0.4385  0.1659
 7884SOL    HW135285   0.014   2.044  15.987  0.9437  1.0327 -1.1082
 7884SOL    HW235286   0.158   2.063  15.969  1.7406 -0.8440  0.6777
 7885SOL     OW35287   3.581   3.842   7.984  0.4112  0.4147 -0.5994
 7885SOL    HW135288   3.631   3.904   7.932  0.4415  0.5171 -0.4485
 7885SOL    HW235289   3.599   3.756   7.945  0.0686 -0.8574  2.0264
 7886SOL     OW35290   0.605   4.218   0.511  0.5104 -0.1788 -0.0052
 7886SOL    HW135291   0.674   4.256   0.565 -0.8726  0.3507  1.4064
 7886SOL    HW235292   0.653   4.195   0.432  0.5031  1.4050 -0.4601
 7887SOL     OW35293   1.937   3.167   9.028 -0.3287 -0.6047 -0.7933
 7887SOL    HW135294   1.914   3.176   8.936  1.1587 -1.1923 -1.2188
 7887SOL    HW235295   2.002   3.237   9.039 -1.2921  0.0250  0.8965
 7888SOL     OW35296   4.043   0.715  16.706 -0.7587  0.4706 -0.0656
 7888SOL    HW135297   4.047   0.792  16.651 -1.5373  0.8374  0.3894
 7888SOL    HW235298   4.115   0.668  16.664 -1.2641  0.5728 -1.0321
 7889SOL     OW35299   1.081   4.222   5.314 -0.2073 -0.4867 -0.7396
 7889SOL    HW135300   1.024   4.210   5.238  0.2867 -1.0981 -1.0141
 7889SOL    HW235301   1.162   4.252   5.274 -0.6567 -0.0275 -1.3051
 7890SOL     OW35302   0.829   3.278  17.358 -0.0077 -0.1212 -0.2980
 7890SOL    HW135303   0.758   3.261  17.297 -0.6528  0.2481  0.3452
 7890SOL    HW235304   0.786   3.247  17.438  0.3236  2.7285  1.0008
 7891SOL     OW35305   1.444   0.444   5.046 -0.0908  0.8460 -0.1834
 7891SOL    HW135306   1.415   0.535   5.038  1.0186  1.2050 -0.0516
 7891SOL    HW235307   1.528   0.466   5.086 -1.7773  2.5684  2.4573
 7892SOL     OW35308   1.459   2.135  11.741  0.5063 -0.1435  0.4970
 7892SOL    HW135309   1.424   2.116  11.654 -1.0139  1.5506  0.7458
 7892SOL    HW235310   1.482   2.227  11.736  1.3830 -0.3991 -0.1639
 7893SOL     OW35311   1.632   0.118   0.171 -0.1994  0.2862  0.0439
 7893SOL    HW135312   1.639   0.212   0.157  1.2257  0.4392  1.6811
 7893SOL    HW235313   1.540   0.113   0.196  0.0573 -0.1342  0.9240
 7894SOL     OW35314   3.307   4.565   7.254  0.0592  0.1224 -0.3983
 7894SOL    HW135315   3.376   4.519   7.207  0.7186  3.5765 -2.8721
 7894SOL    HW235316   3.227   4.530   7.215 -0.3007  0.3370  0.1478
 7895SOL     OW35317   3.253   0.989   6.061  0.7029 -0.0742  0.8319
 7895SOL    HW135318   3.300   0.935   5.998 -1.1995  2.2738 -2.6206
 7895SOL    HW235319   3.306   1.069   6.059 -0.4453  0.6602  0.1496
 7896SOL     OW35320   2.489   2.601   1.978  0.2586  0.0676 -0.2123
 7896SOL    HW135321   2.563   2.542   1.992 -0.2749 -0.6958 -0.6076
 7896SOL    HW235322   2.435   2.590   2.056  0.2389 -2.7711 -0.6208
 7897SOL     OW35323   0.545   0.678   7.571  0.3986  0.0201 -0.4316
 7897SOL    HW135324   0.603   0.604   7.554  0.2088  0.1991 -1.9128
 7897SOL    HW235325   0.569   0.691   7.662 -0.0009 -1.2771 -0.1383
 7898SOL     OW35326   2.656   1.906  15.853 -0.1496  0.1975 -0.2404
 7898SOL    HW135327   2.675   1.837  15.790 -1.0757 -0.8596  0.6193
 7898SOL    HW235328   2.730   1.962  15.832 -0.5837 -0.4627 -3.5469
 7899SOL     OW35329   2.257   1.895   5.562 -0.2217  0.0716 -0.5544
 7899SOL    HW135330   2.282   1.948   5.637 -0.4892 -1.3115  0.5081
 7899SOL    HW235331   2.325   1.828   5.562  1.1500  1.4608 -2.3441
 7900SOL     OW35332   1.192   0.867   8.904 -0.4891  0.0576 -0.6952
 7900SOL    HW135333   1.228   0.930   8.966  2.3485 -1.4464 -0.8050
 7900SOL    HW235334   1.155   0.796   8.957 -0.3312  1.1278  0.8492
 7901SOL     OW35335   3.915   2.710   3.807 -0.2821  0.6147 -0.0250
 7901SOL    HW135336   3.950   2.696   3.895 -1.8737 -2.1531  0.1733
 7901SOL    HW235337   3.968   2.646   3.759 -1.9188 -0.6261 -0.1789
 7902SOL     OW35338   3.459   2.570   5.164  0.1294  0.4314  0.4866
 7902SOL    HW135339   3.451   2.475   5.150  1.6366 -0.1514  3.4650
 7902SOL    HW235340   3.548   2.586   5.194  0.6206 -1.6667  0.1544
 7903SOL     OW35341   0.441   3.625   3.648 -0.5664 -0.2936  0.1065
 7903SOL    HW135342   0.524   3.578   3.658  0.1578  0.8543 -0.5183
 7903SOL    HW235343   0.382   3.556   3.677 -0.4643  0.3328  1.8706
 7904SOL     OW35344   4.398   4.683   8.972 -0.2547  0.0629  0.6223
 7904SOL    HW135345   4.461   4.618   9.005 -0.6298 -0.6065  0.0203
 7904SOL    HW235346   4.366   4.647   8.889  0.3229  0.1051  0.3791
 7905SOL     OW35347   3.506   4.524   0.193  0.1181  0.0078 -0.4800
 7905SOL    HW135348   3.480   4.553   0.106 -1.1622 -1.6428 -0.6535
 7905SOL    HW235349   3.591   4.484   0.176 -1.1664 -4.0575  2.6256
 7906SOL     OW35350   4.050   3.516   5.579 -0.4565  0.5968 -0.2412
 7906SOL    HW135351   4.090   3.431   5.561 -2.6910 -0.5280  0.0909
 7906SOL    HW235352   4.078   3.536   5.668 -0.3448  1.0381 -0.3757
 7907SOL     OW35353   1.914   0.722   7.793  0.3659  0.2996 -0.2248
 7907SOL    HW135354   1.847   0.701   7.857  1.4725 -0.1356  0.7808
 7907SOL    HW235355   1.995   0.720   7.842  1.0382 -2.3633 -1.4001
 7908SOL     OW35356   2.964   1.759   2.761 -0.8459  0.0847 -0.2400
 7908SOL    HW135357   2.912   1.712   2.695 -1.2460 -0.4052  0.4250
 7908SOL    HW235358   3.001   1.834   2.714 -0.3699  1.1279  1.8137
 7909SOL     OW35359   0.845   3.816   8.870  0.6186 -0.3044  0.5382
 7909SOL    HW135360   0.871   3.726   8.889  1.4353 -0.4993 -1.4645
 7909SOL    HW235361   0.807   3.857   8.948  0.2311 -0.4864  0.4454
 7910SOL     OW35362   1.587   1.723   1.126  0.7657  0.2683 -0.4356
 7910SOL    HW135363   1.533   1.743   1.050  0.2124 -0.1813 -0.1621
 7910SOL    HW235364   1.636   1.799   1.156 -0.4746 -0.0356  2.3802
 7911SOL     OW35365   1.776   4.201   2.531 -0.5937  0.0325 -0.3626
 7911SOL    HW135366   1.774   4.174   2.439  0.0475 -0.3011 -0.2753
 7911SOL    HW235367   1.689   4.177   2.565 -0.9502  0.1430 -1.1887
 7912SOL     OW35368   3.777   4.138   6.221 -0.5971  0.2254 -0.3061
 7912SOL    HW135369   3.808   4.140   6.311  2.2897 -0.7604 -1.2618
 7912SOL    HW235370   3.843   4.180   6.166 -0.5005 -0.7676 -0.9679
 7913SOL     OW35371   2.099   2.594   5.823 -0.3890  0.0666  0.0195
 7913SOL    HW135372   2.179   2.542   5.827  0.9927  2.1200 -0.5393
 7913SOL    HW235373   2.058   2.562   5.903  1.5359  3.2137  2.2873
 7914SOL     OW35374   0.217   0.067   9.429 -0.5439  0.1646 -0.0793
 7914SOL    HW135375   0.263   0.097   9.350 -2.3322 -0.9136 -1.5166
 7914SOL    HW235376   0.136   0.117   9.426  0.2428  1.4318 -0.3562
 7915SOL     OW35377   1.420   0.903   3.686 -0.4290 -0.2352 -0.2973
 7915SOL    HW135378   1.497   0.959   3.684 -1.7628  1.7309  1.7639
 7915SOL    HW235379   1.384   0.956   3.758  0.8693  2.6615 -1.8136
 7916SOL     OW35380   1.279   3.260  11.575 -0.1377 -0.6904  0.3975
 7916SOL    HW135381   1.229   3.207  11.637 -1.7806 -0.2479 -0.5402
 7916SOL    HW235382   1.231   3.255  11.492 -1.7399  0.4059  1.2626
 7917SOL     OW35383   4.475   1.993  11.675  0.9444  0.3548 -0.1296
 7917SOL    HW135384   4.410   1.932  11.641  0.2916  0.5962  0.6795
 7917SOL    HW235385   4.537   1.944  11.730 -0.3000  1.2640  2.0744
 7918SOL     OW35386   1.589   0.031  11.753  0.8664  0.3939 -0.2093
 7918SOL    HW135387   1.682   0.010  11.757  0.9265  0.7452  0.2201
 7918SOL    HW235388   1.562   4.707  11.683 -0.1851  0.4426  0.1498
 7919SOL     OW35389   0.957   0.272   0.093  0.0835 -0.0442  0.2163
 7919SOL    HW135390   1.040   0.312   0.067 -0.5985  0.8101 -0.6600
 7919SOL    HW235391   0.978   0.179   0.088  1.9567  0.3466  1.0905
 7920SOL     OW35392   1.824   3.086  17.503  0.1388 -0.1357 -0.2877
 7920SOL    HW135393   1.748   3.032  17.523  0.7303 -1.5946 -1.9774
 7920SOL    HW235394   1.896   3.055  17.558  1.6836  1.6922 -1.2558
 7921SOL     OW35395   0.018   3.673   3.600 -0.3737 -0.6314 -0.3058
 7921SOL    HW135396   0.046   3.630   3.519 -0.7611 -0.6448 -0.4337
 7921SOL    HW235397   4.673   3.624   3.620 -1.3739  1.0475 -0.1926
 7922SOL     OW35398   4.544   2.596   9.313  0.5641  0.5680 -0.2614
 7922SOL    HW135399   4.590   2.666   9.266  1.9453  0.3328  0.7457
 7922SOL    HW235400   4.611   2.581   9.380  1.4796 -0.7685 -1.4756
 7923SOL     OW35401   4.226   0.770  13.219 -0.4556  0.3065 -0.0089
 7923SOL    HW135402   4.214   0.682  13.254 -0.5639  0.9662  1.5816
 7923SOL    HW235403   4.311   0.773  13.175 -1.3005 -1.5577 -1.7435
 7924SOL     OW35404   0.428   3.093  13.862  0.1890 -0.0887 -0.1818
 7924SOL    HW135405   0.516   3.111  13.830  0.0537  0.3223 -0.3207
 7924SOL    HW235406   0.391   3.054  13.783 -1.9225  2.6139 -0.5359
 7925SOL     OW35407   2.097   4.337   6.413  0.5404  0.5608 -0.6024
 7925SOL    HW135408   2.082   4.400   6.343 -0.0558  0.3821 -0.6373
 7925SOL    HW235409   2.069   4.394   6.485  0.2970  2.8581 -2.5183
 7926SOL     OW35410   3.570   2.029   6.794  0.1480  0.1814  0.1441
 7926SOL    HW135411   3.617   2.098   6.840 -1.8012  1.1335  0.6884
 7926SOL    HW235412   3.515   2.082   6.737 -2.9895 -0.9617  2.1068
 7927SOL     OW35413   2.351   0.075   6.110  0.4418  0.2893 -0.0481
 7927SOL    HW135414   2.317   4.721   6.104  1.6226 -0.1395 -0.3521
 7927SOL    HW235415   2.420   0.076   6.044 -0.7008 -0.8055 -1.2859
 7928SOL     OW35416   2.002   1.835  10.765 -0.5079 -0.2132 -0.3173
 7928SOL    HW135417   2.076   1.871  10.716 -0.7840  2.1844  1.0338
 7928SOL    HW235418   2.003   1.892  10.842  1.4846  0.8091 -1.0880
 7929SOL     OW35419   2.383   0.213   8.198  0.3215 -0.8156  0.5327
 7929SOL    HW135420   2.324   0.152   8.154  1.0168 -0.7839 -0.4117
 7929SOL    HW235421   2.323   0.288   8.201  0.7951 -0.4896  1.8873
 7930SOL     OW35422   3.704   2.222   4.128 -0.0615 -0.3840 -0.3312
 7930SOL    HW135423   3.640   2.153   4.110 -0.6371 -0.0557  0.4309
 7930SOL    HW235424   3.646   2.298   4.134  0.0978 -0.2589 -0.3840
 7931SOL     OW35425   2.477   4.644   2.328  0.3693  0.5031  0.3163
 7931SOL    HW135426   2.482   4.570   2.267  0.3126  1.3678 -0.7274
 7931SOL    HW235427   2.566   4.681   2.330  0.1786  1.0767 -1.7316
 7932SOL     OW35428   0.927   1.815   5.751  0.2699  0.2429 -0.0216
 7932SOL    HW135429   0.856   1.769   5.797 -0.0973  0.8432  0.0125
 7932SOL    HW235430   1.000   1.768   5.791  1.8918  1.6629 -1.3187
 7933SOL     OW35431   2.037   3.297   5.581 -0.4416  0.3322 -0.3353
 7933SOL    HW135432   2.068   3.387   5.568 -1.0932  0.5114 -0.6549
 7933SOL    HW235433   2.106   3.267   5.640  0.7510 -0.2762 -2.0188
 7934SOL     OW35434   3.199   3.376   7.686 -0.5753  0.4846 -0.0312
 7934SOL    HW135435   3.282   3.422   7.700  0.1809 -1.2785  1.1649
 7934SOL    HW235436   3.222   3.284   7.700 -2.0482 -0.2523 -2.4084
 7935SOL     OW35437   4.243   3.070   2.637  0.3976 -0.3670 -0.4161
 7935SOL    HW135438   4.308   3.121   2.589  0.6938  0.7064  1.1413
 7935SOL    HW235439   4.310   3.023   2.687 -0.8021 -0.4325  1.0923
 7936SOL     OW35440   1.361   0.559   5.997 -0.2928  0.7712  0.2387
 7936SOL    HW135441   1.272   0.537   5.971 -0.9805  1.2333  2.1887
 7936SOL    HW235442   1.414   0.552   5.917  2.3396 -0.1174  2.0572
 7937SOL     OW35443   3.333   3.964  16.713  0.1442  0.2309 -0.5357
 7937SOL    HW135444   3.328   3.874  16.744  0.6918  0.7841  1.1734
 7937SOL    HW235445   3.283   3.963  16.631 -0.8571 -1.9305  0.1078
 7938SOL     OW35446   0.221   1.918   8.598  0.2842 -0.2240  0.1351
 7938SOL    HW135447   0.185   2.006   8.606 -1.1424 -0.7628 -0.2585
 7938SOL    HW235448   0.210   1.889   8.507  1.3689  0.9415 -0.3698
 7939SOL     OW35449   2.479   3.641   8.646  0.5389  0.2552  0.0316
 7939SOL    HW135450   2.536   3.565   8.630  0.2357  0.4639 -2.0649
 7939SOL    HW235451   2.527   3.677   8.721  0.8643  0.3165 -0.2009
 7940SOL     OW35452   4.159   3.813   8.434  0.3606 -0.0914 -0.6380
 7940SOL    HW135453   4.082   3.768   8.398 -0.0784  1.9752 -2.2418
 7940SOL    HW235454   4.157   3.774   8.522 -1.0250 -0.2854 -0.7600
 7941SOL     OW35455   2.877   0.381   4.139 -0.1291  0.2450 -0.0901
 7941SOL    HW135456   2.879   0.468   4.179 -1.6971  0.3195 -0.1680
 7941SOL    HW235457   2.919   0.331   4.210 -0.0461  0.4710  0.0207
 7942SOL     OW35458   4.661   1.034   6.632 -0.4704 -0.1635  0.0319
 7942SOL    HW135459   4.691   1.075   6.713 -0.3537 -1.0812  0.4516
 7942SOL    HW235460   4.584   0.990   6.670 -1.1669  1.2254  0.2284
 7943SOL     OW35461   0.093   1.636   2.882  0.1785  0.4232 -0.0816
 7943SOL    HW135462   0.155   1.706   2.861  0.5413  0.5210  1.3309
 7943SOL    HW235463   0.096   1.572   2.810 -0.7992  1.4820 -1.0681
 7944SOL     OW35464   2.811   0.213   7.653 -0.1758  0.1295  0.4819
 7944SOL    HW135465   2.863   0.137   7.680 -2.3214 -0.2852  3.3751
 7944SOL    HW235466   2.851   0.228   7.567  0.2614  1.9612  1.0125
 7945SOL     OW35467   1.417   0.747  11.169 -0.1337 -0.0557 -0.5041
 7945SOL    HW135468   1.507   0.725  11.143 -0.2367 -0.6416 -0.3709
 7945SOL    HW235469   1.364   0.704  11.102  0.8552 -1.3838 -0.4399
 7946SOL     OW35470   2.564   1.957  14.033 -0.7060  0.3665  0.2787
 7946SOL    HW135471   2.517   1.928  14.111  0.3660 -0.7374  0.5108
 7946SOL    HW235472   2.652   1.980  14.064  0.2241  1.2076 -2.8987
 7947SOL     OW35473   2.286   0.605   7.570  0.2686  0.3049 -0.0649
 7947SOL    HW135474   2.378   0.583   7.585  0.3735  0.3148 -0.7327
 7947SOL    HW235475   2.295   0.697   7.548  1.4497  0.2758  0.2797
 7948SOL     OW35476   3.781   3.074   8.465 -0.0941 -0.2159  0.1189
 7948SOL    HW135477   3.720   3.142   8.438 -1.3665 -1.2159  0.4916
 7948SOL    HW235478   3.760   3.002   8.405  0.0889  0.9124 -1.2929
 7949SOL     OW35479   4.257   1.865   5.979  0.8240  0.7770 -0.5207
 7949SOL    HW135480   4.220   1.905   6.057 -0.4718 -1.9504  0.2678
 7949SOL    HW235481   4.345   1.834   6.002  0.3597 -1.0124 -1.1764
 7950SOL     OW35482   1.805   1.048   8.070 -0.1664  0.1650 -0.1706
 7950SOL    HW135483   1.893   1.010   8.068  0.3844  1.5251 -1.4839
 7950SOL    HW235484   1.831   1.117   8.009  0.7829 -0.6663 -0.7151
 7951SOL     OW35485   0.204   1.896  10.574  0.4083 -0.4173  0.0197
 7951SOL    HW135486   0.154   1.971  10.607 -0.3168 -0.8491 -0.0754
 7951SOL    HW235487   0.150   1.829  10.616  0.7225 -2.5991 -3.0244
 7952SOL     OW35488   0.577   1.012   8.012 -0.3443 -0.3325 -0.0283
 7952SOL    HW135489   0.657   1.058   8.039 -0.0854 -1.7415  1.5686
 7952SOL    HW235490   0.505   1.075   8.009 -0.2559 -0.2703 -1.1691
 7953SOL     OW35491   0.651   2.588   1.033  0.2617 -0.4086 -0.1649
 7953SOL    HW135492   0.745   2.592   1.018  0.1565  3.4424  0.3457
 7953SOL    HW235493   0.628   2.661   0.977  2.2155 -0.1898 -0.6667
 7954SOL     OW35494   0.705   2.374  12.711  0.1500 -0.1262 -0.2268
 7954SOL    HW135495   0.715   2.279  12.712 -1.9398 -0.3250  1.5056
 7954SOL    HW235496   0.769   2.411  12.772 -0.3445  1.3130 -0.5738
 7955SOL     OW35497   4.422   1.995   4.798 -0.7396  0.1564  0.2985
 7955SOL    HW135498   4.471   1.915   4.812  0.2282  0.4543 -1.3366
 7955SOL    HW235499   4.446   2.014   4.707  0.2306  0.8761  0.7080
 7956SOL     OW35500   3.557   3.484  17.161  0.4808 -0.2432  0.2668
 7956SOL    HW135501   3.488   3.549  17.148  0.7315  0.1251  0.8007
 7956SOL    HW235502   3.568   3.443  17.075 -1.1269  1.6481 -0.8235
 7957SOL     OW35503   1.283   2.113   6.285 -0.3812 -0.6056  0.1124
 7957SOL    HW135504   1.203   2.115   6.337  0.5454 -2.5128  1.6434
 7957SOL    HW235505   1.280   2.018   6.270  0.0739 -0.1463 -2.9788
 7958SOL     OW35506   0.443   2.618   1.200  0.6465 -0.2189  0.5087
 7958SOL    HW135507   0.524   2.611   1.148  0.9723 -1.6640  1.1871
 7958SOL    HW235508   0.440   2.713   1.197 -0.2823 -0.3343 -2.3020
 7959SOL     OW35509   4.260   2.171  14.484  0.1020  0.9946 -0.5323
 7959SOL    HW135510   4.237   2.264  14.477  2.8332  1.6626 -0.7507
 7959SOL    HW235511   4.355   2.177  14.495  0.0930  0.0058  0.1359
 7960SOL     OW35512   1.853   3.608  15.781 -0.3362  0.5553  0.1517
 7960SOL    HW135513   1.941   3.592  15.816  0.4434 -0.8077 -2.4709
 7960SOL    HW235514   1.878   3.662  15.706  1.2380 -0.1989  0.1298
 7961SOL     OW35515   0.532   2.253   4.201 -0.3675 -0.1112 -0.2756
 7961SOL    HW135516   0.537   2.225   4.292 -0.9777 -0.4800 -0.3572
 7961SOL    HW235517   0.448   2.300   4.202  0.6543  1.6578  1.1198
 7962SOL     OW35518   3.992   1.218  11.858  0.3769  0.5371 -0.2952
 7962SOL    HW135519   3.951   1.250  11.938  0.0373  1.9309 -1.0221
 7962SOL    HW235520   3.958   1.282  11.795 -0.0156  0.2165 -0.4119
 7963SOL     OW35521   0.221   3.495   4.571  0.6809 -0.0398  0.1631
 7963SOL    HW135522   0.178   3.466   4.491 -2.1346  2.0055  0.9495
 7963SOL    HW235523   0.161   3.564   4.599  0.1236 -0.7202  0.6680
 7964SOL     OW35524   3.234   3.749   7.270 -0.1936 -0.0985 -0.0033
 7964SOL    HW135525   3.217   3.843   7.280  0.1060  0.2190 -2.4393
 7964SOL    HW235526   3.147   3.731   7.306  1.2171 -1.8084  2.5112
 7965SOL     OW35527   2.284   4.648   8.306  0.0783 -0.7233 -0.2520
 7965SOL    HW135528   2.285   4.683   8.217 -0.1654 -0.5051 -0.1697
 7965SOL    HW235529   2.189   4.653   8.316 -0.3751 -2.1045 -3.9043
 7966SOL     OW35530   0.120   4.231  17.608  0.3992  0.4394  0.0756
 7966SOL    HW135531   0.048   4.292  17.594  0.6766  0.7882  0.1672
 7966SOL    HW235532   0.076   4.168  17.664  1.9030 -1.9132 -1.3463
 7967SOL     OW35533   4.181   2.012   6.786 -0.4300  0.1951 -0.1344
 7967SOL    HW135534   4.231   1.959   6.724 -0.8670 -2.0539  1.4531
 7967SOL    HW235535   4.190   1.953   6.860  0.1863 -0.3577 -0.6529
 7968SOL     OW35536   0.059   3.268   1.665 -0.2667  0.3883 -0.1816
 7968SOL    HW135537   0.152   3.253   1.682 -0.7160  0.5260  2.4339
 7968SOL    HW235538   0.018   3.261   1.751 -0.3484 -1.2020 -0.3558
 7969SOL     OW35539   0.489   2.667   2.353  0.6484  0.3020  0.0102
 7969SOL    HW135540   0.581   2.668   2.326  0.4675  0.4912 -0.6023
 7969SOL    HW235541   0.493   2.578   2.387  0.5740  0.7312  1.1476
 7970SOL     OW35542   0.116   2.267   3.441  0.0040 -0.2543  0.1068
 7970SOL    HW135543   0.187   2.315   3.483 -0.8041  1.9008 -1.0023
 7970SOL    HW235544   0.042   2.276   3.501  0.3910  1.2695  0.3458
 7971SOL     OW35545   2.063   2.896  17.328  0.1060  0.4229 -0.1749
 7971SOL    HW135546   2.108   2.811  17.330  0.5621  0.6519 -0.6374
 7971SOL    HW235547   1.983   2.879  17.377  0.9450  0.4912  1.2025
 7972SOL     OW35548   1.783   0.549   7.391  0.7663  0.2026 -0.0822
 7972SOL    HW135549   1.852   0.535   7.326  1.2189  0.4046  0.3530
 7972SOL    HW235550   1.832   0.602   7.454  0.1268 -0.3407  0.8661
 7973SOL     OW35551   1.340   2.433   4.440  0.4893  0.6763 -0.1913
 7973SOL    HW135552   1.361   2.499   4.505  0.3373  0.0860  0.4577
 7973SOL    HW235553   1.353   2.489   4.363 -0.9622  3.1922  1.4010
 7974SOL     OW35554   2.151   4.476   5.174  0.4201 -0.7291  0.0244
 7974SOL    HW135555   2.170   4.532   5.099 -1.2640 -0.7185 -0.3836
 7974SOL    HW235556   2.067   4.444   5.141 -0.2640 -0.2417  1.2972
 7975SOL     OW35557   0.302   0.943   0.236  0.2267 -0.4835  0.2818
 7975SOL    HW135558   0.228   0.897   0.196 -0.2406 -0.7961  1.5067
 7975SOL    HW235559   0.339   0.970   0.152 -0.0764 -2.0426 -0.3656
 7976SOL     OW35560   3.017   3.949   5.301 -0.0554 -0.1250  0.4129
 7976SOL    HW135561   2.951   3.901   5.251  2.2126 -2.7275 -0.0783
 7976SOL    HW235562   3.022   4.033   5.257  2.6963 -1.2272 -1.3771
 7977SOL     OW35563   3.632   2.297   2.554 -0.2055  0.2161  0.2714
 7977SOL    HW135564   3.631   2.236   2.628 -2.9111  0.0791  0.1141
 7977SOL    HW235565   3.716   2.341   2.569  1.3057 -1.0320 -4.5012
 7978SOL     OW35566   1.023   4.296   7.847  0.5734 -0.4477  0.0012
 7978SOL    HW135567   1.118   4.310   7.853  0.2441  1.8838 -0.1339
 7978SOL    HW235568   1.010   4.239   7.923  2.1339 -2.4410 -1.2391
 7979SOL     OW35569   2.608   0.277   5.007 -0.1041  0.2597 -0.1318
 7979SOL    HW135570   2.603   0.323   4.923 -1.2425 -1.1816 -0.8396
 7979SOL    HW235571   2.630   0.187   4.984  0.1188  0.3123 -0.1319
 7980SOL     OW35572   2.652   1.655   0.664 -0.1141 -0.2411  1.0526
 7980SOL    HW135573   2.610   1.641   0.579  2.1551 -0.5305 -0.0323
 7980SOL    HW235574   2.621   1.582   0.719  2.0422 -0.3358  2.1737
 7981SOL     OW35575   2.079   0.813   6.746 -0.4876  0.3844 -0.0021
 7981SOL    HW135576   2.006   0.829   6.685  1.1614 -0.1445 -2.1038
 7981SOL    HW235577   2.043   0.732   6.781 -0.3645  0.0419 -0.6697
 7982SOL     OW35578   0.714   4.523   1.940 -0.1728 -0.5327 -0.6172
 7982SOL    HW135579   0.665   4.444   1.961  2.9568 -1.6715  2.3833
 7982SOL    HW235580   0.779   4.498   1.874 -0.4637  0.3991 -1.2569
 7983SOL     OW35581   4.207   0.471   0.577 -0.1888  0.3179  0.4950
 7983SOL    HW135582   4.157   0.551   0.591  1.5372  1.3870  0.5360
 7983SOL    HW235583   4.149   0.401   0.607  0.8007 -0.6693  0.1094
 7984SOL     OW35584   1.162   0.699   2.731 -0.1205  0.9912  0.4328
 7984SOL    HW135585   1.210   0.767   2.777  1.0847  0.1334  0.4543
 7984SOL    HW235586   1.081   0.748   2.715 -1.4385 -1.4895 -0.5389
 7985SOL     OW35587   1.067   2.878   2.262 -0.4488  0.2562 -0.2706
 7985SOL    HW135588   1.098   2.788   2.257 -3.0994 -0.7499  1.2518
 7985SOL    HW235589   1.132   2.926   2.312 -0.0865  1.3498 -1.7710
 7986SOL     OW35590   2.997   1.594  17.724  0.3851 -0.2872  0.7139
 7986SOL    HW135591   2.936   1.523  17.701 -2.2207  1.9577  0.6117
 7986SOL    HW235592   2.937   1.655  17.680  1.7364  0.3838 -0.1688
 7987SOL     OW35593   3.597   2.265   1.771 -0.3457  0.0004 -0.2715
 7987SOL    HW135594   3.513   2.277   1.817 -1.3179  0.7457 -2.2360
 7987SOL    HW235595   3.610   2.171   1.768 -0.7223 -0.0159 -1.1969
 7988SOL     OW35596   2.627   2.661   5.328 -0.2985  0.2460 -0.5244
 7988SOL    HW135597   2.551   2.719   5.326  1.3153  2.3602 -0.6150
 7988SOL    HW235598   2.683   2.692   5.399 -0.0258 -1.7133  0.1145
 7989SOL     OW35599   3.508   3.596   1.328  0.0630  0.0237 -0.2106
 7989SOL    HW135600   3.504   3.555   1.415  1.2630 -1.0373 -0.6530
 7989SOL    HW235601   3.594   3.635   1.345 -0.0437  0.3912 -0.5237
 7990SOL     OW35602   1.968   2.846  15.433  0.1506 -0.2459  0.0216
 7990SOL    HW135603   1.912   2.771  15.454 -1.0060  0.3617 -0.8984
 7990SOL    HW235604   1.909   2.874  15.363 -0.1147 -0.0750  0.3133
 7991SOL     OW35605   1.549   0.207   4.730  0.5870  0.0699  0.0818
 7991SOL    HW135606   1.543   0.230   4.637  0.6494 -2.4711 -0.5649
 7991SOL    HW235607   1.490   0.272   4.767  0.1261 -1.8218  2.6727
 7992SOL     OW35608   1.244   0.615   8.355  0.5026  0.2708  0.2680
 7992SOL    HW135609   1.264   0.603   8.448  2.6040  0.7058 -0.1372
 7992SOL    HW235610   1.334   0.633   8.328  0.0616  2.2032  0.0750
 7993SOL     OW35611   3.950   0.415   6.453  0.0655 -0.2096 -0.1343
 7993SOL    HW135612   3.949   0.345   6.518  1.4682 -0.3388 -0.2404
 7993SOL    HW235613   3.869   0.464   6.467  0.2193 -0.0620  0.2320
 7994SOL     OW35614   3.662   4.657  11.977  0.0577 -0.3973  0.3058
 7994SOL    HW135615   3.687   4.590  12.041  0.0877  0.9956  1.7400
 7994SOL    HW235616   3.599   4.716  12.019 -1.6927 -1.1582 -1.2286
 7995SOL     OW35617   3.676   1.204   5.616  0.0726 -0.7517 -0.2762
 7995SOL    HW135618   3.646   1.285   5.657 -0.9582 -0.7776 -0.9857
 7995SOL    HW235619   3.674   1.154   5.698 -2.9842  2.3659  1.5589
 7996SOL     OW35620   2.575   0.557   9.276 -0.0659 -0.0890  0.1074
 7996SOL    HW135621   2.609   0.541   9.364  2.4472 -3.2641 -1.4848
 7996SOL    HW235622   2.509   0.625   9.290  0.5892  0.3311  1.1884
 7997SOL     OW35623   3.847   3.024   4.842  0.2455  0.1445 -0.0421
 7997SOL    HW135624   3.769   2.988   4.884  0.4764 -1.2945 -0.8621
 7997SOL    HW235625   3.875   3.104   4.888  1.8461 -0.9376  0.8721
 7998SOL     OW35626   0.303   4.616   3.772 -0.1281  0.8584 -0.1338
 7998SOL    HW135627   0.336   4.649   3.855 -1.0876 -1.2828  1.0757
 7998SOL    HW235628   0.346   4.663   3.700 -0.5491  0.7124 -0.4809
 7999SOL     OW35629   2.360   1.948   9.586  0.3364  0.6152 -0.6079
 7999SOL    HW135630   2.271   1.953   9.551 -0.7553  1.3929  2.3494
 7999SOL    HW235631   2.342   1.974   9.676 -1.8848  0.1195 -0.9087
 8000SOL     OW35632   3.606   3.222   6.080 -0.2372 -0.3367  0.0439
 8000SOL    HW135633   3.682   3.274   6.054 -1.7917  2.8256  1.8080
 8000SOL    HW235634   3.550   3.249   6.007 -0.0390  3.5455  1.3687
 8001SOL     OW35635   1.510   1.469  14.894 -0.4288  0.1658 -0.2404
 8001SOL    HW135636   1.450   1.404  14.857  0.8776 -1.4743  0.4828
 8001SOL    HW235637   1.562   1.509  14.824 -0.8905  1.0344 -0.0784
 8002SOL     OW35638   3.475   2.072   9.359 -0.1068  0.0127  0.2273
 8002SOL    HW135639   3.542   2.139   9.374 -0.8887  0.4799  1.6459
 8002SOL    HW235640   3.405   2.109   9.412 -0.6767 -0.4413 -0.2015
 8003SOL     OW35641   1.527   0.027   2.148  0.3562  0.0420  0.0420
 8003SOL    HW135642   1.552   0.085   2.076  1.5683 -0.2234  0.2396
 8003SOL    HW235643   1.468   4.705   2.099  1.3019 -0.6255 -0.3249
 8004SOL     OW35644   4.085   2.002  13.000 -0.3411 -0.1502 -0.5202
 8004SOL    HW135645   4.076   1.973  13.091 -2.8242  0.6806 -0.5135
 8004SOL    HW235646   4.162   1.948  12.982 -1.0609 -0.9430 -1.1813
 8005SOL     OW35647   3.634   2.293   0.866  0.9075 -0.0462  0.3184
 8005SOL    HW135648   3.611   2.359   0.931 -0.2146 -0.4702  0.3642
 8005SOL    HW235649   3.581   2.342   0.803 -0.1886 -1.9721 -0.2797
 8006SOL     OW35650   3.309   2.848   4.254  0.1657 -0.5341 -0.1830
 8006SOL    HW135651   3.254   2.903   4.198 -0.5877  0.8110  1.8815
 8006SOL    HW235652   3.322   2.772   4.198 -1.2191 -0.2456 -0.8881
 8007SOL     OW35653   2.990   0.669   8.118  0.0492  0.6074 -0.0140
 8007SOL    HW135654   2.970   0.751   8.073  2.3532  0.6701 -0.8907
 8007SOL    HW235655   3.029   0.688   8.203 -1.0824  1.4307  0.3135
 8008SOL     OW35656   2.029   0.490   7.216 -0.3140 -0.4439  0.4961
 8008SOL    HW135657   2.098   0.476   7.281 -0.2078  2.6396  1.0369
 8008SOL    HW235658   2.068   0.552   7.155  0.1798  0.5742  1.8294
 8009SOL     OW35659   2.716   0.793   7.893 -0.1734  0.0885 -0.2959
 8009SOL    HW135660   2.762   0.759   7.970 -1.6976 -0.9710  0.1223
 8009SOL    HW235661   2.776   0.855   7.852  0.3200 -2.0496 -2.7503
 8010SOL     OW35662   0.879   2.356  14.118  0.2355  0.4569 -0.4490
 8010SOL    HW135663   0.827   2.280  14.145  1.1942  0.1064  0.4034
 8010SOL    HW235664   0.822   2.427  14.147 -2.7152 -2.0517 -0.0601
 8011SOL     OW35665   2.589   0.411   4.768  0.3059 -0.5226  0.4886
 8011SOL    HW135666   2.518   0.458   4.723 -0.3446 -1.0055  1.0130
 8011SOL    HW235667   2.655   0.480   4.776 -0.2876 -0.1263  1.9034
 8012SOL     OW35668   0.220   2.366   5.390  0.2390 -0.2691 -0.2830
 8012SOL    HW135669   0.141   2.346   5.441  0.2609 -1.6376 -0.8009
 8012SOL    HW235670   0.257   2.446   5.428 -1.1907 -0.0466  0.6590
 8013SOL     OW35671   0.235   2.033   7.270 -0.5435  0.8128  0.2451
 8013SOL    HW135672   0.283   2.077   7.199  0.0926  0.1685  0.2728
 8013SOL    HW235673   0.165   1.996   7.216  0.5564 -0.3755 -0.3706
 8014SOL     OW35674   1.525   3.457   8.143  0.1156  0.2693 -0.4666
 8014SOL    HW135675   1.621   3.461   8.148 -0.0396  1.6844  1.1962
 8014SOL    HW235676   1.498   3.531   8.198  0.2663  1.2631 -1.7294
 8015SOL     OW35677   2.024   3.081   3.111  0.0199 -0.3951 -0.3709
 8015SOL    HW135678   2.011   3.067   3.205 -2.1978 -0.0829 -0.6310
 8015SOL    HW235679   2.067   3.001   3.082  0.0679 -0.1990 -0.8334
 8016SOL     OW35680   0.955   3.982   7.562  1.1350 -0.5691 -0.2428
 8016SOL    HW135681   0.900   3.919   7.609  0.7913  0.0591  0.1866
 8016SOL    HW235682   1.032   3.980   7.619 -0.1962 -1.2974  1.5377
 8017SOL     OW35683   2.871   2.919   8.451  0.0599  0.1693  0.1952
 8017SOL    HW135684   2.832   2.899   8.536 -0.1810  0.3106  0.1168
 8017SOL    HW235685   2.953   2.868   8.455 -0.8451 -1.2394  0.8492
 8018SOL     OW35686   1.758   3.962   4.071 -0.0975 -0.2376  0.1064
 8018SOL    HW135687   1.746   3.911   4.152  1.1570  0.7525  0.8970
 8018SOL    HW235688   1.778   3.893   4.007 -0.8211 -0.8291  0.5066
 8019SOL     OW35689   4.189   0.625   4.496  0.0932 -0.1754  0.4825
 8019SOL    HW135690   4.221   0.715   4.491 -0.3496 -0.0900 -0.6798
 8019SOL    HW235691   4.234   0.586   4.421  0.5512  0.6230  0.3365
 8020SOL     OW35692   0.229   2.290   2.598  0.1255  0.7276  0.6430
 8020SOL    HW135693   0.223   2.303   2.692  0.4226  2.0776  0.4754
 8020SOL    HW235694   0.305   2.342   2.574  0.1426 -0.3988 -1.7886
 8021SOL     OW35695   2.398   1.959   3.113  0.0804 -0.0361 -0.1545
 8021SOL    HW135696   2.356   1.967   3.199  0.1602  0.9850 -0.2077
 8021SOL    HW235697   2.456   1.885   3.126  1.3625  0.9787 -0.1020
 8022SOL     OW35698   4.340   1.168   8.058  0.1781  0.1729  0.0421
 8022SOL    HW135699   4.374   1.239   8.004  0.3296  0.5892  0.6880
 8022SOL    HW235700   4.340   1.100   7.991 -1.1488 -0.6676  0.8908
 8023SOL     OW35701   4.413   1.718   2.206 -0.0511  0.3645  0.1276
 8023SOL    HW135702   4.355   1.712   2.282 -0.1912  1.0689  0.0774
 8023SOL    HW235703   4.367   1.672   2.135  0.3244 -0.9941  0.7569
 8024SOL     OW35704   0.322   2.842   0.557  0.5215 -0.2130 -0.3471
 8024SOL    HW135705   0.272   2.867   0.634 -1.9530 -0.4477 -1.8942
 8024SOL    HW235706   0.407   2.880   0.583  0.4310  1.4504 -2.4874
 8025SOL     OW35707   0.027   2.731   6.008 -0.2519 -0.2822  0.2044
 8025SOL    HW135708   0.122   2.741   6.015 -0.3938  0.6615  0.8094
 8025SOL    HW235709   4.735   2.799   5.946 -0.2156 -0.0088  0.4848
 8026SOL     OW35710   2.273   2.311   7.251 -0.4084 -0.4709 -0.1684
 8026SOL    HW135711   2.182   2.317   7.281 -0.1838  1.1577  0.1496
 8026SOL    HW235712   2.286   2.386   7.193 -0.6506 -1.6677 -1.7759
 8027SOL     OW35713   3.643   1.884   6.136  0.7104  0.8202  0.2014
 8027SOL    HW135714   3.560   1.925   6.113  0.6650  1.2385  1.1144
 8027SOL    HW235715   3.629   1.869   6.230 -0.6299  0.4664 -0.0567
 8028SOL     OW35716   1.718   4.528   1.246 -0.1852 -0.6030 -0.1796
 8028SOL    HW135717   1.703   4.476   1.325  0.5133  0.3903  0.6201
 8028SOL    HW235718   1.651   4.487   1.192 -1.2283 -0.2119  0.8231
 8029SOL     OW35719   1.563   0.626  12.056 -0.7069 -0.0168  0.2968
 8029SOL    HW135720   1.491   0.604  11.997 -1.0235 -1.4231  1.1953
 8029SOL    HW235721   1.604   0.542  12.079 -1.9714 -1.1050 -1.4459
 8030SOL     OW35722   3.515   3.623   6.701 -0.6582  0.0532 -0.4698
 8030SOL    HW135723   3.574   3.555   6.670 -1.4608 -1.4633  1.4191
 8030SOL    HW235724   3.504   3.589   6.789 -0.3572 -0.3859 -0.6034
 8031SOL     OW35725   2.244   4.595  16.151  0.5667  0.3025  0.2904
 8031SOL    HW135726   2.250   4.530  16.221  2.2486 -2.6891 -2.5700
 8031SOL    HW235727   2.273   4.673  16.197  1.3203 -0.3257  0.8906
 8032SOL     OW35728   3.896   2.024   3.578 -0.1129 -0.8447  0.2400
 8032SOL    HW135729   3.903   2.050   3.486 -1.0027  1.6001  0.8515
 8032SOL    HW235730   3.885   2.111   3.618  1.2543 -0.4963 -0.1186
 8033SOL     OW35731   0.866   4.549   7.940  0.3545  0.3479 -0.0324
 8033SOL    HW135732   0.795   4.610   7.963 -0.2557 -0.2270 -0.3885
 8033SOL    HW235733   0.824   4.473   7.899  2.3509 -2.3429  2.9169
 8034SOL     OW35734   4.253   3.933  11.184  0.4476  0.2347 -0.0923
 8034SOL    HW135735   4.229   3.967  11.098 -1.9560  1.4998  1.0662
 8034SOL    HW235736   4.235   3.840  11.168  1.0673  0.6222 -2.9953
 8035SOL     OW35737   1.628   0.869   3.421 -0.2399 -0.7783  0.1739
 8035SOL    HW135738   1.659   0.947   3.377  0.8243 -0.2246  1.8872
 8035SOL    HW235739   1.609   0.908   3.507 -3.2251  0.4863 -1.0522
 8036SOL     OW35740   1.234   1.169   9.755 -0.5470 -0.5136  0.3705
 8036SOL    HW135741   1.217   1.127   9.840  0.4818 -2.1248 -0.2161
 8036SOL    HW235742   1.160   1.145   9.700  0.0634 -1.0039 -0.2436
 8037SOL     OW35743   1.245   1.524   4.999 -0.1218  0.2824  0.1507
 8037SOL    HW135744   1.270   1.495   5.087  0.7806 -2.2696 -0.9361
 8037SOL    HW235745   1.334   1.541   4.971  0.0431  1.5853  1.4514
 8038SOL     OW35746   1.791   0.190   1.587 -0.5369 -0.6520 -0.1905
 8038SOL    HW135747   1.730   0.124   1.555 -1.6631  0.4054 -0.2198
 8038SOL    HW235748   1.804   0.249   1.513  0.6192  1.0753  1.3910
 8039SOL     OW35749   2.217   1.964   2.923  0.4696 -0.0528  0.0343
 8039SOL    HW135750   2.285   1.985   2.987 -1.3822 -1.9375  2.6365
 8039SOL    HW235751   2.265   1.967   2.840 -0.3472  0.3465 -0.4246
 8040SOL     OW35752   4.398   0.917  12.987  0.4362  0.0831  0.2166
 8040SOL    HW135753   4.318   0.968  12.978  0.5946  0.4446  0.8200
 8040SOL    HW235754   4.371   0.839  12.939 -0.3106 -0.1733  1.0727
 8041SOL     OW35755   1.338   0.944  16.743  0.1727  0.0145 -0.7123
 8041SOL    HW135756   1.293   0.860  16.737  0.2699 -0.1762  1.1361
 8041SOL    HW235757   1.295   1.000  16.678 -1.4524  1.2460  1.4033
 8042SOL     OW35758   1.887   0.731  10.101 -0.2565 -0.2191  0.3126
 8042SOL    HW135759   1.851   0.669  10.037 -2.8715  2.7677 -1.1207
 8042SOL    HW235760   1.815   0.793  10.116 -0.0092  0.5095 -1.5094
 8043SOL     OW35761   4.511   1.630  16.745  0.7618 -0.2343 -0.0518
 8043SOL    HW135762   4.488   1.697  16.808  0.3716 -2.0542  1.7560
 8043SOL    HW235763   4.465   1.553  16.778  1.3811 -0.3775  0.4790
 8044SOL     OW35764   1.757   1.827   9.419  0.1909  0.1015  0.3264
 8044SOL    HW135765   1.702   1.757   9.385  0.5326  0.0424 -0.1059
 8044SOL    HW235766   1.721   1.902   9.371 -1.4425 -2.0258 -1.7468
 8045SOL     OW35767   1.385   2.206   8.786  0.3690  0.2312 -0.4414
 8045SOL    HW135768   1.453   2.153   8.744  2.2886  0.4531  2.4114
 8045SOL    HW235769   1.407   2.297   8.765 -2.0548  1.0590  0.7029
 8046SOL     OW35770   2.221   3.493   5.464 -0.3780 -0.4167 -0.3377
 8046SOL    HW135771   2.236   3.458   5.375 -0.0355 -0.4609 -0.2645
 8046SOL    HW235772   2.186   3.576   5.433  1.3436  0.2915 -0.4088
 8047SOL     OW35773   0.795   4.532   6.839  0.5847 -0.2675  0.2095
 8047SOL    HW135774   0.876   4.481   6.829 -0.2870 -1.5975  0.0263
 8047SOL    HW235775   0.795   4.553   6.933  0.9893  1.2450 -0.1146
 8048SOL     OW35776   3.944   1.468  10.364  0.5228  0.1507  0.2536
 8048SOL    HW135777   3.898   1.463  10.448 -3.3787  2.3526 -1.7901
 8048SOL    HW235778   3.873   1.435  10.309  0.4386  0.1802  0.3450
 8049SOL     OW35779   2.998   1.023   1.909 -0.2222  0.1777 -0.2392
 8049SOL    HW135780   3.029   0.939   1.875 -0.2643  0.1833 -0.2915
 8049SOL    HW235781   2.977   1.073   1.830  0.1414 -1.6116 -1.4599
 8050SOL     OW35782   2.433   2.103  13.045 -0.1071 -0.1500 -0.5442
 8050SOL    HW135783   2.430   2.184  13.097  0.4574 -0.3824 -0.1590
 8050SOL    HW235784   2.520   2.074  13.072  0.1092  2.0705  1.2259
 8051SOL     OW35785   1.662   1.826   3.412  0.1795  0.4635  0.0474
 8051SOL    HW135786   1.603   1.755   3.438  2.6971 -1.7027 -0.1185
 8051SOL    HW235787   1.741   1.775   3.393  0.4284  1.7536 -2.3117
 8052SOL     OW35788   3.011   3.927   4.422  0.4725  0.1022  0.5702
 8052SOL    HW135789   3.104   3.937   4.406  0.7468 -1.6283  1.1069
 8052SOL    HW235790   2.976   4.011   4.451 -0.4683 -0.5749  1.4185
 8053SOL     OW35791   3.351   4.190   5.900 -0.0892 -0.6304 -0.3766
 8053SOL    HW135792   3.325   4.228   5.816 -0.4208  0.5954  0.2820
 8053SOL    HW235793   3.436   4.231   5.918 -0.4745 -0.8921  1.9385
 8054SOL     OW35794   4.467   1.478  15.289  0.5490  0.1536 -0.1493
 8054SOL    HW135795   4.387   1.474  15.341 -0.5793 -2.2346 -2.0717
 8054SOL    HW235796   4.489   1.571  15.282  0.6602 -0.0059 -1.9230
 8055SOL     OW35797   4.668   4.021   6.233 -1.0262 -0.0082 -0.2805
 8055SOL    HW135798   4.715   4.070   6.166  1.3615  1.1323  2.2480
 8055SOL    HW235799   4.596   4.083   6.246  0.3776  1.2556  1.4616
 8056SOL     OW35800   0.030   3.356   7.383 -0.1088  0.2313  0.0162
 8056SOL    HW135801   0.096   3.393   7.324 -0.6300  0.9052 -0.1502
 8056SOL    HW235802   0.074   3.371   7.467  2.0461 -1.5451 -0.8040
 8057SOL     OW35803   3.366   1.710   8.195 -0.4089 -0.1628  0.2712
 8057SOL    HW135804   3.333   1.682   8.109 -0.0118 -0.2312  0.1391
 8057SOL    HW235805   3.458   1.694   8.174 -1.0683 -1.2848 -1.8057
 8058SOL     OW35806   1.639   1.884   8.580 -0.1210  0.1058 -0.2457
 8058SOL    HW135807   1.621   1.949   8.648  0.6980 -1.5822  1.5750
 8058SOL    HW235808   1.674   1.939   8.510 -0.9745 -1.7064 -2.1031
 8059SOL     OW35809   0.171   3.438   7.609  0.4280  0.4186 -0.1565
 8059SOL    HW135810   0.222   3.512   7.572  0.2848  0.1630 -0.8743
 8059SOL    HW235811   0.240   3.394   7.658 -0.7530  0.6627  1.7163
 8060SOL     OW35812   1.756   3.676  13.626  0.2081  0.6317  0.3297
 8060SOL    HW135813   1.761   3.641  13.538 -2.4824  1.4210 -0.1364
 8060SOL    HW235814   1.715   3.762  13.619  2.9979  1.7447 -2.3637
 8061SOL     OW35815   0.347   0.692   3.878 -0.4154  0.2052  0.8433
 8061SOL    HW135816   0.337   0.637   3.801 -0.1817 -1.4783  2.0163
 8061SOL    HW235817   0.261   0.681   3.917 -0.5620 -0.0312  0.4452
 8062SOL     OW35818   2.269   0.035  17.540  0.1136 -0.0302 -0.3617
 8062SOL    HW135819   2.200   4.723  17.587 -1.2038  3.0827  0.8121
 8062SOL    HW235820   2.340   0.026  17.603  1.3859  1.3332 -1.5882
 8063SOL     OW35821   1.050   0.728   3.109  0.3813 -0.0659  0.2373
 8063SOL    HW135822   1.110   0.762   3.044 -0.1938 -0.5310 -0.5379
 8063SOL    HW235823   1.077   0.638   3.125 -0.4574 -0.1470  1.2855
 8064SOL     OW35824   0.401   2.492   3.424  0.1151 -0.1343  0.0718
 8064SOL    HW135825   0.385   2.458   3.513  1.7717  0.7355  0.7084
 8064SOL    HW235826   0.432   2.580   3.447 -0.7499  0.4742 -1.1472
 8065SOL     OW35827   3.080   2.997  11.138 -0.5301  0.1614 -0.4499
 8065SOL    HW135828   3.101   3.053  11.212  1.4408 -0.1533 -0.7766
 8065SOL    HW235829   3.092   3.053  11.061 -0.9837  1.4482  0.4345
 8066SOL     OW35830   4.248   1.385   6.955 -0.5172  0.0633  0.6227
 8066SOL    HW135831   4.316   1.411   7.017  0.5382  0.9049 -0.8805
 8066SOL    HW235832   4.292   1.311   6.913 -1.5422 -1.0421  1.5188
 8067SOL     OW35833   3.713   3.447   4.799 -0.2289 -0.5494  0.1723
 8067SOL    HW135834   3.721   3.378   4.733 -1.7306  1.1814 -1.8173
 8067SOL    HW235835   3.650   3.507   4.759 -0.1740 -1.2508 -0.9630
 8068SOL     OW35836   1.312   2.027   5.900  0.2986 -0.1335 -0.2004
 8068SOL    HW135837   1.247   1.995   5.962 -0.9783  1.1155 -0.8984
 8068SOL    HW235838   1.257   2.044   5.824 -0.7567 -0.0424  0.5971
 8069SOL     OW35839   2.166   1.512   8.727  0.2475 -0.7001  0.4184
 8069SOL    HW135840   2.239   1.492   8.786  1.2895  0.7637 -0.3927
 8069SOL    HW235841   2.103   1.523   8.798 -3.4959 -0.0417 -2.9985
 8070SOL     OW35842   2.116   3.304  15.057 -0.1798  0.0442 -1.3765
 8070SOL    HW135843   2.057   3.334  14.988 -0.6555 -2.4239 -2.0275
 8070SOL    HW235844   2.054   3.265  15.119  1.9147  0.0718  0.7252
 8071SOL     OW35845   2.524   1.603   2.887 -0.4149  0.2463 -0.0912
 8071SOL    HW135846   2.523   1.581   2.794  0.0908 -0.8729  0.1597
 8071SOL    HW235847   2.453   1.554   2.929 -0.2853  1.4999  1.5921
 8072SOL     OW35848   0.407   0.817   6.943  0.6820 -0.2224  0.3274
 8072SOL    HW135849   0.468   0.834   7.015 -1.8411  3.3277  1.6353
 8072SOL    HW235850   0.396   0.722   6.940  1.2188 -0.2438 -0.7810
 8073SOL     OW35851   1.695   3.381   0.851 -0.3052 -0.0310 -0.2486
 8073SOL    HW135852   1.659   3.416   0.769  0.4410  0.1958 -0.4822
 8073SOL    HW235853   1.746   3.307   0.820  0.8519 -0.7224  3.2553
 8074SOL     OW35854   3.740   3.230   5.276  0.4593 -0.1114 -0.0549
 8074SOL    HW135855   3.750   3.310   5.223  0.8444  0.5442  1.0143
 8074SOL    HW235856   3.649   3.231   5.305  0.4297 -1.7522 -0.1015
 8075SOL     OW35857   3.438   3.011  10.087 -0.5108  0.5625 -0.2482
 8075SOL    HW135858   3.461   3.065  10.011 -3.6464  1.2269 -0.7110
 8075SOL    HW235859   3.344   3.016  10.104 -0.3675 -0.6777  0.9537
 8076SOL     OW35860   4.003   2.156   4.736  0.2163 -0.0787 -0.1090
 8076SOL    HW135861   3.950   2.225   4.776 -1.7052 -0.9241 -1.1880
 8076SOL    HW235862   4.042   2.113   4.812  2.6379 -0.2600 -1.4621
 8077SOL     OW35863   3.995   4.560   1.709  0.4071  0.4280 -0.1610
 8077SOL    HW135864   4.080   4.597   1.686 -0.5681  2.2530 -0.7910
 8077SOL    HW235865   3.959   4.521   1.630 -0.1938  2.4181 -0.8640
 8078SOL     OW35866   2.250   4.576   8.760 -0.0232  0.3181  0.2574
 8078SOL    HW135867   2.179   4.571   8.695  0.1060  1.0844  0.0627
 8078SOL    HW235868   2.217   4.657   8.798  0.6816  0.5034  0.4669
 8079SOL     OW35869   4.050   1.282   4.590 -0.1741 -0.2141  0.1672
 8079SOL    HW135870   3.959   1.298   4.612  0.2101 -1.4156  2.5878
 8079SOL    HW235871   4.091   1.222   4.651  0.4709  0.8142  0.7537
 8080SOL     OW35872   1.581   2.293  14.799 -0.3568 -0.0194  0.2599
 8080SOL    HW135873   1.507   2.286  14.739 -0.3786  0.3588  0.2380
 8080SOL    HW235874   1.553   2.231  14.865 -0.4470  2.1082  2.2253
 8081SOL     OW35875   4.346   0.286   2.608  0.0254  0.1054  0.1193
 8081SOL    HW135876   4.319   0.268   2.518 -0.6164 -0.9951  0.5252
 8081SOL    HW235877   4.405   0.358   2.585  0.7638 -0.1164  1.2948
 8082SOL     OW35878   2.845   2.045   6.539 -0.5342  0.5213 -0.5493
 8082SOL    HW135879   2.881   2.112   6.597 -0.3448  0.5358 -0.6840
 8082SOL    HW235880   2.816   1.976   6.599  0.9786  0.3173 -0.0524
 8083SOL     OW35881   4.610   2.959   8.561  0.2324  0.2408 -0.2582
 8083SOL    HW135882   4.519   2.944   8.534  0.3239 -0.9002  0.0493
 8083SOL    HW235883   4.619   2.909   8.642  3.2380  0.9422 -0.1732
 8084SOL     OW35884   3.675   4.705   2.156 -0.1621 -0.3195 -0.4631
 8084SOL    HW135885   3.660   0.033   2.227  0.1906  0.2227 -0.8710
 8084SOL    HW235886   3.767   4.679   2.164  0.3333  1.1745 -1.2044
 8085SOL     OW35887   4.527   3.915  10.591  1.0594  0.7027  0.1010
 8085SOL    HW135888   4.563   3.999  10.564  0.9106  1.3711  1.9820
 8085SOL    HW235889   4.600   3.891  10.647  1.3363  1.4763  0.0625
 8086SOL     OW35890   3.374   1.358   3.691 -0.0402  0.3710 -0.0587
 8086SOL    HW135891   3.411   1.408   3.764  0.5047 -1.3066  0.8205
 8086SOL    HW235892   3.447   1.363   3.630 -0.7990  0.2165 -0.9856
 8087SOL     OW35893   3.501   4.235   5.141 -0.3035  0.1301 -0.1548
 8087SOL    HW135894   3.492   4.243   5.046  0.6047 -0.4800 -0.2928
 8087SOL    HW235895   3.508   4.141   5.157 -1.9626 -0.1921 -1.2206
 8088SOL     OW35896   1.956   1.371   6.369  0.1209 -0.2973 -0.8042
 8088SOL    HW135897   1.883   1.309   6.366  0.7961 -1.0319 -1.7627
 8088SOL    HW235898   2.016   1.339   6.437  0.7000 -0.8756 -1.5878
 8089SOL     OW35899   2.430   0.613   3.562  0.1142  0.0354  0.0001
 8089SOL    HW135900   2.384   0.531   3.578 -0.3162  0.4008  0.6554
 8089SOL    HW235901   2.357   0.672   3.543  1.3022  1.5027 -0.0274
 8090SOL     OW35902   2.469   0.957   0.033 -0.4907  0.1646  0.3627
 8090SOL    HW135903   2.536   0.998  17.716 -0.9487 -0.7169 -0.8301
 8090SOL    HW235904   2.424   0.904  17.706  0.4312  0.5188 -0.5544
 8091SOL     OW35905   4.254   1.336   2.470 -0.4551  0.0732  0.7369
 8091SOL    HW135906   4.336   1.375   2.501 -1.4687  1.8725  1.1253
 8091SOL    HW235907   4.245   1.394   2.394 -0.5282 -0.2853  0.4694
 8092SOL     OW35908   3.612   1.157  10.485 -0.1930  0.0951 -0.0965
 8092SOL    HW135909   3.573   1.201  10.410 -1.6917  1.1715  1.3349
 8092SOL    HW235910   3.622   1.228  10.548 -1.4824 -0.9285  1.2451
 8093SOL     OW35911   0.788   1.694   1.952 -0.0106 -0.3899 -0.0676
 8093SOL    HW135912   0.795   1.782   1.989 -0.1043 -0.5869  0.4232
 8093SOL    HW235913   0.750   1.645   2.025 -2.2957 -0.3345 -1.2206
 8094SOL     OW35914   1.608   1.876   0.411  0.1708 -0.7940 -0.3249
 8094SOL    HW135915   1.559   1.862   0.493  1.3415 -0.7030  0.3968
 8094SOL    HW235916   1.697   1.848   0.431  0.4271 -0.3766 -0.8969
 8095SOL     OW35917   3.180   1.953  17.354  0.1516 -0.4770 -0.3245
 8095SOL    HW135918   3.273   1.972  17.366  0.0890 -0.2599 -0.1898
 8095SOL    HW235919   3.174   1.923  17.263 -0.2934  0.9606 -0.7748
 8096SOL     OW35920   4.148   3.431  12.416 -0.7976 -0.5919  0.2415
 8096SOL    HW135921   4.217   3.370  12.442 -1.3225 -1.1829  0.2326
 8096SOL    HW235922   4.168   3.508  12.470  0.2385  0.0405 -1.0365
 8097SOL     OW35923   3.849   3.327   7.419  0.5726  0.1774 -0.2393
 8097SOL    HW135924   3.828   3.374   7.339  3.9352  1.9093 -0.1109
 8097SOL    HW235925   3.765   3.322   7.465  0.1853 -0.3890 -0.9986
 8098SOL     OW35926   1.381   4.268   5.998  0.2956 -0.9692  0.4789
 8098SOL    HW135927   1.287   4.252   6.009  0.1628  0.1750  0.9773
 8098SOL    HW235928   1.393   4.300   6.087  2.3080  1.6419 -0.7370
 8099SOL     OW35929   3.987   1.212   6.170  0.8096 -0.0408 -0.2784
 8099SOL    HW135930   3.989   1.117   6.155  1.6028 -0.2651  1.3057
 8099SOL    HW235931   4.003   1.255   6.086 -0.6136  1.8006  0.3849
 8100SOL     OW35932   0.376   3.811   3.293 -0.3734  0.2783  0.1801
 8100SOL    HW135933   0.294   3.820   3.245 -1.6655  0.2315  2.3803
 8100SOL    HW235934   0.440   3.792   3.224 -0.1585 -0.5773  0.6111
 8101SOL     OW35935   4.521   0.925  16.442  0.2001 -0.3258 -0.2216
 8101SOL    HW135936   4.465   0.885  16.376  1.4405  0.7532 -1.9233
 8101SOL    HW235937   4.472   0.908  16.523  1.3929  1.7289  0.9290
 8102SOL     OW35938   2.305   1.261   1.882 -0.4246  0.0805  0.1059
 8102SOL    HW135939   2.223   1.242   1.929 -1.5594  0.7650 -1.5865
 8102SOL    HW235940   2.277   1.250   1.791 -1.3777  0.5000  0.3445
 8103SOL     OW35941   0.678   2.564  14.164 -0.1810  0.0707  0.3725
 8103SOL    HW135942   0.608   2.547  14.101  2.9641 -2.5704 -2.4631
 8103SOL    HW235943   0.655   2.655  14.184 -3.2789 -1.1432  2.2903
 8104SOL     OW35944   1.155   1.503   7.704  0.6335 -0.3085 -0.1668
 8104SOL    HW135945   1.094   1.463   7.766  0.1133 -1.6029 -1.5185
 8104SOL    HW235946   1.231   1.517   7.760  1.0462 -0.0813 -0.7807
 8105SOL     OW35947   2.368   3.045   2.813  0.1140 -0.0813 -0.5086
 8105SOL    HW135948   2.398   2.955   2.822  0.1969  0.0198  0.2607
 8105SOL    HW235949   2.387   3.071   2.903  1.3653  0.7121 -1.0111
 8106SOL     OW35950   3.418   2.577   7.078 -0.5543  0.1745  0.2825
 8106SOL    HW135951   3.458   2.654   7.038  0.2266  0.4493  1.5885
 8106SOL    HW235952   3.496   2.523   7.092 -0.1212  0.5309 -0.7279
 8107SOL     OW35953   0.829   1.168   8.936  0.2147 -0.3863  0.4313
 8107SOL    HW135954   0.848   1.096   8.996  1.1010 -3.5053 -3.6745
 8107SOL    HW235955   0.916   1.204   8.923 -0.3950  0.9030 -0.0943
 8108SOL     OW35956   0.294   0.932   5.297  0.0448  0.0400  0.4711
 8108SOL    HW135957   0.254   0.852   5.262  0.0620 -0.2151  1.0260
 8108SOL    HW235958   0.269   0.991   5.226 -2.4366 -1.9977 -0.3569
 8109SOL     OW35959   2.006   1.585   4.328  0.1392  0.6241  0.3370
 8109SOL    HW135960   1.995   1.517   4.261  2.8354 -0.2688  0.7852
 8109SOL    HW235961   2.046   1.651   4.271 -1.6003  1.4071  0.0120
 8110SOL     OW35962   3.460   3.225   0.068 -0.4080  0.2210  0.4810
 8110SOL    HW135963   3.547   3.257   0.043 -1.9249  0.9988 -3.8300
 8110SOL    HW235964   3.471   3.249   0.160  0.7734  1.1046  0.1109
 8111SOL     OW35965   2.960   3.905  16.431 -0.2643  0.1081  0.4719
 8111SOL    HW135966   2.917   3.828  16.393 -1.1042  1.3247 -1.0146
 8111SOL    HW235967   2.883   3.963  16.429  0.6727  1.3439  0.5576
 8112SOL     OW35968   2.305   2.270   6.064 -0.1238 -0.5102 -0.8776
 8112SOL    HW135969   2.240   2.272   5.994 -2.6433 -0.0310  1.4887
 8112SOL    HW235970   2.358   2.347   6.045  0.1283 -0.3901  0.2734
 8113SOL     OW35971   1.079   4.573  15.405 -0.4719 -0.0545  0.2998
 8113SOL    HW135972   1.068   4.505  15.471  2.1504  1.5925  2.4535
 8113SOL    HW235973   1.025   4.541  15.333 -1.0301 -1.3158  1.2789
 8114SOL     OW35974   4.362   4.186   1.901  0.2773  0.0633  0.4932
 8114SOL    HW135975   4.370   4.256   1.836  0.0681 -0.7090 -0.3636
 8114SOL    HW235976   4.361   4.109   1.844  3.0852 -0.9156  1.7754
 8115SOL     OW35977   0.551   0.582   4.957  0.1768  0.2597  0.1888
 8115SOL    HW135978   0.560   0.671   4.993 -0.6828 -0.3004  1.8299
 8115SOL    HW235979   0.570   0.597   4.865 -0.5784 -3.1292 -0.5245
 8116SOL     OW35980   2.438   2.216  16.630 -0.4528  0.0679 -0.5863
 8116SOL    HW135981   2.511   2.181  16.578  0.4353 -1.5995  1.7667
 8116SOL    HW235982   2.439   2.163  16.710 -2.3821 -0.6524 -1.0284
 8117SOL     OW35983   1.740   1.081   3.254 -0.0212  0.3653  0.4624
 8117SOL    HW135984   1.780   1.019   3.193 -0.6161  0.8245 -0.4023
 8117SOL    HW235985   1.809   1.079   3.320  0.1533  0.9187  0.3002
 8118SOL     OW35986   0.549   0.960   7.537 -0.3959  0.3770 -0.1189
 8118SOL    HW135987   0.574   0.988   7.625  1.2510 -0.3434 -0.3631
 8118SOL    HW235988   0.534   0.867   7.552  0.8753  0.0171 -1.1352
 8119SOL     OW35989   0.487   0.565   8.136  0.8050  0.1100  0.3892
 8119SOL    HW135990   0.430   0.641   8.125 -0.0230 -0.2846  2.0107
 8119SOL    HW235991   0.456   0.524   8.217  0.1663  0.9975  0.5911
 8120SOL     OW35992   0.422   2.733  14.066  0.1110 -0.2131  0.7096
 8120SOL    HW135993   0.393   2.806  14.011  1.5879 -0.0569  0.1093
 8120SOL    HW235994   0.497   2.784  14.098  0.5154 -0.1070 -0.3952
 8121SOL     OW35995   2.307   1.215  13.546 -0.7986  0.5591  0.3635
 8121SOL    HW135996   2.380   1.159  13.520 -2.1363 -0.5587 -0.9788
 8121SOL    HW235997   2.299   1.282  13.478  0.1010  0.1269 -0.1609
 8122SOL     OW35998   0.187   2.742   3.739 -0.0487  0.2505  0.2249
 8122SOL    HW135999   0.113   2.793   3.705 -0.8125 -2.1304 -1.7014
 8122SOL    HW236000   0.176   2.749   3.834  1.6665  3.5856  0.1853
 8123SOL     OW36001   3.355   2.611   1.527 -0.5569 -0.2634 -0.1833
 8123SOL    HW136002   3.294   2.563   1.582 -0.3937  0.6417  0.7767
 8123SOL    HW236003   3.415   2.545   1.492  0.3493  1.2068 -1.4207
 8124SOL     OW36004   2.644   3.640   7.138 -0.0646 -0.3940 -0.1367
 8124SOL    HW136005   2.607   3.726   7.160 -2.6740 -0.6430 -3.6362
 8124SOL    HW236006   2.563   3.594   7.117  0.3172 -1.7628  1.4190
 8125SOL     OW36007   3.643   1.488   7.069 -0.7370  0.2163  0.5643
 8125SOL    HW136008   3.708   1.528   7.127  0.3638 -1.8123  0.7251
 8125SOL    HW236009   3.578   1.454   7.130 -0.3856 -0.2243  0.6901
 8126SOL     OW36010   3.752   2.402   5.304  0.3672  0.2528 -0.1939
 8126SOL    HW136011   3.834   2.356   5.321  1.2167  1.2835 -1.4373
 8126SOL    HW236012   3.703   2.377   5.382  0.8312  1.4895  0.5104
 8127SOL     OW36013   0.331   2.765   1.656  0.2340  0.5757 -0.4299
 8127SOL    HW136014   0.305   2.748   1.746 -2.8094  0.3369 -1.3604
 8127SOL    HW236015   0.422   2.792   1.667 -0.8158  3.6034  0.8812
 8128SOL     OW36016   1.796   3.304   6.997  0.7393 -0.2985 -0.1148
 8128SOL    HW136017   1.764   3.348   7.075  2.1736  0.4465  0.0604
 8128SOL    HW236018   1.754   3.218   6.997 -0.5697  0.3532  0.1306
 8129SOL     OW36019   3.730   0.507   5.402 -0.6395  0.1338 -0.8136
 8129SOL    HW136020   3.779   0.582   5.436 -1.7116  1.5158 -2.3883
 8129SOL    HW236021   3.688   0.534   5.321 -1.0845 -1.3462 -1.0793
 8130SOL     OW36022   2.420   2.522   9.988 -0.4052 -0.2413  0.3572
 8130SOL    HW136023   2.368   2.508  10.067 -0.3369 -1.6437  0.1518
 8130SOL    HW236024   2.393   2.442   9.943  2.3754  0.0811 -1.8941
 8131SOL     OW36025   0.413   4.259   8.365 -0.0693 -0.1155 -0.5335
 8131SOL    HW136026   0.364   4.183   8.332  1.1437 -0.9170 -0.4825
 8131SOL    HW236027   0.466   4.288   8.292 -0.6450  0.5489 -0.6834
 8132SOL     OW36028   3.670   1.595   6.086 -0.3514  0.0714  0.1497
 8132SOL    HW136029   3.585   1.574   6.049  0.6185 -1.9874 -0.9169
 8132SOL    HW236030   3.670   1.691   6.087 -0.2936  0.0715  0.2387
 8133SOL     OW36031   4.340   2.892   8.429 -0.5819 -0.5385 -0.0428
 8133SOL    HW136032   4.328   2.804   8.464 -0.1112 -0.4046  0.4502
 8133SOL    HW236033   4.253   2.926   8.447  0.6130  2.3955  0.1372
 8134SOL     OW36034   0.807   2.880   8.213 -0.6810 -0.2002  0.1566
 8134SOL    HW136035   0.804   2.833   8.296 -2.2555  0.8714  0.7168
 8134SOL    HW236036   0.793   2.968   8.249 -0.6353 -0.6486  1.2665
 8135SOL     OW36037   2.831   3.329   1.734  0.1965  0.0187  0.2170
 8135SOL    HW136038   2.868   3.413   1.762  0.7991  0.2721 -1.3260
 8135SOL    HW236039   2.906   3.274   1.757 -0.1417 -1.0581 -1.2631
 8136SOL     OW36040   3.581   2.316  17.043 -0.1083 -0.7468 -0.8351
 8136SOL    HW136041   3.539   2.401  17.026  0.8294 -0.2184 -0.5166
 8136SOL    HW236042   3.666   2.336  17.081  0.5633 -1.2751 -2.0610
 8137SOL     OW36043   4.048   2.669   9.116 -0.0710 -0.3635 -0.1152
 8137SOL    HW136044   4.134   2.709   9.100 -0.0521 -1.0877 -1.7950
 8137SOL    HW236045   4.020   2.714   9.195  1.3316 -0.0782  0.2297
 8138SOL     OW36046   2.892   0.513  12.622  0.0908 -0.2059  0.3895
 8138SOL    HW136047   2.841   0.594  12.626  1.2865  0.4677  2.0901
 8138SOL    HW236048   2.872   0.480  12.710  2.1142 -0.5089  0.7298
 8139SOL     OW36049   3.988   2.901   0.897  0.1303 -0.5495 -0.7243
 8139SOL    HW136050   3.909   2.953   0.891  0.1925 -0.2565  1.0559
 8139SOL    HW236051   3.996   2.881   0.990 -2.5893  1.5177 -0.0504
 8140SOL     OW36052   2.088   2.686   8.849  0.6116  0.0406  0.5094
 8140SOL    HW136053   2.136   2.769   8.841  2.5835 -1.0972  0.4776
 8140SOL    HW236054   2.090   2.675   8.945 -1.7881  1.8243  0.7455
 8141SOL     OW36055   3.857   4.499   8.140  0.3490 -0.3863 -0.1903
 8141SOL    HW136056   3.792   4.492   8.210  0.3096  1.2763 -0.0495
 8141SOL    HW236057   3.828   4.581   8.100  1.8519  0.0798 -0.2953
 8142SOL     OW36058   0.125   2.080   9.045 -0.4822  0.1051 -1.0198
 8142SOL    HW136059   0.085   2.072   9.131  0.0556  0.9111 -0.6998
 8142SOL    HW236060   0.118   2.172   9.019 -0.3696 -0.0477 -1.5983
 8143SOL     OW36061   1.686   0.177   6.169  0.5716 -0.0054 -0.0026
 8143SOL    HW136062   1.649   0.142   6.088 -2.1655  1.5555  0.6065
 8143SOL    HW236063   1.633   0.253   6.192  0.7356 -0.2102  1.0524
 8144SOL     OW36064   3.461   2.293  11.271 -0.1420 -0.7685  0.0854
 8144SOL    HW136065   3.539   2.284  11.325  0.2731  3.3624  0.1068
 8144SOL    HW236066   3.438   2.386  11.275 -1.8477 -1.1539 -0.6823
 8145SOL     OW36067   3.866   1.618   8.154 -0.4081 -0.3328 -0.7815
 8145SOL    HW136068   3.866   1.524   8.173  1.3454  0.3513  2.7481
 8145SOL    HW236069   3.961   1.628   8.162 -0.7065 -1.2093  3.8616
 8146SOL     OW36070   0.135   4.560   8.181  0.0132  0.3447  0.3434
 8146SOL    HW136071   0.158   4.650   8.202 -2.2955  0.9857  0.1279
 8146SOL    HW236072   0.150   4.526   8.270  0.7329  0.6965  0.3534
 8147SOL     OW36073   2.832   3.554   2.337 -0.3530  0.0153 -0.6852
 8147SOL    HW136074   2.818   3.490   2.406  0.0547 -0.2050 -0.8046
 8147SOL    HW236075   2.851   3.490   2.268 -0.9152 -0.9893  0.1015
 8148SOL     OW36076   3.549   1.597   2.249  0.5803 -0.1496  0.0396
 8148SOL    HW136077   3.629   1.557   2.214 -0.4405 -1.5356 -0.7210
 8148SOL    HW236078   3.586   1.666   2.304  0.9642 -0.3681  0.0547
 8149SOL     OW36079   1.294   2.507  13.294  0.2227  0.3711 -0.3409
 8149SOL    HW136080   1.240   2.585  13.279 -0.6009 -0.1719 -0.2345
 8149SOL    HW236081   1.298   2.493  13.388 -1.0322 -0.8291 -0.4515
 8150SOL     OW36082   1.768   1.398   6.592  0.3698  0.6254 -0.1271
 8150SOL    HW136083   1.832   1.418   6.523 -0.3800 -0.1809 -1.0514
 8150SOL    HW236084   1.768   1.482   6.638  1.0812  0.1957  0.6499
 8151SOL     OW36085   1.279   1.860   8.288  0.3547 -0.6064  0.1445
 8151SOL    HW136086   1.352   1.801   8.309  1.3535 -0.3220 -2.5170
 8151SOL    HW236087   1.272   1.911   8.369 -1.0504 -2.8545  1.4409
 8152SOL     OW36088   2.627   0.624  15.981  0.0912  0.2414 -0.0218
 8152SOL    HW136089   2.611   0.530  15.973  1.7328  0.0960 -1.5760
 8152SOL    HW236090   2.686   0.640  15.908 -1.7862 -1.1208 -1.8269
 8153SOL     OW36091   4.459   2.143   1.383  0.3432 -0.1198 -0.3443
 8153SOL    HW136092   4.390   2.179   1.327 -1.2468 -1.0672  0.9927
 8153SOL    HW236093   4.491   2.223   1.424 -3.9120  0.3179  2.1072
 8154SOL     OW36094   0.497   2.610   4.116  0.3772  0.2821 -0.1636
 8154SOL    HW136095   0.476   2.685   4.172 -0.9824 -0.9485  0.9693
 8154SOL    HW236096   0.589   2.604   4.142  0.4411  2.3083  0.0910
 8155SOL     OW36097   0.965   3.352  11.211 -0.5817  0.3482  0.1461
 8155SOL    HW136098   0.990   3.338  11.120 -1.3466 -1.8018  0.2685
 8155SOL    HW236099   0.933   3.442  11.217 -0.1266  0.3917  1.8113
 8156SOL     OW36100   1.893   4.038   8.270  0.7117  0.0130 -0.2578
 8156SOL    HW136101   1.851   3.953   8.284 -1.6718  0.8730 -2.0732
 8156SOL    HW236102   1.861   4.063   8.183  0.1925  1.0437  0.2246
 8157SOL     OW36103   3.427   4.473  12.028 -0.1523  0.2526 -0.6725
 8157SOL    HW136104   3.517   4.474  12.059 -0.3122  3.0562 -0.2524
 8157SOL    HW236105   3.412   4.566  12.011  0.0010  0.6087  1.1425
 8158SOL     OW36106   2.754   4.538   9.851  0.6345 -0.0969  0.0048
 8158SOL    HW136107   2.769   4.594   9.775 -2.2920  1.9965  0.9815
 8158SOL    HW236108   2.673   4.575   9.886 -0.5866 -1.6014 -1.2179
 8159SOL     OW36109   4.163   2.761  13.741 -0.1624  0.4566 -0.0054
 8159SOL    HW136110   4.077   2.720  13.745 -0.2533  0.5966 -0.5137
 8159SOL    HW236111   4.132   2.851  13.751  0.6940  0.7930 -0.3173
 8160SOL     OW36112   0.513   4.564   6.661  0.1669  0.4922  0.0375
 8160SOL    HW136113   0.505   4.566   6.566  0.2364 -1.6054 -0.0142
 8160SOL    HW236114   0.535   4.471   6.672  0.6212  0.3959 -1.7733
 8161SOL     OW36115   3.966   2.382   5.096 -0.0499  0.0892 -0.3220
 8161SOL    HW136116   4.032   2.321   5.130 -0.6886 -1.6379 -2.1616
 8161SOL    HW236117   3.946   2.425   5.178  0.7350  0.8200 -0.5068
 8162SOL     OW36118   0.800   0.023   3.477  0.2041  0.2266  0.1210
 8162SOL    HW136119   0.886   4.731   3.510 -1.0778 -1.0348  2.4119
 8162SOL    HW236120   0.793   4.686   3.414  0.7909 -0.4829  0.8560
 8163SOL     OW36121   3.054   0.488   3.016  0.0671 -0.2658  0.2678
 8163SOL    HW136122   3.006   0.550   2.962  0.9278  1.7978  1.8668
 8163SOL    HW236123   2.997   0.494   3.093  0.0141  0.5422  0.1684
 8164SOL     OW36124   4.377   3.459   7.796  0.1074  0.3032  0.0223
 8164SOL    HW136125   4.370   3.494   7.885  0.9839 -0.7046  0.4958
 8164SOL    HW236126   4.336   3.531   7.749 -0.9926 -0.4927 -0.2577
 8165SOL     OW36127   4.713   0.124  17.673 -0.0868 -0.8223 -0.0821
 8165SOL    HW136128   4.684   0.200  17.723  0.1349  0.5432 -2.0466
 8165SOL    HW236129   0.041   0.088  17.735  1.1263  0.7066 -0.4457
 8166SOL     OW36130   2.669   1.993  13.105  0.6382 -0.0800  0.6533
 8166SOL    HW136131   2.720   1.960  13.179 -1.4233 -1.3689  1.4685
 8166SOL    HW236132   2.708   1.945  13.032 -0.3571  0.4006 -0.1851
 8167SOL     OW36133   1.619   4.155   2.886  0.2208  0.0255  0.1310
 8167SOL    HW136134   1.559   4.229   2.883 -0.8948 -0.9031 -0.2663
 8167SOL    HW236135   1.685   4.201   2.939 -2.1562  1.5676  1.7316
 8168SOL     OW36136   0.387   2.956   3.049 -0.1626  0.2994  0.0186
 8168SOL    HW136137   0.372   2.980   3.140  0.6618 -1.6626  0.6809
 8168SOL    HW236138   0.354   2.869   3.070 -0.4665  0.1351 -1.1182
 8169SOL     OW36139   0.709   1.110   9.637  0.3770 -0.1375 -0.3299
 8169SOL    HW136140   0.665   1.029   9.662 -1.9153  1.7610  1.8928
 8169SOL    HW236141   0.801   1.083   9.640  0.3356 -0.1347  1.1643
 8170SOL     OW36142   1.820   0.642   3.449 -0.4072  0.1718  0.2676
 8170SOL    HW136143   1.772   0.717   3.415  0.1080 -0.4598 -1.8448
 8170SOL    HW236144   1.780   0.647   3.536 -0.7843  1.4857  0.0177
 8171SOL     OW36145   4.260   3.703   7.101 -0.0112  0.4038  0.0330
 8171SOL    HW136146   4.334   3.764   7.090  1.9796 -2.1233 -0.6778
 8171SOL    HW236147   4.261   3.674   7.010 -0.9459 -0.6342  0.3557
 8172SOL     OW36148   1.621   1.273   1.966 -0.1468  0.1022 -0.4104
 8172SOL    HW136149   1.673   1.257   1.887 -0.9410  1.1139 -1.1319
 8172SOL    HW236150   1.608   1.183   1.997  0.4361 -0.9561 -3.2040
 8173SOL     OW36151   2.638   1.151   0.925  0.0223 -0.3920  0.3663
 8173SOL    HW136152   2.712   1.164   0.985 -1.3604  0.8866  1.8020
 8173SOL    HW236153   2.681   1.168   0.841 -1.7202 -1.9677 -0.8364
 8174SOL     OW36154   0.054   0.393   1.493  0.2097 -0.2094  0.3896
 8174SOL    HW136155   4.733   0.469   1.475  1.7518  0.3028 -2.2509
 8174SOL    HW236156   0.139   0.422   1.458 -0.3851 -0.3246 -1.1546
 8175SOL     OW36157   4.630   4.047   4.926 -0.2387 -0.0894  0.1145
 8175SOL    HW136158   4.721   4.023   4.909 -0.2943 -1.0500  1.1910
 8175SOL    HW236159   4.610   4.080   4.839  2.4574  0.3112 -0.3561
 8176SOL     OW36160   0.672   2.350   2.210  0.0915 -0.9795  0.4475
 8176SOL    HW136161   0.752   2.372   2.163 -1.7328  0.5136 -1.9407
 8176SOL    HW236162   0.615   2.319   2.139  2.4832  2.0352 -2.7792
 8177SOL     OW36163   1.531   2.825   8.514 -0.3216  0.1056 -0.0370
 8177SOL    HW136164   1.509   2.755   8.576 -0.2444  1.1992  1.2053
 8177SOL    HW236165   1.616   2.799   8.479 -0.2109 -0.0279  0.3334
 8178SOL     OW36166   2.855   3.328  17.733 -0.1595  0.1696  0.1535
 8178SOL    HW136167   2.779   3.362   0.043  0.1547 -0.1933  0.9005
 8178SOL    HW236168   2.855   3.395  17.665  0.5871 -0.3579 -0.3570
 8179SOL     OW36169   0.079   2.838   2.265 -0.7296  0.0802 -0.5015
 8179SOL    HW136170   0.168   2.852   2.296 -1.7177  0.4673  2.1124
 8179SOL    HW236171   0.049   2.771   2.326  0.6668 -1.2854 -1.2947
 8180SOL     OW36172   0.349   0.554   0.722  1.0522 -0.1182  0.4692
 8180SOL    HW136173   0.437   0.579   0.751 -0.2464  2.2496  2.3698
 8180SOL    HW236174   0.332   0.618   0.653  2.9867 -0.1447 -0.0408
 8181SOL     OW36175   0.155   2.686  13.375 -0.2902  0.3264 -0.1669
 8181SOL    HW136176   0.119   2.663  13.290  0.1898 -0.2712 -0.2082
 8181SOL    HW236177   0.221   2.752  13.354  1.1023 -0.2037  2.4576
 8182SOL     OW36178   3.618   1.479   2.540  0.0341 -0.1021 -0.2786
 8182SOL    HW136179   3.579   1.392   2.545 -0.4959  0.0445 -1.6440
 8182SOL    HW236180   3.545   1.531   2.573 -1.7083 -1.9778 -1.1399
 8183SOL     OW36181   1.482   1.624   3.028  0.2636 -0.8456  0.3277
 8183SOL    HW136182   1.448   1.607   2.940 -0.1095 -0.0813  0.3224
 8183SOL    HW236183   1.444   1.711   3.043  1.1805 -0.2509 -0.8055
 8184SOL     OW36184   3.221   1.236   8.952 -0.1561  0.1969 -0.0677
 8184SOL    HW136185   3.154   1.290   8.994  1.8281  0.6235  2.5366
 8184SOL    HW236186   3.297   1.292   8.940  0.5435 -0.6327  0.5134
 8185SOL     OW36187   0.741   3.337   0.583  0.0056  0.9109 -0.1140
 8185SOL    HW136188   0.736   3.313   0.675  3.5026  1.3299  0.2159
 8185SOL    HW236189   0.836   3.328   0.572 -0.1961 -0.2004 -0.9266
 8186SOL     OW36190   2.734   4.231   3.389 -0.6526 -0.7019  0.2165
 8186SOL    HW136191   2.772   4.226   3.301  0.1744  0.3564  0.5012
 8186SOL    HW236192   2.791   4.172   3.439 -1.6439  0.5893  2.8796
 8187SOL     OW36193   2.006   3.928   0.524  0.1492  0.0649 -0.0366
 8187SOL    HW136194   1.937   3.930   0.590  0.5863  1.7894  0.3682
 8187SOL    HW236195   2.027   3.835   0.526 -0.0650  0.0681  2.2557
 8188SOL     OW36196   3.636   2.992   3.798  0.3973 -0.4828  0.2343
 8188SOL    HW136197   3.578   3.065   3.819  0.5476 -0.7154  1.4382
 8188SOL    HW236198   3.592   2.922   3.847  2.1418 -0.3909  1.9265
 8189SOL     OW36199   4.238   0.275  14.093 -0.0492 -0.0106 -0.5884
 8189SOL    HW136200   4.255   0.219  14.017  1.9258  0.7192 -0.6832
 8189SOL    HW236201   4.232   0.362  14.052 -0.3057  1.1272  1.8926
 8190SOL     OW36202   2.829   0.698   1.642 -0.5451  0.0027  0.3052
 8190SOL    HW136203   2.751   0.657   1.680 -1.2407  1.0131 -0.0376
 8190SOL    HW236204   2.856   0.632   1.578 -2.0224 -0.3512  0.0533
 8191SOL     OW36205   3.654   1.507   4.160 -0.2085 -0.4311 -0.3216
 8191SOL    HW136206   3.623   1.502   4.250 -1.0084  0.7723 -0.5348
 8191SOL    HW236207   3.713   1.582   4.169 -2.5888  1.4036 -0.1269
 8192SOL     OW36208   3.237   2.169   4.822 -0.6607 -0.1118 -0.3354
 8192SOL    HW136209   3.149   2.179   4.784  0.8969 -0.4921 -4.0285
 8192SOL    HW236210   3.227   2.129   4.908 -4.1022 -4.2715 -2.6295
 8193SOL     OW36211   1.446   0.193   3.132 -0.4480 -0.3410 -0.1980
 8193SOL    HW136212   1.537   0.183   3.103 -0.1605 -1.3135  1.0511
 8193SOL    HW236213   1.420   0.284   3.147  2.4042  0.1512  1.6889
 8194SOL     OW36214   0.238   3.648   0.081 -0.1702  0.0862 -0.1150
 8194SOL    HW136215   0.198   3.676   0.163  0.6208  0.3795  0.1683
 8194SOL    HW236216   0.324   3.690   0.087  1.4588 -3.8134  3.9747
 8195SOL     OW36217   3.091   1.418  10.888 -0.4320  0.3380  0.6142
 8195SOL    HW136218   3.182   1.429  10.916 -1.0787  1.4709  2.2915
 8195SOL    HW236219   3.046   1.430  10.972  0.0351 -1.3152  1.1157
 8196SOL     OW36220   0.119   3.501   8.769 -0.6337 -0.1052 -0.2117
 8196SOL    HW136221   0.105   3.557   8.846  1.2863  1.2483 -0.8197
 8196SOL    HW236222   0.132   3.572   8.706 -0.1881 -0.1345 -0.1575
 8197SOL     OW36223   0.465   2.206   3.429 -0.4741  0.1962  0.1198
 8197SOL    HW136224   0.462   2.294   3.394  2.0190  0.0355 -0.4966
 8197SOL    HW236225   0.560   2.195   3.439 -0.4104 -0.9280 -1.8271
 8198SOL     OW36226   2.352   3.292   7.348 -0.1495  0.1480 -0.2717
 8198SOL    HW136227   2.302   3.294   7.429 -0.0530  0.7399 -0.2319
 8198SOL    HW236228   2.296   3.345   7.291 -0.2381 -1.0675 -1.3396
 8199SOL     OW36229   0.798   2.847   2.869  0.5997 -0.1469 -0.1598
 8199SOL    HW136230   0.753   2.927   2.895 -0.2799 -0.2873 -1.2334
 8199SOL    HW236231   0.809   2.875   2.778  1.7550  1.1246  0.3793
 8200SOL     OW36232   2.085   0.444   4.692 -0.0250 -0.3567 -0.7635
 8200SOL    HW136233   2.073   0.499   4.615  0.2077 -0.4153 -0.8430
 8200SOL    HW236234   2.035   0.495   4.756  2.6707 -0.1540  1.1664
 8201SOL     OW36235   1.027   1.391   3.373 -0.1135 -0.5442  0.2105
 8201SOL    HW136236   0.968   1.397   3.449  0.6465  0.3563  0.7335
 8201SOL    HW236237   1.071   1.310   3.397  2.0024  0.7567  0.7331
 8202SOL     OW36238   3.955   3.025   9.530  0.6206 -0.0305 -0.1544
 8202SOL    HW136239   4.047   3.003   9.513  0.9679  2.7845 -1.9024
 8202SOL    HW236240   3.917   2.941   9.504 -0.7194  0.3684  0.5584
 8203SOL     OW36241   1.799   4.018  14.313 -0.2151 -0.1659  0.2082
 8203SOL    HW136242   1.870   4.079  14.292 -3.7542  3.1254 -2.2588
 8203SOL    HW236243   1.799   4.025  14.409 -0.6762 -0.5742  0.2361
 8204SOL     OW36244   4.201   1.136   3.450  0.2150  0.4018  0.0109
 8204SOL    HW136245   4.137   1.138   3.379  0.7000  1.6269 -0.3970
 8204SOL    HW236246   4.239   1.224   3.453  3.7837 -1.0836 -0.6034
 8205SOL     OW36247   1.931   1.223   7.910 -0.1131  0.2640  0.3650
 8205SOL    HW136248   2.011   1.274   7.900  1.1898 -1.4426  2.1757
 8205SOL    HW236249   1.887   1.247   7.828 -1.2346  0.6661  1.0848
 8206SOL     OW36250   1.818   4.295   6.342  0.2067 -0.0718  0.2902
 8206SOL    HW136251   1.906   4.283   6.375  0.6912 -1.2835 -1.4590
 8206SOL    HW236252   1.810   4.265   6.251  0.8815  0.5694  0.0137
 8207SOL     OW36253   4.514   3.856   5.561  0.4976 -0.0894  0.4828
 8207SOL    HW136254   4.522   3.813   5.476  1.3580  1.0363 -0.0064
 8207SOL    HW236255   4.419   3.856   5.575  0.1575 -0.6235 -1.8470
 8208SOL     OW36256   0.925   0.772   3.332  0.0672 -0.2569 -0.2581
 8208SOL    HW136257   0.859   0.740   3.270 -1.0727  1.3522  0.1155
 8208SOL    HW236258   1.003   0.770   3.276 -0.3896 -1.5043 -0.8518
 8209SOL     OW36259   1.143   1.696  11.047 -0.0205 -0.4578 -0.2893
 8209SOL    HW136260   1.173   1.607  11.062  0.3063 -0.2724  0.1660
 8209SOL    HW236261   1.214   1.718  10.987  0.4371 -3.0830 -0.6948
 8210SOL     OW36262   2.402   4.191   2.731  0.2305  0.5666  0.3023
 8210SOL    HW136263   2.434   4.246   2.660 -1.8535  1.0371 -0.2621
 8210SOL    HW236264   2.357   4.260   2.778 -0.4851  0.9327 -0.9147
 8211SOL     OW36265   4.663   0.528   2.246 -0.2603  0.0737  0.1788
 8211SOL    HW136266   0.016   0.493   2.258  0.0731  0.7689 -0.2481
 8211SOL    HW236267   4.664   0.564   2.157 -0.1656  0.4057  0.3128
 8212SOL     OW36268   0.651   1.299   7.164  0.4730  0.0290 -0.3228
 8212SOL    HW136269   0.643   1.224   7.223  0.9005 -0.3491 -0.7457
 8212SOL    HW236270   0.700   1.253   7.096 -0.3597 -1.2297 -0.0780
 8213SOL     OW36271   2.896   2.839  15.734 -0.0609  0.8662  0.0112
 8213SOL    HW136272   2.850   2.754  15.734 -0.0094  0.8463  1.7143
 8213SOL    HW236273   2.949   2.836  15.655 -0.8188  0.9841 -0.5071
 8214SOL     OW36274   4.194   3.004   7.661 -0.5260 -0.3937  0.0675
 8214SOL    HW136275   4.131   3.073   7.640  0.2621  0.3411  0.1390
 8214SOL    HW236276   4.271   3.054   7.688  0.1608 -2.0579  1.1986
 8215SOL     OW36277   1.286   3.631  13.377  0.0390  0.4155  0.2507
 8215SOL    HW136278   1.316   3.656  13.464  2.4343 -2.6993  0.3337
 8215SOL    HW236279   1.342   3.682  13.320 -1.2743 -0.9044 -2.2187
 8216SOL     OW36280   0.832   4.235   2.474 -0.0963  0.2672 -0.1342
 8216SOL    HW136281   0.892   4.234   2.399  0.3892  1.2072  0.2453
 8216SOL    HW236282   0.890   4.240   2.550  2.2572  1.1475 -1.9974
 8217SOL     OW36283   4.007   1.687   8.780 -0.8668  0.0433  0.0975
 8217SOL    HW136284   3.969   1.679   8.693 -0.8708  0.0697  0.0970
 8217SOL    HW236285   4.095   1.670   8.746 -0.1580  0.9155  1.4566
 8218SOL     OW36286   1.436   1.992  13.586 -0.2208  0.3619 -0.2446
 8218SOL    HW136287   1.447   2.035  13.501  2.2282 -0.4562 -0.3511
 8218SOL    HW236288   1.527   2.000  13.615  0.3590  0.6538 -2.1261
 8219SOL     OW36289   0.698   3.990   3.299  0.5184 -0.1522  0.2079
 8219SOL    HW136290   0.632   3.981   3.369 -0.4760 -3.0932 -1.1031
 8219SOL    HW236291   0.645   4.041   3.238 -0.4379  0.7168  1.7580
 8220SOL     OW36292   2.666   1.700  14.093  0.1562 -0.0289  0.1735
 8220SOL    HW136293   2.590   1.648  14.121 -0.5168  1.5917  1.3274
 8220SOL    HW236294   2.621   1.784  14.092  0.0531 -0.0606  1.6004
 8221SOL     OW36295   4.224   3.760   3.218  0.5409  0.2475  0.0678
 8221SOL    HW136296   4.130   3.777   3.230  0.9058  2.0566  0.2651
 8221SOL    HW236297   4.219   3.665   3.225  0.7112  0.3894  2.0696
 8222SOL     OW36298   3.963   2.497   3.041 -0.1901 -0.0583  0.2654
 8222SOL    HW136299   4.057   2.478   3.039 -0.1580  0.1773 -0.5464
 8222SOL    HW236300   3.967   2.590   3.062 -0.2519 -0.1267  0.5749
 8223SOL     OW36301   2.850   3.680   5.877  0.4864  0.0372  0.1638
 8223SOL    HW136302   2.885   3.644   5.795  1.6564  1.5826 -0.0200
 8223SOL    HW236303   2.796   3.756   5.854 -0.0505 -0.4789 -0.2594
 8224SOL     OW36304   4.608   2.744   8.740 -0.3086  0.1120 -0.5598
 8224SOL    HW136305   4.703   2.748   8.742 -0.2877 -0.7457  0.3013
 8224SOL    HW236306   4.595   2.706   8.654  1.0212  1.0100 -1.1550
 8225SOL     OW36307   2.772   0.015  13.247  0.5119  0.1111  0.6749
 8225SOL    HW136308   2.823   4.696  13.306 -0.6077 -2.4565 -0.7048
 8225SOL    HW236309   2.732   0.064  13.318  0.8587 -0.9214  1.5827
 8226SOL     OW36310   2.663   3.164   7.828 -0.8447  0.1624  0.4209
 8226SOL    HW136311   2.654   3.259   7.832 -1.5607  0.0449  1.6484
 8226SOL    HW236312   2.598   3.136   7.763  0.0297  0.6598 -0.6732
 8227SOL     OW36313   0.730   1.400   4.098 -0.3090  0.1850 -0.2083
 8227SOL    HW136314   0.704   1.365   4.013  1.8050  0.0497 -0.7809
 8227SOL    HW236315   0.732   1.493   4.075  1.6611 -0.0042 -0.7477
 8228SOL     OW36316   0.019   2.015  12.912  0.3818  0.4744  0.4908
 8228SOL    HW136317   4.706   2.088  12.952  0.8185  0.8197  0.3786
 8228SOL    HW236318   0.108   2.048  12.912  0.6616 -0.3052 -0.9196
 8229SOL     OW36319   4.025   2.070   1.768 -0.1330  0.1939  0.1203
 8229SOL    HW136320   4.029   1.975   1.756  2.0749  0.5932 -2.2425
 8229SOL    HW236321   3.965   2.103   1.702  0.5035 -0.5604 -0.8312
 8230SOL     OW36322   3.020   3.462   0.608 -0.4609  0.5619  0.2563
 8230SOL    HW136323   3.031   3.381   0.659  0.1480  0.4244 -0.0926
 8230SOL    HW236324   2.944   3.434   0.557 -0.0929  1.3273 -0.7060
 8231SOL     OW36325   2.520   4.226   8.164 -0.1098 -0.7333  0.1456
 8231SOL    HW136326   2.534   4.281   8.240  0.2188 -0.2354 -0.2761
 8231SOL    HW236327   2.519   4.301   8.104  1.8912  0.1950  1.3074
 8232SOL     OW36328   3.275   3.424   9.021  0.2756  0.4021  0.1012
 8232SOL    HW136329   3.215   3.495   8.998  2.4963  2.6174  1.1985
 8232SOL    HW236330   3.357   3.473   9.018  0.9859 -1.0137 -3.2155
 8233SOL     OW36331   0.844   4.722   8.717  0.0166  0.1144  0.5914
 8233SOL    HW136332   0.754   4.719   8.683  2.0965 -1.3651 -4.6093
 8233SOL    HW236333   0.876   4.636   8.689 -0.2196 -0.7658  2.9666
 8234SOL     OW36334   1.131   4.309   2.047 -0.8045 -0.5075 -0.0888
 8234SOL    HW136335   1.203   4.356   2.089  0.3834 -2.6611  0.3156
 8234SOL    HW236336   1.172   4.224   2.066 -0.4840  0.1969  2.3277
 8235SOL     OW36337   4.236   1.753   4.067 -0.1919  0.4032  0.1250
 8235SOL    HW136338   4.217   1.787   3.979  1.7101 -1.6695 -1.0828
 8235SOL    HW236339   4.312   1.809   4.079 -0.0918  0.5352 -1.0989
 8236SOL     OW36340   3.592   2.122   6.404 -0.3750  0.3801  0.2150
 8236SOL    HW136341   3.611   2.208   6.368  0.6833  0.0291 -0.0755
 8236SOL    HW236342   3.673   2.073   6.388 -0.8742  0.0820 -1.3183
 8237SOL     OW36343   0.940   4.716  13.457 -0.2961 -0.3474  0.4521
 8237SOL    HW136344   0.883   0.036  13.511  0.0271  2.2441 -1.8740
 8237SOL    HW236345   0.923   4.635  13.504 -0.2825 -1.3117 -1.2061
 8238SOL     OW36346   0.398   3.660   5.946  0.1599 -0.4827  0.0348
 8238SOL    HW136347   0.354   3.576   5.959 -2.0526  1.0041  2.2983
 8238SOL    HW236348   0.322   3.707   5.910  0.5388  0.2843  0.2389
 8239SOL     OW36349   4.618   0.388   9.232  0.5456  0.3380 -0.3107
 8239SOL    HW136350   4.651   0.309   9.276 -1.7367  0.1265  1.0074
 8239SOL    HW236351   4.565   0.342   9.166  0.4807  0.0934 -0.0894
 8240SOL     OW36352   1.573   1.085  13.644 -0.0373 -0.0967 -0.2131
 8240SOL    HW136353   1.666   1.100  13.629  0.1077 -1.6612 -0.8169
 8240SOL    HW236354   1.546   1.027  13.573  1.6485 -0.3213 -0.6729
 8241SOL     OW36355   3.460   1.176   6.429 -0.0436  0.4994 -0.4668
 8241SOL    HW136356   3.437   1.268   6.445  3.5089  1.4861 -1.0519
 8241SOL    HW236357   3.388   1.129   6.471 -0.6242  0.7689 -1.1613
 8242SOL     OW36358   0.087   1.658  10.630 -0.4603 -0.1701  0.1987
 8242SOL    HW136359   0.104   1.617  10.546 -0.2231 -1.1830  0.7373
 8242SOL    HW236360   0.022   1.596  10.664 -0.0608 -1.6558 -1.7536
 8243SOL     OW36361   4.674   1.048   7.281  0.1630  0.5699 -0.3330
 8243SOL    HW136362   4.701   1.084   7.365 -1.4586 -0.8413  0.7939
 8243SOL    HW236363   4.728   0.970   7.293  1.1332  1.3673  0.5133
 8244SOL     OW36364   3.266   1.424   8.570 -0.3197 -0.4850  0.1558
 8244SOL    HW136365   3.319   1.345   8.577  1.3374  0.6923  1.1241
 8244SOL    HW236366   3.331   1.489   8.596 -2.2339  1.3144  0.4603
 8245SOL     OW36367   2.965   4.505   2.683 -0.3994 -0.1137  0.1352
 8245SOL    HW136368   2.978   4.514   2.588 -2.4286  0.9902 -0.0376
 8245SOL    HW236369   2.996   4.588   2.719  0.4204  0.3746 -1.6753
 8246SOL     OW36370   4.155   3.402   1.026 -0.7507 -0.4088 -0.3058
 8246SOL    HW136371   4.076   3.388   0.974 -1.2579  0.9852  0.1090
 8246SOL    HW236372   4.123   3.419   1.115 -1.0147 -2.2168 -0.0491
 8247SOL     OW36373   4.332   0.029  13.343  0.6383  0.1184  0.3559
 8247SOL    HW136374   4.407   0.079  13.309 -0.1366  0.5265 -0.7538
 8247SOL    HW236375   4.369   4.678  13.323  1.8137  0.5923  0.4542
 8248SOL     OW36376   3.185   4.153  14.655 -0.0902 -0.0950 -0.7139
 8248SOL    HW136377   3.241   4.141  14.579  1.0458 -0.3387  0.1607
 8248SOL    HW236378   3.210   4.240  14.686 -0.9986 -0.3368  0.7225
 8249SOL     OW36379   3.655   2.670   8.841 -0.0595 -0.1553 -0.0352
 8249SOL    HW136380   3.678   2.622   8.761 -1.1096  0.3906 -0.6658
 8249SOL    HW236381   3.727   2.648   8.899 -0.1847  0.5779  0.4036
 8250SOL     OW36382   4.705   1.195   7.971  0.4044 -0.1020 -0.0236
 8250SOL    HW136383   4.672   1.273   8.014  0.0641 -1.1573  1.6262
 8250SOL    HW236384   0.014   1.144   8.040 -1.4284  1.0781  2.0163
 8251SOL     OW36385   0.750   3.700   0.918 -0.2583  0.1361 -0.4785
 8251SOL    HW136386   0.705   3.770   0.872  1.2641  2.3586  1.4211
 8251SOL    HW236387   0.736   3.626   0.858 -0.4094 -2.8574  3.2485
 8252SOL     OW36388   1.087   0.991  15.518  0.0830  0.2856  0.5981
 8252SOL    HW136389   1.051   0.964  15.434 -0.6731  0.3568  0.9057
 8252SOL    HW236390   1.011   0.978  15.575  0.2911 -1.8410  0.3572
 8253SOL     OW36391   4.526   3.333   2.031 -0.0406 -0.3565  0.3676
 8253SOL    HW136392   4.617   3.316   2.005  0.7443  0.9835  2.2295
 8253SOL    HW236393   4.477   3.286   1.964  0.1240  0.5429 -0.3788
 8254SOL     OW36394   2.046   2.879  10.214  0.1903  0.5715 -0.3940
 8254SOL    HW136395   2.040   2.943  10.143 -0.8681 -0.5461 -1.3031
 8254SOL    HW236396   1.958   2.844  10.215  1.1189 -1.7228  0.4474
 8255SOL     OW36397   0.667   2.484   5.710 -0.0752  0.0885  0.4712
 8255SOL    HW136398   0.745   2.520   5.669 -2.6280  2.0103 -2.6895
 8255SOL    HW236399   0.607   2.559   5.699  0.9475  1.1405  1.9410
 8256SOL     OW36400   2.682   1.786   1.960 -0.7525  0.0075  0.7885
 8256SOL    HW136401   2.747   1.726   1.998  0.4669  1.7481  1.4415
 8256SOL    HW236402   2.735   1.861   1.934 -1.6557  0.0889 -0.8475
 8257SOL     OW36403   2.729   1.013   8.817 -0.0144  0.1574 -0.3124
 8257SOL    HW136404   2.639   0.993   8.845  0.0121  1.6443  0.7840
 8257SOL    HW236405   2.782   0.941   8.853 -2.1785 -0.5425  1.5263
 8258SOL     OW36406   3.610   1.844   7.013  0.4602  0.5863  0.6759
 8258SOL    HW136407   3.696   1.814   6.986 -0.0385  1.7280 -2.1410
 8258SOL    HW236408   3.575   1.894   6.939  0.3309 -0.9269 -0.2854
 8259SOL     OW36409   2.810   2.546   6.902 -0.2739 -0.4877  0.2975
 8259SOL    HW136410   2.742   2.514   6.842  0.8675 -0.3949 -1.0667
 8259SOL    HW236411   2.890   2.541   6.849 -0.1290 -1.1987  0.5870
 8260SOL     OW36412   0.095   1.843   3.203 -0.5863  0.3937 -0.1737
 8260SOL    HW136413   0.004   1.872   3.201 -0.0564  1.7404 -4.2897
 8260SOL    HW236414   0.133   1.891   3.276  2.2470 -2.4609  0.2465
 8261SOL     OW36415   3.291   2.044   1.724  0.0844 -0.4409  0.0169
 8261SOL    HW136416   3.272   2.131   1.690  2.2510 -0.5070 -1.3623
 8261SOL    HW236417   3.248   1.985   1.661 -0.2740  1.1582 -1.2416
 8262SOL     OW36418   1.133   2.977   6.087 -0.0910  0.3754 -0.0538
 8262SOL    HW136419   1.180   3.061   6.090  0.6493  0.0863 -4.3632
 8262SOL    HW236420   1.202   2.911   6.090  0.2807  0.6928 -1.8700
 8263SOL     OW36421   4.557   1.910   5.239  0.0109  0.1351 -0.9099
 8263SOL    HW136422   4.645   1.875   5.227 -0.6999 -0.7680 -3.4196
 8263SOL    HW236423   4.520   1.848   5.302  0.3703 -1.6957 -2.4931
 8264SOL     OW36424   4.540   0.270   5.061  0.2023 -0.4166 -0.2080
 8264SOL    HW136425   4.469   0.327   5.029 -0.2220 -1.0485 -0.3836
 8264SOL    HW236426   4.484   0.211   5.111  1.8067 -0.4899  1.4647
 8265SOL     OW36427   1.330   1.840  12.257  1.0231 -0.1417 -0.1611
 8265SOL    HW136428   1.417   1.801  12.247  0.9284 -0.1800 -0.8572
 8265SOL    HW236429   1.310   1.868  12.167  0.9135 -1.8427 -0.6567
 8266SOL     OW36430   3.170   4.542   0.692  0.1248  0.0921  0.4848
 8266SOL    HW136431   3.106   4.614   0.697  2.2682  1.8720  2.3681
 8266SOL    HW236432   3.195   4.545   0.785 -0.2122 -0.1701  0.5846
 8267SOL     OW36433   4.614   3.621   6.939 -0.0825 -0.3639 -0.4406
 8267SOL    HW136434   4.632   3.680   7.013  0.5696 -1.1823  0.0661
 8267SOL    HW236435   4.678   3.654   6.876 -1.3466  0.4925 -1.2436
 8268SOL     OW36436   4.615   2.369   3.888 -0.3614 -0.1357 -0.4370
 8268SOL    HW136437   4.568   2.449   3.865 -0.9349 -0.8493 -1.7497
 8268SOL    HW236438   4.689   2.398   3.942 -1.8571  0.0885  1.4850
 8269SOL     OW36439   3.381   2.363   1.980  0.2589 -0.0914  0.2093
 8269SOL    HW136440   3.288   2.362   1.959  0.3112 -0.0027 -0.0259
 8269SOL    HW236441   3.394   2.449   2.020  0.1205 -0.9709  2.1409
 8270SOL     OW36442   3.394   0.024   2.101  0.0365 -0.0511 -0.0189
 8270SOL    HW136443   3.489   0.022   2.113  0.2315  2.6258 -1.1413
 8270SOL    HW236444   3.377   0.097   2.041 -0.9480  1.2312  1.8058
 8271SOL     OW36445   1.488   4.664   7.110 -0.6076  0.1448  0.3019
 8271SOL    HW136446   1.583   4.652   7.121 -0.2115  2.0799 -0.9371
 8271SOL    HW236447   1.461   4.573   7.111 -0.7454  0.1462 -2.1529
 8272SOL     OW36448   2.484   4.446   8.324  0.2103  0.4005 -0.2476
 8272SOL    HW136449   2.454   4.515   8.265  0.6614 -0.2024 -1.1803
 8272SOL    HW236450   2.433   4.471   8.401  1.2545  0.8539  0.2938
 8273SOL     OW36451   3.537   2.314  12.447 -0.2556 -0.1807 -0.0496
 8273SOL    HW136452   3.531   2.339  12.539 -0.6672 -0.0922 -0.1006
 8273SOL    HW236453   3.450   2.344  12.419 -0.7235 -2.4254 -0.9657
 8274SOL     OW36454   3.894   3.031   1.505 -0.6390 -0.8665  0.2605
 8274SOL    HW136455   3.801   3.014   1.521 -0.7389  0.6534  1.2992
 8274SOL    HW236456   3.894   3.086   1.426 -0.6154 -0.6695  0.3982
 8275SOL     OW36457   2.435   3.754   2.465 -0.4997  0.1628  0.1464
 8275SOL    HW136458   2.349   3.789   2.440 -0.3687  0.6400  0.3542
 8275SOL    HW236459   2.461   3.815   2.535 -1.2844  0.7583 -0.0721
 8276SOL     OW36460   3.643   0.925   2.572 -0.2241 -0.2782  0.3235
 8276SOL    HW136461   3.633   0.914   2.478 -1.8553 -0.9945  0.5793
 8276SOL    HW236462   3.608   0.843   2.607  1.2540 -0.8266  0.5133
 8277SOL     OW36463   3.746   4.575  17.635 -0.7554 -0.4751  0.1899
 8277SOL    HW136464   3.779   4.500  17.685 -0.8143 -1.7972 -1.7534
 8277SOL    HW236465   3.674   4.595  17.695 -1.6374 -3.4488  0.1372
 8278SOL     OW36466   3.096   2.545   1.800  0.1464  0.3147 -0.0906
 8278SOL    HW136467   3.072   2.511   1.886  1.3209 -2.0688 -0.7154
 8278SOL    HW236468   3.180   2.589   1.806 -0.3706  1.3706 -0.4862
 8279SOL     OW36469   2.545   1.438   8.505  0.4899  0.0922 -0.1172
 8279SOL    HW136470   2.558   1.444   8.600 -2.5153  0.7747  0.2379
 8279SOL    HW236471   2.456   1.471   8.492  0.3041 -0.9455 -1.5237
 8280SOL     OW36472   0.440   1.869   4.817  0.0940 -0.8229  0.2938
 8280SOL    HW136473   0.449   1.792   4.874 -1.4083 -0.7264  0.6624
 8280SOL    HW236474   0.408   1.936   4.877  0.9543 -2.0187  2.1051
 8281SOL     OW36475   2.162   3.339   2.758  0.3610 -0.6540 -0.5708
 8281SOL    HW136476   2.095   3.336   2.826  1.1386 -1.2874  0.1706
 8281SOL    HW236477   2.165   3.247   2.731 -0.3705 -0.5287 -1.0817
 8282SOL     OW36478   1.832   1.924   2.321  0.1953  0.4828 -0.1815
 8282SOL    HW136479   1.878   1.876   2.390 -2.4845 -0.7725  0.7519
 8282SOL    HW236480   1.898   1.923   2.252  0.5414  0.6204  0.1516
 8283SOL     OW36481   3.226   4.664   3.904  0.1959 -0.2288  0.1238
 8283SOL    HW136482   3.291   4.599   3.930  0.3611  0.0836  0.4908
 8283SOL    HW236483   3.274   4.725   3.848 -0.2685  0.9045  0.9667
 8284SOL     OW36484   2.109   1.079   9.071  0.0386 -0.0845  0.0723
 8284SOL    HW136485   2.067   0.999   9.038  2.5475 -1.3268 -0.0903
 8284SOL    HW236486   2.186   1.078   9.014 -0.6439  0.9004 -0.8783
 8285SOL     OW36487   4.038   2.627   0.759 -0.1233 -0.1464 -0.1614
 8285SOL    HW136488   3.982   2.574   0.816 -0.8017  2.0537  1.2393
 8285SOL    HW236489   4.046   2.702   0.818 -1.1685  0.3302 -0.6237
 8286SOL     OW36490   3.018   0.769   8.743  0.1202 -0.1331  0.1503
 8286SOL    HW136491   3.004   0.825   8.819 -1.4082  0.2108 -0.3911
 8286SOL    HW236492   2.985   0.687   8.780 -0.3614 -1.3911 -3.0416
 8287SOL     OW36493   3.709   2.146   8.016 -0.6609  0.4033  0.7514
 8287SOL    HW136494   3.633   2.203   8.009 -0.0102  1.1293 -0.5083
 8287SOL    HW236495   3.676   2.079   8.076  1.6362 -0.8932  0.5828
 8288SOL     OW36496   1.410   4.321   2.961 -0.1527 -0.1707  0.0231
 8288SOL    HW136497   1.414   4.415   2.945 -0.5049 -0.1204  0.2193
 8288SOL    HW236498   1.445   4.325   3.050 -0.3482 -1.8230  0.1710
 8289SOL     OW36499   3.488   0.359   7.076  0.0992  0.1709  0.3394
 8289SOL    HW136500   3.421   0.341   7.142  1.0650  0.0205  1.2813
 8289SOL    HW236501   3.464   0.439   7.029  1.8392 -0.0397 -0.9112
 8290SOL     OW36502   3.581   1.440   3.343  0.3144  0.4865 -0.1134
 8290SOL    HW136503   3.670   1.405   3.343  0.3076  0.4716  0.8270
 8290SOL    HW236504   3.528   1.361   3.329  2.5090 -0.8333 -1.0217
 8291SOL     OW36505   1.242   4.347   1.397 -0.2781 -0.2321 -0.1216
 8291SOL    HW136506   1.309   4.296   1.443  0.7747  0.1784 -1.2175
 8291SOL    HW236507   1.179   4.286   1.359  0.5175 -1.3555  0.3741
 8292SOL     OW36508   3.711   3.489   2.489  0.4783 -0.3568 -0.1828
 8292SOL    HW136509   3.661   3.414   2.519 -0.7907  1.3629  1.9845
 8292SOL    HW236510   3.669   3.561   2.536 -3.1136 -2.7810  0.3504
 8293SOL     OW36511   1.450   3.635   0.810 -0.4800 -0.0222  0.1504
 8293SOL    HW136512   1.368   3.615   0.766  0.5549 -1.1768 -1.2791
 8293SOL    HW236513   1.496   3.568   0.759 -0.6365  0.2109 -0.3005
 8294SOL     OW36514   1.252   2.456   4.878  0.3123  0.3613  0.2025
 8294SOL    HW136515   1.314   2.385   4.862 -0.4981 -0.1781 -0.5178
 8294SOL    HW236516   1.270   2.487   4.967  0.3030 -0.2034  0.4011
 8295SOL     OW36517   3.551   2.849  12.706  0.1541  0.3111  0.2513
 8295SOL    HW136518   3.631   2.806  12.734  1.1614  1.3059 -1.0966
 8295SOL    HW236519   3.492   2.778  12.681 -1.0909  0.6694  2.1202
 8296SOL     OW36520   1.496   0.134  17.634 -0.7937  0.2047  0.0370
 8296SOL    HW136521   1.453   0.065  17.585  2.3826 -1.4879 -0.3953
 8296SOL    HW236522   1.520   0.085  17.713  1.1562  0.3012 -0.5012
 8297SOL     OW36523   2.386   3.466   2.552 -0.3700 -0.2615  0.5942
 8297SOL    HW136524   2.445   3.467   2.628 -0.2285  0.3702  0.4740
 8297SOL    HW236525   2.389   3.555   2.516 -0.4280 -0.6961 -0.4912
 8298SOL     OW36526   0.608   1.932   5.860  0.5687 -0.2635 -0.4176
 8298SOL    HW136527   0.628   1.848   5.820  0.2421 -1.1504  1.2913
 8298SOL    HW236528   0.653   1.995   5.804  1.0947 -0.7184 -0.5028
 8299SOL     OW36529   4.357   0.412   7.347  0.3599 -0.3615 -0.0747
 8299SOL    HW136530   4.354   0.371   7.261 -1.9697 -0.6079  0.0996
 8299SOL    HW236531   4.368   0.503   7.321 -2.1654 -0.3969 -1.2549
 8300SOL     OW36532   4.660   2.470  10.247 -0.2256 -0.1423 -0.6129
 8300SOL    HW136533   0.008   2.471  10.199 -0.4267  0.2349 -0.9460
 8300SOL    HW236534   4.674   2.395  10.305 -2.8958 -0.5941 -0.5571
 8301SOL     OW36535   2.399   3.272   8.686 -0.2044 -0.3227  0.1408
 8301SOL    HW136536   2.464   3.202   8.679 -0.3460 -0.4445  0.0584
 8301SOL    HW236537   2.419   3.297   8.777  1.1757 -2.2678  0.3616
 8302SOL     OW36538   1.505   4.353   3.590  0.2155  0.1450  0.1900
 8302SOL    HW136539   1.561   4.412   3.641  1.3785 -2.1002  1.4739
 8302SOL    HW236540   1.491   4.401   3.508 -2.0216 -0.9454 -0.0766
 8303SOL     OW36541   0.013   4.174   6.544 -0.1466  0.3930  0.3585
 8303SOL    HW136542   0.094   4.211   6.508 -0.0079 -0.3990 -0.1370
 8303SOL    HW236543   4.690   4.218   6.481  1.4509  0.8300 -0.8271
 8304SOL     OW36544   1.911   3.798   5.559  0.4854 -0.4589 -0.1725
 8304SOL    HW136545   1.952   3.823   5.642  1.0679 -0.8694 -0.3393
 8304SOL    HW236546   1.859   3.876   5.540  0.5099 -0.8129 -1.7003
 8305SOL     OW36547   2.926   1.455   5.432 -0.2875 -0.1547 -0.2820
 8305SOL    HW136548   2.895   1.455   5.523  1.6219  1.5465  0.3771
 8305SOL    HW236549   2.905   1.364   5.409  0.7717  0.1617 -2.5298
 8306SOL     OW36550   4.026   4.293   8.092  0.0899 -0.0490  0.0306
 8306SOL    HW136551   4.032   4.207   8.134 -0.5075 -0.0528  0.1142
 8306SOL    HW236552   3.944   4.332   8.121  1.1211  0.6909  1.9127
 8307SOL     OW36553   3.240   3.689   7.611  0.3965  0.4334  0.4548
 8307SOL    HW136554   3.291   3.631   7.555  1.4334  1.7176  0.0542
 8307SOL    HW236555   3.157   3.680   7.564 -0.5762  1.8034  1.8885
 8308SOL     OW36556   4.217   2.779   5.856 -0.1090  0.5486  0.2331
 8308SOL    HW136557   4.149   2.711   5.853  0.8115 -0.3328 -0.9111
 8308SOL    HW236558   4.264   2.744   5.932  2.3369 -0.2158 -1.6299
 8309SOL     OW36559   1.557   0.975   7.990  0.6332 -0.3953 -0.3601
 8309SOL    HW136560   1.647   1.003   8.007  0.5695 -1.5281  1.8777
 8309SOL    HW236561   1.531   0.931   8.072  0.7865 -0.4949 -0.3658
 8310SOL     OW36562   2.741   0.360   3.853 -0.3490 -0.0110  0.3849
 8310SOL    HW136563   2.777   0.415   3.924 -0.9105 -1.8281  2.0834
 8310SOL    HW236564   2.705   0.292   3.911  1.8399 -0.0040  1.7652
 8311SOL     OW36565   2.545   1.042  14.407 -0.8206  0.1219 -0.1113
 8311SOL    HW136566   2.538   1.061  14.501 -0.1855 -2.2112  0.4201
 8311SOL    HW236567   2.467   0.988  14.395  0.1362 -1.9772  3.0347
 8312SOL     OW36568   0.395   4.558  10.745 -0.1361 -0.0491  0.1751
 8312SOL    HW136569   0.299   4.564  10.736 -0.1854 -1.2310 -0.0969
 8312SOL    HW236570   0.432   4.570  10.657  1.5181 -0.6776  0.7891
 8313SOL     OW36571   0.490   0.516  14.651  0.1284  0.2865 -0.2728
 8313SOL    HW136572   0.411   0.462  14.658 -1.2227  2.0980 -1.5261
 8313SOL    HW236573   0.478   0.581  14.720 -1.2454  0.3995 -0.6271
 8314SOL     OW36574   1.499   2.309   4.009 -0.1069  0.0412 -0.1131
 8314SOL    HW136575   1.578   2.348   3.972  0.5933 -0.2778  1.0460
 8314SOL    HW236576   1.538   2.299   4.096 -0.7720 -1.4656  0.0133
 8315SOL     OW36577   1.141   3.049  12.781  0.0880  0.2770 -0.2269
 8315SOL    HW136578   1.104   3.057  12.869  1.4043 -0.1892  0.3790
 8315SOL    HW236579   1.228   3.088  12.790 -0.0456  0.4266  0.4281
 8316SOL     OW36580   1.288   0.730   1.213 -0.2828 -0.1527 -0.2587
 8316SOL    HW136581   1.283   0.814   1.167 -3.4596 -0.2235 -0.0157
 8316SOL    HW236582   1.223   0.686   1.158 -0.3572 -1.4808  0.9020
 8317SOL     OW36583   2.251   2.175   1.404 -0.0829 -0.1742  0.1587
 8317SOL    HW136584   2.246   2.079   1.408 -3.2724  0.0076  0.8086
 8317SOL    HW236585   2.160   2.203   1.408  0.5127  1.5945  1.1200
 8318SOL     OW36586   3.180   0.686  13.536  0.2819  0.2210  0.2652
 8318SOL    HW136587   3.273   0.663  13.536  0.4650  0.9816  2.3914
 8318SOL    HW236588   3.140   0.600  13.523 -1.1866  0.6644  1.9836
 8319SOL     OW36589   0.509   0.718  14.881 -0.0571 -0.7437  0.2521
 8319SOL    HW136590   0.475   0.787  14.937 -1.4176 -1.8383  0.7817
 8319SOL    HW236591   0.426   0.680  14.851  0.2656 -0.5372 -0.9205
 8320SOL     OW36592   4.076   0.183   6.173 -0.4014  0.0527  0.0557
 8320SOL    HW136593   4.164   0.162   6.143 -0.9461  1.0958 -2.2915
 8320SOL    HW236594   4.084   0.274   6.202  2.1144 -0.3600  0.6721
 8321SOL     OW36595   2.722   3.277   8.115  0.0511 -0.0639  0.0971
 8321SOL    HW136596   2.680   3.198   8.082  1.3726  0.1071 -1.9940
 8321SOL    HW236597   2.814   3.252   8.118  0.0030 -0.2893 -0.2476
 8322SOL     OW36598   1.223   3.151   9.738  0.0053 -0.4363 -0.4990
 8322SOL    HW136599   1.229   3.244   9.760  2.2585 -0.5765 -0.5044
 8322SOL    HW236600   1.207   3.118   9.826 -0.5968 -0.3419 -0.5743
 8323SOL     OW36601   1.116   1.418  17.045  0.1248  0.5424 -0.2219
 8323SOL    HW136602   1.045   1.482  17.047 -1.3497 -1.1837  1.1289
 8323SOL    HW236603   1.197   1.468  17.031  0.2080  0.6966  0.8612
 8324SOL     OW36604   3.088   2.815   7.938 -0.0388 -0.2595 -0.4797
 8324SOL    HW136605   3.033   2.880   7.981  1.4896  1.3041 -0.8990
 8324SOL    HW236606   3.139   2.767   8.004 -1.4014 -1.1786 -0.1010
 8325SOL     OW36607   1.293   2.173   9.313 -0.3753 -0.5004  0.0342
 8325SOL    HW136608   1.255   2.239   9.254 -2.8326  0.3818  2.5628
 8325SOL    HW236609   1.262   2.091   9.275  0.0540  0.5654 -2.6079
 8326SOL     OW36610   2.856   3.395   7.309  0.2129  0.0688 -0.6428
 8326SOL    HW136611   2.897   3.308   7.309  0.4451  0.1756 -0.8526
 8326SOL    HW236612   2.810   3.375   7.390  2.4609  2.0907  1.1481
 8327SOL     OW36613   2.723   0.961   7.417 -0.0383  0.5664  0.5619
 8327SOL    HW136614   2.705   0.870   7.396  0.5112 -0.0468  2.7546
 8327SOL    HW236615   2.790   0.985   7.353 -0.2634 -0.4384 -0.0508
 8328SOL     OW36616   0.120   3.004   2.574  0.0403 -0.2007  0.1469
 8328SOL    HW136617   0.148   3.096   2.571 -0.6491  0.0164  0.3520
 8328SOL    HW236618   0.186   2.977   2.638  0.2631 -1.0283 -0.4367
 8329SOL     OW36619   1.312   4.363  10.183  0.2657 -0.0823 -0.4841
 8329SOL    HW136620   1.301   4.448  10.140  0.5624 -0.3079 -1.0015
 8329SOL    HW236621   1.259   4.316  10.119 -0.7000  2.9517 -1.8956
 8330SOL     OW36622   2.995   2.729   6.535 -0.3213  0.5794 -0.7816
 8330SOL    HW136623   3.067   2.770   6.487  1.6751  0.7549  2.3794
 8330SOL    HW236624   2.948   2.810   6.555  0.4860  0.3945  1.8909
 8331SOL     OW36625   1.579   1.993   1.525  0.1424  0.3886  0.7458
 8331SOL    HW136626   1.637   2.014   1.452  0.8944 -2.5127  0.4822
 8331SOL    HW236627   1.625   2.012   1.607  2.0364 -0.9968  0.0203
 8332SOL     OW36628   2.598   3.154   3.101 -0.4638  0.3721  0.3151
 8332SOL    HW136629   2.638   3.115   3.023  1.4589  0.0438  1.4682
 8332SOL    HW236630   2.664   3.220   3.122 -1.4181  1.6299 -0.6065
 8333SOL     OW36631   2.251   3.801   0.785  0.0393  0.1962 -0.0439
 8333SOL    HW136632   2.213   3.763   0.864 -1.3113  0.6603 -0.4827
 8333SOL    HW236633   2.182   3.866   0.773 -0.2807 -0.2019 -0.3460
 8334SOL     OW36634   3.613   0.180   8.517  0.1747 -0.1627 -0.2242
 8334SOL    HW136635   3.635   0.156   8.428 -1.1689 -1.0554 -0.3166
 8334SOL    HW236636   3.683   0.243   8.533  1.1253 -0.7768 -2.0168
 8335SOL     OW36637   2.220   1.136   5.504 -0.1291 -0.4479  0.0893
 8335SOL    HW136638   2.295   1.097   5.550  0.0992  0.6330  0.6321
 8335SOL    HW236639   2.145   1.128   5.563  0.9006  0.2629  1.5139
 8336SOL     OW36640   1.281   4.104  12.811  0.7339 -0.0069 -0.1317
 8336SOL    HW136641   1.249   4.058  12.734 -0.1814  2.1712 -1.0559
 8336SOL    HW236642   1.365   4.061  12.824  0.1055 -1.8118 -2.1267
 8337SOL     OW36643   1.453   2.981  11.672  0.4578  0.1732  0.4374
 8337SOL    HW136644   1.475   3.031  11.751  1.9233  0.3278 -0.0532
 8337SOL    HW236645   1.531   3.006  11.621 -0.3028  2.5281  0.4342
 8338SOL     OW36646   2.591   1.139   5.341 -0.0473 -0.2381 -0.2242
 8338SOL    HW136647   2.686   1.150   5.330  0.2690 -1.2099  1.5638
 8338SOL    HW236648   2.586   1.067   5.278 -2.4428  0.9113 -1.3579
 8339SOL     OW36649   0.652   3.737  13.929  0.5447 -0.2267  0.2627
 8339SOL    HW136650   0.726   3.678  13.918  0.3895 -0.2896 -0.4736
 8339SOL    HW236651   0.610   3.689  14.000 -1.6721  1.8743  0.3744
 8340SOL     OW36652   3.484   0.430   2.514  0.2408 -0.3459  0.7009
 8340SOL    HW136653   3.479   0.518   2.477 -0.6034 -1.7096 -2.4444
 8340SOL    HW236654   3.407   0.383   2.481  0.4670 -0.4945  0.3807
 8341SOL     OW36655   4.088   4.568   7.074 -0.6200  0.5046 -0.1172
 8341SOL    HW136656   4.110   4.638   7.012  0.8716  0.0652 -0.0997
 8341SOL    HW236657   4.091   4.622   7.153 -2.5961 -1.4272  1.2417
 8342SOL     OW36658   1.558   1.247   7.956 -0.4014 -0.5086  0.6076
 8342SOL    HW136659   1.512   1.165   7.975 -1.2957  0.0101  0.7149
 8342SOL    HW236660   1.581   1.273   8.045 -0.6894  1.8684  0.0027
 8343SOL     OW36661   3.191   0.653  16.980 -0.1776  0.2983  0.1630
 8343SOL    HW136662   3.142   0.728  17.014 -0.2150  0.7403 -0.8742
 8343SOL    HW236663   3.223   0.681  16.895  0.4359 -0.6990  0.0623
 8344SOL     OW36664   3.775   3.035   2.645  0.8897 -0.0519 -0.4036
 8344SOL    HW136665   3.849   3.088   2.675 -0.5914  1.8215 -0.0247
 8344SOL    HW236666   3.808   2.946   2.656  1.0465  0.0556  0.0097
 8345SOL     OW36667   2.934   0.201   3.039  0.6975 -0.2451  0.0931
 8345SOL    HW136668   2.899   0.256   2.969 -2.0236 -2.4334 -0.2237
 8345SOL    HW236669   2.899   0.241   3.118  2.2609 -2.0468  1.7040
 8346SOL     OW36670   4.237   2.686   4.585 -0.6714  0.1383 -0.1999
 8346SOL    HW136671   4.207   2.755   4.644  2.2100 -0.4380  1.9115
 8346SOL    HW236672   4.161   2.627   4.579 -0.2859 -0.4458  0.7702
 8347SOL     OW36673   0.585   4.689   2.713 -0.2166  0.0516 -0.3447
 8347SOL    HW136674   0.631   4.662   2.633 -0.3930 -1.5086  0.0701
 8347SOL    HW236675   0.493   4.673   2.692 -0.4566  1.9633 -0.7069
 8348SOL     OW36676   3.285   1.858  13.689  0.3171 -0.7640 -0.2414
 8348SOL    HW136677   3.275   1.889  13.779  1.6198 -0.7909 -0.0887
 8348SOL    HW236678   3.245   1.929  13.639 -1.1444 -0.9344  0.6880
 8349SOL     OW36679   1.357   2.461   2.766  0.2222 -0.3706 -0.1616
 8349SOL    HW136680   1.317   2.390   2.715  0.2332 -1.3067  1.1335
 8349SOL    HW236681   1.278   2.498   2.805 -1.5018 -1.4497 -2.6035
 8350SOL     OW36682   2.549   2.207   2.680  0.4237  0.4047  0.1677
 8350SOL    HW136683   2.461   2.238   2.701  1.1565  2.1010  0.7075
 8350SOL    HW236684   2.536   2.179   2.590  0.2364  1.7216 -0.2152
 8351SOL     OW36685   2.595   4.522   9.547  0.0965  0.2623 -0.6696
 8351SOL    HW136686   2.678   4.476   9.534  0.8193  1.3662  0.0492
 8351SOL    HW236687   2.548   4.497   9.468  0.3878  0.0067 -0.7628
 8352SOL     OW36688   0.041   1.952   1.392  0.0910  0.2584  1.0901
 8352SOL    HW136689   4.706   1.901   1.352  0.6114 -1.1448  1.9648
 8352SOL    HW236690   0.082   1.978   1.309  1.7160 -2.1980  1.1345
 8353SOL     OW36691   0.541   2.340   6.805 -0.0934 -0.4869  0.5253
 8353SOL    HW136692   0.565   2.259   6.761 -0.6363 -1.3580  1.8553
 8353SOL    HW236693   0.454   2.359   6.768 -0.1566 -1.7353  0.0170
 8354SOL     OW36694   4.344   2.704  13.517 -0.5022 -0.3936 -0.4691
 8354SOL    HW136695   4.280   2.692  13.587 -1.8448  0.1132 -1.6071
 8354SOL    HW236696   4.371   2.612  13.512  1.8849  0.2481  0.7573
 8355SOL     OW36697   1.999   0.698   4.824 -0.0944 -0.4703 -0.2496
 8355SOL    HW136698   2.078   0.751   4.818  1.2390 -2.4658 -0.2646
 8355SOL    HW236699   1.939   0.758   4.781  0.2691  0.5130  0.6320
 8356SOL     OW36700   4.569   2.140   5.495  0.3844  0.3250  0.1144
 8356SOL    HW136701   4.605   2.227   5.480 -0.5636  0.5961 -0.5803
 8356SOL    HW236702   4.646   2.099   5.456 -1.2563 -1.7594 -0.9104
 8357SOL     OW36703   3.282   4.077  16.235  0.8970  0.0207 -0.5955
 8357SOL    HW136704   3.192   4.078  16.203  0.9290 -2.5712 -0.7689
 8357SOL    HW236705   3.270   4.055  16.327  1.8672  0.9453 -0.2414
 8358SOL     OW36706   3.384   0.588   9.108 -0.4897 -0.3627 -0.4164
 8358SOL    HW136707   3.410   0.655   9.045 -0.1188  0.6114  0.7638
 8358SOL    HW236708   3.381   0.648   9.183  0.1984 -0.8665  0.0180
 8359SOL     OW36709   4.626   1.184   9.639  0.1409 -0.1545  0.1557
 8359SOL    HW136710   4.588   1.107   9.682 -1.6308  0.6358  0.0121
 8359SOL    HW236711   4.716   1.156   9.622  0.4224  0.9848 -0.1948
 8360SOL     OW36712   0.050   3.265   1.938  0.0526  0.2233 -0.3730
 8360SOL    HW136713   0.040   3.184   1.988 -2.2605  0.8421  0.1978
 8360SOL    HW236714   0.144   3.276   1.932  0.0871 -0.2818 -0.7938
 8361SOL     OW36715   0.025   3.929  15.096 -0.1745  0.4112  0.0468
 8361SOL    HW136716   0.079   3.961  15.024 -0.2001  3.2185  1.2617
 8361SOL    HW236717   0.083   3.944  15.170 -1.4652  1.0234  0.9339
 8362SOL     OW36718   1.125   1.860   6.010  0.7264 -0.6026  0.5979
 8362SOL    HW136719   1.034   1.860   6.039  0.3405 -1.4119 -0.6031
 8362SOL    HW236720   1.125   1.780   5.958 -1.2735  0.6631 -1.3590
 8363SOL     OW36721   1.109   2.422  13.998  0.2236  0.4164  0.5848
 8363SOL    HW136722   1.025   2.396  14.037 -0.9086  2.0562 -0.7147
 8363SOL    HW236723   1.168   2.394  14.067 -0.7094  1.0386  1.6427
 8364SOL     OW36724   0.740   0.726   4.272 -0.3050 -0.7608  0.3777
 8364SOL    HW136725   0.704   0.638   4.280 -3.6420  1.0278  4.9568
 8364SOL    HW236726   0.833   0.708   4.283  0.3436  1.0036 -2.3951
 8365SOL     OW36727   3.931   4.029   8.469  0.6552 -0.2340 -0.2924
 8365SOL    HW136728   3.988   4.080   8.412 -0.8466  0.2375 -1.3640
 8365SOL    HW236729   3.969   3.943   8.451  1.9273  0.0997  0.7144
 8366SOL     OW36730   3.768   4.086   8.906  0.8096 -0.4779  0.1465
 8366SOL    HW136731   3.776   4.048   8.819  0.7107 -0.3880  0.0996
 8366SOL    HW236732   3.700   4.152   8.894  1.1612 -0.5100 -1.9638
 8367SOL     OW36733   1.232   1.371   2.658 -0.5026  0.5326 -0.0690
 8367SOL    HW136734   1.272   1.350   2.742 -0.2266  0.6909 -0.1602
 8367SOL    HW236735   1.210   1.280   2.638  0.3402  0.3180 -0.0317
 8368SOL     OW36736   4.553   4.403   8.712  0.3739 -0.2308  0.7055
 8368SOL    HW136737   4.626   4.398   8.773  0.7049 -1.9659  0.1850
 8368SOL    HW236738   4.485   4.351   8.755 -1.2600 -0.2107 -1.8006
 8369SOL     OW36739   3.621   0.993   7.342  0.2716 -0.2128 -0.3804
 8369SOL    HW136740   3.686   1.005   7.412  0.9109  1.2424 -1.2314
 8369SOL    HW236741   3.569   0.920   7.376 -1.1064  0.6181 -0.7258
 8370SOL     OW36742   1.139   2.284   6.101 -0.1278  0.0984  0.0841
 8370SOL    HW136743   1.207   2.329   6.051 -0.3656  1.5503  1.0984
 8370SOL    HW236744   1.205   2.225   6.137 -0.0897  1.1743  1.7661
 8371SOL     OW36745   2.990   1.317   1.944 -0.6592  0.6653 -0.2832
 8371SOL    HW136746   3.030   1.254   1.884 -1.0712  0.1129  0.0233
 8371SOL    HW236747   3.053   1.303   2.014 -0.2791 -0.1754 -0.7930
 8372SOL     OW36748   4.248   3.691   5.456 -0.0070  0.0066  0.2746
 8372SOL    HW136749   4.258   3.786   5.449  0.5165 -0.2157 -2.0476
 8372SOL    HW236750   4.229   3.682   5.549 -0.8994  1.1863  0.2120
 8373SOL     OW36751   0.866   1.935   4.166 -0.5368  0.9274 -0.3933
 8373SOL    HW136752   0.860   1.927   4.071  1.9645  0.1663 -0.4809
 8373SOL    HW236753   0.897   2.025   4.172 -0.5095  0.7614  2.0237
 8374SOL     OW36754   4.232   3.240   2.951 -0.0649 -0.0201  0.1009
 8374SOL    HW136755   4.315   3.196   2.969  0.1506  1.1422  1.9951
 8374SOL    HW236756   4.190   3.209   3.032 -0.3068 -0.2286 -0.1078
 8375SOL     OW36757   4.728   2.384  13.345 -0.1819 -0.6698 -0.3454
 8375SOL    HW136758   0.048   2.353  13.274 -2.0402 -0.6025 -1.8273
 8375SOL    HW236759   4.684   2.459  13.304  0.8210  0.5560  0.8141
 8376SOL     OW36760   3.097   1.001  17.275 -0.2142  0.5529  0.6625
 8376SOL    HW136761   3.156   1.049  17.334  0.6595  1.3308 -0.8480
 8376SOL    HW236762   3.019   1.057  17.269  0.9842  2.3351  1.7952
 8377SOL     OW36763   4.530   2.481   8.560  0.1349  0.3442 -0.3867
 8377SOL    HW136764   4.468   2.423   8.603  0.7629  0.9775  1.4078
 8377SOL    HW236765   4.470   2.509   8.491  0.6861  0.3482 -0.8678
 8378SOL     OW36766   2.491   3.923  17.533  0.7655  0.7475 -0.4489
 8378SOL    HW136767   2.521   3.848  17.585  1.2602  0.3327 -1.3368
 8378SOL    HW236768   2.443   3.967  17.603 -0.6166 -1.4087 -0.0341
 8379SOL     OW36769   4.206   1.800   1.857 -0.6075  0.3641 -0.0020
 8379SOL    HW136770   4.127   1.798   1.803  1.2003 -0.0782 -2.6198
 8379SOL    HW236771   4.277   1.823   1.797  1.4321 -2.4243  1.3672
 8380SOL     OW36772   1.739   2.140   4.055  0.1363 -0.7148  0.2107
 8380SOL    HW136773   1.709   2.175   4.139  1.3831  1.9047 -0.4096
 8380SOL    HW236774   1.834   2.148   4.065 -0.0352  1.7355 -0.0976
 8381SOL     OW36775   0.528   1.568  13.214 -0.5323 -0.2096  0.3082
 8381SOL    HW136776   0.565   1.653  13.235  0.7928 -0.7767  0.2605
 8381SOL    HW236777   0.531   1.521  13.298  2.7633 -0.5537  0.0052
 8382SOL     OW36778   4.464   4.507  13.566 -0.4352 -0.6811  0.5195
 8382SOL    HW136779   4.433   4.426  13.605  2.4466 -2.2133 -0.4215
 8382SOL    HW236780   4.547   4.475  13.532  0.8071  2.4652  0.5590
 8383SOL     OW36781   2.953   0.829   7.203 -0.6278  0.1524 -0.3435
 8383SOL    HW136782   3.021   0.862   7.144 -2.4902 -0.3174 -2.7188
 8383SOL    HW236783   2.984   0.886   7.274 -2.0272 -0.5283  0.8012
 8384SOL     OW36784   4.059   0.765   7.724 -0.1067 -0.1984  0.0744
 8384SOL    HW136785   4.050   0.752   7.818  0.9695 -1.9673 -0.0563
 8384SOL    HW236786   3.965   0.765   7.711 -0.3286 -0.5021  1.6750
 8385SOL     OW36787   0.394   0.375  11.883 -0.0229  0.5644  0.2316
 8385SOL    HW136788   0.389   0.321  11.804 -1.5945 -0.4227  1.0151
 8385SOL    HW236789   0.479   0.342  11.911 -2.1877 -4.0362  1.3687
 8386SOL     OW36790   1.515   1.135  10.339  0.0606 -0.5765  0.4638
 8386SOL    HW136791   1.471   1.066  10.388 -2.8249 -0.4932 -1.9833
 8386SOL    HW236792   1.454   1.149  10.267 -3.1132 -1.4611  2.9911
 8387SOL     OW36793   4.076   4.080  11.340 -0.1014 -0.4188  0.3426
 8387SOL    HW136794   4.156   4.037  11.308 -0.3994  0.4498 -1.5105
 8387SOL    HW236795   4.113   4.111  11.423 -3.3110  1.0148  1.2232
 8388SOL     OW36796   1.100   0.463   3.909 -0.0399 -0.0112  0.3750
 8388SOL    HW136797   1.059   0.544   3.937 -0.2191  1.0906 -3.0922
 8388SOL    HW236798   1.021   0.419   3.877  0.2195  0.3275 -0.7187
 8389SOL     OW36799   2.348   0.211   4.986 -0.2786 -0.5747  0.1973
 8389SOL    HW136800   2.361   0.255   4.902 -1.1695  1.6769  1.2659
 8389SOL    HW236801   2.441   0.201   5.008  0.1821 -0.1298 -1.5216
 8390SOL     OW36802   1.851   0.917   6.073 -0.0385 -0.2570 -0.0977
 8390SOL    HW136803   1.803   0.897   6.153 -0.8352  3.0090  0.2188
 8390SOL    HW236804   1.922   0.852   6.077 -0.4346 -0.6716  0.2392
 8391SOL     OW36805   2.781   2.080   2.381 -0.3638 -1.2937  0.1066
 8391SOL    HW136806   2.846   2.062   2.314 -0.1522 -0.1350  0.0028
 8391SOL    HW236807   2.840   2.091   2.456 -0.9891  0.1182  0.3942
 8392SOL     OW36808   4.174   4.430   9.321 -0.6561 -0.4796  0.3332
 8392SOL    HW136809   4.151   4.394   9.236 -1.5829 -0.1383  0.4473
 8392SOL    HW236810   4.211   4.513   9.291  0.8080 -1.0228  0.6324
 8393SOL     OW36811   2.129   3.210  17.223  0.3429 -0.2324  0.2927
 8393SOL    HW136812   2.215   3.252  17.224  0.9189 -1.4051  0.3428
 8393SOL    HW236813   2.143   3.118  17.198  0.7911 -0.3613  1.0273
 8394SOL     OW36814   3.937   4.003   4.725  0.5937  0.0995 -0.4747
 8394SOL    HW136815   3.998   4.060   4.772 -1.1341 -0.3593  2.3423
 8394SOL    HW236816   3.958   3.919   4.766  0.1247  0.5468  0.6873
 8395SOL     OW36817   2.527   2.293   4.793  0.0468  0.1893  0.1510
 8395SOL    HW136818   2.467   2.230   4.831  2.3639 -1.2370  1.4811
 8395SOL    HW236819   2.545   2.248   4.710 -0.5761 -1.5826  0.9930
 8396SOL     OW36820   1.366   4.232  16.906  0.2750 -1.2076  0.2451
 8396SOL    HW136821   1.449   4.267  16.874  0.4321 -1.9000 -0.1177
 8396SOL    HW236822   1.395   4.241  16.996 -1.7820 -3.2503  1.0994
 8397SOL     OW36823   3.248   0.589  12.218 -0.0131 -0.0995  0.6475
 8397SOL    HW136824   3.216   0.499  12.229 -0.4001  0.0095  0.4149
 8397SOL    HW236825   3.219   0.635  12.297 -0.9665  1.4448 -0.6113
 8398SOL     OW36826   0.379   0.065   6.688  0.0428 -0.4017 -0.1284
 8398SOL    HW136827   0.446   4.732   6.677  1.1049  0.5352  0.4721
 8398SOL    HW236828   0.397   0.096   6.777 -1.1854  0.0370 -0.0305
 8399SOL     OW36829   3.762   4.562   5.999 -0.3860 -0.5958  1.0016
 8399SOL    HW136830   3.832   4.582   6.062  1.8400 -1.6293 -1.1496
 8399SOL    HW236831   3.700   4.625   6.036  0.5750  0.2635  1.1631
 8400SOL     OW36832   3.840   0.665   9.974 -0.6040  0.1959  0.7865
 8400SOL    HW136833   3.832   0.760   9.985  1.5460  0.6384 -1.5577
 8400SOL    HW236834   3.927   0.659  10.012  1.0200 -1.6658 -3.1856
 8401SOL     OW36835   4.182   2.700   8.136 -0.3085  0.3359 -0.0603
 8401SOL    HW136836   4.115   2.768   8.146 -0.1270  0.1988  1.9976
 8401SOL    HW236837   4.136   2.623   8.103  0.7262 -1.2153  2.1536
 8402SOL     OW36838   3.652   0.318  16.109 -0.5276 -0.5841 -0.1162
 8402SOL    HW136839   3.637   0.314  16.014  0.7995 -0.6591 -0.3305
 8402SOL    HW236840   3.708   0.396  16.111 -0.3311 -0.7387  0.3413
 8403SOL     OW36841   3.231   3.031   9.800  0.5622 -0.6265 -0.7706
 8403SOL    HW136842   3.259   3.006   9.712  0.7318 -0.2078 -0.8382
 8403SOL    HW236843   3.300   3.093   9.822  1.6652 -1.3262 -2.3033
 8404SOL     OW36844   1.376   3.639   5.134  0.0999  0.4745 -0.0483
 8404SOL    HW136845   1.342   3.726   5.158  0.9971  0.1306  2.5332
 8404SOL    HW236846   1.344   3.644   5.044 -2.3885 -0.3843  0.7710
 8405SOL     OW36847   2.225   3.226   4.548  0.1600  0.2369  0.2697
 8405SOL    HW136848   2.291   3.172   4.592  0.4225  0.5570  0.2706
 8405SOL    HW236849   2.155   3.243   4.611  2.5974  2.5071  2.4269
 8406SOL     OW36850   3.081   1.340   1.665 -0.1231 -0.5542 -0.2436
 8406SOL    HW136851   2.991   1.309   1.658 -0.0932 -1.6144  3.9732
 8406SOL    HW236852   3.137   1.269   1.696 -0.6549 -0.2580  1.3702
 8407SOL     OW36853   0.966   2.339   7.094  0.0861 -0.2841  0.4666
 8407SOL    HW136854   0.902   2.379   7.035 -0.3505  0.1289  1.2183
 8407SOL    HW236855   0.948   2.245   7.097  3.8276 -0.9643  0.9470
 8408SOL     OW36856   1.756   3.180   8.007 -0.4637  0.0486 -0.1622
 8408SOL    HW136857   1.679   3.132   8.039 -1.6750  1.4015 -1.0494
 8408SOL    HW236858   1.739   3.267   8.045 -0.8088 -0.5351  1.0223
 8409SOL     OW36859   3.660   2.250   4.657 -0.3536  0.3515  0.3079
 8409SOL    HW136860   3.586   2.289   4.704 -1.6719 -1.7727  0.0015
 8409SOL    HW236861   3.736   2.277   4.709 -0.8236 -0.9621  1.6770
 8410SOL     OW36862   2.634   4.052   8.010 -0.5363 -0.7168  0.6852
 8410SOL    HW136863   2.599   4.106   8.080 -1.0193 -0.4774  0.2580
 8410SOL    HW236864   2.642   3.970   8.060  1.7974 -1.9110 -1.6099
 8411SOL     OW36865   3.078   2.107   8.006  0.1925 -0.2417  0.4291
 8411SOL    HW136866   3.044   2.108   8.095  3.7264  0.4289  1.7809
 8411SOL    HW236867   3.038   2.029   7.966 -1.2366  0.4935  0.4284
 8412SOL     OW36868   3.078   1.006   7.367 -0.2307 -0.3154 -0.3223
 8412SOL    HW136869   3.157   1.055   7.344 -0.7003  0.2388 -0.7628
 8412SOL    HW236870   3.020   1.075   7.334  1.3615  1.6272  0.9418
 8413SOL     OW36871   4.033   3.589   9.257  0.6496  0.3547 -0.3598
 8413SOL    HW136872   4.065   3.532   9.328  0.5398  0.4476 -0.2353
 8413SOL    HW236873   3.967   3.648   9.294 -1.1336 -2.2969  0.7722
 8414SOL     OW36874   2.942   3.641  17.626  0.4310  0.2852 -0.1671
 8414SOL    HW136875   3.025   3.669  17.588  0.4544  1.5502  0.8192
 8414SOL    HW236876   2.969   3.611  17.713 -1.2750  0.3056  0.3638
 8415SOL     OW36877   4.353   2.725  11.637  0.0547  0.5299 -0.3584
 8415SOL    HW136878   4.425   2.664  11.626  0.7052  1.1666  0.3734
 8415SOL    HW236879   4.382   2.806  11.595 -0.5791  0.5607 -0.7392
 8416SOL     OW36880   0.899   3.768   0.159  0.2768 -0.3187  0.0860
 8416SOL    HW136881   0.945   3.685   0.148  1.4007  0.5720 -2.0402
 8416SOL    HW236882   0.888   3.792   0.067 -0.4231  0.5926  0.4066
 8417SOL     OW36883   2.179   0.095   5.787 -0.5921 -0.4165  0.1065
 8417SOL    HW136884   2.098   0.118   5.831  0.2894  0.7368  1.1108
 8417SOL    HW236885   2.155   0.056   5.703 -0.3198  0.4571 -0.3786
 8418SOL     OW36886   1.316   4.014   8.758 -0.2574  0.2730  0.2548
 8418SOL    HW136887   1.280   4.032   8.845 -0.6218  0.2638  0.1047
 8418SOL    HW236888   1.385   4.081   8.752  1.8399 -1.7400  1.9077
 8419SOL     OW36889   4.644   3.109   7.030  0.0747  0.6712 -0.0186
 8419SOL    HW136890   4.593   3.109   7.111 -0.3657  0.7114 -0.3007
 8419SOL    HW236891   4.689   3.194   7.031  0.4571  0.4797 -0.9697
 8420SOL     OW36892   1.648   2.070   4.678  0.0467  0.2125  0.0582
 8420SOL    HW136893   1.575   2.060   4.617  0.2849 -1.8889  0.0984
 8420SOL    HW236894   1.694   1.987   4.664  0.3784  0.4258 -0.1094
 8421SOL     OW36895   2.343   3.446   4.139  0.7492  0.1494  0.1324
 8421SOL    HW136896   2.359   3.534   4.173 -0.2422  0.4373 -0.1220
 8421SOL    HW236897   2.395   3.380   4.184 -1.8252 -3.1549 -1.7646
 8422SOL     OW36898   3.222   1.776   6.376 -0.5971  0.1152  0.4532
 8422SOL    HW136899   3.233   1.760   6.282  0.1419 -2.7265  1.0075
 8422SOL    HW236900   3.152   1.840   6.384 -0.6455  0.0563  0.5039
 8423SOL     OW36901   3.305   0.597   3.056 -0.0319  0.6933 -0.1099
 8423SOL    HW136902   3.319   0.509   3.090  1.4430  1.1105  0.3459
 8423SOL    HW236903   3.215   0.580   3.028  0.7892 -0.8668 -1.8287
 8424SOL     OW36904   2.027   2.238   7.356  0.4918  0.9247 -0.6001
 8424SOL    HW136905   2.006   2.312   7.413  0.4727  0.7678 -0.4055
 8424SOL    HW236906   1.956   2.246   7.293  1.2021  0.4238 -1.4756
 8425SOL     OW36907   0.456   2.082   9.046 -0.4385  0.5586 -0.5380
 8425SOL    HW136908   0.459   1.992   9.078  2.8921  1.3116  1.2949
 8425SOL    HW236909   0.367   2.109   9.067 -1.3521 -1.3704 -1.9507
 8426SOL     OW36910   3.804   1.986   8.932 -0.6262 -0.1503 -0.2131
 8426SOL    HW136911   3.867   1.918   8.956  0.4353  0.7128 -0.5180
 8426SOL    HW236912   3.845   2.063   8.973  1.1107 -1.2287  0.0848
 8427SOL     OW36913   3.797   0.867   0.763  0.3798 -0.2346 -0.0782
 8427SOL    HW136914   3.801   0.899   0.673  1.8292 -1.1674 -0.3344
 8427SOL    HW236915   3.760   0.779   0.758 -0.9936  0.3194  0.0998
 8428SOL     OW36916   3.428   3.420   3.768  0.4064  0.1069  0.4249
 8428SOL    HW136917   3.370   3.433   3.693  0.3150  1.2070  0.6950
 8428SOL    HW236918   3.508   3.437   3.719 -0.1211  0.8729 -0.1524
 8429SOL     OW36919   4.526   0.725   7.920 -0.4475  0.1493 -0.3828
 8429SOL    HW136920   4.528   0.699   8.013 -0.2324 -0.7885 -0.6553
 8429SOL    HW236921   4.438   0.687   7.913  0.8642 -3.0292  0.4077
 8430SOL     OW36922   1.378   2.420   6.656 -0.0403  0.2043 -0.1083
 8430SOL    HW136923   1.285   2.418   6.634 -0.4165 -1.9885  1.7238
 8430SOL    HW236924   1.428   2.386   6.581  1.3827 -0.0524  0.9584
 8431SOL     OW36925   3.899   2.074   3.272 -0.1012 -0.0592  0.6617
 8431SOL    HW136926   3.960   2.028   3.214 -2.0426  0.5578 -1.8756
 8431SOL    HW236927   3.921   2.167   3.270  1.3559 -0.4493 -1.3636
 8432SOL     OW36928   4.555   3.975   9.764  0.7454 -0.1838 -0.0875
 8432SOL    HW136929   4.560   4.014   9.677 -1.6858 -1.6838 -0.9027
 8432SOL    HW236930   4.534   4.054   9.814 -2.3252  0.0548 -1.8074
 8433SOL     OW36931   2.531   0.578  13.720 -0.5019 -0.3974  0.3675
 8433SOL    HW136932   2.556   0.521  13.793 -2.5765 -0.5210  0.9897
 8433SOL    HW236933   2.477   0.645  13.762 -0.3832  0.2818 -0.5514
 8434SOL     OW36934   0.038   0.610   2.539  0.0242 -0.5152  0.2222
 8434SOL    HW136935   0.094   0.547   2.586 -0.9038 -0.1399  1.8575
 8434SOL    HW236936   0.102   0.663   2.492 -0.3417 -1.4507 -1.3313
 8435SOL     OW36937   2.648   3.329  15.223  0.7167  0.0544 -0.2154
 8435SOL    HW136938   2.658   3.302  15.314  1.3527 -0.0707 -0.3243
 8435SOL    HW236939   2.555   3.351  15.218  0.8179  0.4863 -0.2071
 8436SOL     OW36940   0.254   4.283   4.739 -0.1060  0.1074 -0.7611
 8436SOL    HW136941   0.239   4.239   4.655 -3.1655 -0.7732  0.2555
 8436SOL    HW236942   0.210   4.212   4.786  0.9858 -1.2436 -1.7639
 8437SOL     OW36943   4.012   1.862  11.534  0.0272  0.1112 -0.0039
 8437SOL    HW136944   3.963   1.890  11.457 -2.6850 -1.5429  1.1261
 8437SOL    HW236945   3.948   1.846  11.603 -0.0116 -3.5009 -0.8646
 8438SOL     OW36946   1.649   0.222   2.914 -0.1309 -0.0686  0.3857
 8438SOL    HW136947   1.566   0.254   2.877 -0.1391  0.3904  0.7982
 8438SOL    HW236948   1.708   0.293   2.891  1.8084 -1.3682  1.3655
 8439SOL     OW36949   1.927   1.356   1.677  0.2822 -0.1319 -0.8559
 8439SOL    HW136950   1.907   1.295   1.606 -2.8220 -0.5339  0.3633
 8439SOL    HW236951   1.872   1.334   1.752  1.3812 -0.1165 -0.0382
 8440SOL     OW36952   4.061   3.111   2.091  0.2448  0.1412  0.1996
 8440SOL    HW136953   4.103   3.194   2.113 -3.2214  1.8228  0.4966
 8440SOL    HW236954   4.020   3.099   2.177 -0.2266  0.3226  0.0003
 8441SOL     OW36955   2.909   0.570   8.902  0.3506  0.1120 -0.4971
 8441SOL    HW136956   2.992   0.555   8.947 -0.9617 -2.8793  0.9616
 8441SOL    HW236957   2.850   0.611   8.966 -0.8969 -3.6448  0.7514
 8442SOL     OW36958   2.628   0.537   5.093  0.4363 -0.3902 -0.6879
 8442SOL    HW136959   2.626   0.442   5.076  0.3805 -0.4450 -0.3831
 8442SOL    HW236960   2.543   0.563   5.058 -1.5930 -1.8697  3.1260
 8443SOL     OW36961   2.572   0.317   9.482 -0.1372  0.1965 -0.4829
 8443SOL    HW136962   2.540   0.270   9.405  0.0593 -0.5434 -0.1106
 8443SOL    HW236963   2.512   0.282   9.549  0.1476 -0.4045 -0.5442
 8444SOL     OW36964   4.212   1.499   2.252 -0.2761 -0.1323 -0.1308
 8444SOL    HW136965   4.154   1.557   2.203  0.4835 -0.8954 -1.9442
 8444SOL    HW236966   4.248   1.460   2.172 -1.2826 -1.0443 -0.1418
 8445SOL     OW36967   3.103   2.064   3.529  0.3549  0.5207 -0.2145
 8445SOL    HW136968   3.157   2.113   3.467 -1.0623  0.5627 -1.4301
 8445SOL    HW236969   3.052   2.010   3.468  1.2326  0.3557 -0.7939
 8446SOL     OW36970   4.358   1.981   6.262 -0.4572 -0.0791 -0.4159
 8446SOL    HW136971   4.398   2.066   6.277  1.1182 -0.6166 -1.5077
 8446SOL    HW236972   4.271   1.990   6.301 -1.3234  1.5916 -2.7761
 8447SOL     OW36973   0.326   3.630   7.507 -0.0911  0.3090  0.0966
 8447SOL    HW136974   0.312   3.723   7.491 -0.9889  0.2458  0.4889
 8447SOL    HW236975   0.410   3.623   7.552 -0.1457  0.7174  0.2541
 8448SOL     OW36976   3.084   0.819  11.074  0.5649 -0.2914  0.0016
 8448SOL    HW136977   3.123   0.787  11.155 -2.9879 -3.3812  0.4873
 8448SOL    HW236978   3.127   0.758  11.013  0.7219 -0.7182  0.5448
 8449SOL     OW36979   4.639   2.476   2.847 -0.0187 -0.1958  0.4025
 8449SOL    HW136980   4.639   2.405   2.782  1.0765  1.2009 -1.1334
 8449SOL    HW236981   4.716   2.527   2.821  0.1015  0.6372  2.4122
 8450SOL     OW36982   4.614   4.519   1.440  0.3527  0.1593  0.4097
 8450SOL    HW136983   4.627   4.584   1.509 -1.0343  2.9860 -2.0333
 8450SOL    HW236984   4.572   4.444   1.483 -1.6646  0.9425 -0.2049
 8451SOL     OW36985   2.611   0.284   8.902 -0.3690 -0.0663  0.3276
 8451SOL    HW136986   2.639   0.371   8.872 -1.5787  0.9884  2.2694
 8451SOL    HW236987   2.679   0.254   8.963  0.9269  2.7029  0.2370
 8452SOL     OW36988   1.627   1.367  16.304 -0.5419  0.1772  0.0256
 8452SOL    HW136989   1.616   1.309  16.379  1.3553 -1.2312 -0.7979
 8452SOL    HW236990   1.642   1.447  16.354 -1.9286  0.7848 -0.5166
 8453SOL     OW36991   2.751   0.857   3.343  0.6080  0.2875  0.5727
 8453SOL    HW136992   2.711   0.853   3.430  4.5069 -4.5021  2.1496
 8453SOL    HW236993   2.830   0.805   3.355 -1.4957 -2.8067  0.7942
 8454SOL     OW36994   4.358   4.027   3.422  0.6411 -0.3913 -0.1040
 8454SOL    HW136995   4.332   3.935   3.421 -0.6919 -0.0190  3.2175
 8454SOL    HW236996   4.272   4.069   3.413  1.2734  1.4425  2.2967
 8455SOL     OW36997   1.893   1.904   1.634 -0.1018 -0.1087  0.1578
 8455SOL    HW136998   1.829   1.834   1.626 -0.3148  0.1055 -0.0175
 8455SOL    HW236999   1.845   1.978   1.673 -2.1559 -2.1658  1.5334
 8456SOL     OW37000   1.085   3.117  17.419  0.6345  0.1834  0.3160
 8456SOL    HW137001   1.120   3.203  17.443 -1.7790  1.3115 -0.1477
 8456SOL    HW237002   1.052   3.136  17.331  0.8991 -1.2285 -0.0941
 8457SOL     OW37003   3.305   0.841   9.363  0.3108  0.3388  0.0782
 8457SOL    HW137004   3.389   0.838   9.408  0.5958 -0.2767 -0.4875
 8457SOL    HW237005   3.318   0.922   9.315  0.5954  0.2067 -0.0700
 8458SOL     OW37006   1.199   3.845   1.207  0.2707  0.2024 -0.5444
 8458SOL    HW137007   1.107   3.833   1.186  0.7423  0.7090 -2.9008
 8458SOL    HW237008   1.243   3.761   1.195  0.0045  0.1247 -0.9534
 8459SOL     OW37009   2.142   3.541   9.269  0.5969  0.4217 -0.3435
 8459SOL    HW137010   2.059   3.545   9.222  0.3418  0.4620  0.1127
 8459SOL    HW237011   2.111   3.575   9.353 -0.7031 -2.4137  0.3294
 8460SOL     OW37012   4.593   3.994   2.191 -0.2006 -0.0325  0.4801
 8460SOL    HW137013   4.634   3.909   2.209  1.6761  0.5129 -1.2014
 8460SOL    HW237014   4.588   3.994   2.095  1.4276 -1.9003  0.3848
 8461SOL     OW37015   2.616   1.945   4.793  0.8374  0.8013  0.5932
 8461SOL    HW137016   2.530   1.912   4.820 -0.2042  1.3073 -2.0701
 8461SOL    HW237017   2.624   1.902   4.708 -0.8603 -0.6475  1.1710
 8462SOL     OW37018   0.998   1.269   7.428  0.2099  0.2985 -0.3195
 8462SOL    HW137019   0.986   1.200   7.363  0.9312 -2.3356  2.3608
 8462SOL    HW237020   1.079   1.241   7.471  0.4939  0.2784 -0.8640
 8463SOL     OW37021   3.624   4.181   4.196 -0.3604 -0.2762 -0.0276
 8463SOL    HW137022   3.538   4.189   4.239 -0.2924 -0.7231  0.1865
 8463SOL    HW237023   3.621   4.122   4.121  0.6780 -0.8340  0.3789
 8464SOL     OW37024   4.196   3.129   4.644 -0.2407  0.6561  0.0625
 8464SOL    HW137025   4.284   3.165   4.632  0.0147 -0.5924 -1.7655
 8464SOL    HW237026   4.158   3.202   4.693  0.2053  0.0037  1.3882
 8465SOL     OW37027   3.757   3.413   8.485  0.2116  0.2797  0.1603
 8465SOL    HW137028   3.701   3.431   8.561  1.1994  0.4327  0.8562
 8465SOL    HW237029   3.696   3.355   8.439  0.5169 -0.0569  0.1753
 8466SOL     OW37030   3.669   4.631   3.623  0.0422 -0.6108 -0.1075
 8466SOL    HW137031   3.619   4.625   3.541  2.3495 -0.5024 -1.5113
 8466SOL    HW237032   3.604   4.608   3.689 -0.0807 -0.0830 -0.0493
 8467SOL     OW37033   4.079   4.498   5.070 -0.2358 -0.7184 -0.1914
 8467SOL    HW137034   4.174   4.500   5.086 -0.2464  1.3274 -0.4846
 8467SOL    HW237035   4.076   4.433   4.999 -2.6565 -0.3163 -0.4538
 8468SOL     OW37036   2.566   0.990   1.252 -0.2495 -1.0342 -0.2032
 8468SOL    HW137037   2.538   0.906   1.214 -1.0727  0.2552 -2.4250
 8468SOL    HW237038   2.562   0.962   1.344  0.1560  2.1548  0.7780
 8469SOL     OW37039   4.563   2.181   8.305 -0.2025  0.6690 -0.0111
 8469SOL    HW137040   4.472   2.210   8.303  0.5916  3.1698  1.0874
 8469SOL    HW237041   4.569   2.106   8.365 -0.4872  0.3748 -0.3483
 8470SOL     OW37042   3.165   1.368  15.412  0.0234  0.1483  0.2505
 8470SOL    HW137043   3.247   1.364  15.462  0.2484  0.7392 -0.0808
 8470SOL    HW237044   3.186   1.354  15.320  0.4837 -1.1648  0.5492
 8471SOL     OW37045   0.756   2.088   3.294  0.3849  0.3296  0.1699
 8471SOL    HW137046   0.838   2.104   3.248  0.5023  0.8339  0.5602
 8471SOL    HW237047   0.779   2.103   3.386 -3.5063  0.1937  1.1631
 8472SOL     OW37048   1.068   3.350  10.969  0.0566  0.0003 -0.1346
 8472SOL    HW137049   1.040   3.266  10.931  0.4408 -0.5191  0.7158
 8472SOL    HW237050   1.010   3.408  10.919  0.0316 -0.5038 -0.6978
 8473SOL     OW37051   2.157   1.148   2.101  0.1611  0.1183  0.4630
 8473SOL    HW137052   2.242   1.105   2.111  0.3086  0.2457 -0.1905
 8473SOL    HW237053   2.137   1.160   2.193  1.8400 -0.5120  0.9134
 8474SOL     OW37054   4.708   1.425   4.986 -0.0733 -0.5066  0.5970
 8474SOL    HW137055   0.012   1.487   4.924  1.3410 -4.2475 -2.1866
 8474SOL    HW237056   4.726   1.469   5.069 -0.3673 -0.0765  0.4395
 8475SOL     OW37057   3.288   3.744   3.327  0.1029 -0.0359 -0.2049
 8475SOL    HW137058   3.346   3.760   3.402  0.6103 -0.8945 -0.4074
 8475SOL    HW237059   3.360   3.727   3.266  0.3419  0.4403 -0.0541
 8476SOL     OW37060   0.969   4.063  13.922 -0.2817  0.4508  0.1167
 8476SOL    HW137061   1.059   4.088  13.900 -0.9041  0.9682 -1.7919
 8476SOL    HW237062   0.942   4.045  13.832  0.7921  1.0787 -0.3243
 8477SOL     OW37063   1.964   3.491   8.554  0.9137  0.3449 -0.6079
 8477SOL    HW137064   2.042   3.518   8.604  0.5544 -1.8053  1.1099
 8477SOL    HW237065   1.898   3.516   8.618 -1.1161 -1.2440 -2.0894
 8478SOL     OW37066   3.617   1.453   7.374 -0.4417 -0.2096 -0.2374
 8478SOL    HW137067   3.706   1.447   7.411 -0.5067  0.5154  0.0377
 8478SOL    HW237068   3.611   1.548   7.379  0.1546 -0.1101 -1.6362
 8479SOL     OW37069   0.238   2.444  14.628  0.2404  0.4981  0.4059
 8479SOL    HW137070   0.153   2.488  14.624  0.4827  1.0083  0.9118
 8479SOL    HW237071   0.267   2.486  14.709  2.0222  0.5242 -0.2582
 8480SOL     OW37072   1.320   3.060   8.608 -0.3129  0.5760 -0.1019
 8480SOL    HW137073   1.375   2.995   8.652 -0.0758 -0.0488 -1.3027
 8480SOL    HW237074   1.272   3.006   8.544  0.5338  0.6665 -0.8121
 8481SOL     OW37075   4.238   4.248   7.503  0.2041  0.6154  0.5196
 8481SOL    HW137076   4.283   4.184   7.558  0.2245 -1.4136 -1.8517
 8481SOL    HW237077   4.297   4.303   7.452 -1.2324  1.9951  0.3116
 8482SOL     OW37078   4.268   1.634   5.591  0.4389 -0.5817 -0.1641
 8482SOL    HW137079   4.178   1.666   5.581  1.0279  0.2029 -3.0785
 8482SOL    HW237080   4.282   1.654   5.683 -1.3256  0.3838 -0.1018
 8483SOL     OW37081   0.399   2.605   5.390  0.1075  0.0598 -0.2653
 8483SOL    HW137082   0.480   2.649   5.418  1.0359 -1.0803 -1.1227
 8483SOL    HW237083   0.340   2.679   5.384  2.1466  1.8774  2.0544
 8484SOL     OW37084   0.949   1.359   7.816 -0.1493  0.3559  0.4755
 8484SOL    HW137085   0.893   1.302   7.764 -0.3769 -0.6603  1.8325
 8484SOL    HW237086   0.887   1.394   7.879  1.0703  1.6473  0.9577
 8485SOL     OW37087   4.490   0.982  11.404 -0.3308 -0.0624  0.1692
 8485SOL    HW137088   4.539   1.004  11.325 -0.9354  0.4426 -0.0655
 8485SOL    HW237089   4.555   1.002  11.471 -1.3997  3.0915  0.2551
 8486SOL     OW37090   1.878   0.134   8.770  0.0935  0.1548 -0.1961
 8486SOL    HW137091   1.963   0.100   8.798  0.1962 -0.1202 -0.8343
 8486SOL    HW237092   1.834   0.049   8.769 -0.6100  0.5239 -2.1140
 8487SOL     OW37093   3.453   1.681   9.048  0.5208 -0.8525  0.1429
 8487SOL    HW137094   3.473   1.743   9.118 -1.1221  0.7557 -0.7978
 8487SOL    HW237095   3.358   1.692   9.040  0.3847 -1.2868  1.1007
 8488SOL     OW37096   0.367   1.683   2.582 -0.1230  0.5097 -0.2413
 8488SOL    HW137097   0.301   1.723   2.526 -0.1496 -1.3261 -1.5435
 8488SOL    HW237098   0.317   1.695   2.663  1.5405 -0.5110  0.9370
 8489SOL     OW37099   2.375   4.719   3.747  0.4226 -0.2078  0.0083
 8489SOL    HW137100   2.458   0.031   3.742 -1.0231  2.1933 -1.3093
 8489SOL    HW237101   2.319   0.057   3.772 -0.2038 -0.0362 -1.9464
 8490SOL     OW37102   0.073   0.161   5.990 -0.7751 -0.6846 -0.1270
 8490SOL    HW137103   0.146   0.221   5.971 -1.8895  0.6498 -0.2256
 8490SOL    HW237104   0.006   0.229   5.982 -0.4116 -0.3869 -0.6226
 8491SOL     OW37105   1.107   3.629   5.838 -0.6117 -0.4633 -0.0960
 8491SOL    HW137106   1.099   3.649   5.931  0.0663 -0.4979 -0.0322
 8491SOL    HW237107   1.185   3.681   5.820  0.0763 -1.6117 -0.3633
 8492SOL     OW37108   3.183   4.234   4.368 -0.6127  0.2525 -0.0652
 8492SOL    HW137109   3.147   4.203   4.285 -0.4463  0.3957 -0.1906
 8492SOL    HW237110   3.119   4.297   4.400 -2.1671 -1.1911 -0.3371
 8493SOL     OW37111   2.753   3.251   8.476  0.4682 -0.3980 -0.4825
 8493SOL    HW137112   2.742   3.344   8.452 -2.1329 -0.8213 -1.0017
 8493SOL    HW237113   2.845   3.237   8.456  0.9562  1.7326  0.2975
 8494SOL     OW37114   0.006   0.070   6.271  0.0666  0.6394  0.3892
 8494SOL    HW137115   0.023   0.103   6.183  0.6892  1.1007  0.6827
 8494SOL    HW237116   0.091   0.033   6.292  0.4033  1.0308 -0.2916
 8495SOL     OW37117   2.186   2.981   5.299 -0.1586  0.2416  0.2973
 8495SOL    HW137118   2.123   2.916   5.331 -1.2675  0.6730 -1.0047
 8495SOL    HW237119   2.138   3.063   5.297 -2.6010 -1.1623  0.7482
 8496SOL     OW37120   3.723   1.334  12.976  0.6862 -0.6351 -0.2575
 8496SOL    HW137121   3.654   1.269  12.985  0.2313 -0.2241 -0.7097
 8496SOL    HW237122   3.677   1.415  12.952  0.5539 -1.1604 -1.8293
 8497SOL     OW37123   2.686   1.746   3.466 -0.8956  0.5044 -0.0198
 8497SOL    HW137124   2.667   1.839   3.476 -1.3313  0.1339  2.6586
 8497SOL    HW237125   2.699   1.718   3.556 -2.2111 -0.5153 -0.1386
 8498SOL     OW37126   0.815   2.493   2.512  0.2020 -0.1096  0.0822
 8498SOL    HW137127   0.771   2.445   2.583 -2.4458  2.4030  0.0939
 8498SOL    HW237128   0.845   2.574   2.553  0.2239 -0.6699  1.1707
 8499SOL     OW37129   3.690   0.907   9.029  0.3839 -0.0728 -0.7230
 8499SOL    HW137130   3.692   0.898   9.124  2.5275  0.8822 -0.6749
 8499SOL    HW237131   3.769   0.961   9.020  0.1121  0.3499 -0.5105
 8500SOL     OW37132   0.244   2.942   7.846 -0.4609  0.4735  0.2564
 8500SOL    HW137133   0.278   3.000   7.914  1.6942 -0.2620 -0.2214
 8500SOL    HW237134   0.309   2.872   7.840 -0.1625  0.6511  1.3321
 8501SOL     OW37135   1.492   2.567  17.081  0.3506  0.6217  0.3527
 8501SOL    HW137136   1.441   2.490  17.056 -0.5204  1.2425  0.2106
 8501SOL    HW237137   1.504   2.544  17.173 -0.5375  1.0519  0.5826
 8502SOL     OW37138   3.889   2.733   1.357 -0.4480 -0.9195 -0.2591
 8502SOL    HW137139   3.928   2.724   1.444 -1.6772 -0.8928  0.2960
 8502SOL    HW237140   3.799   2.755   1.382  0.1812  2.4010 -0.9274
 8503SOL     OW37141   2.338   2.576  10.476  0.3104  0.4099 -0.3595
 8503SOL    HW137142   2.295   2.647  10.523  0.0687  1.7971 -2.6929
 8503SOL    HW237143   2.285   2.499  10.499  2.0416 -1.2080 -1.8027
 8504SOL     OW37144   1.476   2.977   3.144 -0.0807  0.0618  0.1052
 8504SOL    HW137145   1.402   2.949   3.197  2.7008 -2.9968  2.4407
 8504SOL    HW237146   1.456   3.070   3.146 -0.0116  0.0811 -0.1206
 8505SOL     OW37147   4.522   0.195   3.385  0.1368 -0.0291  0.2664
 8505SOL    HW137148   4.489   0.284   3.381  0.5179  0.1455  1.0271
 8505SOL    HW237149   4.617   0.197   3.393  0.2117  3.0175 -1.4748
 8506SOL     OW37150   0.570   1.098  12.877  0.1148 -0.2519 -0.2179
 8506SOL    HW137151   0.487   1.070  12.917  0.3040 -0.5531 -0.0397
 8506SOL    HW237152   0.567   1.183  12.922 -0.7139 -0.1543 -0.4601
 8507SOL     OW37153   1.072   1.648   5.170  0.2217  0.8929  0.2140
 8507SOL    HW137154   0.982   1.661   5.143  0.1682  2.5051  1.1574
 8507SOL    HW237155   1.119   1.627   5.089  0.6408  1.6295  0.2689
 8508SOL     OW37156   2.665   0.182  11.340  0.2269  0.3622 -0.1820
 8508SOL    HW137157   2.726   0.147  11.275 -2.0665 -1.2952 -1.4571
 8508SOL    HW237158   2.673   0.276  11.319  0.4042  0.4507  0.2914
 8509SOL     OW37159   1.365   2.888   5.880  0.3271 -0.1331  0.1881
 8509SOL    HW137160   1.367   2.861   5.971 -0.5251  0.6523  0.4373
 8509SOL    HW237161   1.351   2.982   5.876  1.8203  0.0889  0.1115
 8510SOL     OW37162   0.640   4.537  16.545 -0.1135 -0.3007  0.1859
 8510SOL    HW137163   0.667   4.447  16.527  1.9481  0.2662  0.4783
 8510SOL    HW237164   0.583   4.536  16.622 -0.9683  2.6522 -0.4191
 8511SOL     OW37165   1.134   2.202   8.887 -0.1327  0.7225  0.1671
 8511SOL    HW137166   1.220   2.193   8.847 -0.7310  0.3079 -1.0354
 8511SOL    HW237167   1.089   2.262   8.828  1.0866  1.3012 -0.1754
 8512SOL     OW37168   4.068   1.675  10.235 -0.4330 -0.2425  0.0712
 8512SOL    HW137169   4.028   1.606  10.288 -0.9548  0.5688  0.7451
 8512SOL    HW237170   4.015   1.749  10.265 -0.6866  0.3073 -1.7316
 8513SOL     OW37171   0.936   3.354  12.396  0.0205 -0.3677 -0.4020
 8513SOL    HW137172   0.977   3.438  12.418  1.3311 -0.6525 -1.7373
 8513SOL    HW237173   0.985   3.292  12.451  0.1747  0.8578  0.8537
 8514SOL     OW37174   4.554   1.515   1.974 -0.1137 -0.2262  0.4590
 8514SOL    HW137175   4.471   1.469   1.975 -0.4074  0.3100  1.0419
 8514SOL    HW237176   4.598   1.435   1.945  0.7877  0.3491  0.2244
 8515SOL     OW37177   3.801   4.659   8.748  0.0424  0.0285 -0.2012
 8515SOL    HW137178   3.844   4.684   8.666 -2.1297  0.8490 -1.1068
 8515SOL    HW237179   3.811   4.564   8.755 -0.2900 -0.0827 -1.1493
 8516SOL     OW37180   3.177   4.064   3.656  0.4751 -0.2988 -0.2748
 8516SOL    HW137181   3.097   4.012   3.665  0.2670  0.0580 -0.0966
 8516SOL    HW237182   3.176   4.096   3.566 -2.8600  0.4758  0.0140
 8517SOL     OW37183   1.661   1.078   7.533 -0.2014  0.0588 -0.1810
 8517SOL    HW137184   1.671   1.087   7.438  1.1704 -0.9275 -0.1380
 8517SOL    HW237185   1.609   0.998   7.522 -0.6795  0.4810 -1.0090
 8518SOL     OW37186   4.256   0.938   1.216  0.0407  0.3292  0.1175
 8518SOL    HW137187   4.176   0.889   1.199 -0.4932  0.7264  1.4722
 8518SOL    HW237188   4.235   1.026   1.184 -1.1478  0.2826  0.7999
 8519SOL     OW37189   3.720   0.671   1.063  0.4463  0.1861 -0.7343
 8519SOL    HW137190   3.815   0.665   1.050  0.4404  0.3604 -0.8513
 8519SOL    HW237191   3.683   0.594   1.019 -2.3404  1.5941 -0.8421
 8520SOL     OW37192   1.633   3.003   4.146 -0.1472  0.3298 -0.3179
 8520SOL    HW137193   1.589   3.067   4.089  0.0243  0.5954 -0.1525
 8520SOL    HW237194   1.649   3.071   4.212 -1.8073  0.8397 -0.4273
 8521SOL     OW37195   2.547   0.612   7.636 -0.2670  0.7226 -0.0579
 8521SOL    HW137196   2.591   0.592   7.719  0.1886  0.6159 -0.3246
 8521SOL    HW237197   2.613   0.569   7.582 -1.8122 -0.1895 -1.2403
 8522SOL     OW37198   1.754   1.353  16.063 -0.0786  0.8661  0.0160
 8522SOL    HW137199   1.734   1.260  16.058 -2.2915  1.2316  2.3837
 8522SOL    HW237200   1.706   1.365  16.145 -1.9727 -0.8379 -0.8384
 8523SOL     OW37201   4.392   2.167   1.914 -0.1045 -0.3813 -0.0733
 8523SOL    HW137202   4.432   2.085   1.943  0.9914  0.2974  0.3664
 8523SOL    HW237203   4.374   2.212   1.996 -2.1349 -0.8014 -0.2909
 8524SOL     OW37204   0.379   1.780  10.421  0.0194 -0.1509  0.5145
 8524SOL    HW137205   0.302   1.743  10.379  0.8045 -2.1479  0.8210
 8524SOL    HW237206   0.336   1.808  10.502 -0.6306  0.9464 -0.2145
 8525SOL     OW37207   1.444   3.704   3.236 -0.4775 -0.2589 -0.4038
 8525SOL    HW137208   1.498   3.639   3.191 -0.2942 -0.2405 -0.2102
 8525SOL    HW237209   1.451   3.667   3.324  0.3022 -2.2890 -1.3295
 8526SOL     OW37210   4.626   4.562   7.371  0.2647  0.2880 -0.1232
 8526SOL    HW137211   4.696   4.610   7.328  1.0377 -3.3048 -2.8552
 8526SOL    HW237212   4.599   4.631   7.431  1.1807  1.4516 -1.0596
 8527SOL     OW37213   0.903   0.784   6.800 -0.5469 -0.3761  0.4870
 8527SOL    HW137214   0.903   0.722   6.873 -1.4419  0.0984  0.8913
 8527SOL    HW237215   0.839   0.850   6.826  1.0535  0.6503  1.8152
 8528SOL     OW37216   0.899   0.768   4.981 -0.2086 -0.7684 -0.0212
 8528SOL    HW137217   0.911   0.839   4.917 -0.0382 -1.5185 -0.8230
 8528SOL    HW237218   0.919   0.695   4.923  0.5397 -0.0796 -0.6312
 8529SOL     OW37219   3.651   0.614  15.864 -0.2308 -0.2833 -0.5155
 8529SOL    HW137220   3.644   0.521  15.885  0.3242 -0.3915 -0.8171
 8529SOL    HW237221   3.632   0.612  15.770  0.1014 -0.9110 -0.5751
 8530SOL     OW37222   1.613   4.254   8.119 -0.3181 -0.7415 -0.3402
 8530SOL    HW137223   1.572   4.328   8.075  1.6035  0.5436  0.0473
 8530SOL    HW237224   1.705   4.273   8.101 -0.3092 -1.8078 -1.4372
 8531SOL     OW37225   0.459   0.113   6.951 -0.2674  0.1871 -0.1007
 8531SOL    HW137226   0.428   0.027   6.981  0.0050 -0.6871 -2.3022
 8531SOL    HW237227   0.445   0.165   7.030  0.3682  0.2023  0.0059
 8532SOL     OW37228   4.293   2.823   9.250 -0.0089 -0.0857 -0.2947
 8532SOL    HW137229   4.255   2.901   9.209  1.0101  0.8734  0.5821
 8532SOL    HW237230   4.373   2.863   9.284  0.4626  0.0740 -1.6005
 8533SOL     OW37231   1.618   3.567   4.531 -0.0982  0.0188  0.4482
 8533SOL    HW137232   1.696   3.541   4.482 -1.5314 -1.3742 -1.1024
 8533SOL    HW237233   1.645   3.653   4.563 -0.5398 -0.2209  1.4483
 8534SOL     OW37234   0.224   2.082   4.425 -0.2252 -0.5929 -0.5460
 8534SOL    HW137235   0.175   2.145   4.478 -0.7029  0.0072 -1.7158
 8534SOL    HW237236   0.318   2.101   4.428 -0.2814 -0.4478  0.3705
 8535SOL     OW37237   3.057   3.587   1.854 -0.0078 -0.2229 -0.3369
 8535SOL    HW137238   3.106   3.645   1.795  0.2964 -0.7399 -0.5867
 8535SOL    HW237239   2.970   3.588   1.813 -0.5329  2.2255  0.7871
 8536SOL     OW37240   2.699   0.851   4.834  0.1794  0.0071 -0.0489
 8536SOL    HW137241   2.605   0.835   4.842 -0.3793  2.4409 -1.6272
 8536SOL    HW237242   2.729   0.839   4.924 -2.8254  0.4264  1.0314
 8537SOL     OW37243   2.266   4.240   9.723 -0.6816  0.3871 -0.0786
 8537SOL    HW137244   2.306   4.326   9.737  1.2569 -0.4831 -0.3570
 8537SOL    HW237245   2.208   4.257   9.649 -0.8780  0.9950  0.2061
 8538SOL     OW37246   4.430   3.274   9.098  0.3481  0.2195  0.3810
 8538SOL    HW137247   4.513   3.247   9.058  0.3765  1.0969 -0.1395
 8538SOL    HW237248   4.403   3.355   9.055  0.3341 -1.2240 -2.3252
 8539SOL     OW37249   1.020   4.662   6.286  0.5459  0.2894  0.2237
 8539SOL    HW137250   1.022   0.020   6.310 -0.0519 -0.0752  1.6615
 8539SOL    HW237251   1.092   4.658   6.223 -0.5110  0.8393 -1.0092
 8540SOL     OW37252   4.366   3.326  13.653 -0.5022 -0.2446 -0.5642
 8540SOL    HW137253   4.364   3.301  13.745  1.3004  1.1211 -0.1436
 8540SOL    HW237254   4.432   3.263  13.625 -0.2309  0.9488 -2.5912
 8541SOL     OW37255   3.631   0.723   2.848 -0.3820  0.0226 -0.3985
 8541SOL    HW137256   3.686   0.661   2.800 -1.4384 -0.9221 -0.3923
 8541SOL    HW237257   3.633   0.696   2.940  1.1102 -0.8583 -0.6947
 8542SOL     OW37258   0.461   0.649   5.419  0.1196  0.4689 -0.2656
 8542SOL    HW137259   0.470   0.556   5.397  0.3103  0.1722  1.1013
 8542SOL    HW237260   0.522   0.680   5.352 -0.9639  2.4562 -0.3442
 8543SOL     OW37261   2.404   4.144  12.400  0.0632  0.2217 -0.1084
 8543SOL    HW137262   2.424   4.106  12.314 -1.1721 -0.4980 -0.0673
 8543SOL    HW237263   2.336   4.084  12.430  1.0846 -0.3533  1.0489
 8544SOL     OW37264   1.633   3.287   9.969  0.5011  0.1076 -0.1871
 8544SOL    HW137265   1.637   3.251   9.880  0.8217  0.6115 -0.3754
 8544SOL    HW237266   1.557   3.243  10.007  0.5584  0.1441 -0.0269
 8545SOL     OW37267   4.573   1.335  16.210 -0.3183 -0.1153  0.0887
 8545SOL    HW137268   4.490   1.366  16.173 -1.0504 -0.6632  1.2688
 8545SOL    HW237269   4.631   1.411  16.205 -0.0330 -0.1740  2.6172
 8546SOL     OW37270   3.638   3.522  14.812 -0.3119  0.2573  0.3854
 8546SOL    HW137271   3.704   3.479  14.867 -0.6510 -0.2861  0.3685
 8546SOL    HW237272   3.618   3.447  14.756  0.9439  0.5487 -0.4476
 8547SOL     OW37273   1.938   3.080   5.016  0.0656  0.9272 -0.0486
 8547SOL    HW137274   1.872   3.011   5.024 -0.1158  1.2121  1.0018
 8547SOL    HW237275   1.992   3.045   4.946  0.6235 -0.6866  1.1906
 8548SOL     OW37276   3.527   4.021   3.986 -0.5944  0.3110  0.0887
 8548SOL    HW137277   3.516   4.050   3.895 -1.5086  0.3646  0.2166
 8548SOL    HW237278   3.441   3.985   4.004 -0.6965  1.1814  1.3612
 8549SOL     OW37279   0.867   2.948   0.901 -0.2586 -0.0629  0.3123
 8549SOL    HW137280   0.945   2.913   0.857 -1.2630 -1.4938 -0.3224
 8549SOL    HW237281   0.897   2.958   0.991  0.3290  0.0963  0.1036
 8550SOL     OW37282   2.291   3.834   7.389  0.1199  0.0047  0.2466
 8550SOL    HW137283   2.278   3.929   7.392  2.4934  0.3918 -1.1070
 8550SOL    HW237284   2.286   3.825   7.484 -0.2059  1.9678  0.4152
 8551SOL     OW37285   0.429   3.647  16.591 -0.0730 -1.0249 -0.0953
 8551SOL    HW137286   0.427   3.554  16.568 -1.3200 -0.1282 -3.5971
 8551SOL    HW237287   0.431   3.637  16.686  0.3510  1.4905  0.1522
 8552SOL     OW37288   4.448   2.955   5.189 -0.2170  0.2249 -0.2006
 8552SOL    HW137289   4.421   3.018   5.122  0.1585  1.7129  1.0318
 8552SOL    HW237290   4.441   2.869   5.148  2.3572 -1.6571  3.2609
 8553SOL     OW37291   3.571   1.443  15.988  0.1177 -0.4402 -0.3643
 8553SOL    HW137292   3.485   1.479  16.007 -0.1891 -0.5643 -1.4803
 8553SOL    HW237293   3.615   1.528  15.991 -0.4241 -0.2023  0.6915
 8554SOL     OW37294   1.502   1.270   5.674  0.0737  0.3856  0.0910
 8554SOL    HW137295   1.525   1.198   5.733 -1.4197  1.2078  1.6672
 8554SOL    HW237296   1.446   1.235   5.604  0.9982 -0.5144 -0.1977
 8555SOL     OW37297   3.508   2.069  15.449  0.3452  0.2543  0.2933
 8555SOL    HW137298   3.437   2.080  15.386 -0.2850  1.3924  1.2221
 8555SOL    HW237299   3.471   2.131  15.511  1.5098  0.7755  0.4697
 8556SOL     OW37300   4.615   3.455  14.828  0.2165  0.5872  0.8679
 8556SOL    HW137301   4.617   3.359  14.820  1.7930  0.7151 -0.4777
 8556SOL    HW237302   4.597   3.479  14.737  1.3163 -2.3965 -0.1577
 8557SOL     OW37303   0.420   2.040  16.310  0.0716  0.2178 -0.3601
 8557SOL    HW137304   0.342   2.093  16.293  1.1043  1.4980 -1.1218
 8557SOL    HW237305   0.481   2.052  16.237 -0.5104 -1.9264 -1.1993
 8558SOL     OW37306   1.071   4.163   6.941  0.1560 -0.6518 -0.0536
 8558SOL    HW137307   1.049   4.082   6.987 -0.2493 -0.3747  0.2412
 8558SOL    HW237308   0.986   4.207   6.942 -0.3590 -1.5663 -2.1244
 8559SOL     OW37309   3.864   3.520   9.878 -0.3144 -0.1234 -0.1345
 8559SOL    HW137310   3.904   3.527   9.964 -1.7190 -2.2860  0.6957
 8559SOL    HW237311   3.872   3.606   9.837  0.6274  0.4573  1.2608
 8560SOL     OW37312   3.938   2.339  16.417 -0.3177  0.2921  0.0991
 8560SOL    HW137313   3.949   2.244  16.422 -2.5199  0.0953  1.2694
 8560SOL    HW237314   3.892   2.354  16.500 -2.5666  0.9514 -1.2750
 8561SOL     OW37315   2.350   4.508   5.822  0.1064 -0.8566  0.3837
 8561SOL    HW137316   2.310   4.452   5.756 -0.9111 -0.9273  1.0572
 8561SOL    HW237317   2.323   4.467   5.905 -4.3041 -0.1506 -0.6936
 8562SOL     OW37318   2.255   1.610   5.900  0.3320  0.0279 -0.2536
 8562SOL    HW137319   2.342   1.593   5.937  0.9616  1.2156 -1.1715
 8562SOL    HW237320   2.197   1.586   5.972  1.3967 -1.0367  0.2363
 8563SOL     OW37321   3.597   2.049   1.081  0.2036 -0.1248  0.3238
 8563SOL    HW137322   3.613   2.084   1.168 -1.2595 -1.3970  1.1002
 8563SOL    HW237323   3.597   2.130   1.029  1.7101  0.1034  0.6981
 8564SOL     OW37324   3.618   1.822   4.477 -0.1036 -0.0517 -0.6528
 8564SOL    HW137325   3.678   1.796   4.406  1.9455 -2.7302  2.0573
 8564SOL    HW237326   3.619   1.744   4.532 -1.7364 -0.6810 -1.5224
 8565SOL     OW37327   1.640   1.861   7.749 -0.1831 -0.4200  0.3501
 8565SOL    HW137328   1.555   1.900   7.727  0.3415  1.3092  1.3542
 8565SOL    HW237329   1.637   1.774   7.711 -0.7319  0.6376 -2.0158
 8566SOL     OW37330   3.109   0.766   4.170  0.4935  0.0284 -0.1329
 8566SOL    HW137331   3.170   0.825   4.214  1.0237 -2.5113  2.4944
 8566SOL    HW237332   3.031   0.809   4.205 -0.1713 -0.4104 -1.0542
 8567SOL     OW37333   4.303   0.178   4.188  0.3453  0.6000 -0.3883
 8567SOL    HW137334   4.220   0.133   4.170  0.7014 -0.9934  1.8628
 8567SOL    HW237335   4.293   0.219   4.274  1.4833 -3.0848  1.4955
 8568SOL     OW37336   4.637   0.175   2.602 -0.0250 -0.0332  0.5816
 8568SOL    HW137337   4.554   0.220   2.619 -1.0942 -1.3401 -1.1112
 8568SOL    HW237338   4.620   0.102   2.662 -0.4142 -0.1344  0.3503
 8569SOL     OW37339   4.609   4.660   3.073  0.2458 -0.2282 -0.1651
 8569SOL    HW137340   4.522   4.698   3.082 -0.5820 -1.6798 -2.1571
 8569SOL    HW237341   4.622   4.639   3.165 -1.5319 -0.9323 -0.0824
 8570SOL     OW37342   1.256   3.458  13.993  0.0405 -0.4463 -0.3461
 8570SOL    HW137343   1.293   3.383  14.039 -2.6334 -0.1307  2.3339
 8570SOL    HW237344   1.338   3.501  13.970  0.6456 -0.7692  1.2067
 8571SOL     OW37345   0.624   1.901   3.675 -0.4283  1.0882 -0.2950
 8571SOL    HW137346   0.679   1.825   3.654 -1.0233  0.4913  0.2991
 8571SOL    HW237347   0.545   1.875   3.626  0.4304 -1.5311 -0.3054
 8572SOL     OW37348   2.959   2.116   2.601  0.4996  0.7150 -0.6952
 8572SOL    HW137349   2.894   2.075   2.657  0.7434  1.6829  0.3039
 8572SOL    HW237350   3.031   2.053   2.600 -1.5169 -1.5394 -1.4379
 8573SOL     OW37351   3.696   1.620  12.541 -0.6074 -0.7458  0.0167
 8573SOL    HW137352   3.604   1.603  12.521 -0.1317 -0.1009 -2.7411
 8573SOL    HW237353   3.740   1.569  12.474 -0.0152 -0.5096  0.2186
 8574SOL     OW37354   1.811   1.129   9.607 -0.3202  0.0612 -0.4326
 8574SOL    HW137355   1.748   1.058   9.623  1.2532 -1.0925  0.5388
 8574SOL    HW237356   1.858   1.135   9.689  0.2529  1.2946 -0.8438
 8575SOL     OW37357   1.137   3.301   2.897  0.0463 -0.7345 -0.7507
 8575SOL    HW137358   1.052   3.265   2.924  1.2229 -2.3476  0.8436
 8575SOL    HW237359   1.102   3.366   2.837  0.6245  0.3049  0.0264
 8576SOL     OW37360   2.248   4.464  13.398  0.4540 -0.5665  0.0222
 8576SOL    HW137361   2.225   4.425  13.483  0.3400  1.4172  0.9144
 8576SOL    HW237362   2.237   4.553  13.431  0.0150 -0.2610 -0.9690
 8577SOL     OW37363   3.391   2.523   3.874  0.0334  0.1703 -0.3076
 8577SOL    HW137364   3.364   2.607   3.836  0.5678  0.1340 -0.7596
 8577SOL    HW237365   3.350   2.470   3.805 -0.3500  0.7437 -0.5236
 8578SOL     OW37366   3.104   1.306  14.998 -0.1636  0.5638  0.8222
 8578SOL    HW137367   3.012   1.312  15.023 -0.0354  1.1882  1.1579
 8578SOL    HW237368   3.133   1.228  15.046 -0.8592  0.2532  0.7264
 8579SOL     OW37369   0.669   2.257  13.036  0.1699 -0.2659 -0.5201
 8579SOL    HW137370   0.736   2.320  13.009 -1.4423  1.3908 -0.5888
 8579SOL    HW237371   0.685   2.186  12.973  1.0736 -1.5094  1.1032
 8580SOL     OW37372   2.020   3.574   4.572  0.3633  0.3678 -0.1007
 8580SOL    HW137373   2.026   3.576   4.667 -0.2075 -2.4162  0.0018
 8580SOL    HW237374   2.089   3.629   4.536  2.2499 -0.1737  2.6884
 8581SOL     OW37375   2.768   4.329   7.655 -0.0807  0.6028 -0.0182
 8581SOL    HW137376   2.850   4.313   7.608 -0.9929 -0.0805 -1.3772
 8581SOL    HW237377   2.782   4.266   7.725  2.1370 -2.7454 -3.4734
 8582SOL     OW37378   3.613   0.503   5.735 -0.6293  0.1027  0.3302
 8582SOL    HW137379   3.570   0.472   5.815 -0.0279 -1.4611  0.0322
 8582SOL    HW237380   3.592   0.436   5.671  0.2701  1.8480 -1.7809
 8583SOL     OW37381   0.505   3.387  13.864  0.3143 -0.1192 -0.0448
 8583SOL    HW137382   0.503   3.342  13.779 -2.3108 -0.2992  0.0880
 8583SOL    HW237383   0.599   3.387  13.881  0.3043 -2.6551  0.1251
 8584SOL     OW37384   0.983   1.374   9.799 -0.0200  0.1600  0.1115
 8584SOL    HW137385   0.948   1.288   9.820  0.0987  0.3222  0.9967
 8584SOL    HW237386   1.063   1.376   9.853  1.0712 -0.9252 -1.4671
 8585SOL     OW37387   2.868   4.106   6.017 -0.0007 -0.6055  0.1782
 8585SOL    HW137388   2.777   4.136   6.023 -0.9306 -2.8882 -2.7872
 8585SOL    HW237389   2.884   4.120   5.924 -1.9470  2.3629  0.2877
 8586SOL     OW37390   3.677   4.198  11.384  0.6678 -0.2852  0.3545
 8586SOL    HW137391   3.596   4.159  11.415  0.5223 -0.3784 -0.1380
 8586SOL    HW237392   3.697   4.267  11.448  2.9468 -1.2835  0.7490
 8587SOL     OW37393   0.089   3.146  11.421  0.0227  0.2921 -0.1053
 8587SOL    HW137394   0.177   3.112  11.404  0.3501  0.0223  2.1004
 8587SOL    HW237395   0.042   3.065  11.401 -0.4827  0.7764 -0.8620
 8588SOL     OW37396   0.050   4.079   1.787 -0.3805  0.3803 -0.1278
 8588SOL    HW137397   0.043   4.013   1.856  0.7706  1.2231  0.7755
 8588SOL    HW237398   0.143   4.069   1.767 -0.4775 -0.0220 -0.3898
 8589SOL     OW37399   1.236   4.192   9.321  0.2119  0.7750 -0.4811
 8589SOL    HW137400   1.315   4.141   9.338  0.0394  0.5603 -0.3238
 8589SOL    HW237401   1.182   4.121   9.286  1.0729  0.4584 -1.1733
 8590SOL     OW37402   3.950   0.304   7.524  0.4108 -0.5980  0.6899
 8590SOL    HW137403   3.979   0.217   7.551  0.7500 -0.7511 -0.1554
 8590SOL    HW237404   4.030   0.356   7.530  1.5319 -1.8732 -3.1642
 8591SOL     OW37405   0.484   1.715   1.921  0.0097  0.2602 -0.5193
 8591SOL    HW137406   0.540   1.780   1.964 -0.5799  1.1986 -1.1682
 8591SOL    HW237407   0.424   1.773   1.874  0.3266  0.0617 -1.1695
 8592SOL     OW37408   3.111   4.281   6.129  0.3921  0.1797  0.1196
 8592SOL    HW137409   3.204   4.292   6.149  0.2440  1.3942  0.1206
 8592SOL    HW237410   3.089   4.195   6.164  0.3300  1.3401  2.9299
 8593SOL     OW37411   3.247   4.469   8.621  0.2803  0.0041 -0.4147
 8593SOL    HW137412   3.269   4.475   8.528 -4.2321  0.7880 -1.4224
 8593SOL    HW237413   3.237   4.564   8.631 -0.0375 -0.2370  1.4349
 8594SOL     OW37414   0.718   4.049   5.324  0.4102  0.6837 -0.1529
 8594SOL    HW137415   0.802   4.046   5.370  0.5801  1.3794 -0.4179
 8594SOL    HW237416   0.745   4.011   5.240 -0.5713 -0.5837  0.1109
 8595SOL     OW37417   1.467   3.662  14.055 -0.1457  0.3959  0.0308
 8595SOL    HW137418   1.465   3.758  14.047  0.2179  0.5959  2.3383
 8595SOL    HW237419   1.463   3.653  13.960  1.5748 -0.3389  0.0246
 8596SOL     OW37420   0.672   0.659   2.083  0.0529 -0.1036  0.2864
 8596SOL    HW137421   0.604   0.592   2.092 -0.0127  0.0378  0.8289
 8596SOL    HW237422   0.753   0.608   2.087  1.2996  1.6799 -2.6095
 8597SOL     OW37423   4.410   4.262   5.139  0.2957 -0.8227  0.1143
 8597SOL    HW137424   4.360   4.228   5.065 -1.3057  2.6302 -0.3642
 8597SOL    HW237425   4.415   4.353   5.112 -1.3591 -0.8595 -0.3087
 8598SOL     OW37426   3.842   3.369  12.726 -0.5636  0.0668 -0.4430
 8598SOL    HW137427   3.852   3.458  12.760 -0.7595 -0.3219  0.6293
 8598SOL    HW237428   3.752   3.344  12.746 -0.8473  3.1348  2.2555
 8599SOL     OW37429   1.134   4.559  12.300 -0.2649 -0.1531  0.3437
 8599SOL    HW137430   1.141   4.620  12.374 -0.1486  1.1896 -0.7722
 8599SOL    HW237431   1.042   4.564  12.273 -0.0618 -2.6451 -0.8267
 8600SOL     OW37432   3.981   4.151  15.740  0.9031 -0.6236  0.4847
 8600SOL    HW137433   3.909   4.146  15.803 -1.0883  1.5907 -1.5703
 8600SOL    HW237434   3.957   4.219  15.676 -0.2398 -1.0221  0.4879
 8601SOL     OW37435   1.790   0.066  17.495 -0.3060 -0.0283  0.3471
 8601SOL    HW137436   1.709   0.021  17.474 -0.1704  0.5246 -1.3828
 8601SOL    HW237437   1.787   0.076  17.590  0.4217  0.8866  0.2735
 8602SOL     OW37438   1.329   2.635   4.621  0.0129  0.1381 -0.1510
 8602SOL    HW137439   1.311   2.599   4.707 -1.3304 -1.2432 -1.0164
 8602SOL    HW237440   1.422   2.659   4.621 -0.4649  2.0383  0.1188
 8603SOL     OW37441   2.434   3.261  14.950 -0.0276 -0.5192 -0.1251
 8603SOL    HW137442   2.356   3.261  15.006 -0.6145  2.0603 -0.8970
 8603SOL    HW237443   2.445   3.168  14.935 -1.6203 -0.6572 -0.4655
 8604SOL     OW37444   1.808   4.447   0.759  0.4722 -0.3830 -0.2894
 8604SOL    HW137445   1.799   4.501   0.681 -5.1547  0.9990  1.3343
 8604SOL    HW237446   1.790   4.511   0.827  2.4659  0.2240 -0.3174
 8605SOL     OW37447   2.335   2.257   7.522 -0.6747  0.2796  0.1167
 8605SOL    HW137448   2.269   2.314   7.561 -0.0639  0.5039  0.8022
 8605SOL    HW237449   2.321   2.269   7.428 -0.1760  0.9891  0.1381
 8606SOL     OW37450   1.271   1.613   3.483 -0.0676 -0.2280  0.5571
 8606SOL    HW137451   1.215   1.647   3.553 -1.0674 -0.4990 -0.1038
 8606SOL    HW237452   1.210   1.554   3.439  0.8257 -1.6787  1.2546
 8607SOL     OW37453   3.366   2.626   9.358 -0.5553  0.3532 -0.4174
 8607SOL    HW137454   3.458   2.618   9.335 -0.3520 -0.6697  0.7599
 8607SOL    HW237455   3.363   2.614   9.453 -0.2592 -0.3067 -0.4932
 8608SOL     OW37456   2.224   0.809   5.542 -0.3168  0.3165 -0.1888
 8608SOL    HW137457   2.221   0.852   5.456  0.3182  1.7542  0.5132
 8608SOL    HW237458   2.287   0.738   5.533 -1.5901 -0.9735  1.1850
 8609SOL     OW37459   2.007   0.735   5.727  0.1385  0.0770 -0.8267
 8609SOL    HW137460   2.010   0.797   5.800  2.0186  0.1786 -1.0067
 8609SOL    HW237461   2.071   0.773   5.667 -0.7272  3.1933  0.2172
 8610SOL     OW37462   4.219   0.352   7.069  0.0256  0.2893  0.1860
 8610SOL    HW137463   4.263   0.435   7.048  3.6496 -1.3457  1.3808
 8610SOL    HW237464   4.163   0.339   6.992 -0.9081 -1.4047  1.1496
 8611SOL     OW37465   2.156   3.033   2.276 -0.1328 -0.3864  0.3776
 8611SOL    HW137466   2.205   2.968   2.225  1.1577 -1.0526  2.4520
 8611SOL    HW237467   2.182   3.109   2.223  2.1401 -2.4639 -1.5113
 8612SOL     OW37468   3.795   1.087  17.617  0.2046 -0.0459 -0.0623
 8612SOL    HW137469   3.810   1.116  17.527 -0.7248 -4.0007 -1.4831
 8612SOL    HW237470   3.880   1.082  17.661  1.0926 -0.9481 -1.8846
 8613SOL     OW37471   0.229   4.437   2.249  0.0148  0.0716  0.0835
 8613SOL    HW137472   0.237   4.349   2.211 -1.6004  0.0062 -0.0838
 8613SOL    HW237473   0.144   4.424   2.289 -0.1889 -0.4338 -0.5045
 8614SOL     OW37474   4.111   1.078   6.593  0.0934 -0.5571  0.0035
 8614SOL    HW137475   4.048   1.039   6.654  0.2846 -0.6621  0.1348
 8614SOL    HW237476   4.100   1.170   6.616  0.1083 -0.6815  0.5070
 8615SOL     OW37477   4.259   2.735   9.659 -0.6103  0.0189  0.0302
 8615SOL    HW137478   4.280   2.814   9.610 -1.6770 -0.4539 -1.1997
 8615SOL    HW237479   4.294   2.663   9.608 -0.2786 -0.3449  0.7627
 8616SOL     OW37480   4.131   4.230   3.741  0.2055  0.1299  0.0633
 8616SOL    HW137481   4.195   4.159   3.735  0.7049  0.4982  0.9234
 8616SOL    HW237482   4.063   4.198   3.683  0.0105 -2.2406  1.6350
 8617SOL     OW37483   4.642   0.813  10.546 -0.4232 -0.3875  0.2726
 8617SOL    HW137484   4.578   0.870  10.588 -1.1151 -0.0425 -1.2535
 8617SOL    HW237485   4.692   0.800  10.627  1.4341 -0.7462 -0.9162
 8618SOL     OW37486   0.785   3.199   8.293  0.2416 -0.2476 -0.0623
 8618SOL    HW137487   0.729   3.271   8.263 -2.0038 -2.2444 -0.6288
 8618SOL    HW237488   0.817   3.238   8.375  0.7239  0.5796 -0.6382
 8619SOL     OW37489   0.066   4.128   6.831 -0.2135  0.0348  0.4086
 8619SOL    HW137490   0.024   4.148   6.748 -2.4251  2.6331  2.1279
 8619SOL    HW237491   0.139   4.189   6.840 -1.7122  2.2237 -2.3040
 8620SOL     OW37492   4.157   2.545   0.049 -0.0040 -0.2112 -0.1041
 8620SOL    HW137493   4.070   2.504   0.049  0.2263 -0.7016  0.6678
 8620SOL    HW237494   4.152   2.586  17.701  0.5488 -0.2473 -0.1480
 8621SOL     OW37495   1.924   0.591   6.788  0.4135  0.4069  0.1048
 8621SOL    HW137496   1.832   0.568   6.803  0.2814  1.6918  1.3063
 8621SOL    HW237497   1.957   0.545   6.711  1.6701  1.2626  0.1477
 8622SOL     OW37498   0.812   1.391   5.802 -0.3944  0.6927  0.5661
 8622SOL    HW137499   0.733   1.438   5.828 -0.0713  2.0299 -0.8471
 8622SOL    HW237500   0.782   1.304   5.774 -1.8320  1.5284 -0.4950
 8623SOL     OW37501   1.102   2.359  13.074  0.3286  0.0302  0.2129
 8623SOL    HW137502   1.101   2.437  13.129  2.5716  0.3603 -0.2017
 8623SOL    HW237503   1.195   2.338  13.071  0.8718  2.5149 -0.0950
 8624SOL     OW37504   2.531   3.291  14.698 -0.8814  0.0889  0.0882
 8624SOL    HW137505   2.509   3.288  14.791  0.5650 -1.5882  0.3773
 8624SOL    HW237506   2.449   3.313  14.654  0.1864 -1.4471 -2.6909
 8625SOL     OW37507   4.548   4.120   2.683  0.1258  0.1980  0.5106
 8625SOL    HW137508   4.516   4.062   2.751 -0.5060  0.0232  0.0623
 8625SOL    HW237509   4.549   4.066   2.605  2.2069  1.6005 -0.4471
 8626SOL     OW37510   0.981   0.559   2.179 -0.3781 -0.1263  0.2147
 8626SOL    HW137511   1.071   0.530   2.163 -0.3281  1.0676 -1.6658
 8626SOL    HW237512   0.993   0.628   2.244  1.1325 -1.1913  1.0881
 8627SOL     OW37513   0.742   3.739   8.338 -0.2381  0.0665  0.1009
 8627SOL    HW137514   0.767   3.740   8.430 -1.1831 -0.4505  0.3621
 8627SOL    HW237515   0.669   3.801   8.346 -0.6967 -0.6243  1.2602
 8628SOL     OW37516   2.909   4.450  13.614 -0.0148 -0.7915 -0.0041
 8628SOL    HW137517   2.918   4.379  13.677  0.5389  0.5191  1.4170
 8628SOL    HW237518   2.821   4.430  13.582  0.4621 -1.5391 -0.8328
 8629SOL     OW37519   3.882   2.373   9.821  0.0869  0.2131 -0.2374
 8629SOL    HW137520   3.970   2.335   9.817 -0.6964 -1.3201 -3.0283
 8629SOL    HW237521   3.904   2.452   9.772  3.1493 -0.2157  0.3962
 8630SOL     OW37522   3.729   0.644   1.736  0.0383 -0.1323 -0.8315
 8630SOL    HW137523   3.756   0.692   1.658  1.1673 -1.7877 -1.4385
 8630SOL    HW237524   3.803   0.587   1.754 -0.2852  0.2575  1.8152
 8631SOL     OW37525   0.195   3.351   4.850 -0.0574 -0.4461  0.0143
 8631SOL    HW137526   0.249   3.340   4.772 -0.2754  1.1041 -0.3460
 8631SOL    HW237527   0.134   3.277   4.845 -1.5198  0.6521  1.6141
 8632SOL     OW37528   3.184   1.979   4.479 -0.1005  0.1242 -0.2882
 8632SOL    HW137529   3.100   2.015   4.508 -0.0331  0.8290 -0.9932
 8632SOL    HW237530   3.197   1.900   4.531 -2.8610  0.3434  0.7022
 8633SOL     OW37531   3.361   3.004   5.830 -0.3635 -0.1430  0.1944
 8633SOL    HW137532   3.403   2.969   5.909  0.8205 -0.6206 -0.6525
 8633SOL    HW237533   3.434   2.986   5.771  0.3517  0.6213  0.8506
 8634SOL     OW37534   4.042   3.382   2.535  0.2809  0.1139  0.1099
 8634SOL    HW137535   4.003   3.459   2.577 -0.9482 -1.2736  1.5054
 8634SOL    HW237536   4.128   3.379   2.578  0.8474  1.8853 -0.9161
 8635SOL     OW37537   0.082   0.339   5.546 -0.4012  0.0287 -0.9859
 8635SOL    HW137538   0.056   0.258   5.503 -2.9065 -0.1105  0.7676
 8635SOL    HW237539   0.158   0.354   5.490  0.7525 -1.3352  0.2302
 8636SOL     OW37540   4.630   1.782   7.331 -0.5750 -0.3337  0.4017
 8636SOL    HW137541   4.665   1.839   7.400  0.4595 -1.1991  0.5833
 8636SOL    HW237542   4.696   1.714   7.332 -0.1155  0.0778 -1.8625
 8637SOL     OW37543   4.476   2.196   4.382 -0.0901 -0.7169 -0.0713
 8637SOL    HW137544   4.420   2.193   4.304 -0.8133  0.5491  0.4062
 8637SOL    HW237545   4.567   2.213   4.362 -0.8096  1.2006 -1.6896
 8638SOL     OW37546   1.779   4.132   5.337 -0.2873  0.2810  0.1828
 8638SOL    HW137547   1.789   4.085   5.255  1.5269  1.5911 -0.3250
 8638SOL    HW237548   1.865   4.122   5.377 -0.1878 -0.7186 -0.2852
 8639SOL     OW37549   2.340   1.885   4.863 -0.0520 -0.0766  0.4194
 8639SOL    HW137550   2.311   1.975   4.874  0.9096  0.3300 -0.3410
 8639SOL    HW237551   2.313   1.865   4.953  0.3282 -0.7254  0.3894
 8640SOL     OW37552   2.775   2.302   8.439 -0.8877  0.3897  0.3882
 8640SOL    HW137553   2.753   2.369   8.503 -3.6167 -0.3067  0.1843
 8640SOL    HW237554   2.699   2.296   8.381  0.1573 -0.6228 -0.8632
 8641SOL     OW37555   2.743   1.922   4.098 -0.0020  0.3006 -0.0275
 8641SOL    HW137556   2.711   1.844   4.051  2.5420 -0.5840 -0.2887
 8641SOL    HW237557   2.814   1.950   4.040 -0.1795  0.0449 -0.3732
 8642SOL     OW37558   4.001   3.848   2.466  0.0379  0.5002  0.1782
 8642SOL    HW137559   4.017   3.794   2.543 -1.2406 -0.2090 -0.0616
 8642SOL    HW237560   4.090   3.873   2.440 -0.0410  1.1123  0.5089
 8643SOL     OW37561   0.477   4.008   2.202 -0.0975  0.1137 -0.0859
 8643SOL    HW137562   0.509   3.989   2.290 -0.0860 -0.4875 -0.2192
 8643SOL    HW237563   0.438   3.929   2.167  1.6565  0.2972 -2.4413
 8644SOL     OW37564   3.754   3.029   3.173  1.1309 -0.2304  0.5937
 8644SOL    HW137565   3.749   3.021   3.268 -1.4147 -1.5226  0.3580
 8644SOL    HW237566   3.667   3.050   3.140  1.9235  0.9615 -0.7755
 8645SOL     OW37567   1.840   4.254   1.746  0.5138 -0.1314  0.2264
 8645SOL    HW137568   1.870   4.337   1.781 -0.3906 -0.1061  0.9464
 8645SOL    HW237569   1.868   4.258   1.654  0.6307 -1.0326  0.2176
 8646SOL     OW37570   3.183   3.742   1.665  0.1372 -0.2842 -0.0207
 8646SOL    HW137571   3.227   3.759   1.582  1.1757  0.7992  0.7357
 8646SOL    HW237572   3.159   3.831   1.694 -2.7036 -0.6514 -1.2573
 8647SOL     OW37573   0.433   1.563   4.272  0.2468 -0.0120  0.3433
 8647SOL    HW137574   0.456   1.643   4.225 -1.2531  0.6533  0.7417
 8647SOL    HW237575   0.497   1.571   4.343 -0.9404 -0.3560  1.4528
 8648SOL     OW37576   3.797   4.619   9.279 -0.7967 -0.0504 -0.1521
 8648SOL    HW137577   3.799   4.640   9.185  2.2806 -0.8955 -0.2759
 8648SOL    HW237578   3.727   4.674   9.314 -0.4761  0.9924 -1.1201
 8649SOL     OW37579   1.437   1.415  14.304 -0.2699  0.1174 -0.1837
 8649SOL    HW137580   1.392   1.438  14.222 -0.1084 -0.3024 -0.3899
 8649SOL    HW237581   1.491   1.494  14.311  0.3000 -0.4628  1.7621
 8650SOL     OW37582   2.054   2.584   0.110 -0.3072  0.5504  0.5624
 8650SOL    HW137583   1.979   2.526   0.122 -0.1470  0.3211  0.4719
 8650SOL    HW237584   2.075   2.575   0.017  1.3044 -3.9043  1.3611
 8651SOL     OW37585   2.071   4.682   5.553 -0.5454 -1.0343  0.5968
 8651SOL    HW137586   2.099   0.035   5.528 -0.6908 -1.7652 -2.1660
 8651SOL    HW237587   1.978   4.693   5.533 -0.5551 -0.8302  0.7513
 8652SOL     OW37588   1.173   1.288  16.280 -0.0613  0.1631  0.4101
 8652SOL    HW137589   1.135   1.202  16.265 -0.2631 -0.3048  3.6671
 8652SOL    HW237590   1.198   1.277  16.372 -0.8686 -1.0067  0.4879
 8653SOL     OW37591   3.725   0.973   0.165  0.5414 -0.2579 -0.5497
 8653SOL    HW137592   3.642   0.952   0.207  0.2667 -0.0683 -1.0045
 8653SOL    HW237593   3.721   1.068   0.154 -0.5615 -0.0563  1.5960
 8654SOL     OW37594   0.366   1.782   8.961  0.0108 -0.6492  0.6414
 8654SOL    HW137595   0.313   1.784   9.041 -2.3074 -0.6281 -0.9032
 8654SOL    HW237596   0.438   1.729   8.996 -0.2178 -2.0537 -1.0900
 8655SOL     OW37597   1.970   3.963   2.695  0.3966  0.1729 -0.0253
 8655SOL    HW137598   1.886   3.931   2.727  0.1530  1.0661  0.2198
 8655SOL    HW237599   2.039   3.928   2.752  1.4339  2.4240  0.0900
 8656SOL     OW37600   2.040   3.369   6.905  0.4617  0.0926  0.0164
 8656SOL    HW137601   1.946   3.369   6.922  0.7523 -0.5744  1.6148
 8656SOL    HW237602   2.058   3.292   6.852 -0.1496  0.8354 -1.2725
 8657SOL     OW37603   2.238   0.204   9.322  0.1420 -0.7088 -0.0630
 8657SOL    HW137604   2.300   0.262   9.278 -0.7658  1.4589  1.5182
 8657SOL    HW237605   2.174   0.169   9.259 -0.2949 -0.3211  0.1659
 8658SOL     OW37606   0.594   3.217   4.283 -0.5399  0.2075  0.0375
 8658SOL    HW137607   0.510   3.220   4.328 -0.3293  0.2125  0.4383
 8658SOL    HW237608   0.620   3.128   4.304  0.8067  0.8393  1.1039
 8659SOL     OW37609   0.914   3.101   8.054  0.9616  0.4799  0.4532
 8659SOL    HW137610   0.984   3.038   8.071  1.2402  0.9918  1.1781
 8659SOL    HW237611   0.863   3.106   8.135  0.6284  0.9456  0.2101
 8660SOL     OW37612   0.891   1.481   6.725  0.3635  0.0651 -0.2575
 8660SOL    HW137613   0.914   1.471   6.817  1.1604  0.5142 -0.4026
 8660SOL    HW237614   0.799   1.507   6.733 -0.1193 -2.4406  2.3913
 8661SOL     OW37615   1.434   2.391   8.053 -0.2956 -0.1416  0.6305
 8661SOL    HW137616   1.456   2.331   7.982  1.1424  1.0743  0.0290
 8661SOL    HW237617   1.343   2.403   8.026  0.4284  0.8232 -1.4513
 8662SOL     OW37618   3.008   2.496   6.324  0.1319 -0.2341  0.2558
 8662SOL    HW137619   2.954   2.550   6.382 -0.7313 -0.1087 -0.6692
 8662SOL    HW237620   2.967   2.410   6.335 -0.5071  0.5278  3.6869
 8663SOL     OW37621   0.301   4.630   7.757 -0.1304 -0.0331 -0.1821
 8663SOL    HW137622   0.215   4.592   7.770  0.1226 -0.5360  0.0450
 8663SOL    HW237623   0.328   4.651   7.847 -0.3605  1.1363 -0.3808
 8664SOL     OW37624   3.305   3.303   6.441 -0.4589 -0.4744  0.0475
 8664SOL    HW137625   3.347   3.358   6.375 -1.2175  2.7359  2.2556
 8664SOL    HW237626   3.236   3.270   6.383  1.0366 -0.6532 -1.6180
 8665SOL     OW37627   3.605   0.332   6.553  0.0385 -0.3383  0.6425
 8665SOL    HW137628   3.624   0.240   6.566 -0.1251 -0.4491  0.1025
 8665SOL    HW237629   3.595   0.350   6.646  0.2024  1.5080  0.3174
 8666SOL     OW37630   0.658   3.520  15.465 -0.1771  0.2394  0.0618
 8666SOL    HW137631   0.626   3.435  15.495 -2.8130  1.1027 -0.2863
 8666SOL    HW237632   0.650   3.566  15.549  2.1715  2.3191 -0.8384
 8667SOL     OW37633   3.520   1.226   1.739  0.1504 -0.3733  0.6327
 8667SOL    HW137634   3.560   1.290   1.680 -0.8182 -0.5848 -0.2580
 8667SOL    HW237635   3.545   1.251   1.828  0.6256  2.0383 -0.1805
 8668SOL     OW37636   2.919   1.307   5.776  0.0097 -0.0933 -0.4028
 8668SOL    HW137637   2.849   1.243   5.777  1.2263 -1.4361 -1.2907
 8668SOL    HW237638   2.905   1.370   5.847  0.8212 -0.3494 -0.0184
 8669SOL     OW37639   4.241   2.309   5.554  0.5137  0.1481  0.5491
 8669SOL    HW137640   4.207   2.366   5.624 -1.7059 -0.1120 -0.2985
 8669SOL    HW237641   4.272   2.229   5.596  0.0357 -0.5423 -0.4152
 8670SOL     OW37642   4.070   4.380  11.903  0.4715 -0.3397  0.3980
 8670SOL    HW137643   4.086   4.462  11.950  1.2486  0.9787 -2.1913
 8670SOL    HW237644   3.986   4.409  11.867  1.0108  1.3490  0.4685
 8671SOL     OW37645   0.420   3.392   9.339  0.4025  0.0217 -0.0743
 8671SOL    HW137646   0.508   3.365   9.311 -0.0712 -0.3621 -1.1968
 8671SOL    HW237647   0.405   3.425   9.250 -2.5292 -0.9610  0.0773
 8672SOL     OW37648   0.710   3.633  15.206 -0.1140 -0.2584  0.3902
 8672SOL    HW137649   0.663   3.583  15.273 -0.9625 -2.0952 -1.5829
 8672SOL    HW237650   0.641   3.684  15.162 -2.3956 -0.8876  3.2532
 8673SOL     OW37651   1.863   2.308   9.460 -0.6066 -0.3030 -0.1837
 8673SOL    HW137652   1.778   2.294   9.417 -0.7527 -0.3862  0.1301
 8673SOL    HW237653   1.833   2.297   9.550  1.3428 -0.8695  0.3948
 8674SOL     OW37654   3.776   0.745   7.739 -0.0178 -0.0442 -0.1772
 8674SOL    HW137655   3.696   0.744   7.791  0.4939  2.4226  0.6582
 8674SOL    HW237656   3.744   0.710   7.656 -1.3199  1.6511 -0.3868
 8675SOL     OW37657   4.531   2.726   7.898 -0.1967 -0.1790  0.3570
 8675SOL    HW137658   4.468   2.695   7.833 -0.6853  0.8680  0.3432
 8675SOL    HW237659   4.466   2.762   7.957 -0.1482 -2.5496  1.8813
 8676SOL     OW37660   3.057   1.014   8.255  0.3578  0.3123  0.3672
 8676SOL    HW137661   3.069   1.092   8.309  1.6824 -1.2390  2.3354
 8676SOL    HW237662   3.029   0.950   8.321  0.9865 -0.3085  0.0286
 8677SOL     OW37663   0.156   3.480   4.231 -0.1380  0.4119  0.5075
 8677SOL    HW137664   0.135   3.492   4.139  0.8252  2.4230  0.5524
 8677SOL    HW237665   0.173   3.386   4.244 -1.0132  0.3566  1.2610
 8678SOL     OW37666   4.291   1.078   2.334 -0.1915  0.8685  0.2384
 8678SOL    HW137667   4.233   1.082   2.258 -0.4986  1.9729  0.5286
 8678SOL    HW237668   4.366   1.129   2.305 -1.6399  3.6658  1.3922
 8679SOL     OW37669   0.998   4.406   1.513 -0.4748 -0.5280 -0.1882
 8679SOL    HW137670   1.025   4.387   1.602  1.8154  0.2049 -0.7387
 8679SOL    HW237671   1.073   4.396   1.454  0.1283  0.4356  0.4227
 8680SOL     OW37672   4.149   4.495   4.132 -0.4180  0.6062 -0.1918
 8680SOL    HW137673   4.224   4.465   4.080  0.8045  1.4793  1.0460
 8680SOL    HW237674   4.192   4.498   4.218 -0.8708  1.0882  0.0159
 8681SOL     OW37675   2.621   1.563   8.267 -0.4315 -0.0759  0.5441
 8681SOL    HW137676   2.640   1.501   8.197 -1.4741  0.1597  0.0469
 8681SOL    HW237677   2.628   1.509   8.345 -1.4046 -1.6462 -0.4639
 8682SOL     OW37678   2.916   0.140   5.740 -0.3516 -0.4345  0.1386
 8682SOL    HW137679   2.855   0.134   5.814  0.0182 -0.4259  0.4476
 8682SOL    HW237680   2.916   0.048   5.714 -2.2960 -0.8535  1.6057
 8683SOL     OW37681   2.148   2.010   9.402 -0.1201 -0.5734  0.1170
 8683SOL    HW137682   2.185   2.018   9.314 -0.2424  1.6956  0.2770
 8683SOL    HW237683   2.146   2.105   9.409 -1.7095 -0.7391  1.8234
 8684SOL     OW37684   2.135   3.647   3.779 -0.2949  0.3053  0.1088
 8684SOL    HW137685   2.201   3.587   3.743 -0.2980  0.1929  0.2917
 8684SOL    HW237686   2.176   3.726   3.745 -3.2506  2.6010  1.9451
 8685SOL     OW37687   0.919   0.033   2.788  0.7312 -0.1362  0.6238
 8685SOL    HW137688   0.896   4.678   2.767  0.5652 -0.5702  2.6647
 8685SOL    HW237689   0.894   0.088   2.714  3.6780 -0.9868 -1.0171
 8686SOL     OW37690   4.014   4.407   5.628  0.5737  0.3063 -0.4869
 8686SOL    HW137691   4.005   4.494   5.589  2.5256  0.1405 -1.2753
 8686SOL    HW237692   4.094   4.415   5.679 -0.2967 -0.4130  1.0116
 8687SOL     OW37693   2.256   2.630  14.752  0.5964 -0.2058  0.0486
 8687SOL    HW137694   2.306   2.660  14.828 -0.4236 -1.4856  1.2280
 8687SOL    HW237695   2.164   2.647  14.774  0.3677  0.3941 -1.3896
 8688SOL     OW37696   0.656   0.080   4.923  0.1241  0.0129  0.8218
 8688SOL    HW137697   0.567   0.080   4.889  1.2472 -1.5059 -2.1726
 8688SOL    HW237698   0.648   0.018   4.995  2.0742 -0.4969  0.6045
 8689SOL     OW37699   3.897   1.487   7.494 -0.3794 -0.6179  0.2299
 8689SOL    HW137700   3.896   1.430   7.571  0.4175 -0.3249  0.4617
 8689SOL    HW237701   3.899   1.570   7.542 -0.5092 -0.6470  0.2856
 8690SOL     OW37702   1.220   1.509  16.054  0.3282  0.0599  0.6516
 8690SOL    HW137703   1.234   1.428  16.103 -0.2265 -1.3896 -1.6092
 8690SOL    HW237704   1.127   1.508  16.035  0.7580 -0.5677 -1.4803
 8691SOL     OW37705   3.071   0.245   2.276  0.2311  0.5489 -0.5623
 8691SOL    HW137706   3.054   0.234   2.182  2.1995 -3.0402 -0.4946
 8691SOL    HW237707   3.026   0.329   2.286  0.7593  0.3656  3.3404
 8692SOL     OW37708   0.555   1.510   5.871  0.1667  0.4579  0.3144
 8692SOL    HW137709   0.573   1.510   5.965 -0.9922 -0.2863  0.5216
 8692SOL    HW237710   0.468   1.550   5.873 -0.4435 -0.9603  1.5030
 8693SOL     OW37711   4.375   1.330   3.152 -0.0321 -0.5182 -0.1449
 8693SOL    HW137712   4.329   1.297   3.075  0.9490 -0.1171 -0.9042
 8693SOL    HW237713   4.459   1.285   3.137 -0.2685 -0.6652 -1.0304
 8694SOL     OW37714   2.348   1.920   2.323 -0.2923 -0.0061 -0.1067
 8694SOL    HW137715   2.265   1.876   2.306 -0.0252 -0.2913 -0.6539
 8694SOL    HW237716   2.389   1.916   2.237  0.7792  0.8649  0.3607
 8695SOL     OW37717   1.482   4.209   5.490  0.5556  0.0238  0.0200
 8695SOL    HW137718   1.443   4.267   5.555  0.6105 -0.1884  0.2373
 8695SOL    HW237719   1.529   4.271   5.433 -2.0254  0.9538 -1.0937
 8696SOL     OW37720   3.901   1.107  15.685 -0.0344  0.6690  0.2017
 8696SOL    HW137721   3.928   1.181  15.629  1.7133 -0.7798 -0.8607
 8696SOL    HW237722   3.806   1.114  15.671 -0.0468  1.6555  0.7955
 8697SOL     OW37723   1.850   2.694   9.296  0.5808  0.2209 -0.3372
 8697SOL    HW137724   1.913   2.741   9.241 -1.6306 -0.1583 -3.1909
 8697SOL    HW237725   1.901   2.693   9.377 -0.5111  1.8110  0.3784
 8698SOL     OW37726   0.892   2.221   5.432  0.3631  0.2454  0.3936
 8698SOL    HW137727   0.883   2.150   5.495  4.9009 -0.3804  0.3149
 8698SOL    HW237728   0.870   2.293   5.491  0.7006  1.9316 -1.5358
 8699SOL     OW37729   2.773   1.167   1.984  0.1641  0.3043 -0.5397
 8699SOL    HW137730   2.832   1.237   1.956  0.9396  0.1032  0.5900
 8699SOL    HW237731   2.837   1.098   1.969 -1.2095 -0.4976 -2.7255
 8700SOL     OW37732   4.532   2.243  15.233  0.0040  0.9582 -0.2740
 8700SOL    HW137733   4.459   2.303  15.216  0.1744  1.1695 -0.2563
 8700SOL    HW237734   4.498   2.195  15.308 -0.2847  3.1336  0.9882
 8701SOL     OW37735   3.181   2.227   3.306 -0.5283 -0.2736  0.0712
 8701SOL    HW137736   3.148   2.314   3.281 -1.5002 -0.1902  1.6327
 8701SOL    HW237737   3.274   2.246   3.319 -0.3909 -0.2203 -1.0343
 8702SOL     OW37738   3.974   0.887   0.193 -0.0534 -0.0565 -0.0310
 8702SOL    HW137739   3.881   0.911   0.196  0.1135  0.4952  0.8139
 8702SOL    HW237740   4.018   0.961   0.152  0.2737  0.2496  0.8617
 8703SOL     OW37741   1.936   3.915   9.140 -0.0593  0.6407 -0.2513
 8703SOL    HW137742   1.968   3.926   9.051  0.0536 -2.8151 -0.6409
 8703SOL    HW237743   2.011   3.958   9.181 -0.2955  0.0422  0.8257
 8704SOL     OW37744   0.794   0.029  11.801 -0.2046  0.5462  0.0653
 8704SOL    HW137745   0.828   0.119  11.801 -0.0035  0.4723 -0.7710
 8704SOL    HW237746   0.846   4.727  11.872  0.8598 -0.9670 -1.4876
 8705SOL     OW37747   3.814   2.649   4.765  0.0834 -0.5975  0.4813
 8705SOL    HW137748   3.739   2.635   4.707  1.6829 -1.3780 -1.3571
 8705SOL    HW237749   3.758   2.654   4.843 -0.9250  1.1018 -0.3532
 8706SOL     OW37750   4.537   2.967   3.454  0.2446 -0.4353 -0.2605
 8706SOL    HW137751   4.454   2.978   3.499  1.8897 -2.3383  3.2091
 8706SOL    HW237752   4.505   2.963   3.364  1.0378  2.2934 -0.6609
 8707SOL     OW37753   1.803   3.486   7.239 -0.0090  0.7315  0.2786
 8707SOL    HW137754   1.707   3.481   7.240  0.0282 -0.0186  0.1365
 8707SOL    HW237755   1.809   3.545   7.163  2.0502 -0.5023 -0.4958
 8708SOL     OW37756   1.140   0.938  13.383  0.0744 -0.4016  0.0338
 8708SOL    HW137757   1.064   0.914  13.330 -0.3023  0.7481  0.0635
 8708SOL    HW237758   1.111   0.904  13.468  1.4395  0.7485  0.9539
 8709SOL     OW37759   3.773   1.440   6.604 -0.4535  0.2918  0.2449
 8709SOL    HW137760   3.758   1.366   6.545 -0.0798  0.1353  0.3476
 8709SOL    HW237761   3.746   1.510   6.544  0.2299  0.1670 -0.2005
 8710SOL     OW37762   0.130   1.659  12.671 -0.4251  0.1036  0.3351
 8710SOL    HW137763   0.161   1.573  12.700 -1.8083 -0.1586  1.0427
 8710SOL    HW237764   0.054   1.676  12.726 -1.5857 -2.0797 -0.5561
 8711SOL     OW37765   2.382   0.709   8.988 -0.0656  0.3713 -0.1493
 8711SOL    HW137766   2.407   0.789   8.943  0.6588  0.3159  0.1605
 8711SOL    HW237767   2.377   0.749   9.075  1.8516  0.9119 -0.2912
 8712SOL     OW37768   3.755   3.887   6.449  0.1721  0.5903 -0.3546
 8712SOL    HW137769   3.763   3.822   6.378 -2.7229  0.7921 -0.8486
 8712SOL    HW237770   3.661   3.888   6.466  0.1396 -0.0801 -0.4917
 8713SOL     OW37771   2.548   2.495   2.813 -0.1046  0.7259 -0.1207
 8713SOL    HW137772   2.510   2.520   2.728  0.4296  0.5852 -0.4001
 8713SOL    HW237773   2.639   2.498   2.785  0.3616  1.4469  1.5196
 8714SOL     OW37774   1.158   0.190   4.461  0.2645 -0.1458  0.4302
 8714SOL    HW137775   1.205   0.273   4.459 -2.2241  1.2365 -1.0084
 8714SOL    HW237776   1.221   0.119   4.472  1.2904  0.4855 -1.5523
 8715SOL     OW37777   3.928   2.527   8.463 -0.5043 -0.4897 -0.5675
 8715SOL    HW137778   3.936   2.458   8.530  1.1075  1.5550  1.3723
 8715SOL    HW237779   3.913   2.476   8.384 -1.8879  0.3950 -0.8606
 8716SOL     OW37780   1.627   1.493   3.209 -0.0689  0.1737  0.0827
 8716SOL    HW137781   1.605   1.538   3.291  0.1704  1.0352 -0.3260
 8716SOL    HW237782   1.584   1.541   3.138 -0.9031  0.2347  0.6157
 8717SOL     OW37783   1.538   2.965   5.217  0.4694  0.0693 -0.3379
 8717SOL    HW137784   1.517   2.905   5.288 -0.0366  1.6180  0.8099
 8717SOL    HW237785   1.488   3.042   5.244 -2.1320 -1.5420 -0.6148
 8718SOL     OW37786   1.775   1.529   9.652 -0.3761  0.2290  0.2771
 8718SOL    HW137787   1.853   1.498   9.700  0.8326  2.8803  0.0215
 8718SOL    HW237788   1.704   1.490   9.703 -1.1128 -1.0553 -1.7361
 8719SOL     OW37789   1.254   4.717   8.729 -0.1381 -0.5018 -0.2992
 8719SOL    HW137790   1.270   4.648   8.664 -0.4724 -0.7735 -0.0931
 8719SOL    HW237791   1.182   0.035   8.695 -0.5867  0.3111  1.9385
 8720SOL     OW37792   4.159   2.810  16.757  0.2540  0.2981 -0.0145
 8720SOL    HW137793   4.089   2.870  16.783  0.2213  1.3829 -2.6054
 8720SOL    HW237794   4.136   2.789  16.667  2.1003 -0.9123 -0.2192
 8721SOL     OW37795   3.787   3.240   6.517  0.1437  0.2770  0.1948
 8721SOL    HW137796   3.702   3.231   6.474 -0.4216 -0.0785  1.4049
 8721SOL    HW237797   3.763   3.322   6.560 -0.9112  0.8053 -1.4199
 8722SOL     OW37798   3.661   3.571   7.628 -0.4128 -0.1787 -0.0536
 8722SOL    HW137799   3.569   3.550   7.617 -0.7275  1.2462 -0.1721
 8722SOL    HW237800   3.670   3.640   7.562  0.8662 -1.5717 -1.3687
 8723SOL     OW37801   1.358   1.159  13.829  0.7573 -0.1178 -0.2333
 8723SOL    HW137802   1.280   1.142  13.776  1.2042 -1.6580 -0.3808
 8723SOL    HW237803   1.428   1.173  13.765 -0.9461 -1.8332 -2.4890
 8724SOL     OW37804   0.602   1.735   1.565  0.1007  0.4833  0.4132
 8724SOL    HW137805   0.557   1.651   1.565 -0.3153  0.7070  1.0717
 8724SOL    HW237806   0.688   1.716   1.527 -0.4488  0.0333 -0.6154
 8725SOL     OW37807   4.371   0.065   6.551 -0.1607 -0.8819  0.0445
 8725SOL    HW137808   4.450   0.101   6.510 -0.4822 -1.8933 -1.4489
 8725SOL    HW237809   4.409   0.036   6.634 -2.1771 -0.8810  0.9627
 8726SOL     OW37810   2.486   1.503   1.270  0.5742  0.0987 -0.1839
 8726SOL    HW137811   2.513   1.411   1.272  0.5429  0.0825 -0.5867
 8726SOL    HW237812   2.395   1.487   1.296  0.6872  0.8734  0.6681
 8727SOL     OW37813   2.031   1.412   7.064 -0.3384  0.2658 -0.4171
 8727SOL    HW137814   2.087   1.358   7.119  1.1671  1.7351 -0.5300
 8727SOL    HW237815   2.056   1.502   7.085 -1.0124  0.4731 -0.4998
 8728SOL     OW37816   2.849   0.495   6.391  0.2458 -0.0284  0.1549
 8728SOL    HW137817   2.805   0.440   6.456  2.4009 -1.2332  0.6037
 8728SOL    HW237818   2.797   0.576   6.386  1.5188  0.8528  1.2255
 8729SOL     OW37819   3.654   0.434   7.520 -0.2445 -0.5877  0.3257
 8729SOL    HW137820   3.736   0.402   7.484 -0.1885 -0.3881  0.2757
 8729SOL    HW237821   3.589   0.388   7.467 -0.1160  0.4033 -0.6895
 8730SOL     OW37822   0.409   1.165   2.543  0.1597  0.3225  0.3353
 8730SOL    HW137823   0.418   1.246   2.492 -2.3088  0.3703 -0.0187
 8730SOL    HW237824   0.408   1.105   2.469  0.1680 -1.3496  1.7018
 8731SOL     OW37825   4.190   4.153  11.837 -0.4443  0.4159  0.5344
 8731SOL    HW137826   4.138   4.083  11.875  1.7250 -0.8542  1.1695
 8731SOL    HW237827   4.138   4.223  11.878 -2.1655 -1.6567  1.8542
 8732SOL     OW37828   0.689   3.549   4.450  0.3435 -0.1456 -0.2145
 8732SOL    HW137829   0.618   3.491   4.479  1.7504 -0.2247  3.0928
 8732SOL    HW237830   0.650   3.633   4.470 -0.1993 -0.0542 -1.6594
 8733SOL     OW37831   1.865   1.353   4.109  0.4609  0.2472 -0.1893
 8733SOL    HW137832   1.936   1.391   4.057  1.1421 -1.1066 -0.2415
 8733SOL    HW237833   1.802   1.425   4.098 -1.1911 -1.3112 -0.9734
 8734SOL     OW37834   2.338   3.484   3.699 -0.7137 -0.1402 -0.2212
 8734SOL    HW137835   2.325   3.480   3.604  0.7436  1.5597 -0.4932
 8734SOL    HW237836   2.427   3.450   3.701 -0.5717  0.6285  4.3214
 8735SOL     OW37837   4.411   2.808  16.521 -0.2228  0.6365  0.5432
 8735SOL    HW137838   4.414   2.896  16.559 -1.9142  0.9356 -0.0316
 8735SOL    HW237839   4.468   2.767  16.587  2.0975  1.0318 -1.2047
 8736SOL     OW37840   0.366   4.326   5.618 -0.6478  0.1565  0.3288
 8736SOL    HW137841   0.278   4.292   5.599 -0.7019  1.0508 -1.0008
 8736SOL    HW237842   0.404   4.251   5.664  1.6244  0.0939 -1.6133
 8737SOL     OW37843   4.284   2.792   5.606 -0.2529 -0.2092 -0.3611
 8737SOL    HW137844   4.285   2.885   5.583  1.9477 -0.3715 -0.9306
 8737SOL    HW237845   4.266   2.794   5.701 -1.4393 -0.4239 -0.5759
 8738SOL     OW37846   3.710   0.352  10.605  0.4639 -0.6247  0.1768
 8738SOL    HW137847   3.649   0.423  10.624  0.5439 -0.4728 -0.1334
 8738SOL    HW237848   3.794   0.387  10.575 -0.5156 -0.3419 -2.2226
 8739SOL     OW37849   4.189   1.420   3.358  0.3454  0.2662 -0.7329
 8739SOL    HW137850   4.204   1.367   3.280  0.7645 -2.1515  0.9818
 8739SOL    HW237851   4.275   1.414   3.402 -0.5862  0.6831  1.1463
 8740SOL     OW37852   4.450   2.293  15.950 -0.6102  0.2217 -0.1500
 8740SOL    HW137853   4.447   2.364  16.015  3.3524 -0.3948  0.6772
 8740SOL    HW237854   4.400   2.329  15.877 -1.5476  0.9010  0.8307
 8741SOL     OW37855   1.567   1.158  14.260 -0.1254 -0.9835 -0.3347
 8741SOL    HW137856   1.500   1.217  14.295 -0.1810  0.5885 -3.1115
 8741SOL    HW237857   1.639   1.221  14.253 -0.8949 -0.2895 -2.0239
 8742SOL     OW37858   2.104   4.439   7.323  0.0103 -0.4643  0.4768
 8742SOL    HW137859   2.127   4.515   7.269 -0.6819 -0.3205  0.3844
 8742SOL    HW237860   2.188   4.393   7.318 -1.3229 -2.8863  0.4694
 8743SOL     OW37861   4.686   3.190   4.817 -0.1245 -0.0438 -0.6316
 8743SOL    HW137862   4.661   3.196   4.725 -2.0319 -1.6424 -0.2286
 8743SOL    HW237863   4.609   3.234   4.855  1.2412 -0.8248  2.9922
 8744SOL     OW37864   1.237   1.780   4.789  0.0180  0.1348 -0.5464
 8744SOL    HW137865   1.184   1.842   4.839 -1.2620 -0.3866 -1.2784
 8744SOL    HW237866   1.326   1.807   4.814  0.1385 -1.8877  1.2407
 8745SOL     OW37867   2.000   2.043   0.659 -1.0673  0.3272 -0.0410
 8745SOL    HW137868   2.027   2.135   0.653  0.5114 -0.1956 -0.8165
 8745SOL    HW237869   2.059   2.019   0.731  1.5406  0.2295 -2.2065
 8746SOL     OW37870   3.166   4.400   8.078  0.4743 -0.8317 -0.1910
 8746SOL    HW137871   3.158   4.350   8.159  1.9882 -1.7864 -0.6431
 8746SOL    HW237872   3.259   4.413   8.098 -0.0738  2.9535 -0.0299
 8747SOL     OW37873   2.925   4.218  12.732 -0.4065 -0.3592  0.5027
 8747SOL    HW137874   2.897   4.223  12.640 -1.3605  0.8218  0.8603
 8747SOL    HW237875   2.988   4.145  12.725 -2.1253 -1.8848  0.8890
 8748SOL     OW37876   4.515   3.098   5.409  0.1766  0.6679  0.4770
 8748SOL    HW137877   4.527   3.180   5.362  3.5965  0.5437  1.1277
 8748SOL    HW237878   4.467   3.056   5.338  1.9440  0.7486 -0.7446
 8749SOL     OW37879   2.482   2.792   8.488  0.3629  0.1111  0.4138
 8749SOL    HW137880   2.414   2.856   8.464  0.3876  0.2735  0.7829
 8749SOL    HW237881   2.491   2.748   8.403 -0.4191  2.7712 -1.0355
 8750SOL     OW37882   3.490   2.424  12.691 -0.1023  0.5608  0.5398
 8750SOL    HW137883   3.507   2.469  12.774  1.0636  0.9431  0.0961
 8750SOL    HW237884   3.432   2.487  12.648  0.8333  1.9957  1.3790
 8751SOL     OW37885   0.351   0.373   5.464  0.2044 -0.3285  0.7348
 8751SOL    HW137886   0.407   0.407   5.533  2.0607  0.3332 -1.0860
 8751SOL    HW237887   0.385   0.284   5.453 -0.9050 -0.7820  0.9792
 8752SOL     OW37888   2.625   0.745   2.479  0.1320 -0.3892 -0.1460
 8752SOL    HW137889   2.683   0.682   2.435  0.8148 -0.3759  0.7302
 8752SOL    HW237890   2.648   0.724   2.570  0.3784 -0.4174 -0.2142
 8753SOL     OW37891   3.234   1.792   4.676 -0.4458 -0.9429  0.4628
 8753SOL    HW137892   3.165   1.729   4.655 -1.7875  0.9495 -0.8554
 8753SOL    HW237893   3.278   1.752   4.751 -0.4884 -0.0371  0.9829
 8754SOL     OW37894   3.356   4.628   9.465 -0.3840  0.6616 -0.1581
 8754SOL    HW137895   3.278   4.657   9.514 -0.0225  1.0488  0.1854
 8754SOL    HW237896   3.414   4.694   9.503  0.5725 -0.3376  0.0947
 8755SOL     OW37897   1.964   2.009   5.340  0.5931 -0.4677 -0.0647
 8755SOL    HW137898   1.966   1.943   5.410 -2.1910 -1.8845 -1.3491
 8755SOL    HW237899   1.937   1.969   5.258 -2.2343  0.9836  0.1569
 8756SOL     OW37900   0.473   3.435   3.424 -0.4382 -0.1999 -0.3668
 8756SOL    HW137901   0.422   3.452   3.345  1.5328  1.7574 -1.2106
 8756SOL    HW237902   0.418   3.485   3.485 -0.3684 -0.0444 -0.4340
 8757SOL     OW37903   4.437   1.435   5.927  0.3583 -0.3624 -0.0027
 8757SOL    HW137904   4.474   1.430   5.839  0.9857  2.2492  0.1019
 8757SOL    HW237905   4.342   1.435   5.914  0.6328  2.9937 -2.0191
 8758SOL     OW37906   1.110   2.031   3.932  0.2233 -0.1189 -0.0142
 8758SOL    HW137907   1.120   2.090   4.007 -1.6614 -0.6110  0.6379
 8758SOL    HW237908   1.194   1.985   3.934 -1.9203 -3.9926  1.2123
 8759SOL     OW37909   1.499   0.603   7.890 -0.4907 -0.3762 -0.0469
 8759SOL    HW137910   1.428   0.661   7.862  1.0352  1.0771 -0.8985
 8759SOL    HW237911   1.450   0.525   7.915 -2.4691  0.9109  0.1186
 8760SOL     OW37912   3.001   3.023   7.055 -0.2908 -0.1689 -0.4699
 8760SOL    HW137913   2.914   2.989   7.031 -0.3622  0.8746 -1.7014
 8760SOL    HW237914   3.019   3.096   6.996 -0.3724  0.0880 -0.1709
 8761SOL     OW37915   0.145   3.821   6.154  0.1559 -0.2855  0.0093
 8761SOL    HW137916   0.102   3.834   6.239 -0.2544 -0.2457 -0.2032
 8761SOL    HW237917   0.168   3.730   6.173  0.6221 -0.7783 -3.0810
 8762SOL     OW37918   0.448   3.805   1.088  0.1452  0.3560 -0.1608
 8762SOL    HW137919   0.469   3.898   1.088  1.4619  0.0660  0.2538
 8762SOL    HW237920   0.384   3.802   1.017  2.6285  0.8599 -2.4382
 8763SOL     OW37921   2.026   3.962  17.594 -0.7337  0.2095  0.0483
 8763SOL    HW137922   2.053   3.934  17.507  0.7964 -0.2140  0.6749
 8763SOL    HW237923   1.969   4.038  17.582 -0.2942  0.8791  2.1623
 8764SOL     OW37924   1.179   2.623   2.260 -0.3213  0.4283  0.0227
 8764SOL    HW137925   1.174   2.568   2.339 -2.5054 -0.4842 -0.7503
 8764SOL    HW237926   1.267   2.601   2.229  0.2254 -0.2534  2.0295
 8765SOL     OW37927   4.643   3.174   1.079 -0.0019 -0.2208  0.2013
 8765SOL    HW137928   4.550   3.189   1.097  0.4063  0.3165  1.8653
 8765SOL    HW237929   4.649   3.173   0.984 -1.7339 -3.9480  0.1211
 8766SOL     OW37930   1.266   3.228   3.687 -0.5949  0.5825 -0.0008
 8766SOL    HW137931   1.272   3.319   3.658  0.2511  0.4951 -0.1007
 8766SOL    HW237932   1.250   3.236   3.781  1.6710  0.7880  0.3783
 8767SOL     OW37933   3.494   2.005   4.116 -0.1848  0.5556  0.2655
 8767SOL    HW137934   3.410   2.025   4.074  0.5193  1.3913 -0.7424
 8767SOL    HW237935   3.525   1.929   4.066 -0.6088 -0.1137  1.0241
 8768SOL     OW37936   3.444   0.023   7.678 -0.0425 -0.0041 -0.4063
 8768SOL    HW137937   3.384   0.097   7.690 -1.0848 -0.9013 -0.1148
 8768SOL    HW237938   3.417   0.010   7.587 -2.2157 -0.9520  0.3674
 8769SOL     OW37939   3.640   1.611   8.346 -0.4124  0.4805 -0.2704
 8769SOL    HW137940   3.602   1.699   8.344  2.6652  1.8643  1.8790
 8769SOL    HW237941   3.712   1.636   8.288 -0.5416 -0.7871 -0.9599
 8770SOL     OW37942   1.830   2.272   5.336  0.2409 -0.3921 -0.3052
 8770SOL    HW137943   1.886   2.196   5.350  1.5661  0.7281  0.4460
 8770SOL    HW237944   1.747   2.225   5.325  0.6657 -1.4248  0.9907
 8771SOL     OW37945   0.562   0.942  15.043  0.0272 -0.2100 -0.3429
 8771SOL    HW137946   0.520   0.983  14.967 -2.1312  0.2320  1.0977
 8771SOL    HW237947   0.539   1.008  15.107 -0.5779 -0.7189 -0.0409
 8772SOL     OW37948   3.549   1.832  17.145 -0.1009 -0.5461 -0.0795
 8772SOL    HW137949   3.617   1.853  17.210 -1.0415 -1.6158  1.2485
 8772SOL    HW237950   3.495   1.768  17.191 -0.3357 -2.3219 -2.8192
 8773SOL     OW37951   2.109   4.642   8.542 -0.6273  0.3956  0.4222
 8773SOL    HW137952   2.153   4.724   8.520 -1.0351  0.3816 -0.4612
 8773SOL    HW237953   2.058   4.617   8.465  0.7030 -0.6006 -0.1266
 8774SOL     OW37954   1.521   3.939  12.814  0.0836 -0.3585 -0.0814
 8774SOL    HW137955   1.546   3.946  12.906  0.2305 -1.0479 -0.0722
 8774SOL    HW237956   1.598   3.900  12.774 -0.8686 -2.6101  0.2807
 8775SOL     OW37957   2.457   4.126   3.121  0.4684 -0.1656 -0.7929
 8775SOL    HW137958   2.509   4.201   3.090 -1.6299  0.6599 -2.3324
 8775SOL    HW237959   2.508   4.091   3.194 -2.8144 -1.4783  0.8734
 8776SOL     OW37960   0.085   2.497   1.800 -0.2216 -0.1922 -0.2365
 8776SOL    HW137961   0.067   2.406   1.777  1.2506 -0.6846  0.5458
 8776SOL    HW237962   4.731   2.519   1.829  0.6756  1.9211  0.9556
 8777SOL     OW37963   4.306   1.421   2.019 -0.7371  0.8576 -0.0556
 8777SOL    HW137964   4.296   1.326   2.029 -1.6975  0.8047 -1.7095
 8777SOL    HW237965   4.221   1.451   1.988 -0.7592  2.4337  1.4887
 8778SOL     OW37966   0.851   0.626  11.783 -0.5071 -0.1032 -0.0032
 8778SOL    HW137967   0.805   0.709  11.794 -0.7113 -0.2429  0.1703
 8778SOL    HW237968   0.917   0.640  11.851  0.4540  0.0447 -0.9597
 8779SOL     OW37969   1.067   2.092   6.445 -0.2523  0.4162 -0.0811
 8779SOL    HW137970   1.048   2.071   6.537  1.4702 -0.7898 -0.0149
 8779SOL    HW237971   0.981   2.075   6.408 -0.5237  1.7967 -0.0909
 8780SOL     OW37972   3.927   0.823  12.622 -0.3879  0.0117  0.1118
 8780SOL    HW137973   4.015   0.849  12.652  0.1044 -1.4891 -0.0460
 8780SOL    HW237974   3.961   0.743  12.582 -2.3046 -0.3045 -0.8661
 8781SOL     OW37975   4.256   1.751   2.472  0.1460 -0.4297  0.0105
 8781SOL    HW137976   4.184   1.787   2.421  1.7214  2.2134 -0.3713
 8781SOL    HW237977   4.216   1.704   2.545 -0.9228  0.1836 -0.1811
 8782SOL     OW37978   3.151   2.630   2.321 -0.0143 -0.2096 -0.0061
 8782SOL    HW137979   3.078   2.586   2.276 -0.4624  0.5483 -0.0073
 8782SOL    HW237980   3.217   2.622   2.252  0.1961 -1.8530  0.3820
 8783SOL     OW37981   0.845   0.062   5.993  0.0510 -0.2172 -0.2856
 8783SOL    HW137982   0.858   0.140   6.046  0.8962  0.5076 -1.5567
 8783SOL    HW237983   0.774   0.015   6.038 -1.8159  1.8002 -1.0791
 8784SOL     OW37984   1.351   0.434   0.189 -0.2965 -0.4261 -0.1920
 8784SOL    HW137985   1.310   0.378   0.124 -1.2605 -0.1590  0.1900
 8784SOL    HW237986   1.440   0.437   0.152 -0.0246 -0.8570  0.4410
 8785SOL     OW37987   1.679   1.569   2.338 -0.0827 -0.7290 -0.1434
 8785SOL    HW137988   1.629   1.495   2.372 -1.5811 -0.0137 -0.7797
 8785SOL    HW237989   1.741   1.588   2.408 -0.3709  1.3168 -0.4242
 8786SOL     OW37990   4.674   1.299   3.395  0.2671  0.1127 -0.1540
 8786SOL    HW137991   4.688   1.215   3.438  0.7584 -0.3626 -1.2336
 8786SOL    HW237992   4.680   1.357   3.471  1.2108  0.2412 -0.3131
 8787SOL     OW37993   3.939   1.699  12.306 -0.5347 -0.2060 -0.2238
 8787SOL    HW137994   4.026   1.709  12.345 -0.2145  1.7893 -1.4590
 8787SOL    HW237995   3.936   1.778  12.252 -1.2461 -2.5002 -3.5947
 8788SOL     OW37996   2.294   3.395   1.680  0.3395  0.0774  0.7594
 8788SOL    HW137997   2.323   3.486   1.677  1.9773 -0.4779 -1.0342
 8788SOL    HW237998   2.375   3.348   1.699  1.2932  1.5045  0.2796
 8789SOL     OW37999   3.499   2.032  14.352 -0.3674  0.2311  0.3775
 8789SOL    HW138000   3.474   2.091  14.282  0.2358 -0.7067 -0.6315
 8789SOL    HW238001   3.543   1.964  14.300 -0.0114 -1.1359  2.4361
 8790SOL     OW38002   1.583   1.665   1.586  0.6548 -0.2008  0.0906
 8790SOL    HW138003   1.669   1.624   1.574  0.5038 -0.4797 -0.0426
 8790SOL    HW238004   1.578   1.731   1.518 -0.5264  0.5710  0.9180
 8791SOL     OW38005   3.096   3.063   4.376  0.4169  0.8005 -0.3216
 8791SOL    HW138006   3.027   3.056   4.309  1.7584  2.2043 -1.8458
 8791SOL    HW238007   3.110   2.974   4.408  3.2877  1.4822  0.2616
 8792SOL     OW38008   4.658   0.734   5.422 -0.1500 -0.7992  0.0314
 8792SOL    HW138009   4.668   0.719   5.516 -5.0182 -1.1593  0.4924
 8792SOL    HW238010   4.590   0.802   5.421 -0.5158 -1.1825 -0.9254
 8793SOL     OW38011   3.271   1.495  14.878 -0.5725  0.5164 -0.2266
 8793SOL    HW138012   3.361   1.473  14.903 -1.1941 -0.8340  0.8551
 8793SOL    HW238013   3.227   1.429  14.931 -2.0099  0.1339 -1.8838
 8794SOL     OW38014   1.781   1.126  16.651  0.0974  0.1523 -0.2694
 8794SOL    HW138015   1.738   1.041  16.659  0.1757  0.2344  1.1816
 8794SOL    HW238016   1.706   1.175  16.619  0.2598  0.5495 -0.0464
 8795SOL     OW38017   1.378   4.341   6.249  0.1575 -0.4241  0.4436
 8795SOL    HW138018   1.377   4.262   6.303 -0.5714 -0.5329  0.2806
 8795SOL    HW238019   1.375   4.411   6.314  0.3569 -0.9004  0.9650
 8796SOL     OW38020   1.838   4.711   2.105 -0.2133 -0.2617  0.1923
 8796SOL    HW138021   1.772   0.026   2.153  0.1482 -0.2676  0.7005
 8796SOL    HW238022   1.790   4.681   2.028  1.2925 -0.2047 -0.7770
 8797SOL     OW38023   3.974   3.233  10.341  0.3221 -0.1787  0.1863
 8797SOL    HW138024   3.977   3.269  10.430 -1.0206 -3.3452  1.4989
 8797SOL    HW238025   3.992   3.142  10.362  0.4746 -0.4312 -1.0551
 8798SOL     OW38026   4.648   4.710   4.626 -0.0538 -0.1069  0.0450
 8798SOL    HW138027   4.625   4.733   4.535 -0.1849  0.2066  0.1560
 8798SOL    HW238028   0.008   4.707   4.615 -0.3684  0.5948 -2.9548
 8799SOL     OW38029   4.474   0.589   4.770  0.4446  0.0013  0.4755
 8799SOL    HW138030   4.404   0.610   4.708 -0.8611  2.2338  2.6909
 8799SOL    HW238031   4.547   0.568   4.713  0.3639  0.0536  0.3531
 8800SOL     OW38032   3.191   1.990  12.291  0.3850  0.6396 -0.2892
 8800SOL    HW138033   3.183   2.075  12.333 -1.8795 -0.4983  1.5714
 8800SOL    HW238034   3.145   2.011  12.209  3.0351  0.8762 -1.7241
 8801SOL     OW38035   0.633   3.169   8.871  0.4506 -0.0381 -0.0170
 8801SOL    HW138036   0.631   3.187   8.777 -1.2026 -1.4355 -0.2249
 8801SOL    HW238037   0.592   3.083   8.879  2.2970 -0.9976 -0.7182
 8802SOL     OW38038   0.510   2.934   8.858 -0.1801 -0.0795  0.1071
 8802SOL    HW138039   0.516   2.878   8.936  0.4662 -1.5533 -1.0218
 8802SOL    HW238040   0.479   2.869   8.795 -0.7961  0.5651 -0.2560
 8803SOL     OW38041   2.590   1.629   5.345  0.5902 -0.4657 -0.6022
 8803SOL    HW138042   2.620   1.631   5.255 -0.1448 -0.4431 -0.8442
 8803SOL    HW238043   2.610   1.717   5.378  2.3408 -0.2870 -2.1329
 8804SOL     OW38044   2.696   0.423   4.442 -0.3478 -0.0812 -0.2277
 8804SOL    HW138045   2.782   0.443   4.405  0.3003 -0.9189  0.8687
 8804SOL    HW238046   2.649   0.507   4.440 -0.6870 -0.2235  2.5019
 8805SOL     OW38047   1.023   4.118   6.317 -0.1090  0.2097  0.5968
 8805SOL    HW138048   0.979   4.202   6.302 -2.3113 -1.0442  0.0146
 8805SOL    HW238049   0.988   4.064   6.246 -2.8031  1.1971  1.1650
 8806SOL     OW38050   2.129   2.897   6.044  0.6546  0.1174 -0.3879
 8806SOL    HW138051   2.135   2.816   6.094  1.0051 -0.7315 -1.8068
 8806SOL    HW238052   2.162   2.957   6.111  2.5993 -1.8433  0.4152
 8807SOL     OW38053   0.124   4.425   2.595  0.1439 -0.1319  0.7302
 8807SOL    HW138054   0.183   4.498   2.613 -1.2025  1.3251 -0.7201
 8807SOL    HW238055   0.188   4.354   2.601  0.8512  0.3799 -0.8202
 8808SOL     OW38056   1.726   2.066  10.853 -0.8937 -0.0295 -0.6741
 8808SOL    HW138057   1.721   2.159  10.876  0.4613  0.2836 -1.6450
 8808SOL    HW238058   1.695   2.020  10.930  0.6947  0.0252 -0.0125
 8809SOL     OW38059   1.264   1.926   5.243  0.3745  0.0253  0.0347
 8809SOL    HW138060   1.334   1.975   5.286  0.7363  1.2711 -1.9867
 8809SOL    HW238061   1.311   1.874   5.178 -0.2713 -1.0843  0.4559
 8810SOL     OW38062   2.303   2.736  14.158  0.6292 -0.1416  0.2174
 8810SOL    HW138063   2.219   2.701  14.127 -0.4306  1.0838  1.6548
 8810SOL    HW238064   2.318   2.683  14.236  0.5666 -1.5307 -0.7180
 8811SOL     OW38065   1.238   0.092   8.015 -0.0595  0.0586 -0.2760
 8811SOL    HW138066   1.222   0.089   7.920 -0.3933 -3.0510 -0.1160
 8811SOL    HW238067   1.191   0.171   8.041 -1.0803 -0.3468 -0.9088
 8812SOL     OW38068   0.471   2.980   4.084 -0.0209 -0.5563 -0.0598
 8812SOL    HW138069   0.556   2.941   4.066 -0.1673 -1.2609  0.7256
 8812SOL    HW238070   0.506   3.069   4.078  3.0497 -1.7116  0.7262
 8813SOL     OW38071   4.623   2.179   7.420  0.0342  0.7003  0.1571
 8813SOL    HW138072   4.623   2.265   7.463  1.4113  1.9730 -2.3886
 8813SOL    HW238073   4.717   2.175   7.401 -0.0509  0.4524 -0.2064
 8814SOL     OW38074   0.315   3.115  13.479 -0.0785 -0.3669  0.0629
 8814SOL    HW138075   0.341   3.030  13.513  0.4160 -0.6067 -0.9017
 8814SOL    HW238076   0.349   3.116  13.389  1.2791 -2.1464  0.5601
 8815SOL     OW38077   0.788   0.937   0.254 -0.2244  0.2485  0.4901
 8815SOL    HW138078   0.793   0.861   0.196  1.6830 -0.1811  1.2287
 8815SOL    HW238079   0.710   0.916   0.307  0.6755 -1.5060  1.1012
 8816SOL     OW38080   0.353   3.556   0.676 -0.0700 -0.7296 -0.7287
 8816SOL    HW138081   0.315   3.643   0.663  0.5714 -0.1204  1.5515
 8816SOL    HW238082   0.379   3.530   0.588 -1.2687 -2.0636 -0.6888
 8817SOL     OW38083   4.466   3.064   6.814 -0.0969  0.1563 -0.4072
 8817SOL    HW138084   4.534   3.094   6.875 -0.5808 -0.3873  0.4031
 8817SOL    HW238085   4.385   3.093   6.857 -1.4836 -1.6409 -1.8216
 8818SOL     OW38086   3.932   1.776   9.044  0.3667  0.4705 -0.0380
 8818SOL    HW138087   3.982   1.751   8.967 -1.6474  0.9547 -1.5009
 8818SOL    HW238088   3.994   1.770   9.117 -1.2591  0.3199  1.3570
 8819SOL     OW38089   2.725   0.896  11.909  0.4464 -0.3421  0.6052
 8819SOL    HW138090   2.696   0.805  11.922 -0.5404 -0.0187  0.6501
 8819SOL    HW238091   2.640   0.924  11.875  0.0017 -2.3872 -0.0037
 8820SOL     OW38092   2.414   0.182   9.644  0.1897 -0.5094 -0.2015
 8820SOL    HW138093   2.412   0.102   9.592 -1.7434 -0.8022  0.3349
 8820SOL    HW238094   2.364   0.162   9.723 -0.8732  1.2595 -0.4158
 8821SOL     OW38095   2.747   0.093   7.186  0.2656 -0.0273 -0.2194
 8821SOL    HW138096   2.795   0.034   7.244 -1.2385 -0.6872  0.3842
 8821SOL    HW238097   2.790   0.077   7.102  3.3073 -0.1560  1.3762
 8822SOL     OW38098   1.429   3.565   9.312  0.4608 -0.0320  0.0130
 8822SOL    HW138099   1.338   3.544   9.332  0.5972  0.4957  1.2263
 8822SOL    HW238100   1.473   3.495   9.362  0.8893  0.7082  0.6672
 8823SOL     OW38101   2.337   0.380  16.137 -0.0183 -0.2735 -0.1435
 8823SOL    HW138102   2.252   0.343  16.157  0.5725 -1.4688  0.1358
 8823SOL    HW238103   2.325   0.408  16.046 -1.8831  0.0973  0.2165
 8824SOL     OW38104   0.521   2.751   4.362 -0.1729 -0.2662 -0.1219
 8824SOL    HW138105   0.563   2.836   4.377 -0.6507 -0.2100  0.9365
 8824SOL    HW238106   0.519   2.724   4.454  0.7105  0.8491  0.2261
 8825SOL     OW38107   0.092   1.979   9.303 -0.2486 -0.0717  0.0711
 8825SOL    HW138108   4.734   1.964   9.317 -0.3883  0.2194 -0.5570
 8825SOL    HW238109   0.114   2.013   9.390 -0.7425 -1.4139  0.7236
 8826SOL     OW38110   2.003   3.309  16.987  0.0464 -0.1776 -0.5497
 8826SOL    HW138111   2.029   3.275  17.073  0.6919  2.5119  0.3078
 8826SOL    HW238112   2.077   3.287  16.930 -0.6956  0.5349 -1.7768
 8827SOL     OW38113   2.210   1.821  11.501  0.0151 -0.0389 -0.3012
 8827SOL    HW138114   2.289   1.771  11.522  0.2536  0.5018  0.0839
 8827SOL    HW238115   2.209   1.822  11.405  2.7061 -0.6403 -0.3207
 8828SOL     OW38116   4.500   2.421   7.661 -0.5020 -0.3313  0.0397
 8828SOL    HW138117   4.442   2.481   7.614 -2.1312 -1.8087  0.1620
 8828SOL    HW238118   4.443   2.345   7.677 -1.8200  1.2042  2.6451
 8829SOL     OW38119   2.387   4.417   2.509 -0.0009  0.4006 -0.3774
 8829SOL    HW138120   2.376   4.512   2.499 -0.3137  0.3338 -0.6424
 8829SOL    HW238121   2.343   4.386   2.430 -0.9976  0.1759  0.2791
 8830SOL     OW38122   0.830   2.429   7.910 -0.3526 -0.1981 -0.4384
 8830SOL    HW138123   0.867   2.344   7.886  1.2000 -0.0153  1.3712
 8830SOL    HW238124   0.820   2.481   7.830 -1.1885 -0.2437 -0.3682
 8831SOL     OW38125   1.873   2.700   2.530  0.1642  0.2415 -0.5479
 8831SOL    HW138126   1.853   2.608   2.514 -0.5082  0.1895  0.5816
 8831SOL    HW238127   1.827   2.754   2.466 -0.5395  1.4580  0.9962
 8832SOL     OW38128   0.919   0.116   7.902 -0.3578 -0.3623  0.4124
 8832SOL    HW138129   0.934   0.023   7.922 -1.4004 -0.8942 -1.3037
 8832SOL    HW238130   0.896   0.125   7.810 -1.7706 -1.1567  0.6927
 8833SOL     OW38131   3.826   0.899  12.946  0.0956 -0.7727  0.0340
 8833SOL    HW138132   3.775   0.836  12.895 -1.1126  0.4022 -0.1975
 8833SOL    HW238133   3.758   0.963  12.962 -0.3809 -1.1427 -0.5175
 8834SOL     OW38134   4.350   4.441   5.472  0.0796 -0.2102  0.1074
 8834SOL    HW138135   4.305   4.525   5.463  2.0027  0.8012 -0.1062
 8834SOL    HW238136   4.308   4.434   5.557 -0.9585 -0.4665 -0.4309
 8835SOL     OW38137   0.414   0.495   2.190  0.5663 -0.0993  0.4929
 8835SOL    HW138138   0.385   0.410   2.222 -2.0425 -0.2830 -2.3601
 8835SOL    HW238139   0.443   0.528   2.275  2.6870 -1.4805  0.3043
 8836SOL     OW38140   4.546   3.890   3.303  0.0257  0.1748  0.0930
 8836SOL    HW138141   4.566   3.962   3.243  1.4367  1.5641  2.1999
 8836SOL    HW238142   4.541   3.934   3.388 -1.9481  1.0843 -0.4941
 8837SOL     OW38143   1.949   2.320   3.213 -0.2963 -0.9537  0.4285
 8837SOL    HW138144   1.896   2.246   3.241 -0.0521 -1.0395  0.6659
 8837SOL    HW238145   2.040   2.289   3.220  0.7844  1.7563 -1.5812
 8838SOL     OW38146   4.040   2.014   6.110 -0.2855 -0.1678  0.1976
 8838SOL    HW138147   3.998   1.933   6.139  2.5816 -1.2414  1.3431
 8838SOL    HW238148   4.061   2.043   6.199  0.8937 -1.4099  0.3092
 8839SOL     OW38149   2.642   0.473   9.902 -0.3291  0.3128  0.0977
 8839SOL    HW138150   2.718   0.462   9.844  1.3020  1.5280  1.9893
 8839SOL    HW238151   2.687   0.478   9.987 -2.4003  0.2682  1.1907
 8840SOL     OW38152   0.278   2.129   6.602 -0.2419 -0.0626 -0.1777
 8840SOL    HW138153   0.206   2.153   6.660  0.5801 -0.7196  1.1047
 8840SOL    HW238154   0.267   2.181   6.522 -0.2170 -0.4695 -0.4408
 8841SOL     OW38155   1.462   1.577  15.933  0.5926 -0.4980  0.0192
 8841SOL    HW138156   1.520   1.601  16.005 -1.7099  3.3102  0.5880
 8841SOL    HW238157   1.394   1.533  15.985 -0.4698 -0.9497 -1.7429
 8842SOL     OW38158   4.576   0.961   4.885 -0.5430  0.3685 -0.1234
 8842SOL    HW138159   4.611   1.049   4.870  4.0655 -0.8073  3.7780
 8842SOL    HW238160   4.502   0.965   4.825  1.1440 -2.1629 -2.3553
 8843SOL     OW38161   3.081   3.442   6.122 -0.0417  0.5495  0.1249
 8843SOL    HW138162   3.117   3.530   6.133 -0.6164  1.0701 -2.0278
 8843SOL    HW238163   2.987   3.459   6.114  0.3268  2.7346  0.5013
 8844SOL     OW38164   2.005   3.031   3.781 -0.1577  0.4324  0.0243
 8844SOL    HW138165   1.935   3.092   3.805 -0.0575  0.7036 -0.3623
 8844SOL    HW238166   1.964   2.949   3.757  1.5211 -0.1550 -0.8927
 8845SOL     OW38167   3.791   0.410   9.133  0.4261  0.5228 -0.6485
 8845SOL    HW138168   3.753   0.373   9.212  1.1016  2.8959  0.7872
 8845SOL    HW238169   3.722   0.393   9.069 -1.3305  0.3252  1.3096
 8846SOL     OW38170   1.404   2.845   0.139 -0.4255 -0.0097 -0.1007
 8846SOL    HW138171   1.460   2.875   0.067  0.1190 -3.6009 -1.1642
 8846SOL    HW238172   1.366   2.927   0.172 -3.0447 -0.8210 -1.0854
 8847SOL     OW38173   0.929   1.110   7.195  0.0394 -0.5950 -0.0097
 8847SOL    HW138174   1.004   1.052   7.195  1.0745  0.7366  0.8109
 8847SOL    HW238175   0.878   1.091   7.116  0.6165  0.8883 -0.7484
 8848SOL     OW38176   3.192   3.163   3.671  0.7072 -0.0556  0.1416
 8848SOL    HW138177   3.194   3.243   3.618 -3.3292 -0.9975 -1.3811
 8848SOL    HW238178   3.263   3.118   3.624 -0.1298  0.4163 -1.5825
 8849SOL     OW38179   2.289   4.035   8.447  0.1513 -0.2778  0.4488
 8849SOL    HW138180   2.323   4.049   8.359  1.3590 -0.0631  0.9543
 8849SOL    HW238181   2.314   3.946   8.470 -0.8156 -0.6458  0.0982
 8850SOL     OW38182   4.399   4.650   4.293  0.5058 -0.4878 -0.2268
 8850SOL    HW138183   4.362   4.719   4.239 -3.1072 -0.4545  2.3314
 8850SOL    HW238184   4.480   4.689   4.326 -0.7127  0.6032  1.4502
 8851SOL     OW38185   2.297   4.305  14.116  0.3175 -0.1559 -0.1529
 8851SOL    HW138186   2.383   4.294  14.076  0.9720 -0.9218  1.4475
 8851SOL    HW238187   2.251   4.225  14.094  0.6747 -0.5625  0.5801
 8852SOL     OW38188   4.282   3.198   6.949 -0.6094 -0.1191  0.3683
 8852SOL    HW138189   4.343   3.187   7.022 -2.3143  1.7816  2.0928
 8852SOL    HW238190   4.285   3.293   6.937 -0.1455 -0.4403 -2.0395
 8853SOL     OW38191   0.443   0.737   7.320  0.1127 -0.4649  0.0292
 8853SOL    HW138192   0.492   0.724   7.401  0.5377  2.5316  0.2717
 8853SOL    HW238193   0.515   0.744   7.257  1.1700  0.4016  1.3344
 8854SOL     OW38194   3.823   0.726  16.873 -0.1294 -0.5198 -0.6756
 8854SOL    HW138195   3.754   0.744  16.808 -2.4360  2.0769  2.4975
 8854SOL    HW238196   3.898   0.703  16.818 -0.9884 -2.2271 -1.1372
 8855SOL     OW38197   3.581   2.103   5.152 -0.4876  0.5625  0.5665
 8855SOL    HW138198   3.666   2.066   5.177 -1.3175 -2.9232 -1.8225
 8855SOL    HW238199   3.563   2.051   5.074  0.7425  2.0607 -0.7492
 8856SOL     OW38200   1.651   4.074  14.088  0.1739  0.0363  0.3088
 8856SOL    HW138201   1.732   4.098  14.043  0.3770 -3.4027 -1.2269
 8856SOL    HW238202   1.680   4.023  14.163 -1.9473 -1.0762  0.3663
 8857SOL     OW38203   0.658   4.573   8.173  0.4402  0.1905 -0.7061
 8857SOL    HW138204   0.634   4.480   8.173 -0.2685  0.3697 -0.1272
 8857SOL    HW238205   0.628   4.611   8.090 -0.0181  2.2619  0.3969
 8858SOL     OW38206   3.257   1.316   8.219 -0.1313 -0.5138  0.2999
 8858SOL    HW138207   3.232   1.356   8.302 -1.3027  1.0183 -0.8061
 8858SOL    HW238208   3.351   1.331   8.215 -0.2759  0.3248  0.1869
 8859SOL     OW38209   0.290   4.327   3.753 -0.3629  0.8302  1.3955
 8859SOL    HW138210   0.288   4.420   3.729 -0.1079  0.0952 -1.5660
 8859SOL    HW238211   0.208   4.327   3.803 -1.2531  0.2331 -0.0370
 8860SOL     OW38212   3.576   0.205   3.865  0.0937  0.5934 -0.3945
 8860SOL    HW138213   3.628   0.280   3.834  3.4649 -1.7109 -0.2500
 8860SOL    HW238214   3.652   0.147   3.868  1.0966  2.0710  2.8077
 8861SOL     OW38215   0.801   4.130   4.609 -0.0355 -0.5346 -0.5190
 8861SOL    HW138216   0.865   4.195   4.580  2.6302 -3.7298 -1.7337
 8861SOL    HW238217   0.852   4.087   4.678 -0.4137  1.2462  0.8721
 8862SOL     OW38218   0.155   4.578  10.449  0.1560  0.3479 -0.5115
 8862SOL    HW138219   0.149   4.575  10.544 -1.1062  2.1299 -0.5291
 8862SOL    HW238220   0.249   4.566  10.436  0.4621  0.7781  1.2773
 8863SOL     OW38221   1.385   1.395   5.954  0.1259 -0.5029  0.3153
 8863SOL    HW138222   1.476   1.416   5.977  0.0001  0.2640  0.0933
 8863SOL    HW238223   1.363   1.468   5.896  1.9052  0.5036  0.9109
 8864SOL     OW38224   1.278   1.216   6.820 -0.5176  0.3012 -0.3448
 8864SOL    HW138225   1.313   1.240   6.734  0.8271  0.1078  0.1458
 8864SOL    HW238226   1.337   1.267   6.876 -0.3691  1.2187 -1.3493
 8865SOL     OW38227   3.843   4.502   3.286 -0.1413 -0.0100 -0.5593
 8865SOL    HW138228   3.812   4.591   3.270 -0.8385  0.1125  1.4575
 8865SOL    HW238229   3.807   4.484   3.373 -0.1100  0.3015 -0.4812
 8866SOL     OW38230   2.520   4.668   9.905 -0.1197  0.4169  0.0946
 8866SOL    HW138231   2.558   0.018   9.880  0.4047  0.2630  0.3505
 8866SOL    HW238232   2.492   4.674   9.997  0.8498  2.1234  0.2794
 8867SOL     OW38233   4.214   3.023  12.551  0.2463  0.6445 -0.1546
 8867SOL    HW138234   4.260   3.084  12.609  0.9538  0.5303 -0.6001
 8867SOL    HW238235   4.293   2.994  12.506 -1.0214 -1.6853 -0.8823
 8868SOL     OW38236   1.250   2.084   0.989 -0.3447  0.0715  0.0191
 8868SOL    HW138237   1.296   2.014   1.035 -0.4946 -2.5704 -3.8639
 8868SOL    HW238238   1.325   2.115   0.938 -0.5385  1.2464  0.4465
 8869SOL     OW38239   1.237   2.788  14.942  0.1421 -0.6385 -0.0378
 8869SOL    HW138240   1.243   2.775  15.036 -0.8539  0.7827  0.2248
 8869SOL    HW238241   1.254   2.700  14.908 -1.3044 -0.6382 -0.7766
 8870SOL     OW38242   1.674   0.844   1.821 -0.0208  0.1462  0.3465
 8870SOL    HW138243   1.657   0.778   1.754 -0.7041 -1.3993  2.0409
 8870SOL    HW238244   1.638   0.796   1.895 -0.2173 -0.6475 -0.2592
 8871SOL     OW38245   4.661   1.806  14.174  0.7257  0.2162 -0.5029
 8871SOL    HW138246   4.675   1.874  14.240 -2.4530  1.9506 -1.6093
 8871SOL    HW238247   4.568   1.799  14.155  0.7412  0.6956 -0.7556
 8872SOL     OW38248   0.905   2.251   1.345 -0.2740  0.3174 -0.2538
 8872SOL    HW138249   0.862   2.258   1.431  2.8264  1.7371  1.1903
 8872SOL    HW238250   0.840   2.283   1.282  0.2784  0.9585 -0.4945
 8873SOL     OW38251   2.993   4.538   2.409  0.4853  0.0512  0.0264
 8873SOL    HW138252   2.972   4.503   2.322  1.6562 -0.5061 -0.0243
 8873SOL    HW238253   3.061   4.600   2.383 -1.1772  1.5824 -0.6907
 8874SOL     OW38254   3.714   4.249  16.775  0.1490  0.6903 -0.6404
 8874SOL    HW138255   3.761   4.176  16.816 -0.8191  1.2685  1.4843
 8874SOL    HW238256   3.773   4.318  16.805  0.0490  0.1696  0.7656
 8875SOL     OW38257   3.513   1.933  13.502  0.1839  0.1691  0.6723
 8875SOL    HW138258   3.577   1.992  13.541 -0.4645  0.4518  1.2796
 8875SOL    HW238259   3.511   1.854  13.557 -4.0184 -0.4070 -0.3102
 8876SOL     OW38260   4.675   3.215   8.490 -0.3948 -0.1918 -0.0506
 8876SOL    HW138261   4.617   3.154   8.537 -1.5656  0.5735 -0.4931
 8876SOL    HW238262   4.691   3.186   8.401 -0.6186  0.1934 -0.2158
 8877SOL     OW38263   3.411   2.934   1.247 -0.1126 -0.2507  0.3913
 8877SOL    HW138264   3.486   2.988   1.271 -0.9771  1.3698 -0.5141
 8877SOL    HW238265   3.449   2.869   1.188 -0.7911 -1.0323  0.8095
 8878SOL     OW38266   1.575   2.155   8.189  0.0974  0.1156  0.3136
 8878SOL    HW138267   1.575   2.078   8.132  1.6478 -0.0775  0.5625
 8878SOL    HW238268   1.512   2.208   8.140  1.6214  1.3518 -0.3256
 8879SOL     OW38269   4.360   2.626   7.506 -0.2421 -0.4426  0.0226
 8879SOL    HW138270   4.443   2.672   7.492 -0.0039 -0.6797  0.6633
 8879SOL    HW238271   4.301   2.698   7.486  0.2409 -0.3233 -0.9355
 8880SOL     OW38272   0.496   2.490  13.890 -0.0529  0.4343 -0.9375
 8880SOL    HW138273   0.440   2.428  13.938 -0.3634  1.5687  0.1699
 8880SOL    HW238274   0.483   2.572  13.938  1.7672  0.3607 -0.3198
 8881SOL     OW38275   0.856   3.579   9.483 -0.1636  0.3632  0.5119
 8881SOL    HW138276   0.789   3.511   9.474  2.4050 -2.0487 -0.0513
 8881SOL    HW238277   0.919   3.538   9.424  0.2315  1.2338  0.3232
 8882SOL     OW38278   2.178   2.566   3.782  0.2709 -0.0833 -0.3643
 8882SOL    HW138279   2.106   2.583   3.722  0.9086 -1.0145 -1.3971
 8882SOL    HW238280   2.144   2.600   3.865 -0.4317  0.6341 -0.9430
 8883SOL     OW38281   0.397   1.116   4.786 -0.3677  0.1342 -0.4932
 8883SOL    HW138282   0.385   1.021   4.782  1.8624 -0.2086  1.3873
 8883SOL    HW238283   0.369   1.139   4.874  1.7745 -0.4105  0.3157
 8884SOL     OW38284   3.715   2.725   0.779 -0.3907 -0.1668 -0.0434
 8884SOL    HW138285   3.718   2.820   0.787 -0.0857 -0.1433 -0.4757
 8884SOL    HW238286   3.654   2.722   0.705 -0.2475 -0.8626 -0.1367
 8885SOL     OW38287   2.438   0.787   7.907  0.0123 -0.1504 -0.3478
 8885SOL    HW138288   2.529   0.767   7.932  0.9424  2.2972 -1.7944
 8885SOL    HW238289   2.458   0.796   7.814 -1.9547 -0.7982 -0.8174
 8886SOL     OW38290   0.477   1.412   2.475 -0.1330  0.0128 -0.1036
 8886SOL    HW138291   0.414   1.471   2.517 -0.8326 -1.9471  1.6233
 8886SOL    HW238292   0.556   1.442   2.520 -1.2272  1.8634  0.5825
 8887SOL     OW38293   2.120   0.577   9.333 -0.2778  0.3840 -0.1477
 8887SOL    HW138294   2.065   0.619   9.399  0.8396  0.6628  0.5989
 8887SOL    HW238295   2.165   0.518   9.394 -0.7583  0.8358  0.6424
 8888SOL     OW38296   0.999   0.663   0.576  0.2739 -0.6338 -0.6196
 8888SOL    HW138297   1.011   0.756   0.555 -0.2824 -0.9753 -2.4538
 8888SOL    HW238298   1.086   0.625   0.586  0.8829  0.1828 -2.8357
 8889SOL     OW38299   0.805   1.497  10.808 -0.0799 -0.2914 -0.8178
 8889SOL    HW138300   0.850   1.453  10.735  1.3868 -0.2821  0.0892
 8889SOL    HW238301   0.712   1.482  10.794 -0.3482 -0.9810  1.7640
 8890SOL     OW38302   2.040   0.222   5.419  0.0811  0.1251 -0.6891
 8890SOL    HW138303   1.968   0.233   5.357 -0.7615  0.4501  0.3395
 8890SOL    HW238304   2.072   0.312   5.432  1.9695 -0.8072  1.0231
 8891SOL     OW38305   4.500   0.519   2.594 -0.2074 -0.2871 -0.3385
 8891SOL    HW138306   4.574   0.579   2.582  0.1285 -0.9804 -1.7144
 8891SOL    HW238307   4.443   0.545   2.523 -1.4139  1.6194  1.3382
 8892SOL     OW38308   2.077   3.114   0.430 -0.0146  0.0687  0.4137
 8892SOL    HW138309   2.092   3.025   0.461 -0.0289 -0.5031 -1.2789
 8892SOL    HW238310   1.986   3.115   0.401 -0.2600 -0.2433  1.1618
 8893SOL     OW38311   4.452   2.199   0.946  0.0006 -0.1884 -0.1428
 8893SOL    HW138312   4.389   2.169   1.012  0.6799  1.1773  1.1490
 8893SOL    HW238313   4.523   2.135   0.948 -0.0308 -0.2676 -1.5376
 8894SOL     OW38314   2.622   3.999  12.576  0.1911  0.0659  0.2471
 8894SOL    HW138315   2.555   4.032  12.516  2.4104 -0.1136 -2.3117
 8894SOL    HW238316   2.690   4.067  12.572 -0.3246  0.6424  1.1743
 8895SOL     OW38317   4.715   2.717   8.345 -0.2563  0.1962  0.6192
 8895SOL    HW138318   4.633   2.750   8.307 -0.4777 -0.5663  0.4381
 8895SOL    HW238319   4.722   2.645   8.283  0.8175  0.1627  0.7878
 8896SOL     OW38320   1.012   0.053   5.556 -0.5983  0.3949  0.5658
 8896SOL    HW138321   0.927   0.086   5.528 -1.0683 -1.9778 -0.8060
 8896SOL    HW238322   1.018   4.713   5.496  1.4385 -0.5168  1.8958
 8897SOL     OW38323   3.601   1.814   8.803 -0.2827 -0.4975 -0.0817
 8897SOL    HW138324   3.616   1.740   8.862  0.8401 -1.9484 -2.1591
 8897SOL    HW238325   3.629   1.890   8.854  0.4335 -1.0389  0.3431
 8898SOL     OW38326   1.214   1.023   5.237  0.4263 -0.1033  0.4236
 8898SOL    HW138327   1.219   1.064   5.150  0.6927 -2.2275 -0.5585
 8898SOL    HW238328   1.119   1.021   5.252  0.3642  1.8878  0.3458
 8899SOL     OW38329   1.421   4.189   1.008 -0.1009  0.1546 -1.3925
 8899SOL    HW138330   1.481   4.215   0.938  2.4389 -1.5373  0.1821
 8899SOL    HW238331   1.336   4.175   0.966 -2.0318  1.2217  2.1354
 8900SOL     OW38332   0.429   0.723   6.211 -0.0224 -0.1547  0.1374
 8900SOL    HW138333   0.488   0.786   6.253 -0.2836 -0.5767  1.1499
 8900SOL    HW238334   0.464   0.639   6.243  0.7286  0.9052  2.0755
 8901SOL     OW38335   0.830   4.626   9.472  0.2034 -0.0941 -0.2440
 8901SOL    HW138336   0.819   4.533   9.455  1.0790 -0.7038  2.5937
 8901SOL    HW238337   0.803   4.650   9.383  0.0232 -0.4535 -0.2879
 8902SOL     OW38338   2.557   1.445   2.454  0.7216 -0.1989 -0.0996
 8902SOL    HW138339   2.499   1.455   2.529  1.9843  3.3659  0.4013
 8902SOL    HW238340   2.504   1.399   2.389  0.6534 -1.0671  0.5849
 8903SOL     OW38341   3.499   3.910  14.445  0.5857 -0.4594 -0.2156
 8903SOL    HW138342   3.426   3.853  14.420  1.2257 -1.0800 -0.6480
 8903SOL    HW238343   3.467   3.998  14.467  0.3272 -0.5858 -0.0876
 8904SOL     OW38344   1.206   3.076  10.415 -0.0716  0.0017 -0.6444
 8904SOL    HW138345   1.253   3.150  10.455  1.2884 -0.3715 -1.5422
 8904SOL    HW238346   1.175   3.020  10.486 -1.2698  0.6519 -0.6517
 8905SOL     OW38347   1.479   0.514   5.766 -0.4480  0.0805  0.1184
 8905SOL    HW138348   1.499   0.478   5.680 -0.8264  2.3058 -0.9235
 8905SOL    HW238349   1.567   0.528   5.800 -0.4655  1.8878 -0.5372
 8906SOL     OW38350   3.151   4.724   2.295 -0.2257  0.0292  0.4837
 8906SOL    HW138351   3.237   4.726   2.252  0.4578  1.7491  1.8974
 8906SOL    HW238352   3.138   0.084   2.299 -0.0469  0.0836 -0.2124
 8907SOL     OW38353   0.122   4.535  10.722 -0.0739 -0.0492 -0.1083
 8907SOL    HW138354   0.096   4.444  10.736  1.2352 -0.8903 -3.2132
 8907SOL    HW238355   0.134   4.574  10.809  1.1974  0.3223 -0.4547
 8908SOL     OW38356   4.695   1.614   5.830 -0.2063 -0.7435 -0.2725
 8908SOL    HW138357   4.664   1.527   5.806  1.0955 -1.0876 -0.6817
 8908SOL    HW238358   0.028   1.636   5.767  0.6690 -2.6779  0.0244
 8909SOL     OW38359   0.392   2.566   0.512  0.6174  0.0356 -0.2963
 8909SOL    HW138360   0.371   2.656   0.540  1.0651 -0.0783  0.3887
 8909SOL    HW238361   0.487   2.568   0.511  0.5959  0.3609 -1.4442
 8910SOL     OW38362   1.669   1.121  13.137 -0.0572 -0.6251 -0.2137
 8910SOL    HW138363   1.575   1.141  13.134  0.1920  0.5401 -0.1481
 8910SOL    HW238364   1.696   1.176  13.211 -2.7138 -0.6520  0.8018
 8911SOL     OW38365   0.160   0.227   7.788  0.0516 -0.8254  0.0642
 8911SOL    HW138366   0.117   0.305   7.754 -1.6113 -2.1104 -0.7882
 8911SOL    HW238367   0.097   0.177   7.840  0.0663 -2.2673 -1.3083
 8912SOL     OW38368   1.963   4.202  12.072  0.2462 -0.2900  0.8630
 8912SOL    HW138369   1.930   4.169  12.156  0.3521 -0.6357  0.7665
 8912SOL    HW238370   1.968   4.128  12.012  0.4513  0.3576  0.0847
 8913SOL     OW38371   4.478   3.401   8.810 -0.0660  0.1947 -0.2016
 8913SOL    HW138372   4.435   3.389   8.725 -1.9318  2.6948  0.3979
 8913SOL    HW238373   4.413   3.455   8.855  1.3502  2.0234 -0.3201
 8914SOL     OW38374   2.962   3.129   8.839  0.0391  0.0418 -0.4290
 8914SOL    HW138375   2.923   3.047   8.870  0.0447  0.4398  0.6253
 8914SOL    HW238376   3.040   3.087   8.802 -0.4104 -0.9716 -0.2429
 8915SOL     OW38377   2.155   2.091   1.677 -0.0817 -0.0177  0.2461
 8915SOL    HW138378   2.166   2.149   1.602 -2.4798 -0.9354 -0.8173
 8915SOL    HW238379   2.069   2.055   1.654 -0.3187 -0.2064  1.3799
 8916SOL     OW38380   2.671   4.459   6.689 -0.2198 -0.0318  0.1047
 8916SOL    HW138381   2.689   4.378   6.642 -1.2687 -0.4643  0.4498
 8916SOL    HW238382   2.640   4.518   6.621  0.4447 -1.4676 -1.4306
 8917SOL     OW38383   2.657   1.467   6.378 -0.1190 -0.5506  0.0924
 8917SOL    HW138384   2.705   1.523   6.440 -0.6016 -0.8880  0.7772
 8917SOL    HW238385   2.715   1.453   6.304 -1.0057 -0.6886 -0.5803
 8918SOL     OW38386   3.914   1.924   6.735  0.0550  0.0522  0.0433
 8918SOL    HW138387   3.978   1.994   6.748  1.2155 -0.7913 -1.0480
 8918SOL    HW238388   3.914   1.886   6.823 -1.0808 -2.3593 -0.9996
 8919SOL     OW38389   2.880   2.164   4.165  0.8735 -0.1557 -0.2106
 8919SOL    HW138390   2.847   2.241   4.118 -0.4344 -0.3816  0.3458
 8919SOL    HW238391   2.911   2.107   4.096 -0.8102  0.8064 -1.7623
 8920SOL     OW38392   2.024   4.442   6.172 -0.7440 -0.5212  0.2835
 8920SOL    HW138393   1.953   4.384   6.145 -2.4811  1.3170  0.9236
 8920SOL    HW238394   2.026   4.507   6.102 -0.0379 -1.4255 -0.5299
 8921SOL     OW38395   4.678   1.764   8.560  0.0398  0.2333 -0.2696
 8921SOL    HW138396   0.003   1.797   8.494 -0.5087 -0.4760 -1.1255
 8921SOL    HW238397   4.686   1.823   8.634 -1.1529  1.5313 -1.1749
 8922SOL     OW38398   4.004   2.604   5.860 -0.3990  0.3746 -0.2228
 8922SOL    HW138399   3.969   2.565   5.940 -0.8288  1.2363  0.0096
 8922SOL    HW238400   3.928   2.617   5.803  0.3057 -0.0264 -1.2445
 8923SOL     OW38401   3.194   3.195  17.716 -0.3889  0.6134  0.3682
 8923SOL    HW138402   3.162   3.224   0.063 -0.0740  1.4441  0.1990
 8923SOL    HW238403   3.289   3.196  17.733 -0.2531  1.1603 -0.4510
 8924SOL     OW38404   1.803   4.546   4.833  0.2224  0.2850  0.2549
 8924SOL    HW138405   1.744   4.578   4.765  2.5217  1.6168 -1.1035
 8924SOL    HW238406   1.762   4.466   4.868 -0.3990 -0.2774 -1.7801
 8925SOL     OW38407   3.289   1.631   3.524 -0.0710 -0.6058 -0.1477
 8925SOL    HW138408   3.215   1.585   3.483 -0.8476  1.3252 -0.9171
 8925SOL    HW238409   3.334   1.657   3.444  2.5045 -3.4812  0.4034
 8926SOL     OW38410   2.199   0.737  16.764 -0.0224  0.3942  0.4967
 8926SOL    HW138411   2.259   0.754  16.692 -1.4997  2.3831 -0.2795
 8926SOL    HW238412   2.134   0.807  16.748 -0.3974 -0.3740 -1.3962
 8927SOL     OW38413   0.082   0.297  17.419  0.0571  0.3494  0.0297
 8927SOL    HW138414   0.168   0.333  17.440 -0.8163  1.5933  1.4893
 8927SOL    HW238415   0.047   0.299  17.508 -0.1965 -0.2881 -0.0582
 8928SOL     OW38416   3.963   1.390   3.694 -0.1946  0.3001 -0.1467
 8928SOL    HW138417   3.948   1.450   3.767  0.5847 -1.2865  1.3251
 8928SOL    HW238418   3.931   1.438   3.618  0.5746 -0.4904 -0.9703
 8929SOL     OW38419   3.118   3.026  17.273 -0.3654 -0.2235 -0.0452
 8929SOL    HW138420   3.202   3.036  17.227  0.5909  2.5880  2.3192
 8929SOL    HW238421   3.077   2.962  17.215 -0.0007  0.2423 -0.8349
 8930SOL     OW38422   2.897   2.771   6.165 -0.0840 -0.0664 -0.1447
 8930SOL    HW138423   2.893   2.828   6.088 -2.3439  2.6644  1.9438
 8930SOL    HW238424   2.948   2.696   6.135 -0.1406  0.6916 -2.1398
 8931SOL     OW38425   0.847   0.381   9.594  0.2577 -0.4270 -0.0841
 8931SOL    HW138426   0.861   0.303   9.541  1.6512  0.0333 -0.4009
 8931SOL    HW238427   0.837   0.352   9.685  0.6920  1.3190  0.5361
 8932SOL     OW38428   1.147   4.634   3.761 -0.0462  0.0596 -0.1163
 8932SOL    HW138429   1.138   4.701   3.693  1.5609 -1.1346 -1.5096
 8932SOL    HW238430   1.241   4.637   3.782 -0.0989 -0.0794  0.1417
 8933SOL     OW38431   0.781   2.065  14.156 -0.4422 -0.3401 -0.6305
 8933SOL    HW138432   0.811   2.002  14.091  0.7321  1.3874 -1.7686
 8933SOL    HW238433   0.858   2.063  14.214 -2.5791 -1.2359  2.2029
 8934SOL     OW38434   1.837   3.265   3.084 -0.5679 -0.3826 -0.0210
 8934SOL    HW138435   1.807   3.232   3.000 -1.2216  1.8431 -0.6371
 8934SOL    HW238436   1.897   3.192   3.103 -0.1219 -0.0666 -0.2197
 8935SOL     OW38437   1.889   0.402   6.046  0.2811 -0.3986  0.1799
 8935SOL    HW138438   1.967   0.418   5.995 -0.0969 -1.2643 -0.6698
 8935SOL    HW238439   1.930   0.369   6.126 -1.1404 -1.3704  0.5209
 8936SOL     OW38440   4.531   0.451   3.451  0.3168 -0.4692 -0.1847
 8936SOL    HW138441   4.530   0.541   3.418  0.5627 -0.2158  0.5116
 8936SOL    HW238442   4.603   0.450   3.513  0.9597  0.6654 -0.9094
 8937SOL     OW38443   4.426   3.011   4.342  0.4724 -0.3495 -0.4038
 8937SOL    HW138444   4.334   2.985   4.341 -0.0592  1.4557  0.2752
 8937SOL    HW238445   4.415   3.102   4.313  1.4753  0.2261  1.0081
 8938SOL     OW38446   2.314   3.759   4.268  0.0122 -0.3410 -0.2254
 8938SOL    HW138447   2.219   3.762   4.272 -0.0273 -2.8783  0.9124
 8938SOL    HW238448   2.340   3.790   4.181  1.4671  0.0749  0.3585
 8939SOL     OW38449   3.431   1.073  10.098 -0.2046  0.2998 -0.0431
 8939SOL    HW138450   3.436   0.994  10.044 -0.9445  0.0993  0.1721
 8939SOL    HW238451   3.339   1.093  10.078 -0.1379 -1.2662 -1.8952
 8940SOL     OW38452   4.257   2.255  10.546  1.0148  0.0882  0.5600
 8940SOL    HW138453   4.273   2.216  10.632 -0.3544 -1.4006  0.1503
 8940SOL    HW238454   4.165   2.283  10.545  0.6055 -1.3484 -0.7514
 8941SOL     OW38455   4.378   3.213   1.047 -0.1018  0.0099  0.4419
 8941SOL    HW138456   4.320   3.163   0.989 -1.0493  0.8236  0.6909
 8941SOL    HW238457   4.309   3.272   1.075 -0.1698 -0.6149  1.5698
 8942SOL     OW38458   2.922   2.281   3.427  0.8582 -0.0513 -0.0181
 8942SOL    HW138459   2.963   2.198   3.453  1.3946 -0.3144 -1.6727
 8942SOL    HW238460   2.994   2.322   3.377  1.8996 -0.4241  1.1719
 8943SOL     OW38461   1.283   2.780  11.971 -0.0483 -0.2089 -0.6231
 8943SOL    HW138462   1.349   2.809  12.033  0.5389 -2.0496 -0.3747
 8943SOL    HW238463   1.218   2.849  11.983 -1.7085 -1.7440 -0.7886
 8944SOL     OW38464   4.569   1.801   1.270 -0.0812 -0.0897  0.4593
 8944SOL    HW138465   4.545   1.730   1.210 -0.9177 -0.2896  1.0217
 8944SOL    HW238466   4.494   1.801   1.330 -1.0262 -1.1011 -0.7144
 8945SOL     OW38467   0.700   0.159  12.379  0.2803  0.5172 -0.2718
 8945SOL    HW138468   0.735   0.167  12.290 -0.2645 -0.6007 -0.5883
 8945SOL    HW238469   0.738   0.077  12.409  0.8550  0.6479 -0.6474
 8946SOL     OW38470   0.798   4.394  11.297 -0.8444  0.2292  0.4919
 8946SOL    HW138471   0.789   4.430  11.385 -1.1435 -0.4293  0.7331
 8946SOL    HW238472   0.856   4.456  11.253 -0.2472 -0.3215  0.5004
 8947SOL     OW38473   0.795   3.754   4.853 -0.2438 -0.0422 -0.7069
 8947SOL    HW138474   0.775   3.673   4.805  0.2544 -1.1152  0.8646
 8947SOL    HW238475   0.890   3.747   4.863 -0.1032  0.8459 -1.4143
 8948SOL     OW38476   2.807   3.325   2.758  0.7062 -0.4575  0.2352
 8948SOL    HW138477   2.753   3.280   2.693  0.7177 -0.0122 -0.0824
 8948SOL    HW238478   2.881   3.265   2.759  1.0048 -0.0943 -0.6424
 8949SOL     OW38479   2.616   1.857   7.943 -0.2816  0.0164  0.0482
 8949SOL    HW138480   2.588   1.839   7.854  0.8905  1.9392 -0.7035
 8949SOL    HW238481   2.707   1.825   7.947 -1.1635 -2.7693 -2.5779
 8950SOL     OW38482   2.747   1.637   9.189 -0.1244 -0.1453  0.0115
 8950SOL    HW138483   2.812   1.583   9.234 -1.1566 -0.5794  0.9818
 8950SOL    HW238484   2.778   1.727   9.186  1.9815 -0.8985 -0.9999
 8951SOL     OW38485   3.679   3.210   1.798  0.2117  0.4633 -0.4040
 8951SOL    HW138486   3.689   3.297   1.758  0.3992  1.1459  1.1023
 8951SOL    HW238487   3.729   3.228   1.878 -0.1131  1.0756 -0.3399
 8952SOL     OW38488   2.719   4.718  12.986  0.5799  0.4911  0.5833
 8952SOL    HW138489   2.744   4.730  13.077  0.6059  0.5002  0.5750
 8952SOL    HW238490   2.630   0.014  12.997 -0.0469  0.5302 -4.4426
 8953SOL     OW38491   2.053   4.621   3.045  0.0001 -0.8464 -0.5042
 8953SOL    HW138492   2.095   4.666   2.972  1.4550  0.3567  1.0834
 8953SOL    HW238493   2.038   4.535   3.006 -0.4760 -0.9380 -0.1194
 8954SOL     OW38494   0.787   2.469   8.969  0.2560 -0.0841 -0.2955
 8954SOL    HW138495   0.841   2.440   8.895 -0.1443 -0.4753 -0.4303
 8954SOL    HW238496   0.839   2.467   9.049  0.4045 -0.7960 -0.4055
 8955SOL     OW38497   3.190   3.137   5.645  0.1754  0.3155 -0.2573
 8955SOL    HW138498   3.258   3.106   5.705 -2.6472 -1.6231  1.9380
 8955SOL    HW238499   3.156   3.209   5.698  0.4824  1.0412 -1.0408
 8956SOL     OW38500   0.978   2.809  11.417  0.3723 -0.2570  0.5550
 8956SOL    HW138501   0.912   2.879  11.426 -0.7082 -1.3512  1.0861
 8956SOL    HW238502   1.062   2.856  11.418 -0.3589  1.0723  0.3634
 8957SOL     OW38503   1.588   4.349  16.043  0.7101  0.4678 -0.2818
 8957SOL    HW138504   1.658   4.398  16.000  0.6706  0.6422 -0.1454
 8957SOL    HW238505   1.549   4.305  15.968  1.4869 -0.2032 -0.3040
 8958SOL     OW38506   0.443   2.522   0.068  0.3207  0.2691 -0.1146
 8958SOL    HW138507   0.385   2.445   0.067  1.8382 -0.8809 -0.8793
 8958SOL    HW238508   0.389   2.574   0.009 -1.3055 -2.4188 -1.0365
 8959SOL     OW38509   4.172   0.602   1.446  0.2017  0.1910 -0.2610
 8959SOL    HW138510   4.094   0.581   1.395 -0.1434 -1.8632  1.0848
 8959SOL    HW238511   4.126   0.599   1.530 -0.4856  1.2694 -0.5991
 8960SOL     OW38512   2.617   0.153   2.201 -0.6144 -0.3603 -0.3000
 8960SOL    HW138513   2.522   0.156   2.207 -0.5073 -0.5963  1.3233
 8960SOL    HW238514   2.637   0.142   2.108 -3.2652 -1.2194 -0.7638
 8961SOL     OW38515   4.139   2.636  14.823  0.2629  0.6420  0.2402
 8961SOL    HW138516   4.052   2.602  14.800 -0.7675  1.1834  3.3140
 8961SOL    HW238517   4.145   2.601  14.912 -1.3739 -0.4658 -0.0758
 8962SOL     OW38518   2.821   0.773   6.444  0.1239 -0.4418  0.0818
 8962SOL    HW138519   2.915   0.766   6.426  0.2322 -0.8402  0.7644
 8962SOL    HW238520   2.810   0.852   6.497 -0.0035 -0.5273  0.1850
 8963SOL     OW38521   1.231   2.776   5.388 -0.1447  0.0677 -0.3437
 8963SOL    HW138522   1.321   2.749   5.410 -0.2752 -0.9252 -1.0551
 8963SOL    HW238523   1.235   2.868   5.417  0.1680 -0.3510  0.9228
 8964SOL     OW38524   4.369   1.328  15.087  0.1456 -0.2766 -0.1685
 8964SOL    HW138525   4.427   1.252  15.084 -2.4230 -2.2856  1.2866
 8964SOL    HW238526   4.408   1.386  15.153 -0.7596  1.4687 -1.1725
 8965SOL     OW38527   0.912   1.079   3.290 -0.1246  0.1747  1.1611
 8965SOL    HW138528   0.848   1.117   3.351 -1.4409 -0.8329  0.3991
 8965SOL    HW238529   0.961   1.017   3.344 -1.3400 -1.6186  0.2111
 8966SOL     OW38530   3.109   1.228   5.565 -0.7582 -0.4656  0.9518
 8966SOL    HW138531   3.042   1.265   5.623 -0.7837  0.7963  0.1073
 8966SOL    HW238532   3.058   1.230   5.483 -3.2213  1.5002  2.5190
 8967SOL     OW38533   1.488   0.095  13.199  0.4588 -0.6760  0.0951
 8967SOL    HW138534   1.578   0.077  13.225  0.5884 -2.7216 -1.6848
 8967SOL    HW238535   1.499   0.159  13.128 -1.5387  0.4038  0.7659
 8968SOL     OW38536   3.218   2.295   8.763 -0.1260  0.3994  0.0981
 8968SOL    HW138537   3.139   2.342   8.739 -0.6929 -0.7816 -0.3668
 8968SOL    HW238538   3.281   2.367   8.764 -1.1159  1.2709 -1.2488
 8969SOL     OW38539   1.585   1.344   3.842 -0.3886  0.2592 -0.2405
 8969SOL    HW138540   1.521   1.376   3.906 -1.9042 -2.0744 -0.5698
 8969SOL    HW238541   1.603   1.255   3.872  0.3819  0.7253  0.6621
 8970SOL     OW38542   0.021   4.089  13.211  0.1535  0.1478  0.1803
 8970SOL    HW138543   0.065   4.067  13.128 -2.5145  0.4012 -1.2855
 8970SOL    HW238544   0.087   4.039  13.258  1.3915  0.1516 -1.5258
 8971SOL     OW38545   0.741   2.725   8.690 -0.0769 -0.3915  0.3370
 8971SOL    HW138546   0.724   2.729   8.785  0.8445  0.5868  0.4617
 8971SOL    HW238547   0.733   2.630   8.675  0.8211 -0.4161  0.0378
 8972SOL     OW38548   3.131   2.134   8.575 -0.7077 -0.2042 -0.1682
 8972SOL    HW138549   3.040   2.109   8.591 -0.1332 -1.8400  0.5494
 8972SOL    HW238550   3.161   2.193   8.644  0.6618  1.7862 -2.4606
 8973SOL     OW38551   4.032   1.972  15.017 -0.1520  0.0928 -0.1307
 8973SOL    HW138552   3.959   2.024  15.053 -0.6802 -0.6605 -0.1176
 8973SOL    HW238553   4.033   1.899  15.078 -0.0895 -0.2520 -0.5465
 8974SOL     OW38554   2.665   2.113   8.059 -0.1079 -0.3282 -0.3105
 8974SOL    HW138555   2.600   2.098   7.990  1.6433 -1.0467 -1.8291
 8974SOL    HW238556   2.701   2.025   8.074 -0.8040 -0.4874  0.4338
 8975SOL     OW38557   4.568   0.939   2.080  0.0854  0.0432  0.2806
 8975SOL    HW138558   4.489   0.962   2.129 -1.5089 -1.6522 -1.5014
 8975SOL    HW238559   4.552   0.848   2.056  1.5601  0.4034 -2.0813
 8976SOL     OW38560   0.339   4.259   2.601 -0.2714  0.3106 -0.0761
 8976SOL    HW138561   0.344   4.224   2.690 -1.1968 -1.4484 -0.7170
 8976SOL    HW238562   0.403   4.205   2.555  0.5026 -0.2748  1.7132
 8977SOL     OW38563   1.848   2.791   1.207 -0.3755  0.1066  0.0006
 8977SOL    HW138564   1.894   2.776   1.125  2.9446 -0.3621  1.9079
 8977SOL    HW238565   1.894   2.859   1.258 -0.0608  1.6649 -2.3497
 8978SOL     OW38566   3.993   4.365   2.158  0.1303 -0.5296  0.4378
 8978SOL    HW138567   3.959   4.276   2.168 -0.6528 -0.1396  1.1643
 8978SOL    HW238568   3.921   4.424   2.179  0.3548  0.8290 -2.6089
 8979SOL     OW38569   0.387   2.627  10.113 -0.0580 -0.1648  0.1155
 8979SOL    HW138570   0.466   2.678  10.094  0.5644 -1.3714 -0.5433
 8979SOL    HW238571   0.317   2.661  10.058 -2.1285 -1.3609  2.0133
 8980SOL     OW38572   3.778   2.379   6.935  0.0490  0.0452  0.1779
 8980SOL    HW138573   3.751   2.450   6.877 -0.4695 -1.0230 -0.8937
 8980SOL    HW238574   3.844   2.327   6.890  0.6290  0.9294  0.0239
 8981SOL     OW38575   0.638   3.238   1.476  0.2252  0.0938  0.5924
 8981SOL    HW138576   0.599   3.195   1.552 -1.3350 -2.0664 -1.4060
 8981SOL    HW238577   0.574   3.307   1.459  1.2055  1.0751  0.8645
 8982SOL     OW38578   4.423   0.737   1.137 -0.7328 -0.8996  0.1533
 8982SOL    HW138579   4.388   0.669   1.079 -1.0086 -0.2675 -0.4100
 8982SOL    HW238580   4.345   0.787   1.158  0.7175  1.0622  0.8432
 8983SOL     OW38581   0.870   2.545   8.512  0.0853 -0.0905 -0.2109
 8983SOL    HW138582   0.916   2.517   8.433  1.1154  1.1464 -0.0477
 8983SOL    HW238583   0.892   2.638   8.511  3.8260 -0.9674  0.7315
 8984SOL     OW38584   0.773   2.616  10.299  0.3305  0.3347 -0.1003
 8984SOL    HW138585   0.692   2.564  10.303  0.4945  0.0296 -0.8475
 8984SOL    HW238586   0.748   2.668  10.376  0.7170 -1.2853  1.1117
 8985SOL     OW38587   3.872   2.216   7.306  0.2755 -0.3766 -0.6250
 8985SOL    HW138588   3.813   2.289   7.325 -1.1340 -1.4312 -1.0395
 8985SOL    HW238589   3.906   2.225   7.217  0.5073  1.3638 -0.3603
 8986SOL     OW38590   1.417   4.624   6.395 -0.1920  0.7949 -0.3847
 8986SOL    HW138591   1.373   4.588   6.472  0.4197  0.3708 -0.2248
 8986SOL    HW238592   1.503   4.581   6.398 -0.6337  0.1879  4.0496
 8987SOL     OW38593   3.068   0.909   5.429  0.2767 -0.2955 -0.2390
 8987SOL    HW138594   3.035   0.897   5.340 -0.4674 -3.6536  0.4957
 8987SOL    HW238595   3.163   0.912   5.415  0.3537 -0.6755  0.1957
 8988SOL     OW38596   0.421   3.784   1.816 -0.4148 -0.5424 -0.7647
 8988SOL    HW138597   0.482   3.785   1.743  0.7826 -0.9611  0.2295
 8988SOL    HW238598   0.342   3.766   1.765 -2.0002  1.5723  0.9259
 8989SOL     OW38599   2.882   1.386   1.392  0.1496 -0.3776  0.2491
 8989SOL    HW138600   2.893   1.479   1.410  1.1639 -0.3140 -0.7174
 8989SOL    HW238601   2.972   1.356   1.385  0.0792 -1.0974  2.2528
 8990SOL     OW38602   1.509   2.391   6.889  0.9761 -0.2522 -0.6773
 8990SOL    HW138603   1.458   2.401   6.809 -2.6145 -0.0972  1.6137
 8990SOL    HW238604   1.596   2.400   6.852  1.5127 -0.2561  0.5968
 8991SOL     OW38605   3.241   1.672   0.001 -0.2774 -0.0307  0.1946
 8991SOL    HW138606   3.147   1.684   0.008 -0.0995  0.2209  1.9459
 8991SOL    HW238607   3.258   1.616   0.077 -0.0750  0.5710  0.5865
 8992SOL     OW38608   1.042   1.919   9.312  0.4033 -0.4679  0.1165
 8992SOL    HW138609   0.980   1.886   9.247 -1.0157  1.1689  0.6205
 8992SOL    HW238610   1.008   1.864   9.381 -3.4383  0.3429 -1.1322
 8993SOL     OW38611   2.129   2.563  15.145 -0.1549 -0.2386 -0.1877
 8993SOL    HW138612   2.062   2.552  15.078  0.5115 -0.5772 -0.8006
 8993SOL    HW238613   2.163   2.473  15.141  0.9673  0.2663 -1.6138
 8994SOL     OW38614   2.595   2.649   1.337  0.2431 -0.3884  0.1107
 8994SOL    HW138615   2.661   2.587   1.368  0.4799 -0.9990 -1.6298
 8994SOL    HW238616   2.523   2.606   1.383  0.3508 -0.4136  0.2551
 8995SOL     OW38617   2.059   3.200   5.231  0.1127 -0.2844 -0.0990
 8995SOL    HW138618   1.995   3.268   5.252  1.5379  1.2029 -0.5794
 8995SOL    HW238619   2.003   3.158   5.166 -0.4150  1.7849 -0.9527
 8996SOL     OW38620   4.140   0.227   3.828  0.0905  0.0346 -0.1427
 8996SOL    HW138621   4.210   0.283   3.795  1.9094 -1.8760  0.4704
 8996SOL    HW238622   4.141   0.155   3.765 -1.1808  0.9222 -1.1731
 8997SOL     OW38623   3.563   1.476  16.980  0.7626 -0.5559  0.2121
 8997SOL    HW138624   3.548   1.419  17.055 -4.2166 -0.6178 -0.8263
 8997SOL    HW238625   3.658   1.469  16.977  0.8613  0.9744 -0.0836
 8998SOL     OW38626   1.646   0.237   6.810  0.4199 -0.2357 -0.2339
 8998SOL    HW138627   1.681   0.198   6.729  1.1431 -0.1473  0.0367
 8998SOL    HW238628   1.633   0.329   6.790  0.9633  0.2437  1.7089
 8999SOL     OW38629   4.478   0.474   2.914  0.0492 -0.2450 -0.0663
 8999SOL    HW138630   4.388   0.465   2.883 -1.7051  0.8032  4.6897
 8999SOL    HW238631   4.470   0.434   3.001 -0.1389 -0.9593 -0.4134
 9000SOL     OW38632   1.318   3.347   1.046 -0.3675  0.1321 -0.8142
 9000SOL    HW138633   1.413   3.347   1.048 -0.3942  0.4260  0.8305
 9000SOL    HW238634   1.302   3.253   1.054  1.9670 -0.1971 -0.0848
 9001SOL     OW38635   1.052   0.343   5.205 -0.2022  0.0240  0.5811
 9001SOL    HW138636   0.982   0.407   5.196  0.9362  0.9945 -1.4466
 9001SOL    HW238637   1.000   0.278   5.251  1.2356 -0.5101  1.4704
 9002SOL     OW38638   4.562   1.752  11.497 -0.2668 -0.0425 -0.7014
 9002SOL    HW138639   4.481   1.804  11.499  0.2696  0.7162  0.9144
 9002SOL    HW238640   4.623   1.824  11.512  1.1583 -1.1045 -1.4997
 9003SOL     OW38641   3.774   1.214   4.670 -0.3634 -0.5031  0.2389
 9003SOL    HW138642   3.757   1.132   4.623 -0.3328 -0.9557  1.0266
 9003SOL    HW238643   3.850   1.191   4.722  0.7981  1.2066 -0.7013
 9004SOL     OW38644   2.933   4.386   7.291  0.0165  0.7283  0.3049
 9004SOL    HW138645   2.875   4.339   7.231 -0.2368  0.1349  1.0217
 9004SOL    HW238646   2.873   4.451   7.325 -0.5656  0.5830 -0.4547
 9005SOL     OW38647   1.909   3.786  16.619  0.9523  0.3022 -0.0922
 9005SOL    HW138648   1.827   3.752  16.585 -1.0679  3.6916  1.4214
 9005SOL    HW238649   1.942   3.830  16.541 -0.0876 -0.4095 -0.9307
 9006SOL     OW38650   4.285   4.635   1.601 -0.4365  0.1441  0.0391
 9006SOL    HW138651   4.375   4.665   1.606  0.5683 -3.0305  1.3842
 9006SOL    HW238652   4.280   4.633   1.505 -0.1677 -0.8266  0.0467
 9007SOL     OW38653   3.393   3.403  11.533  0.2089 -0.1886  0.5956
 9007SOL    HW138654   3.478   3.359  11.529  0.1170 -0.4393  1.3708
 9007SOL    HW238655   3.385   3.418  11.627  0.2043 -1.8037  0.8490
 9008SOL     OW38656   0.583   4.567  11.755  0.0147  0.0495 -0.7344
 9008SOL    HW138657   0.644   4.638  11.778  0.7220 -0.9032  0.3828
 9008SOL    HW238658   0.517   4.616  11.706  0.6013  0.9504 -0.6316
 9009SOL     OW38659   2.013   3.719   8.144 -0.0796 -0.5619  0.1076
 9009SOL    HW138660   2.069   3.696   8.218 -0.2794 -1.8654 -0.1522
 9009SOL    HW238661   2.074   3.756   8.081 -0.2630 -0.1136  0.1897
 9010SOL     OW38662   3.652   0.733  14.738 -0.2955  0.2600  0.5208
 9010SOL    HW138663   3.693   0.679  14.670 -0.6986 -0.5297  0.9094
 9010SOL    HW238664   3.618   0.652  14.777  0.6288  0.4146  1.6305
 9011SOL     OW38665   2.701   1.162   9.531  0.1984 -0.0848 -0.0041
 9011SOL    HW138666   2.663   1.240   9.572 -0.8823 -0.9637  0.6653
 9011SOL    HW238667   2.780   1.199   9.491 -0.4221  0.5141 -0.6924
 9012SOL     OW38668   3.565   1.941   3.587 -0.3287 -0.2288 -0.1485
 9012SOL    HW138669   3.570   1.851   3.619 -0.1748  0.5755  2.1305
 9012SOL    HW238670   3.532   1.921   3.500  0.4554 -0.6897 -0.3330
 9013SOL     OW38671   2.761   3.037   4.912  0.4209  0.3237 -0.1823
 9013SOL    HW138672   2.683   2.983   4.921  2.0012 -1.5402  2.4229
 9013SOL    HW238673   2.812   3.011   4.990 -0.2501 -1.2705 -0.2726
 9014SOL     OW38674   0.892   3.208   5.659  0.2265 -0.1926  0.0486
 9014SOL    HW138675   0.969   3.260   5.682 -0.4733 -0.4378  2.9855
 9014SOL    HW238676   0.915   3.131   5.711 -2.9014 -0.9199  0.3500
 9015SOL     OW38677   3.283   4.190  12.464  0.0117 -0.1637  0.8932
 9015SOL    HW138678   3.195   4.152  12.464  0.9738 -2.4676 -1.0080
 9015SOL    HW238679   3.299   4.211  12.371 -0.3770  0.0861  0.8850
 9016SOL     OW38680   0.299   0.178  11.212 -0.8361  0.3261  0.3930
 9016SOL    HW138681   0.275   0.087  11.230 -2.0724  0.8757  1.4905
 9016SOL    HW238682   0.275   0.180  11.120  1.0085 -0.8086 -0.1121
 9017SOL     OW38683   4.466   1.720   1.741  0.2831  0.0046 -0.0581
 9017SOL    HW138684   4.485   1.650   1.804  0.2148 -0.8502 -0.9817
 9017SOL    HW238685   4.503   1.682   1.661 -0.8159  0.1926 -0.6438
 9018SOL     OW38686   4.019   2.540   2.774 -0.2783 -0.0444 -0.1254
 9018SOL    HW138687   3.956   2.525   2.844 -0.5168 -0.5934 -0.4512
 9018SOL    HW238688   3.962   2.496   2.710  0.4892 -2.1768  0.6381
 9019SOL     OW38689   4.133   2.979   6.803 -0.3921 -0.1079  0.5523
 9019SOL    HW138690   4.226   2.994   6.820  0.3895 -2.2017 -1.7611
 9019SOL    HW238691   4.123   2.920   6.878  2.0242 -0.9117  0.2491
 9020SOL     OW38692   2.129   0.871   7.161 -0.3081  0.9959 -0.4982
 9020SOL    HW138693   2.044   0.890   7.200 -0.1273  2.5775 -0.8602
 9020SOL    HW238694   2.117   0.923   7.081 -1.0166  1.6329  0.0223
 9021SOL     OW38695   2.199   3.265   3.569  0.0698 -0.5203  0.0613
 9021SOL    HW138696   2.231   3.324   3.501  0.6574  0.8025  1.4588
 9021SOL    HW238697   2.132   3.317   3.614  1.6325  1.6437 -0.0995
 9022SOL     OW38698   0.988   3.226  10.549 -0.0663  0.1012  0.2537
 9022SOL    HW138699   1.003   3.132  10.534 -1.3365 -0.2357  1.0726
 9022SOL    HW238700   1.053   3.244  10.616  0.2624 -1.0133  0.2397
 9023SOL     OW38701   1.882   2.345  10.418 -0.0547 -0.9375  0.4336
 9023SOL    HW138702   1.872   2.269  10.476  0.1406  1.1285  3.2028
 9023SOL    HW238703   1.968   2.378  10.443 -0.7769  0.2713  1.3317
 9024SOL     OW38704   3.040   0.916   2.156  0.1488  0.3062  0.7385
 9024SOL    HW138705   3.037   0.930   2.061 -0.4102  0.1021  0.7271
 9024SOL    HW238706   3.034   1.002   2.197  1.1083  1.5613 -1.7869
 9025SOL     OW38707   4.560   4.498   9.060 -0.7333  0.5703  0.1446
 9025SOL    HW138708   4.644   4.467   9.028 -0.6643  0.4965  0.4009
 9025SOL    HW238709   4.519   4.415   9.083  2.1760 -0.9677 -0.3691
 9026SOL     OW38710   4.526   2.910   1.872  0.3879  0.0750 -0.2732
 9026SOL    HW138711   4.466   2.836   1.870 -0.5101  0.7008  4.4071
 9026SOL    HW238712   4.572   2.903   1.788  0.0214 -0.2280 -0.4488
 9027SOL     OW38713   1.658   1.599   7.166  0.6632  0.1673 -0.2762
 9027SOL    HW138714   1.669   1.513   7.125  1.7028 -0.2239  0.8278
 9027SOL    HW238715   1.575   1.599   7.213  0.9982  0.2145  0.3090
 9028SOL     OW38716   0.319   4.241   6.876 -0.2656 -0.1707  0.2540
 9028SOL    HW138717   0.360   4.270   6.958  0.1559 -0.0113 -0.0154
 9028SOL    HW238718   0.292   4.318   6.827  0.9929  1.4281  2.0816
 9029SOL     OW38719   0.371   2.671   7.960 -0.3034 -0.1276  0.0681
 9029SOL    HW138720   0.420   2.683   7.879 -0.0236 -3.1132 -0.2276
 9029SOL    HW238721   0.396   2.580   7.976 -0.7361 -0.7622 -2.9257
 9030SOL     OW38722   3.395   1.522   6.048 -0.2886  0.8730 -0.2991
 9030SOL    HW138723   3.343   1.522   5.968 -2.2270 -1.7322  0.9448
 9030SOL    HW238724   3.326   1.506   6.113  0.0303 -2.1224 -0.6800
 9031SOL     OW38725   2.269   3.066   3.842  0.2705 -0.0709  0.6585
 9031SOL    HW138726   2.251   3.158   3.826 -1.4937 -0.8024 -1.6114
 9031SOL    HW238727   2.185   3.027   3.817  0.9236 -1.4547  0.6325
 9032SOL     OW38728   2.938   3.067   0.030  0.1020  0.2044 -0.1863
 9032SOL    HW138729   3.007   3.083  17.705  0.8494  1.2244  0.8821
 9032SOL    HW238730   2.908   3.158   0.035  0.2832  0.3293 -1.5015
 9033SOL     OW38731   4.457   2.025  13.279 -0.2025  0.2419 -0.1191
 9033SOL    HW138732   4.457   1.959  13.210  0.6719 -1.7179  1.7819
 9033SOL    HW238733   4.367   2.010  13.310 -0.2864 -0.1255 -0.5398
 9034SOL     OW38734   0.270   2.693   1.920 -0.7543  0.1366 -0.0226
 9034SOL    HW138735   0.177   2.673   1.919 -0.4888 -1.1749  1.8501
 9034SOL    HW238736   0.278   2.779   1.960  0.4112  0.0050  0.0351
 9035SOL     OW38737   3.675   4.448   5.132 -0.1925  0.0265  0.8460
 9035SOL    HW138738   3.609   4.379   5.143  0.4199 -0.6152  0.5103
 9035SOL    HW238739   3.740   4.433   5.200  0.7958 -1.0545 -0.3473
 9036SOL     OW38740   3.863   2.486  10.445  0.1043  0.7005  0.1415
 9036SOL    HW138741   3.836   2.408  10.396 -1.6151  1.4989 -0.1539
 9036SOL    HW238742   3.824   2.554  10.392 -0.5701  1.4085  1.5376
 9037SOL     OW38743   1.225   1.149   2.921  0.5125 -0.1359 -0.0803
 9037SOL    HW138744   1.315   1.156   2.954  0.2563 -0.1598  0.6330
 9037SOL    HW238745   1.179   1.201   2.987 -0.1950  0.5415 -1.1141
 9038SOL     OW38746   3.902   0.189   6.642 -0.3946  0.4304 -0.4633
 9038SOL    HW138747   3.962   0.115   6.631 -0.9780  0.0340 -0.9963
 9038SOL    HW238748   3.813   0.154   6.651 -0.3548  0.6406  0.6909
 9039SOL     OW38749   4.390   4.624  17.348  0.8133 -0.1559 -0.1118
 9039SOL    HW138750   4.412   4.618  17.255 -2.0387  0.0008 -0.7900
 9039SOL    HW238751   4.461   4.679  17.382  1.5079 -1.0463 -0.1271
 9040SOL     OW38752   4.108   1.558   9.899 -0.2620  0.5421 -0.5137
 9040SOL    HW138753   4.125   1.539   9.991 -0.6140  1.2317 -0.3081
 9040SOL    HW238754   4.095   1.653   9.898  0.0526  0.5877  2.3243
 9041SOL     OW38755   1.979   2.181   4.366 -0.5619 -0.1925  0.1919
 9041SOL    HW138756   2.002   2.205   4.276 -0.0674 -0.7762  0.1617
 9041SOL    HW238757   1.954   2.267   4.399 -1.7195 -0.8852  1.1167
 9042SOL     OW38758   2.271   2.858   2.082 -0.2863 -0.6949  0.1630
 9042SOL    HW138759   2.345   2.839   2.023 -1.3247 -0.1004 -1.3303
 9042SOL    HW238760   2.198   2.807   2.047  0.2514 -0.4467 -1.3325
 9043SOL     OW38761   0.221   1.774   2.378  0.5528  0.1150 -0.1398
 9043SOL    HW138762   0.282   1.836   2.338 -1.4116  1.8084 -0.4822
 9043SOL    HW238763   0.229   1.709   2.308 -0.3263  0.3761 -0.4757
 9044SOL     OW38764   4.427   1.340   3.458  0.1866 -0.0250  0.0428
 9044SOL    HW138765   4.446   1.262   3.509  0.0246  0.2939  0.5995
 9044SOL    HW238766   4.501   1.348   3.398 -0.7993 -1.1125 -1.3185
 9045SOL     OW38767   0.630   3.152   6.368 -0.1657 -0.8472  0.3923
 9045SOL    HW138768   0.584   3.197   6.438  1.7329  1.2472  0.2755
 9045SOL    HW238769   0.660   3.072   6.411 -0.2941  0.6134  3.1457
 9046SOL     OW38770   1.021   1.319   0.994 -0.0928  0.4976 -0.2698
 9046SOL    HW138771   1.071   1.239   0.978  1.0415  1.5286 -1.7582
 9046SOL    HW238772   0.951   1.278   1.045 -0.5712  0.5753 -0.8622
 9047SOL     OW38773   3.449   0.459   5.948  0.2643 -0.4494  0.5701
 9047SOL    HW138774   3.371   0.512   5.966  0.3947  0.6841 -2.2138
 9047SOL    HW238775   3.413   0.372   5.933 -0.4375 -0.0150 -0.2661
 9048SOL     OW38776   0.812   1.365  15.569  0.2242  0.0243 -0.1263
 9048SOL    HW138777   0.825   1.429  15.639  1.1183 -0.1603 -0.1188
 9048SOL    HW238778   0.723   1.332  15.576  0.4251 -0.7215 -0.8913
 9049SOL     OW38779   1.820   0.789  10.653  0.5140 -0.2631 -0.1234
 9049SOL    HW138780   1.831   0.857  10.719  4.3303  0.8193 -1.8620
 9049SOL    HW238781   1.809   0.852  10.581 -1.0748 -2.1494 -1.5185
 9050SOL     OW38782   1.743   3.927  10.746 -0.8254 -0.1279  0.2574
 9050SOL    HW138783   1.727   3.882  10.663  0.4340 -1.1786  0.5912
 9050SOL    HW238784   1.834   3.905  10.766 -0.5378  0.0034 -0.9602
 9051SOL     OW38785   4.347   1.370   2.792 -0.5270 -0.0094 -0.1222
 9051SOL    HW138786   4.323   1.281   2.769 -0.8170 -0.1115  0.5735
 9051SOL    HW238787   4.435   1.358   2.827 -1.3356  2.0315  2.6637
 9052SOL     OW38788   4.297   1.958  10.405 -0.0278  0.7467  0.5290
 9052SOL    HW138789   4.346   2.037  10.382 -1.5111  0.4269 -3.7046
 9052SOL    HW238790   4.211   1.996  10.389 -0.3805 -0.5485 -0.5855
 9053SOL     OW38791   2.991   1.192  16.334  0.0909 -0.3386 -0.3723
 9053SOL    HW138792   2.937   1.114  16.326 -0.9183  0.5140 -1.8482
 9053SOL    HW238793   3.075   1.149  16.323 -0.6280 -1.3457 -1.8562
 9054SOL     OW38794   0.405   4.102   9.142 -0.6113 -0.1468 -0.0945
 9054SOL    HW138795   0.358   4.019   9.152 -2.3747  0.4555 -3.6061
 9054SOL    HW238796   0.422   4.115   9.235  1.7979 -1.2841 -0.3796
 9055SOL     OW38797   1.225   2.330  14.481 -0.0378 -0.1120 -0.5292
 9055SOL    HW138798   1.214   2.422  14.456  0.8686  0.0674 -0.2437
 9055SOL    HW238799   1.142   2.293  14.452 -0.1261  0.9276 -1.6210
 9056SOL     OW38800   0.987   1.792   6.795  0.1689  0.3968 -0.0203
 9056SOL    HW138801   1.037   1.727   6.746 -0.7927 -0.8576  0.6921
 9056SOL    HW238802   0.892   1.781   6.786  0.4359 -2.4525  0.7728
 9057SOL     OW38803   2.035   0.677  10.784 -0.0994 -0.2281 -0.4135
 9057SOL    HW138804   2.116   0.693  10.736  0.3005  0.4339  0.4824
 9057SOL    HW238805   1.960   0.691  10.726  0.1434  1.7061 -0.2739
 9058SOL     OW38806   0.319   2.207   8.354 -0.4565 -0.0410 -0.1325
 9058SOL    HW138807   0.325   2.283   8.296 -1.0553  1.0816  1.2610
 9058SOL    HW238808   0.226   2.209   8.372 -0.4092  0.3370  0.0757
 9059SOL     OW38809   2.006   3.982  11.873 -0.2881 -0.4824  0.0858
 9059SOL    HW138810   1.995   4.015  11.784 -2.2219  0.5797  0.7132
 9059SOL    HW238811   1.946   3.907  11.880  0.7821 -1.2973  0.4754
 9060SOL     OW38812   2.974   1.874   7.888  0.0463 -0.3912  0.1100
 9060SOL    HW138813   3.066   1.864   7.868 -0.7045 -1.1512 -2.8912
 9060SOL    HW238814   2.916   1.848   7.816  1.8813 -0.0342 -1.4755
 9061SOL     OW38815   1.391   2.657   0.337 -0.4786 -0.4766  0.3435
 9061SOL    HW138816   1.402   2.730   0.277 -1.9748 -0.7852 -0.3057
 9061SOL    HW238817   1.462   2.602   0.303 -0.4781 -0.8938  1.0101
 9062SOL     OW38818   0.249   0.912   7.894 -0.0706 -0.2810 -0.0183
 9062SOL    HW138819   0.174   0.855   7.880  1.6318 -2.7780  1.0500
 9062SOL    HW238820   0.271   0.890   7.984  2.5027 -2.5651 -1.1937
 9063SOL     OW38821   1.801   2.407   8.163  0.2620  0.6203 -0.2053
 9063SOL    HW138822   1.838   2.334   8.213 -0.3596  1.4408  1.4779
 9063SOL    HW238823   1.776   2.358   8.085 -0.0494 -2.8447  2.0353
 9064SOL     OW38824   1.621   2.277   9.342 -0.0388  0.6094 -0.0538
 9064SOL    HW138825   1.543   2.308   9.388  0.9306  1.8149  0.7908
 9064SOL    HW238826   1.603   2.188   9.312 -2.8541  0.2454  2.6227
 9065SOL     OW38827   2.796   4.550   3.919  0.5233  0.6418 -0.2507
 9065SOL    HW138828   2.701   4.558   3.917  0.4622  0.5721  2.2655
 9065SOL    HW238829   2.819   4.614   3.852 -2.3523  2.5006  0.5562
 9066SOL     OW38830   0.266   2.511   9.045  0.6520  0.2215 -0.3495
 9066SOL    HW138831   0.238   2.536   8.957  0.4030  0.1083 -0.3028
 9066SOL    HW238832   0.355   2.491   9.018  1.2257  0.8949  1.0422
 9067SOL     OW38833   1.926   3.837   6.868  0.2806  0.6483  0.4159
 9067SOL    HW138834   1.873   3.792   6.801 -2.3480 -0.3353  3.1490
 9067SOL    HW238835   1.879   3.920   6.864 -3.3362 -1.3124  2.0636
 9068SOL     OW38836   1.396   0.885  16.458  0.1722 -0.6745  0.0370
 9068SOL    HW138837   1.397   0.791  16.480 -0.3802 -0.2178  2.0122
 9068SOL    HW238838   1.316   0.919  16.498 -0.8170 -3.5242  0.4924
 9069SOL     OW38839   2.007   3.726   0.185 -0.6137  0.3136  0.3142
 9069SOL    HW138840   2.017   3.640   0.226 -1.7860 -0.3129 -0.6950
 9069SOL    HW238841   1.927   3.757   0.227 -0.0696  1.5355  0.4609
 9070SOL     OW38842   2.158   0.732   7.922 -0.2984 -0.1181  0.2386
 9070SOL    HW138843   2.192   0.644   7.941 -0.9303 -0.2866  0.5858
 9070SOL    HW238844   2.230   0.764   7.868 -0.3253  2.2473  1.6253
 9071SOL     OW38845   2.724   1.585   4.585  0.1067  0.7284 -0.6052
 9071SOL    HW138846   2.665   1.660   4.592  0.8542  1.2454  0.2260
 9071SOL    HW238847   2.768   1.614   4.505  2.3390 -0.9024  0.0145
 9072SOL     OW38848   3.861   3.142   6.918  0.0070  0.8037 -0.7828
 9072SOL    HW138849   3.880   3.113   7.007  0.0428 -2.1037 -1.7347
 9072SOL    HW238850   3.879   3.236   6.920  1.3472  0.5325 -0.4512
 9073SOL     OW38851   2.691   1.391   5.080 -0.5448  0.3767 -0.1287
 9073SOL    HW138852   2.667   1.462   5.020 -0.6576  0.1764 -0.3213
 9073SOL    HW238853   2.751   1.437   5.139 -1.4532  0.9588  0.3390
 9074SOL     OW38854   0.977   3.256   4.633  0.0628 -0.1261 -0.0342
 9074SOL    HW138855   0.950   3.303   4.555  1.0590 -0.3893 -0.5405
 9074SOL    HW238856   1.073   3.250   4.626  0.2085 -1.3099  2.7642
 9075SOL     OW38857   1.669   0.209   5.042 -0.5599 -0.7271 -0.1972
 9075SOL    HW138858   1.717   0.126   5.049 -0.4844 -0.8907 -2.6155
 9075SOL    HW238859   1.670   0.225   4.948  0.6707 -0.7535 -0.1973
 9076SOL     OW38860   4.701   0.243   4.855  0.0437 -0.0878  0.4092
 9076SOL    HW138861   4.644   0.245   4.933 -2.1386 -2.0771 -1.1449
 9076SOL    HW238862   4.636   0.233   4.786 -0.5933  1.9056  0.7287
 9077SOL     OW38863   0.032   2.983  17.197  0.0210 -0.3024 -0.5181
 9077SOL    HW138864   0.008   3.033  17.276  0.1519  0.1640 -0.7718
 9077SOL    HW238865   0.100   3.036  17.155  2.5352 -2.4083  0.8531
 9078SOL     OW38866   3.736   0.687   8.877  0.0063 -0.3276  0.3399
 9078SOL    HW138867   3.669   0.624   8.847  0.6476 -0.1842 -1.3864
 9078SOL    HW238868   3.685   0.746   8.932 -1.3808 -0.5765 -0.6600
 9079SOL     OW38869   2.138   1.652   5.221  0.0061 -0.2864 -0.2953
 9079SOL    HW138870   2.059   1.626   5.174 -0.4748  1.5405 -0.4841
 9079SOL    HW238871   2.138   1.598   5.300  0.7644 -0.3532 -0.3409
 9080SOL     OW38872   2.149   4.103   4.383  0.0842  0.9102 -0.8303
 9080SOL    HW138873   2.149   4.043   4.308  1.4673  0.5694 -0.5452
 9080SOL    HW238874   2.071   4.154   4.362 -0.8608 -0.1998 -0.0323
 9081SOL     OW38875   1.839   3.755   8.359  0.0428  0.0875  0.0487
 9081SOL    HW138876   1.926   3.736   8.393  0.5802  0.9261 -0.8767
 9081SOL    HW238877   1.862   3.753   8.266  0.3054  0.5538  0.1044
 9082SOL     OW38878   2.323   1.148   2.742  0.6296  0.1637  0.1047
 9082SOL    HW138879   2.256   1.210   2.713  0.3666 -1.1488 -2.0979
 9082SOL    HW238880   2.386   1.213   2.774  1.0544  0.5679 -1.5303
 9083SOL     OW38881   3.925   2.736   3.438 -0.5411  0.0576 -0.3694
 9083SOL    HW138882   3.835   2.716   3.415 -0.3457 -1.8239  0.5308
 9083SOL    HW238883   3.901   2.785   3.517  1.8294  1.3553 -0.4519
 9084SOL     OW38884   4.207   1.969   3.364  0.7329  0.5982  0.1908
 9084SOL    HW138885   4.246   1.893   3.407  0.3549  0.0366 -0.4633
 9084SOL    HW238886   4.173   1.941   3.279 -0.9378 -0.2250  1.1283
 9085SOL     OW38887   4.041   1.339   2.997  0.4895  0.1405  0.4114
 9085SOL    HW138888   4.077   1.262   2.954  1.0394  0.3927  0.4191
 9085SOL    HW238889   3.990   1.374   2.925  0.1492  0.1805  0.6722
 9086SOL     OW38890   0.700   1.374   2.635 -0.1142 -0.2677  0.5508
 9086SOL    HW138891   0.788   1.399   2.663 -0.2461 -1.4535  2.0226
 9086SOL    HW238892   0.676   1.327   2.715 -0.9696  0.9513  1.0057
 9087SOL     OW38893   3.602   0.126   4.519 -0.2891  0.4489 -0.3620
 9087SOL    HW138894   3.569   0.120   4.429  0.1200 -1.0078 -0.4180
 9087SOL    HW238895   3.678   0.182   4.502 -0.7347  0.8866 -0.9089
 9088SOL     OW38896   3.397   0.076   5.681  0.5554  0.2559  0.1258
 9088SOL    HW138897   3.456   0.027   5.739  1.3180  0.9448 -0.0626
 9088SOL    HW238898   3.347   0.000   5.653  2.3626 -0.9190  0.0703
 9089SOL     OW38899   1.936   0.192   5.873  0.0312 -0.0115 -0.1750
 9089SOL    HW138900   1.871   0.243   5.920 -0.7764 -0.3942 -0.8891
 9089SOL    HW238901   1.931   0.244   5.793  2.0336 -2.1411 -1.6884
 9090SOL     OW38902   0.486   0.231   6.495 -0.0648  0.7447 -0.1099
 9090SOL    HW138903   0.485   0.149   6.544  1.2131  0.9650  0.3053
 9090SOL    HW238904   0.513   0.209   6.406  0.0213  0.9908 -0.1443
 9091SOL     OW38905   4.640   1.566  10.399 -0.4129  0.1746  0.2861
 9091SOL    HW138906   4.642   1.526  10.312  1.8055  2.4110 -0.6894
 9091SOL    HW238907   4.546   1.549  10.405 -0.5619  0.3278 -1.4750
 9092SOL     OW38908   4.398   4.255   1.472 -0.0559 -0.2169 -0.2221
 9092SOL    HW138909   4.346   4.177   1.453 -2.8021  2.0809 -1.9972
 9092SOL    HW238910   4.448   4.220   1.546 -0.7116  0.0138  0.3250
 9093SOL     OW38911   1.917   2.668   3.973  0.5864  0.4164  0.4107
 9093SOL    HW138912   1.822   2.670   3.979  0.4934 -1.8778 -0.2611
 9093SOL    HW238913   1.941   2.759   3.989 -1.0640  0.7858  0.7814
 9094SOL     OW38914   3.406   0.969   5.422  0.1386 -0.3124 -0.1436
 9094SOL    HW138915   3.347   1.025   5.372  1.5575  0.4158 -1.0291
 9094SOL    HW238916   3.465   0.937   5.353  1.3336 -0.1686  0.8073
 9095SOL     OW38917   2.141   2.055   6.965  0.0329  0.0418 -0.2540
 9095SOL    HW138918   2.137   2.145   6.932 -0.3673  0.1159 -0.0027
 9095SOL    HW238919   2.235   2.037   6.967  0.1100  0.3273 -2.2619
 9096SOL     OW38920   2.479   2.112  15.692 -0.2806 -0.0549 -0.1590
 9096SOL    HW138921   2.401   2.132  15.744 -0.4938 -1.7127  0.1736
 9096SOL    HW238922   2.550   2.138  15.752  0.8261  1.0532 -1.9356
 9097SOL     OW38923   1.278   4.285  12.351 -0.3146 -0.7675 -0.4206
 9097SOL    HW138924   1.304   4.358  12.295 -1.6469 -0.5178 -0.7159
 9097SOL    HW238925   1.306   4.203  12.311  0.7256 -2.2111  3.3193
 9098SOL     OW38926   4.596   1.920  10.549 -0.5196 -0.3366 -0.4109
 9098SOL    HW138927   4.504   1.946  10.551  0.0025  1.6445 -1.8771
 9098SOL    HW238928   4.610   1.943  10.641 -3.2676  1.0623 -0.3241
 9099SOL     OW38929   3.758   3.462   1.599 -0.0267  0.0579 -0.2050
 9099SOL    HW138930   3.770   3.554   1.620 -0.9321 -0.1059  0.9859
 9099SOL    HW238931   3.664   3.450   1.589  0.0079  0.1059 -0.6067
 9100SOL     OW38932   4.307   2.717   1.013  0.0026  0.3961 -0.6962
 9100SOL    HW138933   4.317   2.812   1.014 -2.1249  0.6237 -0.9981
 9100SOL    HW238934   4.351   2.697   0.930  1.0266 -1.0761  0.1998
 9101SOL     OW38935   2.610   0.609   6.085 -0.0227 -0.3946  0.6280
 9101SOL    HW138936   2.611   0.691   6.133 -0.7988 -0.3862  0.6390
 9101SOL    HW238937   2.661   0.622   6.005 -1.6889 -1.1542 -0.5555
 9102SOL     OW38938   4.232   2.454   3.077  0.0535  0.0024 -0.0955
 9102SOL    HW138939   4.293   2.385   3.049  1.1397  0.5071  1.0322
 9102SOL    HW238940   4.286   2.530   3.053  1.7350 -1.7382 -1.8405
 9103SOL     OW38941   0.241   3.550   2.153  0.5570 -0.1977 -0.3273
 9103SOL    HW138942   0.275   3.507   2.231 -0.2176 -0.3268 -0.0598
 9103SOL    HW238943   0.257   3.474   2.097  0.6935 -1.2107  1.0858
 9104SOL     OW38944   3.339   2.263   2.564 -0.2230  0.2679  0.7517
 9104SOL    HW138945   3.380   2.180   2.542  2.8582  1.8402  0.6234
 9104SOL    HW238946   3.416   2.317   2.583  0.0524 -0.1997  0.9523
 9105SOL     OW38947   3.927   2.067  12.452 -0.3968  0.0161 -0.1166
 9105SOL    HW138948   3.994   2.000  12.468  0.5274  0.9247 -0.1413
 9105SOL    HW238949   3.895   2.069  12.542  1.3620  0.9672  0.4940
 9106SOL     OW38950   0.761   3.639   0.357  0.0807 -0.3519 -0.4363
 9106SOL    HW138951   0.807   3.657   0.275 -1.2714  1.3057 -0.8469
 9106SOL    HW238952   0.831   3.635   0.421  0.2608 -0.3466 -0.6351
 9107SOL     OW38953   4.012   2.191   7.574 -0.5335 -1.0064  0.1755
 9107SOL    HW138954   3.926   2.192   7.617 -0.3569 -0.4285  0.5162
 9107SOL    HW238955   3.984   2.240   7.497  0.1060  3.5024  2.8211
 9108SOL     OW38956   3.065   4.008   6.190 -0.0119 -0.9796 -0.3135
 9108SOL    HW138957   2.998   4.032   6.126 -0.8261 -2.2005  0.0969
 9108SOL    HW238958   3.084   3.921   6.155  0.7493 -1.4184  1.1921
 9109SOL     OW38959   1.810   0.279  10.058 -0.5761  0.1582 -0.2680
 9109SOL    HW138960   1.790   0.294  10.150 -0.2228  0.6490 -0.2769
 9109SOL    HW238961   1.905   0.275  10.051 -0.4314  0.3581  1.8153
 9110SOL     OW38962   2.360   3.125   6.848  0.5264  0.4903 -0.1792
 9110SOL    HW138963   2.396   3.037   6.858 -0.4659 -0.0918 -1.7275
 9110SOL    HW238964   2.371   3.156   6.938 -2.1889  0.7320  0.0686
 9111SOL     OW38965   4.432   1.278   6.385 -0.8226 -0.1339 -0.6347
 9111SOL    HW138966   4.444   1.198   6.333 -0.3349 -1.6032  1.7119
 9111SOL    HW238967   4.362   1.328   6.345  0.1584  0.8577 -1.0954
 9112SOL     OW38968   2.046   3.739  13.408 -0.1151  0.3057  0.2364
 9112SOL    HW138969   2.086   3.713  13.491 -0.7515 -1.2986  0.0335
 9112SOL    HW238970   2.121   3.787  13.373  0.4078 -1.7111 -1.3554
 9113SOL     OW38971   2.588   2.803   7.368  0.1935  0.0666 -0.3233
 9113SOL    HW138972   2.645   2.802   7.291  0.9526 -0.2111  0.2434
 9113SOL    HW238973   2.645   2.758   7.430  0.5985 -1.1136 -1.5612
 9114SOL     OW38974   4.099   1.669   2.090  0.4813 -0.1516 -0.5460
 9114SOL    HW138975   4.132   1.724   2.018 -0.7333  0.6733 -0.4802
 9114SOL    HW238976   4.012   1.653   2.053 -0.7118  1.2248  1.6500
 9115SOL     OW38977   4.405   1.377  10.148  0.4063  0.5601 -0.0458
 9115SOL    HW138978   4.401   1.314  10.076  1.9595 -1.7492  1.8939
 9115SOL    HW238979   4.378   1.326  10.224  0.0089  1.0418  0.1329
 9116SOL     OW38980   1.894   1.005   8.588 -0.2061 -0.9018 -0.5140
 9116SOL    HW138981   1.935   1.083   8.549 -1.7986 -0.6669 -1.7281
 9116SOL    HW238982   1.877   0.949   8.513 -0.7855 -0.7710 -0.4853
 9117SOL     OW38983   3.159   4.230   8.751  0.1005  0.3377  0.4312
 9117SOL    HW138984   3.183   4.320   8.731 -2.0966  0.6862 -0.5576
 9117SOL    HW238985   3.073   4.234   8.710  0.7745  0.8942 -0.9563
 9118SOL     OW38986   2.059   3.463   6.597  0.8211  0.7362  0.6211
 9118SOL    HW138987   2.067   3.548   6.555  2.0867  0.6410  0.6608
 9118SOL    HW238988   2.099   3.481   6.682 -1.6617  0.3940  1.8631
 9119SOL     OW38989   0.244   3.743   9.107  0.1560 -0.8419  0.3005
 9119SOL    HW138990   0.233   3.756   9.202 -0.5201  0.7967  0.0017
 9119SOL    HW238991   0.223   3.651   9.089  0.8471 -1.0931  0.7434
 9120SOL     OW38992   3.240   4.328  11.899  0.3193 -0.3230 -0.3473
 9120SOL    HW138993   3.263   4.331  11.806 -0.8622 -1.2402 -0.6741
 9120SOL    HW238994   3.313   4.384  11.924 -1.3207  1.6373  0.0142
 9121SOL     OW38995   4.397   3.540  13.454 -0.5896 -0.3965 -0.2660
 9121SOL    HW138996   4.360   3.615  13.501 -0.1270  0.0551 -0.6190
 9121SOL    HW238997   4.421   3.474  13.519 -0.3653 -0.5098 -0.4639
 9122SOL     OW38998   1.462   0.487   7.589 -0.0482  0.0722  0.4179
 9122SOL    HW138999   1.409   0.407   7.598 -2.1796  1.4497  0.0678
 9122SOL    HW239000   1.486   0.507   7.679 -0.2641  1.8535  0.0849
 9123SOL     OW39001   4.158   1.993   3.657  0.2468 -0.1919 -0.2601
 9123SOL    HW139002   4.093   2.009   3.588  0.2844 -1.2842 -0.5574
 9123SOL    HW239003   4.175   2.083   3.684 -1.2067  0.0615 -0.2110
 9124SOL     OW39004   3.679   2.238  12.735  0.0848  0.1602  0.1155
 9124SOL    HW139005   3.679   2.214  12.828  1.8965 -2.0210 -0.4397
 9124SOL    HW239006   3.606   2.300  12.729  0.3910  0.5678  0.6591
 9125SOL     OW39007   0.316   2.728   6.376 -0.0095  0.1620 -0.6271
 9125SOL    HW139008   0.245   2.783   6.410  1.0445  0.5244  0.9412
 9125SOL    HW239009   0.306   2.741   6.281 -0.6352 -2.1245 -0.8793
 9126SOL     OW39010   2.426   2.509   7.090  0.4026 -0.1839  0.6485
 9126SOL    HW139011   2.516   2.505   7.123  0.9463 -1.3162 -0.9484
 9126SOL    HW239012   2.438   2.501   6.995 -1.9340 -0.2491  0.3727
 9127SOL     OW39013   3.061   2.480   1.505  0.5168 -0.4640  0.2149
 9127SOL    HW139014   3.050   2.565   1.461 -1.4076 -0.8481 -0.0229
 9127SOL    HW239015   3.048   2.506   1.597  0.9738 -2.0878  0.7413
 9128SOL     OW39016   0.596   3.199   3.404  0.1618  0.1978  0.0506
 9128SOL    HW139017   0.576   3.292   3.414  0.1441  0.2296 -0.3023
 9128SOL    HW239018   0.608   3.176   3.497 -0.2731  2.6337  0.7022
 9129SOL     OW39019   4.316   1.075   6.879 -0.0165  0.2503 -0.2137
 9129SOL    HW139020   4.265   0.998   6.905  0.1132  0.1674 -0.2081
 9129SOL    HW239021   4.382   1.071   6.948  1.0543 -1.8463 -1.3561
 9130SOL     OW39022   4.707   2.016   3.622 -0.2599 -0.0254 -0.2900
 9130SOL    HW139023   0.020   2.080   3.675 -1.9890  2.0758 -1.3249
 9130SOL    HW239024   4.619   2.045   3.644 -0.9212 -3.7424  2.0742
 9131SOL     OW39025   3.007   4.594   3.642  0.1726  0.7028  0.5739
 9131SOL    HW139026   3.057   4.572   3.720  1.0808  1.0318  0.0894
 9131SOL    HW239027   3.034   4.518   3.589 -0.7853  0.3726  0.5631
 9132SOL     OW39028   0.953   3.481   8.445 -0.2354 -0.4362 -0.3679
 9132SOL    HW139029   0.909   3.540   8.506  0.0614  2.7844 -3.2598
 9132SOL    HW239030   0.958   3.408   8.506 -2.6154 -1.5774 -1.5601
 9133SOL     OW39031   2.637   4.732   3.331  0.2893  0.0265  0.5031
 9133SOL    HW139032   2.663   0.038   3.248 -0.0432 -1.5640 -0.3886
 9133SOL    HW239033   2.635   4.641   3.300 -0.3792  0.6252 -1.1989
 9134SOL     OW39034   0.924   1.098   2.680  0.2115  0.1095  0.1918
 9134SOL    HW139035   0.876   1.119   2.600  0.6139  2.6081  0.6024
 9134SOL    HW239036   0.922   1.185   2.721 -0.6512  0.7955 -1.3118
 9135SOL     OW39037   1.562   3.122   8.190 -0.1969  0.0616 -0.0980
 9135SOL    HW139038   1.512   3.169   8.257  1.2395 -1.1036  1.7955
 9135SOL    HW239039   1.515   3.039   8.179  1.5365 -0.9853  0.3817
 9136SOL     OW39040   2.690   1.710   3.937  0.6537  0.3131  0.0173
 9136SOL    HW139041   2.663   1.621   3.960  1.7037  0.0393  0.1618
 9136SOL    HW239042   2.659   1.710   3.846  0.4720  1.4079  0.0777
 9137SOL     OW39043   4.536   4.233   4.264  0.1457  0.0967 -0.1089
 9137SOL    HW139044   4.595   4.159   4.251  1.8641  1.3980  0.3249
 9137SOL    HW239045   4.513   4.267   4.178  0.7617  1.0211  0.0937
 9138SOL     OW39046   3.191   3.747   5.646 -0.1102  0.8418 -0.2463
 9138SOL    HW139047   3.195   3.690   5.722 -0.1555 -1.2701 -1.8153
 9138SOL    HW239048   3.101   3.780   5.637  0.3835  2.3756  0.3262
 9139SOL     OW39049   3.796   1.974  11.724 -0.2778 -0.4477  0.4615
 9139SOL    HW139050   3.857   2.047  11.734 -0.8308  0.1758 -0.7563
 9139SOL    HW239051   3.786   1.936  11.811  0.5895 -1.0391  0.3105
 9140SOL     OW39052   2.863   3.796  17.310  0.7445  0.5307  0.4174
 9140SOL    HW139053   2.935   3.733  17.301  1.3956  1.2474  0.6041
 9140SOL    HW239054   2.902   3.856  17.373  0.2410 -1.9246  3.0716
 9141SOL     OW39055   2.448   2.802   2.865 -0.0543 -0.4100 -0.5540
 9141SOL    HW139056   2.443   2.776   2.957  0.3467  0.1102 -0.3843
 9141SOL    HW239057   2.381   2.747   2.824 -0.1905 -0.1660 -0.6592
 9142SOL     OW39058   3.883   1.214   5.212  0.2386 -0.2365 -0.1327
 9142SOL    HW139059   3.801   1.180   5.248  0.8037 -1.4024  0.0312
 9142SOL    HW239060   3.943   1.149   5.248 -1.1127 -1.5593 -0.2382
 9143SOL     OW39061   3.190   3.484   1.062  0.5999  0.0275 -0.0016
 9143SOL    HW139062   3.264   3.529   1.104  2.9514 -1.0481 -3.0080
 9143SOL    HW239063   3.194   3.397   1.104  1.2441 -1.0066 -2.2125
 9144SOL     OW39064   2.339   4.038   7.811  0.3234 -0.4386  0.2831
 9144SOL    HW139065   2.271   3.991   7.762 -1.8584  0.9079  2.0025
 9144SOL    HW239066   2.425   4.011   7.780  0.1363 -1.1196  0.3464
 9145SOL     OW39067   3.974   3.078   9.954 -0.1296  0.3861  0.9485
 9145SOL    HW139068   3.926   3.136  10.013 -0.1949  2.6663 -1.3769
 9145SOL    HW239069   3.931   3.103   9.872  0.4909  0.1709  0.5647
 9146SOL     OW39070   2.003   0.212   1.729 -0.2114 -0.3182 -0.2161
 9146SOL    HW139071   2.061   0.264   1.673 -2.3850  0.3749 -1.8059
 9146SOL    HW239072   1.924   0.186   1.682 -0.0612 -0.0622 -0.6173
 9147SOL     OW39073   0.800   4.142   0.012  0.1179  0.1963 -0.7754
 9147SOL    HW139074   0.807   4.087  17.673  2.1796  0.1518 -0.5382
 9147SOL    HW239075   0.774   4.083   0.083 -0.2069 -0.4033 -1.3935
 9148SOL     OW39076   4.472   0.244   4.658 -0.3968 -0.2751  0.1797
 9148SOL    HW139077   4.379   0.237   4.636 -0.1088  0.8825 -1.3942
 9148SOL    HW239078   4.477   0.170   4.719  0.4874 -2.0056 -1.9971
 9149SOL     OW39079   1.145   3.932   4.683 -0.0061 -0.1503 -0.8493
 9149SOL    HW139080   1.179   3.949   4.595  1.0023  0.5827 -0.3248
 9149SOL    HW239081   1.086   3.858   4.675 -0.2068  0.1469 -2.0248
 9150SOL     OW39082   3.675   3.066   3.441  0.4386  0.4489 -0.4347
 9150SOL    HW139083   3.685   3.014   3.520  1.2671 -1.0569 -1.5180
 9150SOL    HW239084   3.626   3.142   3.472 -0.3417 -0.5095  0.6891
 9151SOL     OW39085   2.857   3.584  13.971  0.6985 -0.5262  0.0487
 9151SOL    HW139086   2.940   3.547  13.940  0.2423 -1.3487 -0.2131
 9151SOL    HW239087   2.864   3.553  14.061  0.4600  1.0914  0.6201
 9152SOL     OW39088   1.930   4.520   6.567 -0.2783 -0.1604 -0.3609
 9152SOL    HW139089   1.846   4.487   6.598  0.9604  0.3497  3.5034
 9152SOL    HW239090   1.952   4.572   6.644 -0.7121 -1.2659  0.5094
 9153SOL     OW39091   3.692   1.058   5.333 -0.1627 -0.1161 -0.0033
 9153SOL    HW139092   3.669   0.969   5.309 -0.3752  0.1299 -0.7209
 9153SOL    HW239093   3.653   1.078   5.418 -1.8294  1.6028 -1.1638
 9154SOL     OW39094   4.185   0.880   7.115 -0.1065  0.0302  0.4919
 9154SOL    HW139095   4.268   0.925   7.132  0.4013 -0.7378  0.0261
 9154SOL    HW239096   4.220   0.821   7.049 -1.0270  0.7772 -0.6696
 9155SOL     OW39097   2.361   1.418  15.689  0.0094  0.3975 -0.0205
 9155SOL    HW139098   2.392   1.448  15.604 -1.7869  0.5401 -0.6038
 9155SOL    HW239099   2.445   1.429  15.735 -0.8860  0.3342  1.6140
 9156SOL     OW39100   2.582   3.828   1.135 -0.2612  0.7439 -0.3884
 9156SOL    HW139101   2.672   3.818   1.168 -0.0698 -0.2665 -1.2109
 9156SOL    HW239102   2.575   3.923   1.142  0.0420  0.6887  0.8019
 9157SOL     OW39103   2.753   0.211   9.117 -0.1451  0.7275 -0.2793
 9157SOL    HW139104   2.844   0.224   9.143 -0.6506  2.5494  0.5403
 9157SOL    HW239105   2.710   0.145   9.173 -1.3113 -0.1974 -2.2631
 9158SOL     OW39106   2.877   0.590   4.311 -0.5901  0.3906  0.1649
 9158SOL    HW139107   2.836   0.657   4.256 -1.3247 -0.2669 -0.0796
 9158SOL    HW239108   2.933   0.646   4.365  0.7098 -1.4484  0.6891
 9159SOL     OW39109   3.295   0.393   8.338 -0.0986 -0.4363  0.1354
 9159SOL    HW139110   3.201   0.392   8.318 -0.3664 -0.0290  1.3569
 9159SOL    HW239111   3.295   0.337   8.416 -0.1599  0.3037  0.6724
 9160SOL     OW39112   2.407   4.017   5.114  0.0179 -0.0612  0.2616
 9160SOL    HW139113   2.491   4.058   5.134  0.5199 -1.2168  0.5446
 9160SOL    HW239114   2.378   4.063   5.036  1.1357 -0.0888 -0.1649
 9161SOL     OW39115   3.152   1.307   1.288  0.1054 -0.8278  0.1656
 9161SOL    HW139116   3.212   1.381   1.287  0.3428 -1.0323 -2.0598
 9161SOL    HW239117   3.195   1.248   1.350 -0.7386 -0.3164  1.2214
 9162SOL     OW39118   3.208   2.621   2.600  0.0046 -0.4413  0.1686
 9162SOL    HW139119   3.155   2.542   2.602 -0.1474 -0.3990 -2.2555
 9162SOL    HW239120   3.218   2.632   2.506 -1.2866  0.2535  0.1050
 9163SOL     OW39121   2.860   2.833   4.706  0.6564  0.2922  0.0647
 9163SOL    HW139122   2.833   2.745   4.733 -0.1943  0.5710  0.1422
 9163SOL    HW239123   2.809   2.898   4.753  0.3228 -1.1993  1.7568
 9164SOL     OW39124   0.231   2.298   5.122  0.8669 -0.1305 -0.0619
 9164SOL    HW139125   0.215   2.369   5.185  3.3020 -0.1063  0.5049
 9164SOL    HW239126   0.139   2.272   5.123  1.1990 -1.1872  3.9036
 9165SOL     OW39127   3.893   0.650   3.282 -0.2621  0.1954  0.4720
 9165SOL    HW139128   3.988   0.664   3.284  0.0213 -2.0049  2.2546
 9165SOL    HW239129   3.876   0.727   3.336 -1.1137  0.1856  0.2174
 9166SOL     OW39130   4.012   0.588   5.260  0.2845 -0.1456 -0.0371
 9166SOL    HW139131   4.039   0.510   5.213  1.4260 -0.2350  0.7870
 9166SOL    HW239132   3.954   0.630   5.196 -0.2877 -0.3047  0.3655
 9167SOL     OW39133   0.182   3.074   5.734  0.9895 -0.2672 -0.0596
 9167SOL    HW139134   0.260   3.057   5.681  1.7612  1.7477  0.4478
 9167SOL    HW239135   0.125   3.002   5.708  0.0281  0.2516  0.6039
 9168SOL     OW39136   0.790   1.222   6.943  0.3951 -0.8351  0.2000
 9168SOL    HW139137   0.794   1.316   6.928 -1.8347 -0.4989  1.6967
 9168SOL    HW239138   0.870   1.183   6.908  2.2534  1.0743  2.3494
 9169SOL     OW39139   3.427   4.488   8.862  0.3056 -0.3667  0.0317
 9169SOL    HW139140   3.409   4.576   8.895  0.9108  0.9529 -3.1553
 9169SOL    HW239141   3.361   4.488   8.792  0.7256 -0.8637 -0.3679
 9170SOL     OW39142   4.339   2.869   2.947  0.2943  0.7416 -0.1706
 9170SOL    HW139143   4.273   2.837   2.886  0.8291  0.6522 -0.7127
 9170SOL    HW239144   4.375   2.785   2.975 -2.1656 -0.4677 -0.6735
 9171SOL     OW39145   0.626   0.349  14.824  0.3556  0.0022 -0.0115
 9171SOL    HW139146   0.551   0.290  14.826  1.1267 -0.8953  1.8353
 9171SOL    HW239147   0.594   0.403  14.751 -0.0702 -0.7347 -0.3732
 9172SOL     OW39148   0.833   2.613  16.427  0.1693 -0.0888 -0.5938
 9172SOL    HW139149   0.910   2.555  16.427 -1.1356 -1.8039  2.2304
 9172SOL    HW239150   0.832   2.637  16.334 -0.2277 -1.6988 -1.0054
 9173SOL     OW39151   3.369   1.863   2.767  0.3577 -0.5306  0.1781
 9173SOL    HW139152   3.431   1.898   2.832  0.0858  1.4527 -0.6396
 9173SOL    HW239153   3.404   1.897   2.685  0.2807 -1.0203 -0.0536
 9174SOL     OW39154   0.895   3.822  10.214 -0.3423 -0.7387  0.0658
 9174SOL    HW139155   0.967   3.861  10.265 -2.3061 -1.1406  3.1804
 9174SOL    HW239156   0.825   3.823  10.280 -0.6431 -1.8190 -0.2562
 9175SOL     OW39157   3.634   2.208  13.000 -0.3578  0.3217  0.0502
 9175SOL    HW139158   3.659   2.135  13.057  3.1170  0.8398 -0.8371
 9175SOL    HW239159   3.564   2.253  13.048  0.4058  0.7913  0.7208
 9176SOL     OW39160   4.003   0.068   4.510 -0.0622  0.5161  0.7392
 9176SOL    HW139161   4.020   0.021   4.592 -0.3130 -3.9504 -1.7512
 9176SOL    HW239162   3.943   0.010   4.463  2.1505 -0.3081 -1.0700
 9177SOL     OW39163   4.081   1.102  10.255 -0.0238  0.3451 -0.3397
 9177SOL    HW139164   4.003   1.102  10.310  0.2292  0.1794  0.0172
 9177SOL    HW239165   4.062   1.168  10.188 -2.1189  0.0867  0.0004
 9178SOL     OW39166   0.557   0.258   2.370 -0.4070  0.1221  0.9518
 9178SOL    HW139167   0.543   0.242   2.277  1.0534  1.2560  0.5334
 9178SOL    HW239168   0.564   0.354   2.374  0.5576 -0.0100  2.3197
 9179SOL     OW39169   3.753   0.010  17.385 -0.0207 -0.1071 -0.5864
 9179SOL    HW139170   3.698   4.686  17.334 -1.2076 -0.0532  0.6363
 9179SOL    HW239171   3.742   4.705  17.471  1.5950 -1.6224 -1.0884
 9180SOL     OW39172   4.043   3.687   0.978  0.6548 -0.7451 -0.0782
 9180SOL    HW139173   4.061   3.634   0.899 -2.2996 -0.4401 -0.9808
 9180SOL    HW239174   4.044   3.773   0.936  0.5371 -1.7867 -2.2562
 9181SOL     OW39175   3.240   2.497   3.452 -1.0678 -1.0492  0.1673
 9181SOL    HW139176   3.309   2.556   3.421 -1.8240  0.1182  0.6901
 9181SOL    HW239177   3.174   2.520   3.387 -1.1672  0.3992  0.7676
 9182SOL     OW39178   2.880   1.072  13.582  0.0900 -0.5625 -0.8463
 9182SOL    HW139179   2.925   0.995  13.546  0.6865 -0.5956 -0.0349
 9182SOL    HW239180   2.871   1.127  13.505  1.5139 -1.7196 -1.8457
 9183SOL     OW39181   4.113   2.327   1.421 -0.5919  0.7041  0.1777
 9183SOL    HW139182   4.187   2.266   1.431 -1.6614 -1.0140 -2.4456
 9183SOL    HW239183   4.154   2.410   1.446 -2.1096  0.5658  3.1656
 9184SOL     OW39184   3.801   2.428   6.034 -0.5577  0.2011  0.2989
 9184SOL    HW139185   3.758   2.386   5.960 -0.8402 -1.0474  1.1739
 9184SOL    HW239186   3.752   2.509   6.048 -1.1934 -0.0817 -0.2975
 9185SOL     OW39187   2.980   4.685   8.151  0.2118 -0.1599 -0.1131
 9185SOL    HW139188   3.046   0.019   8.138 -0.0257  0.0243 -0.3497
 9185SOL    HW239189   3.030   4.631   8.213 -1.3604 -0.9583  0.4474
 9186SOL     OW39190   2.235   4.278   7.033  0.1481  0.0318 -0.3026
 9186SOL    HW139191   2.198   4.327   6.959 -1.1751  0.0061  0.3384
 9186SOL    HW239192   2.169   4.211   7.052  1.0992 -1.1157 -1.0841
 9187SOL     OW39193   0.643   4.467   4.977  0.1599 -0.2726 -0.4776
 9187SOL    HW139194   0.560   4.482   4.932  1.1496  2.4267 -1.3686
 9187SOL    HW239195   0.668   4.390   4.925  1.0428  0.8497 -1.7201
 9188SOL     OW39196   1.847   1.395   9.226  1.0135 -0.0306  0.0846
 9188SOL    HW139197   1.910   1.324   9.239  2.6329  1.7470  1.8761
 9188SOL    HW239198   1.897   1.473   9.200  0.7137 -0.2892 -1.3017
 9189SOL     OW39199   3.497   4.385   2.216 -0.0556  0.3217 -0.0176
 9189SOL    HW139200   3.423   4.430   2.175 -0.8043 -0.4317  0.4947
 9189SOL    HW239201   3.444   4.326   2.270 -0.7448  0.5648 -0.4299
 9190SOL     OW39202   3.569   4.131   3.566 -0.0087 -0.1754 -0.1832
 9190SOL    HW139203   3.663   4.145   3.574 -0.0438 -0.3226  0.4799
 9190SOL    HW239204   3.552   4.059   3.627  1.0576 -0.3340 -0.0744
 9191SOL     OW39205   1.497   4.441   8.381 -0.3733  0.4022  0.1945
 9191SOL    HW139206   1.567   4.377   8.391 -1.6097 -1.1512 -1.1274
 9191SOL    HW239207   1.546   4.508   8.332  1.2198 -0.1490  1.0415
 9192SOL     OW39208   3.072   0.393   5.302 -0.3132 -0.5354 -0.3787
 9192SOL    HW139209   3.104   0.314   5.258 -1.3342  0.0190 -2.0936
 9192SOL    HW239210   3.073   0.368   5.395  1.0906  0.0088 -0.2509
 9193SOL     OW39211   0.736   0.868   6.573 -0.0222 -0.1393 -0.8974
 9193SOL    HW139212   0.795   0.861   6.648  0.1134  1.9918 -0.8114
 9193SOL    HW239213   0.712   0.960   6.581  1.4555  0.0650  1.4565
 9194SOL     OW39214   1.883   1.080   2.271 -0.3689 -0.2576  0.2982
 9194SOL    HW139215   1.789   1.073   2.255 -0.2643 -0.4442 -0.2347
 9194SOL    HW239216   1.897   0.987   2.250  1.0361  0.6388 -2.7514
 9195SOL     OW39217   4.596   3.153   8.189 -0.3544 -0.0435 -0.3561
 9195SOL    HW139218   4.590   3.208   8.110  0.0138  1.2079  0.4940
 9195SOL    HW239219   4.661   3.085   8.171  0.3572  0.6271 -0.3650
 9196SOL     OW39220   3.082   1.707   1.942  0.3157 -0.3729 -0.4703
 9196SOL    HW139221   3.050   1.791   1.976  1.0963  0.7314 -2.4421
 9196SOL    HW239222   3.003   1.653   1.952  1.6086 -2.3159 -0.6826
 9197SOL     OW39223   2.289   2.986   0.262  0.1924 -0.2011 -0.0363
 9197SOL    HW139224   2.236   2.929   0.316  0.8355 -0.3616  0.4213
 9197SOL    HW239225   2.262   2.954   0.175 -2.1280  1.5242  0.0322
 9198SOL     OW39226   3.626   4.095   5.418  0.3888 -0.7569 -0.2513
 9198SOL    HW139227   3.623   4.007   5.382 -0.1349 -0.6689 -0.4302
 9198SOL    HW239228   3.716   4.129   5.423  0.9068 -2.1220 -0.5224
 9199SOL     OW39229   0.006   0.797   8.306 -0.1922 -0.0495  0.1197
 9199SOL    HW139230   0.018   0.826   8.396  0.4568 -1.3266  0.4294
 9199SOL    HW239231   0.020   0.878   8.257  0.1665 -0.9102 -1.2013
 9200SOL     OW39232   0.826   4.350   1.164  0.0274 -1.0763  0.0071
 9200SOL    HW139233   0.755   4.344   1.227 -0.2964  0.8630 -0.1524
 9200SOL    HW239234   0.780   4.406   1.101  0.4115 -0.4643  0.2692
 9201SOL     OW39235   1.706   4.331  14.797 -0.4629 -0.4411  0.2015
 9201SOL    HW139236   1.714   4.238  14.775  0.0925 -0.2656 -0.3470
 9201SOL    HW239237   1.798   4.356  14.808 -0.6266 -0.0530  0.6870
 9202SOL     OW39238   3.800   3.018   7.414 -0.4293 -0.2086  0.6731
 9202SOL    HW139239   3.752   3.068   7.480 -2.2524 -1.3041  0.1892
 9202SOL    HW239240   3.853   3.084   7.369  0.0958 -2.2267 -1.6915
 9203SOL     OW39241   3.094   3.319   1.410 -0.6637 -0.0195 -0.7205
 9203SOL    HW139242   3.102   3.243   1.468  1.2721 -1.5031 -2.9453
 9203SOL    HW239243   3.182   3.337   1.378 -0.4151  1.0980  0.5885
 9204SOL     OW39244   1.815   2.734   0.375 -0.3349  0.7305  0.1939
 9204SOL    HW139245   1.877   2.697   0.438  0.5448 -0.4493 -1.3514
 9204SOL    HW239246   1.770   2.658   0.338  0.1623  0.8569 -0.6856
 9205SOL     OW39247   2.924   1.324   7.012 -0.4119 -0.5458 -0.1483
 9205SOL    HW139248   2.941   1.300   6.920 -1.1091  1.1757 -0.7221
 9205SOL    HW239249   2.851   1.385   7.010  0.1527  0.1146 -0.9910
 9206SOL     OW39250   1.845   4.423  13.706 -0.3731  0.2505 -0.0920
 9206SOL    HW139251   1.861   4.493  13.770 -1.7391 -0.3422  0.9025
 9206SOL    HW239252   1.755   4.393  13.717 -0.4634  0.3618 -0.5613
 9207SOL     OW39253   1.348   3.401   0.431 -0.5026  0.5385  0.4210
 9207SOL    HW139254   1.339   3.469   0.365 -1.5674 -0.5591 -0.5460
 9207SOL    HW239255   1.354   3.324   0.374  2.0844  0.8609  0.2340
 9208SOL     OW39256   2.441   4.561  14.936  0.0215  0.0066 -0.1880
 9208SOL    HW139257   2.367   4.516  14.895 -0.6816  0.4349  0.6085
 9208SOL    HW239258   2.414   4.565  15.027  1.0763  0.4564  0.1036
 9209SOL     OW39259   0.539   2.453  10.329 -0.3826 -0.7108 -0.1343
 9209SOL    HW139260   0.450   2.480  10.308  0.2903  2.4525  1.0599
 9209SOL    HW239261   0.541   2.446  10.424 -1.4125 -1.4724 -0.1782
 9210SOL     OW39262   1.975   4.377  13.346  0.4163  0.7095 -0.0693
 9210SOL    HW139263   2.027   4.372  13.426 -1.6886  0.2324  1.2508
 9210SOL    HW239264   1.890   4.341  13.370  0.9594  0.5214  1.5246
 9211SOL     OW39265   3.938   1.449  14.134  0.6648 -0.6153 -0.8204
 9211SOL    HW139266   3.919   1.367  14.180  1.2640  0.8806  2.0615
 9211SOL    HW239267   3.988   1.499  14.199 -0.8831  0.6119 -0.5966
 9212SOL     OW39268   0.039   3.965   7.296 -0.2806 -0.1921 -0.3584
 9212SOL    HW139269   4.706   3.900   7.276 -1.3817  0.4947  1.1607
 9212SOL    HW239270   4.713   4.032   7.328 -0.4719 -0.1595 -0.7919
 9213SOL     OW39271   2.865   2.592  12.926 -0.1876 -0.1090  0.5065
 9213SOL    HW139272   2.877   2.615  13.018  1.3699 -2.9775  1.0181
 9213SOL    HW239273   2.938   2.640  12.885  0.6158 -2.3452 -0.6793
 9214SOL     OW39274   0.013   4.536   0.417 -0.3438 -0.0378  0.5792
 9214SOL    HW139275   4.708   4.620   0.396  0.3797  0.7897  2.5339
 9214SOL    HW239276   4.675   4.475   0.432 -0.3632 -0.3056 -0.6169
 9215SOL     OW39277   3.981   2.792  10.207 -0.1969  0.2574 -0.2045
 9215SOL    HW139278   3.933   2.769  10.127 -0.7126  2.2049 -0.4549
 9215SOL    HW239279   3.910   2.764  10.266  1.2768  1.1274  1.9884
 9216SOL     OW39280   3.160   1.895  11.374 -0.0526 -0.1912  0.7287
 9216SOL    HW139281   3.118   1.977  11.400  0.2636 -0.1801  1.2005
 9216SOL    HW239282   3.093   1.827  11.373 -1.0307  0.7751  0.8897
 9217SOL     OW39283   2.963   3.877   5.635  0.0028  0.2387  0.6130
 9217SOL    HW139284   2.908   3.887   5.558  0.6344  0.2809  0.1657
 9217SOL    HW239285   2.895   3.875   5.702  2.0534  3.4040  2.8020
 9218SOL     OW39286   4.581   0.789   6.476 -0.6975  0.0144  0.0255
 9218SOL    HW139287   4.534   0.866   6.508  1.2658  1.1815  0.1317
 9218SOL    HW239288   4.573   0.730   6.551  3.2956 -1.9542 -1.0988
 9219SOL     OW39289   3.011   3.178   8.126  0.5215  0.0703  0.5334
 9219SOL    HW139290   3.077   3.239   8.092  0.7782 -0.5368 -0.0653
 9219SOL    HW239291   3.051   3.124   8.194  2.5578  1.0191  0.0707
 9220SOL     OW39292   3.080   2.411   8.433  0.5446  0.3994  0.2968
 9220SOL    HW139293   3.031   2.477   8.384 -1.3202 -0.5550  0.8710
 9220SOL    HW239294   3.010   2.349   8.452  0.9328 -0.6541 -1.8547
 9221SOL     OW39295   2.202   2.124   8.723  0.0889 -0.0137  0.4895
 9221SOL    HW139296   2.258   2.185   8.770  0.2982  1.2507 -1.4040
 9221SOL    HW239297   2.210   2.048   8.781 -2.3510 -1.3628 -0.8953
 9222SOL     OW39298   4.726   1.090   6.915  0.1238  0.4152 -0.0846
 9222SOL    HW139299   0.057   1.031   6.952 -0.1647  0.7979  1.0437
 9222SOL    HW239300   4.651   1.075   6.974 -1.2916 -2.2126 -2.6043
 9223SOL     OW39301   2.009   2.299   3.818 -0.6025  0.0263  0.4184
 9223SOL    HW139302   2.060   2.358   3.763 -1.1739  1.0202  0.9576
 9223SOL    HW239303   1.941   2.262   3.763  1.2250 -1.0084 -1.1614
 9224SOL     OW39304   3.827   0.894  10.166 -0.0760 -0.0468  0.2678
 9224SOL    HW139305   3.733   0.882  10.181 -0.5588  1.6916 -1.3393
 9224SOL    HW239306   3.847   0.903  10.259  1.3388 -0.3737 -0.0037
 9225SOL     OW39307   3.606   4.629   8.559 -0.4735 -0.2233 -0.1664
 9225SOL    HW139308   3.595   4.722   8.538  2.9169 -0.2657 -1.9831
 9225SOL    HW239309   3.632   4.624   8.651  1.1789  1.5350 -0.5450
 9226SOL     OW39310   4.378   3.179   8.341 -0.9111  0.2380 -0.5363
 9226SOL    HW139311   4.351   3.087   8.342  1.6539 -0.5129  0.4616
 9226SOL    HW239312   4.455   3.175   8.284  0.1574 -0.1204  0.9289
 9227SOL     OW39313   0.994   0.885   1.736 -0.2187  0.2498  0.0735
 9227SOL    HW139314   1.000   0.811   1.675 -0.1902  1.9320 -1.9845
 9227SOL    HW239315   1.003   0.831   1.814 -1.7041  0.3789  0.3363
 9228SOL     OW39316   3.841   4.418   6.969  0.0498 -0.0546 -0.2630
 9228SOL    HW139317   3.934   4.428   6.949 -0.0636  0.5104 -0.4925
 9228SOL    HW239318   3.816   4.508   6.986 -0.6113 -0.6421  1.9244
 9229SOL     OW39319   2.878   4.250  14.406  0.3032 -0.4757  0.1689
 9229SOL    HW139320   2.881   4.263  14.501  1.5107  4.2531 -0.5053
 9229SOL    HW239321   2.795   4.203  14.398  0.8349 -1.6693  1.6856
 9230SOL     OW39322   0.689   2.354   7.460  0.4122 -0.2584  0.3801
 9230SOL    HW139323   0.607   2.336   7.506  0.1583 -0.7215 -0.2486
 9230SOL    HW239324   0.739   2.272   7.468  0.2161 -0.4779 -0.5691
 9231SOL     OW39325   1.978   3.908   9.720  0.5880  0.2307  0.7364
 9231SOL    HW139326   2.051   3.881   9.776  0.7141 -0.4519  0.2390
 9231SOL    HW239327   1.968   4.003   9.730 -0.3589  0.0439  1.6355
 9232SOL     OW39328   0.156   0.021   3.465 -0.2133 -0.5134 -0.0103
 9232SOL    HW139329   0.130   4.670   3.432 -1.0611 -0.4651  0.5560
 9232SOL    HW239330   0.119   0.070   3.391  0.2309  1.3129  0.9718
 9233SOL     OW39331   0.994   2.133   2.624 -0.0182  0.5225 -0.3809
 9233SOL    HW139332   0.956   2.047   2.642 -0.8275  1.1908  1.1425
 9233SOL    HW239333   0.911   2.164   2.589  0.0648  1.6374  0.3960
 9234SOL     OW39334   1.260   2.516   8.908 -0.0800 -0.0926 -0.3677
 9234SOL    HW139335   1.348   2.489   8.933 -0.1705  0.2708  0.3496
 9234SOL    HW239336   1.212   2.466   8.974 -0.6239 -0.8772 -1.3482
 9235SOL     OW39337   0.693   4.448   7.722 -0.1976 -0.1497  0.1649
 9235SOL    HW139338   0.599   4.436   7.708 -0.6068  2.0469  1.0385
 9235SOL    HW239339   0.729   4.360   7.712 -0.0565  0.0900 -1.4884
 9236SOL     OW39340   4.382   0.189  15.182  0.8013  0.4395 -0.0661
 9236SOL    HW139341   4.297   0.146  15.194 -0.5396  2.9267 -0.7161
 9236SOL    HW239342   4.360   0.275  15.145  0.0579  0.8201  1.2562
 9237SOL     OW39343   0.379   4.174  13.982  0.2801 -0.2589  0.6303
 9237SOL    HW139344   0.446   4.216  13.928  1.4886 -0.9408  1.5704
 9237SOL    HW239345   0.335   4.110  13.927  0.7479  2.4169 -2.8118
 9238SOL     OW39346   1.563   2.677   8.185  0.5709 -0.6618  0.2979
 9238SOL    HW139347   1.578   2.582   8.184 -0.8825 -0.8742 -0.0517
 9238SOL    HW239348   1.648   2.720   8.198 -0.3057  1.0722  0.2172
 9239SOL     OW39349   1.693   3.000  13.567  0.4131  0.8366 -0.3988
 9239SOL    HW139350   1.606   3.040  13.566 -0.6732 -1.4971 -0.3667
 9239SOL    HW239351   1.700   2.976  13.475 -0.7077  0.7240 -0.4564
 9240SOL     OW39352   1.596   2.052   7.222 -0.0002  0.4117  0.4021
 9240SOL    HW139353   1.507   2.022   7.202  0.3935 -1.0125  0.7814
 9240SOL    HW239354   1.570   2.133   7.266 -1.3197  2.1857 -3.5657
 9241SOL     OW39355   2.132   0.900  10.044  0.1590  0.0303  0.3589
 9241SOL    HW139356   2.049   0.853  10.048  0.8282 -1.3751 -2.2030
 9241SOL    HW239357   2.196   0.836  10.013  1.0952  1.6215 -0.9923
 9242SOL     OW39358   1.123   1.905   1.920  0.1436 -0.2757  0.1369
 9242SOL    HW139359   1.153   1.834   1.862 -1.8769 -0.1437 -1.0597
 9242SOL    HW239360   1.168   1.868   1.996  1.6514  1.5312  0.1065
 9243SOL     OW39361   2.130   3.508   8.867  0.3424 -0.2152 -0.5461
 9243SOL    HW139362   2.163   3.480   8.782  1.2909  0.9718 -0.5695
 9243SOL    HW239363   2.211   3.545   8.902  0.7924  1.2808 -3.1776
 9244SOL     OW39364   3.135   3.330   3.075 -0.0831  0.0663  0.3971
 9244SOL    HW139365   3.129   3.254   3.016  1.3545  2.2405 -2.5424
 9244SOL    HW239366   3.068   3.302   3.137 -0.3449 -0.6832 -0.2270
 9245SOL     OW39367   3.094   1.113   9.333 -0.4371 -0.0387 -0.6495
 9245SOL    HW139368   3.103   1.208   9.344  2.6986 -0.6439  2.2019
 9245SOL    HW239369   3.126   1.093   9.421 -1.6474  1.5539  0.1580
 9246SOL     OW39370   0.799   3.932   5.073 -0.0357 -0.2978 -0.2523
 9246SOL    HW139371   0.881   3.959   5.032 -0.3232  0.9840  0.0111
 9246SOL    HW239372   0.771   3.853   5.026  1.6761 -0.0497 -1.6861
 9247SOL     OW39373   3.793   2.553  16.256  0.3376 -0.1596 -0.1201
 9247SOL    HW139374   3.809   2.464  16.288 -0.1898 -0.6536 -1.2527
 9247SOL    HW239375   3.863   2.560  16.192  1.3599 -0.3352  0.9744
 9248SOL     OW39376   1.826   1.003   6.660  0.0724 -0.1902 -0.0499
 9248SOL    HW139377   1.743   0.959   6.642 -0.3106  0.4813  0.0929
 9248SOL    HW239378   1.829   1.048   6.575 -1.7183  1.2196  0.6373
 9249SOL     OW39379   0.754   1.083   1.519 -0.3057  0.2591  0.1658
 9249SOL    HW139380   0.715   1.083   1.432 -1.6432 -2.0867  0.7372
 9249SOL    HW239381   0.827   1.142   1.503 -1.0045  0.9452 -0.5158
 9250SOL     OW39382   3.140   1.648  15.249 -0.8017 -0.1207 -0.2560
 9250SOL    HW139383   3.195   1.570  15.242 -1.3654 -0.5717  0.3553
 9250SOL    HW239384   3.166   1.683  15.335  0.9954 -0.4065 -0.6848
 9251SOL     OW39385   4.710   2.347   4.302  0.3881  0.0778  0.6207
 9251SOL    HW139386   0.033   2.322   4.230 -0.2275 -0.7536  0.4170
 9251SOL    HW239387   4.712   2.442   4.292  1.6712  0.2665  2.5697
 9252SOL     OW39388   0.796   0.126  13.628  0.1421 -0.0667 -0.2370
 9252SOL    HW139389   0.741   0.139  13.705 -3.4107  0.1541 -2.7469
 9252SOL    HW239390   0.842   0.209  13.619  1.0988 -0.2806  2.9946
 9253SOL     OW39391   2.778   2.490   1.417  0.2616  0.1801  0.0117
 9253SOL    HW139392   2.796   2.415   1.361  0.2792  0.0793  0.1518
 9253SOL    HW239393   2.861   2.499   1.465  0.3769  0.1842 -0.1892
 9254SOL     OW39394   2.221   3.261  16.835 -0.2346  0.0533  0.2210
 9254SOL    HW139395   2.250   3.352  16.831  1.8133 -0.5434  1.2396
 9254SOL    HW239396   2.199   3.237  16.745 -0.1698  1.5086 -0.1702
 9255SOL     OW39397   4.122   0.730  16.069  0.1768 -0.5261  0.2749
 9255SOL    HW139398   4.106   0.824  16.058 -0.4431 -0.4519  1.8663
 9255SOL    HW239399   4.214   0.727  16.096  0.7253 -0.7702 -1.6077
 9256SOL     OW39400   0.669   2.481   4.428 -0.8903  0.0102  0.2539
 9256SOL    HW139401   0.631   2.558   4.387 -0.1424  0.6080  0.6967
 9256SOL    HW239402   0.660   2.415   4.358 -0.0037 -0.5134  0.6215
 9257SOL     OW39403   2.129   0.067   8.855  0.5235 -0.3111  0.2613
 9257SOL    HW139404   2.099   0.090   8.943  0.6077 -0.5043  0.3417
 9257SOL    HW239405   2.195   0.136   8.852 -0.5723  0.7026 -0.6359
 9258SOL     OW39406   1.820   2.760  10.110 -0.8061  0.1956  0.5603
 9258SOL    HW139407   1.782   2.707  10.039  1.3502 -0.6454  0.0438
 9258SOL    HW239408   1.745   2.819  10.111 -0.1546  0.9958  1.6785
 9259SOL     OW39409   2.787   2.386   2.605 -0.6382 -0.1251 -0.3283
 9259SOL    HW139410   2.856   2.336   2.560  0.7285 -0.9521  2.6740
 9259SOL    HW239411   2.734   2.317   2.644 -0.6826 -0.7111 -1.4203
 9260SOL     OW39412   3.676   4.002  14.206  0.1533 -0.0766  0.0047
 9260SOL    HW139413   3.684   4.085  14.252  1.4728 -0.8010  1.0961
 9260SOL    HW239414   3.609   3.955  14.256 -0.8661  1.0930 -0.2659
 9261SOL     OW39415   0.310   1.463  16.300 -0.3072  0.3736  0.1649
 9261SOL    HW139416   0.239   1.453  16.363 -1.0754  0.0458 -0.7556
 9261SOL    HW239417   0.364   1.385  16.315  0.4382  0.7987 -0.2879
 9262SOL     OW39418   3.286   2.506   6.353 -0.2553  0.5228  0.1736
 9262SOL    HW139419   3.224   2.513   6.280 -0.6158  2.9267  0.7101
 9262SOL    HW239420   3.226   2.487   6.425  1.5532  0.0155  1.5506
 9263SOL     OW39421   4.672   4.125   8.182  0.1014  0.1389 -0.1436
 9263SOL    HW139422   4.706   4.074   8.256 -1.2464 -0.2204  0.2215
 9263SOL    HW239423   4.676   4.215   8.213 -0.6725 -0.2085  0.9765
 9264SOL     OW39424   2.369   1.449   2.061  0.3388  0.0819  0.2620
 9264SOL    HW139425   2.357   1.533   2.017 -0.4023  1.3688  2.9047
 9264SOL    HW239426   2.374   1.390   1.986  0.0333 -0.7208  0.8683
 9265SOL     OW39427   4.014   1.889   3.097  0.3560 -0.5560  0.4427
 9265SOL    HW139428   3.946   1.827   3.123 -1.4978  0.2652 -2.3959
 9265SOL    HW239429   4.054   1.836   3.027  0.8099 -0.2650  0.4794
 9266SOL     OW39430   4.321   0.329   3.120 -0.2056 -0.4182  0.2534
 9266SOL    HW139431   4.375   0.312   3.197 -2.7909  1.0865  2.4435
 9266SOL    HW239432   4.232   0.318   3.153 -0.4408 -2.6873 -1.1817
 9267SOL     OW39433   2.736   1.898   8.390 -0.4958  0.2419  0.1268
 9267SOL    HW139434   2.784   1.929   8.313  2.2110 -0.6914  1.4649
 9267SOL    HW239435   2.661   1.850   8.355 -1.0085 -0.0852  1.6823
 9268SOL     OW39436   0.611   1.775   8.225 -0.2371 -0.4389  0.6435
 9268SOL    HW139437   0.542   1.748   8.165 -0.8757 -1.0274  1.6559
 9268SOL    HW239438   0.583   1.865   8.236  1.5157  0.2035 -0.0503
 9269SOL     OW39439   4.347   3.997   7.137  0.2606 -0.1853 -0.2001
 9269SOL    HW139440   4.274   3.999   7.199  1.1223 -2.3550  0.8726
 9269SOL    HW239441   4.324   4.060   7.069 -2.8364 -1.0417  0.0606
 9270SOL     OW39442   4.664   4.619   3.654  0.2385  0.6052 -0.5057
 9270SOL    HW139443   4.731   4.670   3.609 -1.3738  0.7694 -2.7071
 9270SOL    HW239444   4.606   4.592   3.583 -0.3147  0.1856  0.1048
 9271SOL     OW39445   1.971   2.273   2.574  0.1401 -0.3564 -0.2269
 9271SOL    HW139446   1.903   2.335   2.599 -0.6181 -1.3606  0.1774
 9271SOL    HW239447   1.980   2.233   2.660 -1.2417 -1.4018 -0.5690
 9272SOL     OW39448   3.461   1.580  16.734 -0.6238 -0.1602 -0.0703
 9272SOL    HW139449   3.454   1.543  16.822 -0.9372  1.3968  0.5595
 9272SOL    HW239450   3.489   1.666  16.764 -0.0113 -1.6473  3.5689
 9273SOL     OW39451   3.530   0.885   3.322  0.0936 -0.0852  0.3165
 9273SOL    HW139452   3.524   0.973   3.285  0.9255  0.7444  2.1131
 9273SOL    HW239453   3.581   0.908   3.400  1.9331 -0.8454 -0.6756
 9274SOL     OW39454   1.227   1.992  12.033 -0.1487 -0.3776  0.0976
 9274SOL    HW139455   1.221   2.078  11.991 -1.6850  0.8922  2.9178
 9274SOL    HW239456   1.141   1.953  12.017 -0.7749  1.6250 -1.4287
 9275SOL     OW39457   2.544   1.199   7.950  0.0624 -0.0872 -0.3379
 9275SOL    HW139458   2.505   1.247   8.024 -0.7490 -0.3272 -0.6133
 9275SOL    HW239459   2.463   1.185   7.901 -0.5323 -1.5381  1.0491
 9276SOL     OW39460   4.292   3.741  13.593  0.2513  0.1960 -0.6692
 9276SOL    HW139461   4.224   3.749  13.526  0.5355 -0.5590 -1.0472
 9276SOL    HW239462   4.308   3.827  13.630  0.8990 -0.1632 -0.1259
 9277SOL     OW39463   2.669   4.394  13.519  0.3310 -0.9119 -0.3103
 9277SOL    HW139464   2.603   4.454  13.554  1.5136 -1.3885  2.8032
 9277SOL    HW239465   2.670   4.413  13.425  0.8999  1.6923  0.2223
 9278SOL     OW39466   1.626   0.282   8.357 -0.2974  0.4193 -0.4989
 9278SOL    HW139467   1.545   0.242   8.390 -1.5354  3.0728 -0.3685
 9278SOL    HW239468   1.691   0.221   8.392  0.2794  0.3741 -1.6521
 9279SOL     OW39469   3.474   2.202   2.178 -0.7257 -0.1731 -0.1414
 9279SOL    HW139470   3.437   2.253   2.106 -0.3890 -0.9416 -0.8514
 9279SOL    HW239471   3.485   2.272   2.242  0.4656 -0.3231 -0.1900
 9280SOL     OW39472   4.664   2.011  16.810 -0.5375 -0.0526  0.4937
 9280SOL    HW139473   4.618   2.031  16.892  1.0239  1.6882  0.9352
 9280SOL    HW239474   4.673   2.098  16.772 -1.5787  0.0178  0.4212
 9281SOL     OW39475   4.166   3.414   7.324 -0.2703 -0.2273 -0.1902
 9281SOL    HW139476   4.249   3.460   7.310  0.8551 -1.8409  1.1355
 9281SOL    HW239477   4.140   3.428   7.415  2.8822  0.1721  0.6683
 9282SOL     OW39478   2.538   2.038   6.567 -0.0082  0.1165 -0.3968
 9282SOL    HW139479   2.625   2.067   6.539 -0.1739  1.3227  0.3410
 9282SOL    HW239480   2.479   2.077   6.502 -1.1181 -1.2866 -0.2281
 9283SOL     OW39481   4.068   1.563   4.197 -0.0200  0.3085  0.2136
 9283SOL    HW139482   4.096   1.555   4.288  1.5774 -0.1096 -0.3229
 9283SOL    HW239483   4.138   1.620   4.166  1.7948 -1.2307  1.5465
 9284SOL     OW39484   1.351   3.989  13.189 -0.2181  0.9054  0.3603
 9284SOL    HW139485   1.276   3.961  13.136  1.6944  0.1363 -1.9557
 9284SOL    HW239486   1.420   3.925  13.169  0.5243  1.6809  0.4241
 9285SOL     OW39487   1.134   4.728  14.713 -0.6496 -0.2298  0.1101
 9285SOL    HW139488   1.223   0.003  14.747 -0.6834  1.2415 -0.2534
 9285SOL    HW239489   1.138   0.031  14.625 -3.7132  3.0899  1.4269
 9286SOL     OW39490   1.435   3.220   5.319  0.5570  0.7867 -0.1282
 9286SOL    HW139491   1.397   3.270   5.392 -0.7305 -2.5743  1.5179
 9286SOL    HW239492   1.523   3.242   5.350  0.7226 -2.1351  1.4981
 9287SOL     OW39493   1.480   4.643   0.932  0.3980  0.2579 -0.0172
 9287SOL    HW139494   1.508   4.555   0.954  1.0800  0.8918  1.6016
 9287SOL    HW239495   1.390   4.621   0.909  0.3338  0.6749 -0.1714
 9288SOL     OW39496   4.106   0.074   6.954 -0.3949 -0.2417 -0.9454
 9288SOL    HW139497   4.083   0.163   6.931 -0.1011  0.1833  0.4033
 9288SOL    HW239498   4.171   0.064   6.884 -0.4535  1.1450 -1.1839
 9289SOL     OW39499   1.587   0.808   6.748 -0.4101  0.6731  0.0802
 9289SOL    HW139500   1.586   0.879   6.812 -0.2973  1.5020 -0.8374
 9289SOL    HW239501   1.581   0.868   6.674  1.9884 -0.8435 -1.3734
 9290SOL     OW39502   3.119   2.865   8.575  0.2077 -0.1906 -0.0612
 9290SOL    HW139503   3.151   2.910   8.653  1.6680 -1.2552 -0.0490
 9290SOL    HW239504   3.119   2.772   8.596  2.5340  0.0861  1.1846
 9291SOL     OW39505   4.668   4.341   1.218 -0.1416  0.7730 -0.2976
 9291SOL    HW139506   4.727   4.268   1.238  0.1709  0.9581 -0.5449
 9291SOL    HW239507   4.663   4.385   1.302 -0.1360  1.2914 -0.5705
 9292SOL     OW39508   3.246   0.180   5.174 -0.0344  0.1301 -0.3997
 9292SOL    HW139509   3.298   0.123   5.117 -0.7024  0.5655 -1.4424
 9292SOL    HW239510   3.191   0.110   5.210  1.5440 -0.6863  0.4672
 9293SOL     OW39511   1.342   0.780   4.478  0.3047  0.2238  0.0510
 9293SOL    HW139512   1.347   0.695   4.433 -0.1868  1.3653 -2.1449
 9293SOL    HW239513   1.405   0.762   4.547 -0.3217  2.8194  1.2676
 9294SOL     OW39514   0.330   3.232   6.859  0.3664 -0.0519  0.1079
 9294SOL    HW139515   0.423   3.245   6.843  0.0152  1.8214 -0.4389
 9294SOL    HW239516   0.289   3.258   6.776  1.8495 -1.1441 -0.9624
 9295SOL     OW39517   2.157   2.912   4.437 -0.2666 -0.3984 -0.0880
 9295SOL    HW139518   2.246   2.933   4.409 -0.1174 -1.5672 -0.4623
 9295SOL    HW239519   2.175   2.857   4.513 -1.8396 -0.2068  0.4312
 9296SOL     OW39520   1.346   0.758   1.907 -0.5160  0.4331 -0.0442
 9296SOL    HW139521   1.362   0.826   1.972  0.4126  2.2035 -2.1118
 9296SOL    HW239522   1.258   0.728   1.930 -0.2514 -0.7292 -0.5593
 9297SOL     OW39523   4.020   2.163   8.404  0.1374 -0.2390 -0.0061
 9297SOL    HW139524   4.014   2.105   8.328  0.0062  0.1907 -0.3225
 9297SOL    HW239525   4.046   2.103   8.474 -3.1105 -0.0341  1.3805
 9298SOL     OW39526   3.412   0.606  11.195  0.9114 -0.2144  0.4249
 9298SOL    HW139527   3.471   0.574  11.263  0.8867  0.1860  0.6375
 9298SOL    HW239528   3.324   0.589  11.229 -0.0868  3.1625 -0.4177
 9299SOL     OW39529   4.414   3.833   4.298 -0.0790  0.6901  0.0374
 9299SOL    HW139530   4.350   3.903   4.287  0.3131  1.0397 -0.0112
 9299SOL    HW239531   4.435   3.847   4.391 -2.2063 -1.3425  0.8415
 9300SOL     OW39532   1.478   2.842   4.346  0.5154  0.0379 -0.2616
 9300SOL    HW139533   1.484   2.913   4.282 -1.2750  1.9573  1.7050
 9300SOL    HW239534   1.523   2.888   4.417  1.9340 -1.6382 -0.0800
 9301SOL     OW39535   1.553   1.661  16.194  0.2308 -0.4213 -0.5610
 9301SOL    HW139536   1.607   1.664  16.273 -0.9041  0.5023  0.1880
 9301SOL    HW239537   1.500   1.740  16.206  0.6048 -0.0894 -1.0779
 9302SOL     OW39538   1.819   0.529  14.336 -0.0850 -0.2498  0.9113
 9302SOL    HW139539   1.725   0.549  14.339 -0.0291  0.1226  0.3070
 9302SOL    HW239540   1.848   0.555  14.423  0.3854 -1.6332  1.1721
 9303SOL     OW39541   4.350   0.373   3.692 -0.1392  0.6913 -0.1762
 9303SOL    HW139542   4.333   0.382   3.598 -1.9601 -0.6999  0.0115
 9303SOL    HW239543   4.383   0.283   3.691 -1.3693  0.2306  1.6507
 9304SOL     OW39544   1.015   3.524   2.741  0.2256  0.7549  0.1416
 9304SOL    HW139545   0.945   3.568   2.789 -0.7814  0.1859 -0.8103
 9304SOL    HW239546   1.059   3.595   2.695 -0.1943  0.4562 -0.7327
 9305SOL     OW39547   0.114   3.088   8.833  0.1023  0.2204  0.3574
 9305SOL    HW139548   0.123   3.006   8.882 -0.7909 -0.2534 -0.2650
 9305SOL    HW239549   0.062   3.058   8.759  0.3691 -0.4626  0.4422
 9306SOL     OW39550   3.588   4.213  13.870  0.0073 -0.7260 -0.3970
 9306SOL    HW139551   3.521   4.165  13.821 -0.6151 -1.5401  1.2567
 9306SOL    HW239552   3.541   4.225  13.952  1.5841  0.0160  0.4020
 9307SOL     OW39553   1.443   2.674   3.024 -0.3969  0.0985  0.4222
 9307SOL    HW139554   1.423   2.756   2.979  1.1589 -0.4534 -1.2426
 9307SOL    HW239555   1.410   2.705   3.109  0.5951  0.8154  0.5382
 9308SOL     OW39556   0.933   3.736   4.550 -0.0354 -0.3223 -0.0405
 9308SOL    HW139557   0.868   3.761   4.485  1.3489 -1.8266 -2.0231
 9308SOL    HW239558   0.900   3.655   4.591  2.7347 -0.6966  1.4748
 9309SOL     OW39559   3.253   0.247   4.143 -0.7788  0.1918 -0.0456
 9309SOL    HW139560   3.240   0.260   4.049  0.1530  0.3715 -0.1522
 9309SOL    HW239561   3.259   0.338   4.173 -1.2352 -0.7154  2.7884
 9310SOL     OW39562   3.811   4.620   9.024 -0.0637 -0.1210 -0.8294
 9310SOL    HW139563   3.907   4.623   9.018 -0.1443  1.6043 -1.3381
 9310SOL    HW239564   3.790   4.638   8.932  2.2303  0.8090 -1.1890
 9311SOL     OW39565   3.050   1.165   4.743 -0.2671  0.5529 -0.4674
 9311SOL    HW139566   3.058   1.106   4.668  0.4942 -0.8266  0.7021
 9311SOL    HW239567   2.956   1.151   4.755 -0.2608 -0.5936 -1.6856
 9312SOL     OW39568   2.836   1.626   4.874  0.0633 -0.4980 -0.0085
 9312SOL    HW139569   2.892   1.548   4.874 -1.0528 -1.3090  1.0058
 9312SOL    HW239570   2.848   1.674   4.792  1.4243 -1.9069 -0.6419
 9313SOL     OW39571   2.578   0.940   4.443 -0.2262  0.3155 -0.5447
 9313SOL    HW139572   2.599   1.030   4.422  2.0032 -0.4335 -1.5688
 9313SOL    HW239573   2.509   0.963   4.504  2.6496  1.4660  2.2766
 9314SOL     OW39574   3.267   2.427   9.162 -0.9489  0.1718  0.0846
 9314SOL    HW139575   3.350   2.411   9.116 -0.1157  2.4391  0.7799
 9314SOL    HW239576   3.287   2.486   9.235 -3.5875 -0.4077  1.2502
 9315SOL     OW39577   0.534   0.662  14.132  1.0261 -0.0995  0.0696
 9315SOL    HW139578   0.453   0.615  14.112  1.2218  0.6392 -2.4142
 9315SOL    HW239579   0.518   0.716  14.210  1.3643 -1.2409  0.9291
 9316SOL     OW39580   3.302   1.886   8.513 -0.0511  0.2724 -0.1085
 9316SOL    HW139581   3.280   1.974   8.542 -1.5814 -1.0681  2.7466
 9316SOL    HW239582   3.261   1.874   8.427 -4.2146  1.5686  1.6784
 9317SOL     OW39583   3.772   3.461   6.063  0.1262 -0.1510  0.1577
 9317SOL    HW139584   3.832   3.436   5.993 -0.0743  2.5208 -0.9746
 9317SOL    HW239585   3.747   3.544   6.021  0.0835 -0.6504 -0.7868
 9318SOL     OW39586   0.503   3.868   8.394  0.2413  0.0498  0.5261
 9318SOL    HW139587   0.450   3.940   8.362 -0.7467 -1.3236 -0.9268
 9318SOL    HW239588   0.449   3.843   8.469 -2.1599 -2.6246 -2.1036
 9319SOL     OW39589   3.373   1.735   4.291  0.0181  0.0747 -0.3202
 9319SOL    HW139590   3.439   1.789   4.335  0.0360 -1.4633  1.5166
 9319SOL    HW239591   3.404   1.717   4.202  2.8456 -0.8442  0.8610
 9320SOL     OW39592   3.257   4.056   8.539 -0.3809 -0.1884  0.5924
 9320SOL    HW139593   3.322   4.118   8.505  1.0608 -0.7504  2.3683
 9320SOL    HW239594   3.236   4.092   8.625  1.0667  1.9303  0.0802
 9321SOL     OW39595   4.492   2.937   0.399  0.2496 -0.1869  0.1031
 9321SOL    HW139596   4.568   2.955   0.344  1.4935 -0.7466  1.6544
 9321SOL    HW239597   4.468   2.850   0.367  1.1102 -0.4331  0.1101
 9322SOL     OW39598   3.219   0.089   0.135 -0.0010  0.1593 -0.2638
 9322SOL    HW139599   3.177   0.157   0.082 -3.4212 -0.5110  1.6533
 9322SOL    HW239600   3.146   0.074   0.194 -1.0766  2.5203 -0.9718
 9323SOL     OW39601   2.712   2.994   2.854  0.3193 -0.5503  0.3608
 9323SOL    HW139602   2.780   3.024   2.794  1.4152 -1.2159  1.2711
 9323SOL    HW239603   2.671   2.923   2.804  1.1437 -0.0152 -1.0853
 9324SOL     OW39604   1.108   1.975   3.655  0.9102 -0.0273 -0.3846
 9324SOL    HW139605   1.080   1.989   3.746  0.7173  1.4123 -0.6574
 9324SOL    HW239606   1.106   1.880   3.651  0.0226  0.0610 -1.8513
 9325SOL     OW39607   4.069   0.231   8.845 -0.6735  0.6027  0.3132
 9325SOL    HW139608   4.135   0.272   8.789  0.4375 -0.6852  0.6779
 9325SOL    HW239609   3.988   0.277   8.825 -0.6905  1.0689  1.4579
 9326SOL     OW39610   0.677   2.427  17.654  0.0436  0.0174 -0.4184
 9326SOL    HW139611   0.600   2.441  17.710  0.0857  1.9385 -0.8400
 9326SOL    HW239612   0.747   2.399  17.713  0.1096  1.0106 -0.0266
 9327SOL     OW39613   0.968   0.345  14.186  0.0395  0.1603  0.0177
 9327SOL    HW139614   0.907   0.365  14.257 -0.0098  0.8430 -0.2203
 9327SOL    HW239615   1.051   0.380  14.222 -0.2425  1.2378 -0.3803
 9328SOL     OW39616   1.033   1.161   0.322 -0.6154 -0.7818  0.2200
 9328SOL    HW139617   1.101   1.175   0.256 -2.9481  2.1339 -1.5870
 9328SOL    HW239618   0.956   1.179   0.268 -0.0832  1.0659  0.0867
 9329SOL     OW39619   2.025   1.504  12.772 -0.2853  0.5123 -0.3518
 9329SOL    HW139620   2.105   1.512  12.823 -0.2813  3.6555 -0.8802
 9329SOL    HW239621   1.960   1.520  12.840  1.6514  0.6501  1.4276
 9330SOL     OW39622   2.399   1.227   6.799 -0.1188  0.9050 -0.4873
 9330SOL    HW139623   2.441   1.199   6.880 -0.2655  1.3678 -0.2514
 9330SOL    HW239624   2.360   1.143   6.775  1.2732 -0.1464  0.9353
 9331SOL     OW39625   2.781   4.218   4.971  0.2557 -0.0018 -1.2366
 9331SOL    HW139626   2.790   4.156   4.898 -1.4190  2.0263 -3.1479
 9331SOL    HW239627   2.852   4.281   4.959 -0.7341  1.3918  0.2787
 9332SOL     OW39628   1.913   0.646   3.743 -0.1541 -0.2898  0.3678
 9332SOL    HW139629   1.963   0.699   3.805  0.8463  0.0724 -0.7586
 9332SOL    HW239630   1.865   0.594   3.809 -0.5069 -1.7858 -1.0624
 9333SOL     OW39631   0.574   4.364   0.067  0.0713  0.9779 -0.0411
 9333SOL    HW139632   0.500   4.310   0.094  1.5044 -1.1614 -0.3712
 9333SOL    HW239633   0.619   4.308   0.004  0.1016  1.5376 -0.5197
 9334SOL     OW39634   2.797   2.042   9.478  0.6228 -0.2914 -0.6387
 9334SOL    HW139635   2.815   2.013   9.389 -0.2685  1.2719 -1.3117
 9334SOL    HW239636   2.835   1.969   9.528  0.6319 -0.3544 -0.7381
 9335SOL     OW39637   2.351   1.904   4.250  0.8465  0.3260  0.1601
 9335SOL    HW139638   2.257   1.895   4.235  0.4033  0.2129  3.0988
 9335SOL    HW239639   2.352   1.862   4.336 -3.0796 -0.6505 -0.2685
 9336SOL     OW39640   2.431   3.040   1.838  0.6165  0.0141 -0.5124
 9336SOL    HW139641   2.430   2.950   1.807  1.3249  1.3542 -4.3689
 9336SOL    HW239642   2.420   3.065   1.747 -0.0137 -0.6649 -0.6216
 9337SOL     OW39643   1.984   3.246   7.280 -0.2806  0.1780  0.4731
 9337SOL    HW139644   1.912   3.191   7.310  0.8792 -0.4078  2.1519
 9337SOL    HW239645   1.944   3.325   7.244  1.5117  0.4327 -0.9536
 9338SOL     OW39646   2.081   4.406   6.832  0.3535 -0.1586  0.0501
 9338SOL    HW139647   1.992   4.372   6.833  0.4296 -0.3689 -1.9681
 9338SOL    HW239648   2.059   4.498   6.840 -2.8220 -0.9012 -0.0964
 9339SOL     OW39649   4.178   1.400   5.308  0.0136 -0.2749  0.1686
 9339SOL    HW139650   4.087   1.416   5.334  0.8001  2.2416  1.3960
 9339SOL    HW239651   4.187   1.305   5.314 -0.1296 -0.2158  1.4426
 9340SOL     OW39652   0.990   0.257  10.591 -0.7300  0.3492 -0.2226
 9340SOL    HW139653   0.953   0.240  10.677  0.0646  2.3805  0.5110
 9340SOL    HW239654   1.085   0.264  10.605 -0.8505 -2.3426  1.7690
 9341SOL     OW39655   1.362   1.853   4.204 -0.4869  0.2927  0.0692
 9341SOL    HW139656   1.362   1.811   4.291 -0.4536 -1.0023 -0.5554
 9341SOL    HW239657   1.295   1.921   4.212  2.1705  2.4457  3.7678
 9342SOL     OW39658   1.399   1.707   5.588 -0.5068 -0.5208 -0.6904
 9342SOL    HW139659   1.454   1.630   5.581  1.6433  1.0262 -0.9510
 9342SOL    HW239660   1.452   1.771   5.637 -1.6954 -0.2948  0.3085
 9343SOL     OW39661   0.081   1.578   7.424 -0.0007  0.0085  0.2290
 9343SOL    HW139662   0.065   1.567   7.518  2.0532  0.6340  0.6456
 9343SOL    HW239663   0.172   1.608   7.422  0.7577 -2.2418  1.1921
 9344SOL     OW39664   2.810   1.658  14.422 -0.3866  0.0413  0.2094
 9344SOL    HW139665   2.815   1.704  14.506  0.3680  0.1736  0.0925
 9344SOL    HW239666   2.723   1.680  14.390 -0.6861  3.0077  3.0273
 9345SOL     OW39667   4.667   0.980  13.249 -0.1479 -0.4357 -1.0365
 9345SOL    HW139668   4.618   1.043  13.302  0.2949 -1.3134  0.4181
 9345SOL    HW239669   4.641   0.896  13.286 -2.0250  1.1000  1.1670
 9346SOL     OW39670   1.264   4.380   2.704 -0.5485  0.2529  0.2393
 9346SOL    HW139671   1.290   4.461   2.749 -0.3133 -0.8725  2.1315
 9346SOL    HW239672   1.179   4.406   2.667 -1.6182 -2.8037  0.5427
 9347SOL     OW39673   0.126   4.192   3.085  0.1314 -0.4636 -0.1173
 9347SOL    HW139674   0.067   4.268   3.076  0.4708 -0.2691 -0.7162
 9347SOL    HW239675   0.170   4.198   3.170  1.6712  2.1491 -1.0825
 9348SOL     OW39676   3.033   0.849   2.975  0.3814 -0.1675 -0.4911
 9348SOL    HW139677   3.009   0.846   3.068 -0.9165  0.9496 -0.7831
 9348SOL    HW239678   3.127   0.867   2.979 -0.1966  2.1933  2.4120
 9349SOL     OW39679   0.894   3.199   1.748 -0.2801 -0.2730  0.4347
 9349SOL    HW139680   0.895   3.295   1.744 -0.4217 -0.3078 -0.4866
 9349SOL    HW239681   0.809   3.182   1.709  0.0508 -3.0022  0.9520
 9350SOL     OW39682   4.439   1.805   7.116 -0.3512 -0.7921  0.4378
 9350SOL    HW139683   4.468   1.852   7.195 -0.1007 -0.4667  0.1504
 9350SOL    HW239684   4.441   1.715   7.148  1.8348 -0.6265  0.7770
 9351SOL     OW39685   2.174   2.624   6.842  1.0726 -0.4771  0.3212
 9351SOL    HW139686   2.103   2.632   6.778  0.5427  2.5439  1.2875
 9351SOL    HW239687   2.254   2.642   6.792  0.9016  0.9410  0.5566
 9352SOL     OW39688   0.007   3.292   3.714 -0.7892  0.2364 -0.2263
 9352SOL    HW139689   0.032   3.348   3.788  1.6828  0.6951 -1.4116
 9352SOL    HW239690   4.712   3.213   3.760  2.1523 -0.9266 -0.2941
 9353SOL     OW39691   0.159   1.687   9.410 -0.7241 -0.8079 -0.0758
 9353SOL    HW139692   0.070   1.686   9.444 -0.6908 -0.4081  0.0162
 9353SOL    HW239693   0.200   1.745   9.474 -1.2615  0.4895 -0.9285
 9354SOL     OW39694   2.896   0.885  12.387 -0.5404  0.0579 -0.3152
 9354SOL    HW139695   2.825   0.942  12.415  0.3888  2.3535 -2.5806
 9354SOL    HW239696   2.847   0.815  12.344 -0.4167  0.5898 -1.3338
 9355SOL     OW39697   4.361   1.809   1.467  0.1604 -0.1510 -0.7523
 9355SOL    HW139698   4.326   1.856   1.542 -0.3039  0.1305 -1.1430
 9355SOL    HW239699   4.404   1.727   1.492  1.6462  0.2259 -2.0606
 9356SOL     OW39700   4.236   0.783   4.176 -0.8490 -0.0916  0.6011
 9356SOL    HW139701   4.284   0.815   4.253 -1.6114 -0.6505  1.2983
 9356SOL    HW239702   4.307   0.809   4.116 -0.9743  2.6388  1.6171
 9357SOL     OW39703   1.804   2.386   1.875  0.3911  0.1356  0.4490
 9357SOL    HW139704   1.796   2.462   1.818  0.4912 -0.1751  0.0288
 9357SOL    HW239705   1.898   2.376   1.863  0.6463  1.6464  1.1125
 9358SOL     OW39706   4.330   1.108  11.738  0.2496  0.3708 -0.7247
 9358SOL    HW139707   4.394   1.037  11.729 -0.8352 -0.5938 -0.8541
 9358SOL    HW239708   4.241   1.072  11.741 -0.2234  1.6576  0.5671
 9359SOL     OW39709   3.365   0.257   1.914  0.4540  0.7138  0.0358
 9359SOL    HW139710   3.365   0.351   1.895  0.5586  0.8160  0.5467
 9359SOL    HW239711   3.369   0.227   1.823 -3.2368 -0.1071  0.1260
 9360SOL     OW39712   2.864   1.128   4.269  0.1456  0.2242  0.1882
 9360SOL    HW139713   2.838   1.178   4.191  1.6452  0.1232 -0.3735
 9360SOL    HW239714   2.792   1.150   4.329 -1.9624  4.5864 -3.8987
 9361SOL     OW39715   0.057   2.276   6.676  0.4271 -0.2494 -0.2482
 9361SOL    HW139716   0.116   2.308   6.744  2.1485 -1.7890 -1.0063
 9361SOL    HW239717   0.012   2.214   6.734  2.7960 -2.8680 -1.2367
 9362SOL     OW39718   2.049   1.261   4.464  0.6610  0.3942 -0.2364
 9362SOL    HW139719   2.094   1.293   4.385  0.6414  0.2079 -0.3231
 9362SOL    HW239720   1.960   1.295   4.458 -0.0838 -1.7288 -0.9487
 9363SOL     OW39721   2.320   1.707   6.494  0.2003  0.5419  0.4385
 9363SOL    HW139722   2.307   1.627   6.546 -1.1707  0.4269 -0.0935
 9363SOL    HW239723   2.387   1.752   6.547  0.4747 -0.5687  1.0389
 9364SOL     OW39724   2.663   0.253   6.465 -0.3728 -0.8136  0.8257
 9364SOL    HW139725   2.613   0.310   6.407  1.7714 -0.2041 -0.4196
 9364SOL    HW239726   2.613   0.171   6.464  1.2114 -1.7564 -1.9004
 9365SOL     OW39727   1.238   4.486   1.145  0.6903  0.4575 -0.5552
 9365SOL    HW139728   1.185   4.565   1.143 -0.1584 -0.1146 -0.5185
 9365SOL    HW239729   1.208   4.460   1.232  3.1371 -0.3560  0.0438
 9366SOL     OW39730   2.009   3.587  16.980  0.4868  0.3421  0.0011
 9366SOL    HW139731   1.992   3.496  17.004 -3.2834  1.6694  2.3241
 9366SOL    HW239732   2.095   3.608  17.017  0.7216  1.1973 -1.0307
 9367SOL     OW39733   0.118   4.222   5.623 -0.5040  0.0546  0.4202
 9367SOL    HW139734   0.074   4.137   5.614 -1.2850  0.4095  0.8859
 9367SOL    HW239735   0.042   4.279   5.633 -0.8984 -0.3162 -0.4068
 9368SOL     OW39736   0.550   0.969   0.377  0.3683  0.1094 -0.4212
 9368SOL    HW139737   0.470   0.927   0.344  1.2259 -0.5174 -1.6743
 9368SOL    HW239738   0.514   0.992   0.463  1.7082 -0.9391  0.4193
 9369SOL     OW39739   4.402   1.882   7.854 -0.3061  0.4505  0.1931
 9369SOL    HW139740   4.311   1.892   7.882  0.1135  0.7656  1.4515
 9369SOL    HW239741   4.444   1.964   7.882 -2.4488  1.8069 -0.5529
 9370SOL     OW39742   4.024   3.102   2.382  0.9973  0.2808 -0.1326
 9370SOL    HW139743   4.086   3.102   2.455  0.1052  0.8861  0.6332
 9370SOL    HW239744   4.006   3.009   2.371  0.1409  0.3264  0.8822
 9371SOL     OW39745   1.241   0.763   6.150  0.5371 -0.0361  0.2119
 9371SOL    HW139746   1.153   0.731   6.168  1.9949 -3.9449  0.4432
 9371SOL    HW239747   1.279   0.692   6.098  2.1792  0.4259  0.7702
 9372SOL     OW39748   3.822   3.360  14.933 -0.3605  0.2219  0.2945
 9372SOL    HW139749   3.884   3.289  14.916 -1.2243 -0.2699 -0.8254
 9372SOL    HW239750   3.875   3.405  14.999  0.4275 -0.7456  0.3262
 9373SOL     OW39751   4.010   0.165   4.911 -0.1559  0.0658 -0.4513
 9373SOL    HW139752   3.988   0.081   4.870 -0.5437  0.7457 -1.6392
 9373SOL    HW239753   4.092   0.141   4.954 -1.4776  0.3867  2.2465
 9374SOL     OW39754   1.361   2.875   4.790 -0.4780  0.1674  0.7566
 9374SOL    HW139755   1.430   2.942   4.783 -1.8825  1.5900  0.4356
 9374SOL    HW239756   1.406   2.805   4.837  0.7447  0.0117 -0.6289
 9375SOL     OW39757   3.690   3.822   5.080 -0.1252  0.0555 -0.1667
 9375SOL    HW139758   3.670   3.807   5.172  1.0939  3.0029  0.5991
 9375SOL    HW239759   3.758   3.889   5.095 -1.4674  1.6194 -1.1087
 9376SOL     OW39760   3.341   4.690   5.026  0.2270  0.5476  0.1316
 9376SOL    HW139761   3.367   4.615   5.078 -0.2105 -0.6940 -1.4241
 9376SOL    HW239762   3.414   4.690   4.964  1.7680 -2.3367  1.9730
 9377SOL     OW39763   4.613   2.201   8.725 -0.4416 -0.0214 -0.0309
 9377SOL    HW139764   4.571   2.131   8.675  0.5944  0.4042 -1.4930
 9377SOL    HW239765   4.534   2.254   8.737  1.0785  2.0306  0.9396
 9378SOL     OW39766   1.177   3.186   9.343  0.0192 -0.0371  0.1064
 9378SOL    HW139767   1.132   3.157   9.422 -2.4417 -2.1271 -2.0178
 9378SOL    HW239768   1.252   3.127   9.335  1.0231  0.6284  5.2583
 9379SOL     OW39769   0.900   1.279   4.922 -0.3076 -0.2773  0.3304
 9379SOL    HW139770   0.889   1.305   4.830 -0.4742 -0.7859  0.2061
 9379SOL    HW239771   0.819   1.230   4.940 -1.8590  2.1034 -0.1691
 9380SOL     OW39772   4.426   1.375   8.871 -0.7164 -0.1200 -0.0403
 9380SOL    HW139773   4.376   1.456   8.875 -0.7804 -0.1795  0.3694
 9380SOL    HW239774   4.514   1.411   8.862 -0.6614 -0.1145  0.5662
 9381SOL     OW39775   2.837   1.441   6.184  0.5821 -0.7918  0.0997
 9381SOL    HW139776   2.861   1.437   6.091 -2.9137  1.6710 -0.9215
 9381SOL    HW239777   2.907   1.387   6.219  1.4550  0.6336  0.5603
 9382SOL     OW39778   2.501   1.328  14.412  0.4263 -0.1627  0.0066
 9382SOL    HW139779   2.550   1.307  14.492  3.7409  2.0030 -1.4518
 9382SOL    HW239780   2.505   1.247  14.361  2.0527  0.6828 -1.2121
 9383SOL     OW39781   3.748   3.696   7.181  0.2975  0.1330 -0.0631
 9383SOL    HW139782   3.745   3.758   7.108 -2.2506  0.0113 -0.0591
 9383SOL    HW239783   3.833   3.657   7.163 -0.0986  0.4789 -2.6499
 9384SOL     OW39784   1.835   1.613   1.533 -0.2205 -0.2958  0.2466
 9384SOL    HW139785   1.856   1.520   1.537 -0.1705 -0.3702 -1.8039
 9384SOL    HW239786   1.876   1.642   1.452  2.7200 -0.1603  1.7872
 9385SOL     OW39787   4.198   1.640  16.678  0.1678 -0.0040 -0.1966
 9385SOL    HW139788   4.246   1.579  16.734 -1.5498 -2.4857 -1.4164
 9385SOL    HW239789   4.263   1.697  16.638 -0.9193  0.7542 -0.9113
 9386SOL     OW39790   0.967   3.524  10.703 -0.2428 -0.5154 -0.0208
 9386SOL    HW139791   1.046   3.474  10.681 -0.3829 -0.8261  0.1688
 9386SOL    HW239792   0.911   3.453  10.737 -0.5100  0.1467  0.9135
 9387SOL     OW39793   4.694   2.829   9.231  0.3395 -0.1038 -0.9025
 9387SOL    HW139794   4.734   2.878   9.159  0.4258  1.6655  0.3543
 9387SOL    HW239795   0.042   2.785   9.253  0.4140  0.6339  0.2913
 9388SOL     OW39796   3.674   2.768  13.230 -0.3808 -0.0492  0.4590
 9388SOL    HW139797   3.709   2.762  13.141 -5.2725  0.6310 -1.4834
 9388SOL    HW239798   3.665   2.676  13.253 -2.0387  0.0721  0.2819
 9389SOL     OW39799   4.610   1.103   3.554  0.3594  0.1038  0.2789
 9389SOL    HW139800   4.674   1.044   3.592 -0.7895  0.9588  3.5323
 9389SOL    HW239801   4.536   1.042   3.546 -0.2806  1.1278 -1.7180
 9390SOL     OW39802   0.189   1.383   8.625  0.1745  0.1142 -0.0994
 9390SOL    HW139803   0.267   1.356   8.674 -0.1172 -0.2990  0.1339
 9390SOL    HW239804   0.163   1.460   8.676  2.2097  0.1540  0.8726
 9391SOL     OW39805   4.340   1.045  16.166 -0.2071 -0.5038 -0.7298
 9391SOL    HW139806   4.354   0.982  16.236 -2.8687 -1.1195 -0.7282
 9391SOL    HW239807   4.430   1.064  16.141 -0.4423  0.6638 -0.7342
 9392SOL     OW39808   1.299   0.764   5.243 -0.1286 -0.0702 -0.4728
 9392SOL    HW139809   1.290   0.859   5.249  0.6041 -0.1757  2.1844
 9392SOL    HW239810   1.312   0.762   5.148 -3.1224 -0.6154 -0.9005
 9393SOL     OW39811   3.494   0.355   3.584  0.7387  0.6503 -0.9071
 9393SOL    HW139812   3.583   0.332   3.557  0.5181 -1.5878  0.3208
 9393SOL    HW239813   3.462   0.277   3.629 -0.2871  1.6927  0.1844
 9394SOL     OW39814   2.015   3.346   7.962  0.3256  0.8794  0.1761
 9394SOL    HW139815   2.048   3.346   8.052 -0.6855  0.5540  0.5527
 9394SOL    HW239816   1.920   3.345   7.974  0.2021 -1.1592 -0.8539
 9395SOL     OW39817   1.868   0.914   7.289  0.3324 -0.1710 -0.2393
 9395SOL    HW139818   1.809   0.986   7.310  0.6911 -0.0365  0.3109
 9395SOL    HW239819   1.893   0.881   7.376  0.2011 -1.2143 -0.5900
 9396SOL     OW39820   1.659   2.014   3.766 -0.8431 -0.2340 -0.6215
 9396SOL    HW139821   1.640   2.091   3.819  0.4502 -1.2497  1.3317
 9396SOL    HW239822   1.610   2.026   3.685 -0.3053  1.9645 -0.6139
 9397SOL     OW39823   0.945   0.371  13.612 -0.1746  1.3173  0.4500
 9397SOL    HW139824   0.932   0.356  13.706 -0.1622  0.3953  0.3020
 9397SOL    HW239825   1.024   0.317  13.601 -1.7189 -0.9634  0.5770
 9398SOL     OW39826   0.795   2.727   7.988 -0.7630 -0.8828 -0.4755
 9398SOL    HW139827   0.797   2.787   8.063  2.3286  1.0886 -2.1568
 9398SOL    HW239828   0.708   2.739   7.950 -0.4941  0.8829 -0.5180
 9399SOL     OW39829   0.350   1.134  16.128 -0.3488  0.4176  0.0789
 9399SOL    HW139830   0.399   1.165  16.205 -1.9710  0.2044  1.1845
 9399SOL    HW239831   0.315   1.211  16.083  1.5813  1.0831 -0.3063
 9400SOL     OW39832   4.309   3.196   3.745  0.2014  0.6570  0.6375
 9400SOL    HW139833   4.214   3.203   3.755  0.3662  2.2470  1.0770
 9400SOL    HW239834   4.337   3.287   3.742  2.5530 -0.0313  1.9602
 9401SOL     OW39835   3.204   3.722   5.229  0.3971 -0.3549 -0.1956
 9401SOL    HW139836   3.248   3.763   5.155  2.1018 -2.1836 -0.1996
 9401SOL    HW239837   3.183   3.805   5.272  0.2185 -0.5448  0.0883
 9402SOL     OW39838   4.146   4.597   2.151  0.2322  0.0196  0.6535
 9402SOL    HW139839   4.105   4.518   2.187  0.0922 -0.0811  0.2741
 9402SOL    HW239840   4.221   4.561   2.104  0.8086 -0.5114  1.9583
 9403SOL     OW39841   1.112   3.989   1.439 -0.1732  0.4315  0.4789
 9403SOL    HW139842   1.129   3.930   1.366  1.5585 -1.1122  2.1205
 9403SOL    HW239843   1.093   4.060   1.378 -2.6519 -0.3313  0.3427
 9404SOL     OW39844   1.398   4.506  17.177 -0.2373 -0.2477 -0.3879
 9404SOL    HW139845   1.415   4.414  17.195 -0.6700 -0.1298  0.5650
 9404SOL    HW239846   1.329   4.516  17.242  1.5319 -0.8740  1.5543
 9405SOL     OW39847   0.290   0.397   7.364 -0.1958  0.3522 -0.0693
 9405SOL    HW139848   0.246   0.323   7.406 -2.0803  2.1553  1.1442
 9405SOL    HW239849   0.353   0.417   7.434  0.5626 -3.5113  0.3993
 9406SOL     OW39850   1.542   2.573  15.513 -0.5218 -0.3450  0.1655
 9406SOL    HW139851   1.598   2.553  15.438 -1.5812 -0.2174 -0.6515
 9406SOL    HW239852   1.606   2.537  15.575  0.9943  2.0250 -0.0138
 9407SOL     OW39853   4.125   4.663   8.284  0.2195  0.2675 -0.0611
 9407SOL    HW139854   4.072   4.602   8.234 -0.8623 -0.6859  2.2470
 9407SOL    HW239855   4.181   4.606   8.338 -0.9748  1.0451  1.9868
 9408SOL     OW39856   2.845   0.103   2.644 -0.0587  0.0881 -0.1683
 9408SOL    HW139857   2.828   0.060   2.561 -0.0623 -0.6416  0.2121
 9408SOL    HW239858   2.940   0.097   2.641 -0.0041 -0.7912  2.8257
 9409SOL     OW39859   0.350   2.378   7.331  0.1947  0.0198 -0.1941
 9409SOL    HW139860   0.260   2.360   7.305  0.3674 -1.6970  0.4293
 9409SOL    HW239861   0.401   2.344   7.258 -1.4009  0.0132 -1.3192
 9410SOL     OW39862   2.180   2.341  10.557  0.2605 -0.0508 -0.1371
 9410SOL    HW139863   2.134   2.337  10.641 -2.2549 -2.0473 -1.6164
 9410SOL    HW239864   2.220   2.254  10.563  0.6827  0.1479 -0.0970
 9411SOL     OW39865   0.199   1.520   5.707 -0.6492  0.2498  0.2724
 9411SOL    HW139866   0.282   1.476   5.688 -1.4558 -1.8862  1.7237
 9411SOL    HW239867   0.192   1.500   5.800 -1.0709 -0.7095  0.0330
 9412SOL     OW39868   1.600   2.601   2.443  0.2443 -0.1428 -0.0660
 9412SOL    HW139869   1.565   2.636   2.525 -0.0818 -0.1298 -0.2114
 9412SOL    HW239870   1.652   2.672   2.405  0.1804  0.0123  0.1364
 9413SOL     OW39871   0.550   4.188   2.464 -0.0273  0.1670  0.0532
 9413SOL    HW139872   0.645   4.194   2.454  0.0592  0.3116  0.9848
 9413SOL    HW239873   0.520   4.256   2.403  0.4659 -1.1160 -1.6355
 9414SOL     OW39874   3.276   2.013   2.305  0.2148 -0.5329 -0.1430
 9414SOL    HW139875   3.344   2.060   2.257 -0.1990 -0.8607 -1.0447
 9414SOL    HW239876   3.305   2.024   2.396  1.3751 -1.6169 -0.3776
 9415SOL     OW39877   3.707   0.486  12.410  0.0962  0.1135 -0.3176
 9415SOL    HW139878   3.755   0.514  12.332  1.0780 -2.8005 -0.7688
 9415SOL    HW239879   3.692   0.392  12.398  4.6085 -0.7308  0.5668
 9416SOL     OW39880   1.029   3.141  17.099 -0.2704 -0.3097  0.1321
 9416SOL    HW139881   1.108   3.087  17.092  0.1400  0.4692 -1.1494
 9416SOL    HW239882   0.967   3.093  17.044 -1.7157  0.3270  1.2162
 9417SOL     OW39883   3.130   1.398  17.317 -0.1082 -0.1763 -0.1571
 9417SOL    HW139884   3.178   1.316  17.320  0.0862 -0.0017  1.9060
 9417SOL    HW239885   3.147   1.417  17.410 -1.4559 -0.0987  0.0763
 9418SOL     OW39886   1.793   1.475   4.615  0.1772  0.0830 -0.1511
 9418SOL    HW139887   1.788   1.426   4.533  1.9402  1.9670 -1.3792
 9418SOL    HW239888   1.803   1.568   4.594  2.5146  0.3946  2.4028
 9419SOL     OW39889   4.620   0.336   5.991  0.3187 -1.3359  0.1819
 9419SOL    HW139890   4.650   0.413   5.942 -2.1368 -1.1853 -1.0987
 9419SOL    HW239891   4.541   0.319   5.940 -1.0616 -0.0097  1.8736
 9420SOL     OW39892   2.342   3.261   6.324  0.4403 -0.3706 -0.2152
 9420SOL    HW139893   2.323   3.252   6.417  1.3362  2.5518  0.2646
 9420SOL    HW239894   2.418   3.320   6.327  0.1666 -0.0819  1.0488
 9421SOL     OW39895   1.819   0.705   2.831 -0.1465 -0.8503  0.1505
 9421SOL    HW139896   1.903   0.711   2.876  0.3270 -1.8549 -0.6072
 9421SOL    HW239897   1.838   0.764   2.758 -0.3302 -2.2466 -1.0195
 9422SOL     OW39898   1.385   3.424   6.677 -0.2518 -0.2085 -0.2900
 9422SOL    HW139899   1.292   3.408   6.662 -0.7021 -0.6894  3.0007
 9422SOL    HW239900   1.421   3.398   6.592  0.4626  0.2109 -0.1147
 9423SOL     OW39901   1.490   3.652   2.647  0.7219  0.3076  0.2396
 9423SOL    HW139902   1.577   3.636   2.685 -0.1911  1.9604  3.0214
 9423SOL    HW239903   1.507   3.738   2.609  2.6167 -0.1387  0.0827
 9424SOL     OW39904   3.647   3.564   7.937  0.7781 -0.1779  0.1910
 9424SOL    HW139905   3.683   3.535   8.021  3.0615  0.1268 -0.7020
 9424SOL    HW239906   3.727   3.565   7.885  0.1833  1.8781 -0.6825
 9425SOL     OW39907   3.118   2.309   0.276  0.1409 -0.7913  0.2277
 9425SOL    HW139908   3.123   2.228   0.326 -1.0196 -1.0623 -0.0862
 9425SOL    HW239909   3.197   2.314   0.223  1.9764 -2.4201  2.8528
 9426SOL     OW39910   3.892   2.518  15.189 -0.0729  0.1245 -0.1318
 9426SOL    HW139911   3.920   2.429  15.168 -0.9161  0.1574 -1.4364
 9426SOL    HW239912   3.969   2.562  15.153  2.0078 -2.0840  1.6254
 9427SOL     OW39913   2.232   4.207   4.060 -0.3245  0.0680  0.1168
 9427SOL    HW139914   2.240   4.245   3.973 -0.3518 -2.8590 -1.1760
 9427SOL    HW239915   2.199   4.277   4.116 -0.7421 -0.5754  0.6842
 9428SOL     OW39916   0.326   0.849   4.842  0.4375 -0.0075  0.1634
 9428SOL    HW139917   0.343   0.784   4.773  0.7130 -0.1965  0.4108
 9428SOL    HW239918   0.230   0.852   4.847  0.6076  0.2666  3.1143
 9429SOL     OW39919   3.341   1.604   7.961  0.0013  0.1337  0.1715
 9429SOL    HW139920   3.281   1.542   7.921  1.2925 -0.5311 -0.7371
 9429SOL    HW239921   3.427   1.562   7.961 -0.8656 -1.6331  3.6472
 9430SOL     OW39922   4.552   0.125   2.153 -0.2514  0.3424 -0.2273
 9430SOL    HW139923   4.531   0.050   2.208  1.3110  0.1867  0.1414
 9430SOL    HW239924   4.635   0.155   2.190 -1.8387  2.3060  1.7466
 9431SOL     OW39925   1.998   0.305   6.308 -0.3584  0.2907  0.2112
 9431SOL    HW139926   2.087   0.282   6.284 -0.4773  2.1367 -2.0513
 9431SOL    HW239927   1.962   0.220   6.332  2.4548 -0.8145  0.5268
 9432SOL     OW39928   2.282   3.273  15.285  0.2887 -0.3996 -0.2746
 9432SOL    HW139929   2.228   3.283  15.207  0.2170  1.2541  0.0026
 9432SOL    HW239930   2.247   3.190  15.319  0.1634 -0.5199 -0.6968
 9433SOL     OW39931   0.474   0.601   8.701  0.3316 -0.7601 -0.0706
 9433SOL    HW139932   0.479   0.634   8.612  1.0213 -0.0808  0.2213
 9433SOL    HW239933   0.565   0.592   8.730  0.6455 -1.4206 -1.2502
 9434SOL     OW39934   3.274   3.670  16.376 -0.0368  0.2266 -0.2481
 9434SOL    HW139935   3.368   3.662  16.395  0.0455  1.1269 -0.2722
 9434SOL    HW239936   3.267   3.625  16.292  0.7077 -0.9025  0.2942
 9435SOL     OW39937   2.168   0.023   4.652  0.0356  0.3092  0.5878
 9435SOL    HW139938   2.133   0.070   4.727  0.2641  2.7108 -0.7958
 9435SOL    HW239939   2.259   4.731   4.665  1.1317  2.1281 -3.1046
 9436SOL     OW39940   0.136   2.465   0.909  0.2258 -0.1943  0.6903
 9436SOL    HW139941   0.177   2.478   0.994 -2.0601 -2.1647  2.1101
 9436SOL    HW239942   0.054   2.510   0.930  0.6133 -0.4073  2.6536
 9437SOL     OW39943   4.725   0.117   5.699  0.1063 -0.1417 -0.0309
 9437SOL    HW139944   0.033   0.064   5.632 -1.6087 -1.1469 -0.3282
 9437SOL    HW239945   4.674   0.172   5.639  1.2541  0.3074 -0.5975
 9438SOL     OW39946   2.584   3.741   3.076 -0.1294 -0.0365 -0.1520
 9438SOL    HW139947   2.605   3.808   3.140  1.0563  0.3742 -0.9781
 9438SOL    HW239948   2.491   3.756   3.058 -0.0635  1.9273  1.1334
 9439SOL     OW39949   2.392   3.393  15.856 -0.1025  0.1156  0.0262
 9439SOL    HW139950   2.346   3.315  15.889 -0.3255 -0.0171 -0.5969
 9439SOL    HW239951   2.436   3.360  15.777  1.4471 -2.0595  1.8005
 9440SOL     OW39952   2.921   0.270   7.401 -0.0836 -0.0957  0.4508
 9440SOL    HW139953   2.915   0.327   7.324 -1.4561  0.0537  0.6637
 9440SOL    HW239954   2.950   0.185   7.370 -0.1051  0.6409 -1.6028
 9441SOL     OW39955   2.431   4.471   9.766  0.3736  0.1092 -0.7825
 9441SOL    HW139956   2.479   4.482   9.684  2.1176 -0.6054  0.1519
 9441SOL    HW239957   2.469   4.549   9.807 -1.8280  0.7344  0.0913
 9442SOL     OW39958   4.490   1.310  11.679  0.3219  0.5899 -0.5733
 9442SOL    HW139959   4.466   1.336  11.589 -4.0827  2.6072  1.1644
 9442SOL    HW239960   4.421   1.245  11.690  0.5845  0.5195  0.6422
 9443SOL     OW39961   0.145   2.507  16.926 -0.0112  0.1024  0.3342
 9443SOL    HW139962   0.235   2.475  16.914 -0.8887 -2.3772  0.5220
 9443SOL    HW239963   0.142   2.537  17.017 -0.6899  1.4233 -0.1184
 9444SOL     OW39964   3.275   4.121   6.879  0.7656 -0.0420  0.3895
 9444SOL    HW139965   3.223   4.131   6.800  1.4040 -3.2024 -0.4293
 9444SOL    HW239966   3.258   4.031   6.904 -0.7269 -0.0317 -0.5771
 9445SOL     OW39967   1.628   2.494   5.536 -0.4967 -0.0579 -0.3566
 9445SOL    HW139968   1.665   2.436   5.469  0.9167  0.8536 -0.3558
 9445SOL    HW239969   1.705   2.534   5.577  0.3401  0.4701 -2.4723
 9446SOL     OW39970   0.047   1.166   4.491  0.8093 -0.2019  0.1319
 9446SOL    HW139971   0.035   1.247   4.540 -1.2179 -0.2600 -0.2733
 9446SOL    HW239972   4.706   1.171   4.433  0.9718 -0.1961 -0.0813
 9447SOL     OW39973   4.637   4.406   2.746  0.0604 -0.8254  0.4518
 9447SOL    HW139974   4.718   4.422   2.698 -0.0888 -0.1062  0.4483
 9447SOL    HW239975   4.598   4.328   2.706 -2.4283  0.7694 -0.2254
 9448SOL     OW39976   1.876   4.293  14.330 -0.3260 -0.1780  0.0549
 9448SOL    HW139977   1.816   4.236  14.379 -1.3606  2.0843  1.3907
 9448SOL    HW239978   1.843   4.374  14.369  0.9956  1.5482 -2.4220
 9449SOL     OW39979   2.876   2.737  16.697  0.6457 -0.1904 -0.3647
 9449SOL    HW139980   2.883   2.684  16.776  0.5677 -0.1201 -0.3111
 9449SOL    HW239981   2.940   2.691  16.642 -0.7423 -0.9555 -1.3352
 9450SOL     OW39982   4.656   4.690   0.657  0.3464  0.1560 -0.0052
 9450SOL    HW139983   4.697   4.730   0.733 -0.3496  0.9246 -0.0405
 9450SOL    HW239984   4.648   4.598   0.685  0.1579 -0.1305 -0.9928
 9451SOL     OW39985   1.627   0.973   6.262  0.3101 -0.1229  0.2688
 9451SOL    HW139986   1.568   1.042   6.231  1.8686  1.6543  1.2586
 9451SOL    HW239987   1.618   0.899   6.201  1.6101  0.6186 -0.8170
 9452SOL     OW39988   4.670   0.661  12.027 -0.3181 -0.4185  0.5430
 9452SOL    HW139989   0.030   0.660  12.014 -0.4367  0.6315 -0.4387
 9452SOL    HW239990   4.645   0.749  11.998  2.3203  0.1386 -0.0466
 9453SOL     OW39991   2.240   2.061   5.337 -0.0216 -0.4303 -0.1556
 9453SOL    HW139992   2.274   2.016   5.414 -2.2297 -2.1830 -0.1990
 9453SOL    HW239993   2.148   2.075   5.359  0.0446 -2.3089  1.2810
 9454SOL     OW39994   3.343   3.153   4.251  0.3839 -0.5918  0.0690
 9454SOL    HW139995   3.388   3.069   4.243  1.6565 -0.1015  1.8855
 9454SOL    HW239996   3.276   3.125   4.314 -1.7930 -1.2740 -2.5525
 9455SOL     OW39997   2.076   1.219   8.675  0.3571 -0.0712  0.2964
 9455SOL    HW139998   2.025   1.247   8.599  0.1802  0.1355  0.4930
 9455SOL    HW239999   2.052   1.292   8.733  1.7341  0.4572  0.2075
 9456SOL     OW40000   1.974   2.377  10.106 -0.1588 -1.0902  0.0172
 9456SOL    HW140001   1.949   2.389  10.198 -1.4568 -0.1878 -0.4504
 9456SOL    HW240002   1.893   2.384  10.057  0.8305 -0.0936 -1.4761
 9457SOL     OW40003   3.936   2.710  10.641  0.6625  0.2209 -0.0821
 9457SOL    HW140004   3.919   2.643  10.575  0.6554 -0.3611  0.5144
 9457SOL    HW240005   4.032   2.714  10.635  0.8214 -2.5978  0.3044
 9458SOL     OW40006   2.073   4.424  13.118  0.2308  0.1945 -0.0067
 9458SOL    HW140007   2.034   4.409  13.204  0.0493  2.1158  0.2316
 9458SOL    HW240008   2.157   4.463  13.141  0.5053 -0.3546 -0.0800
 9459SOL     OW40009   2.122   1.399   8.008  1.0173  0.0044  0.8349
 9459SOL    HW140010   2.191   1.452   8.049  1.0288 -1.0177  2.1242
 9459SOL    HW240011   2.046   1.427   8.059 -0.2532  0.1339 -1.1367
 9460SOL     OW40012   1.120   1.522   7.219  1.0464  0.3007  0.0835
 9460SOL    HW140013   1.102   1.612   7.191 -0.1831 -0.0859 -0.3893
 9460SOL    HW240014   1.105   1.529   7.313 -1.5814  0.4620 -0.3460
 9461SOL     OW40015   4.212   4.098   5.033  0.7044 -0.2279 -0.2312
 9461SOL    HW140016   4.191   4.182   4.992  0.6012  0.1584  0.6228
 9461SOL    HW240017   4.127   4.055   5.032  0.2687  0.6559 -0.8925
 9462SOL     OW40018   1.783   3.848  12.093 -0.0159  0.4509  0.1328
 9462SOL    HW140019   1.729   3.851  12.014 -0.2362  0.8183  0.2994
 9462SOL    HW240020   1.810   3.758  12.071  1.7057  1.1002 -0.4000
 9463SOL     OW40021   1.919   2.707   0.965 -0.0041 -0.7501  0.0883
 9463SOL    HW140022   1.984   2.659   0.914 -1.0761 -2.0701 -0.0114
 9463SOL    HW240023   1.838   2.688   0.918  0.0977  1.2462 -0.9157
 9464SOL     OW40024   4.418   1.113   1.348 -0.1609 -0.6024  0.0230
 9464SOL    HW140025   4.381   1.035   1.307 -1.7065  0.9151 -1.5180
 9464SOL    HW240026   4.503   1.117   1.304 -0.7350 -0.2292 -1.0633
 9465SOL     OW40027   1.588   3.418   6.188  0.5478  0.1065 -0.0078
 9465SOL    HW140028   1.543   3.447   6.267  1.6966  0.1979  0.6073
 9465SOL    HW240029   1.525   3.447   6.121  2.6326  2.2800 -1.0412
 9466SOL     OW40030   0.722   2.852   4.029  0.1803  0.3038 -0.5365
 9466SOL    HW140031   0.765   2.878   4.110  1.4150  0.5874 -1.2906
 9466SOL    HW240032   0.759   2.765   4.015 -0.8282 -0.3798  0.9936
 9467SOL     OW40033   1.776   0.419   5.333  0.2869 -0.1442 -0.1703
 9467SOL    HW140034   1.729   0.338   5.354 -0.5799  0.3024 -0.3857
 9467SOL    HW240035   1.708   0.483   5.354  2.4879  1.5106  1.7743
 9468SOL     OW40036   1.500   1.162   9.791 -0.0469  0.4767 -0.0509
 9468SOL    HW140037   1.405   1.153   9.778 -0.2116  2.0493  0.0452
 9468SOL    HW240038   1.535   1.108   9.721 -3.3157 -1.6377 -0.0793
 9469SOL     OW40039   0.936   0.934   7.548 -0.2075 -0.3530 -0.1625
 9469SOL    HW140040   0.933   0.869   7.618  0.1863 -0.6728 -0.4488
 9469SOL    HW240041   1.013   0.981   7.580 -0.9436  2.9215 -3.1024
 9470SOL     OW40042   3.528   1.288  10.256 -0.1435  0.1360 -0.5147
 9470SOL    HW140043   3.475   1.224  10.208 -2.2977  1.9207 -0.5217
 9470SOL    HW240044   3.595   1.300  10.188  0.7530  0.0412  0.3465
 9471SOL     OW40045   2.423   1.311   8.145  0.0273  0.1059 -0.9337
 9471SOL    HW140046   2.400   1.401   8.166  2.2735 -0.3063  3.2882
 9471SOL    HW240047   2.339   1.264   8.150 -0.5902  1.1243 -1.8186
 9472SOL     OW40048   0.881   3.838   2.714 -0.0243 -0.4686 -0.4608
 9472SOL    HW140049   0.973   3.853   2.732  0.4510 -1.9427 -1.7150
 9472SOL    HW240050   0.898   3.839   2.620  2.4747 -0.0294  0.0179
 9473SOL     OW40051   1.688   0.929  15.837 -0.0769  0.0601 -0.3242
 9473SOL    HW140052   1.715   1.000  15.895 -0.1017 -0.4470  0.3038
 9473SOL    HW240053   1.648   0.981  15.767  2.7390 -2.6891 -4.0309
 9474SOL     OW40054   3.436   3.641   2.582 -0.5459  0.3505  0.6381
 9474SOL    HW140055   3.394   3.556   2.566 -1.3848  0.5022  2.0375
 9474SOL    HW240056   3.392   3.671   2.662 -1.3251  0.7523  0.0484
 9475SOL     OW40057   1.735   2.217   9.994  0.2280  0.1015  0.0328
 9475SOL    HW140058   1.746   2.156  10.067 -2.1355  2.0131  1.9902
 9475SOL    HW240059   1.737   2.162   9.916 -1.3586 -0.6909  0.5504
 9476SOL     OW40060   2.463   1.817   9.976  0.6289  0.0495  0.4223
 9476SOL    HW140061   2.414   1.865   9.909  0.9099  1.1813  1.0349
 9476SOL    HW240062   2.390   1.777  10.023  1.4645 -0.5122  1.2484
 9477SOL     OW40063   1.729   4.340   3.301  0.4773 -0.1210  0.5080
 9477SOL    HW140064   1.765   4.295   3.224 -1.0770 -2.5273  1.1813
 9477SOL    HW240065   1.802   4.399   3.318 -1.7400  2.4695  1.0354
 9478SOL     OW40066   1.641   4.628   8.218  0.5384  0.0325  0.6461
 9478SOL    HW140067   1.591   4.704   8.187  0.5829  0.1982  0.9852
 9478SOL    HW240068   1.696   4.610   8.141  2.2143  2.8717  1.1769
 9479SOL     OW40069   2.808   1.429  17.233 -0.0306  0.1080 -0.0040
 9479SOL    HW140070   2.863   1.506  17.226  0.5494 -0.0555  2.7536
 9479SOL    HW240071   2.785   1.420  17.140 -0.9234 -0.1213  0.2322
 9480SOL     OW40072   2.679   3.781  17.702  0.2857  0.4334  0.0913
 9480SOL    HW140073   2.646   3.743   0.045 -1.3320  0.3486 -0.5945
 9480SOL    HW240074   2.739   3.715  17.667  1.0160  2.0014 -1.5965
 9481SOL     OW40075   0.072   3.397  11.331  0.8299 -0.0795 -0.3602
 9481SOL    HW140076   0.053   3.307  11.355 -1.7468  0.9852  1.5176
 9481SOL    HW240077   0.007   3.442  11.385 -0.0383  0.6637 -1.9971
 9482SOL     OW40078   0.552   2.933   5.227 -0.7728  0.4021 -0.3782
 9482SOL    HW140079   0.471   2.964   5.187 -0.9000 -2.4275 -2.2995
 9482SOL    HW240080   0.614   3.006   5.232  0.9078 -1.0492 -0.2595
 9483SOL     OW40081   1.613   4.089   1.735  0.7581 -0.0704  0.5788
 9483SOL    HW140082   1.678   4.159   1.743  0.9128 -0.2151  0.5891
 9483SOL    HW240083   1.638   4.035   1.809  0.3572 -0.1746  0.6350
 9484SOL     OW40084   1.799   4.259   3.069  0.7858  0.2472  0.1141
 9484SOL    HW140085   1.864   4.314   3.026  1.1477 -0.1323  0.1756
 9484SOL    HW240086   1.854   4.181   3.066  1.4447  0.6563  1.5462
 9485SOL     OW40087   4.318   3.552   6.310  0.2939  0.5891  0.2931
 9485SOL    HW140088   4.265   3.495   6.367  0.2843 -0.0500 -0.3531
 9485SOL    HW240089   4.392   3.567   6.369  1.3697 -0.3982 -0.8018
 9486SOL     OW40090   2.316   4.226   6.497  0.7282  0.1727  0.7439
 9486SOL    HW140091   2.248   4.282   6.461 -0.0363 -0.4537  1.2038
 9486SOL    HW240092   2.281   4.136   6.499  0.2630  0.3623  1.4272
 9487SOL     OW40093   3.648   1.415   4.459 -0.6962  0.0080  0.0632
 9487SOL    HW140094   3.719   1.351   4.464 -0.8234 -0.0279  1.4490
 9487SOL    HW240095   3.681   1.493   4.503 -1.1872 -0.2475  0.8839
 9488SOL     OW40096   1.592   4.127   6.340 -0.3367 -0.4518 -0.1136
 9488SOL    HW140097   1.656   4.068   6.379  0.6966  1.3760  0.9717
 9488SOL    HW240098   1.630   4.210   6.368 -2.4909 -0.0238  1.5734
 9489SOL     OW40099   2.669   4.468  12.482  0.3835  0.1479  0.3957
 9489SOL    HW140100   2.704   4.513  12.559 -1.7087 -0.1510  1.5063
 9489SOL    HW240101   2.647   4.543  12.426  0.1881 -1.9871 -2.3569
 9490SOL     OW40102   2.754   3.306  14.552 -0.3961 -0.4337 -0.3924
 9490SOL    HW140103   2.675   3.314  14.606 -0.8447 -1.5372 -0.8905
 9490SOL    HW240104   2.804   3.253  14.615  0.7821  1.1956  0.0644
 9491SOL     OW40105   1.656   4.653   2.781  0.6685  0.4789  0.4468
 9491SOL    HW140106   1.729   4.624   2.726  1.8439  3.6299  0.3338
 9491SOL    HW240107   1.700   4.687   2.859  2.6347 -0.3407 -0.3125
 9492SOL     OW40108   1.274   3.834   7.472  0.3879  0.3256 -0.7977
 9492SOL    HW140109   1.262   3.747   7.433  1.3168 -0.6532  1.0533
 9492SOL    HW240110   1.213   3.890   7.425  2.2957  1.2932 -2.1365
 9493SOL     OW40111   3.444   3.559   2.185  0.5943  0.7168 -0.3636
 9493SOL    HW140112   3.366   3.611   2.164  0.0750  0.4982  1.0799
 9493SOL    HW240113   3.489   3.623   2.240  0.3117  1.8537 -1.4503
 9494SOL     OW40114   2.273   2.578   0.573  0.1103  0.0537  0.0531
 9494SOL    HW140115   2.340   2.531   0.623 -0.6984  0.1331  1.2169
 9494SOL    HW240116   2.303   2.668   0.575 -0.1475  0.1676 -1.2235
 9495SOL     OW40117   1.026   0.628   1.618  0.0321  0.1104 -0.1384
 9495SOL    HW140118   1.031   0.563   1.687  1.1988  1.2107  0.8145
 9495SOL    HW240119   1.120   0.623   1.599  0.4017  1.7207  1.2430
 9496SOL     OW40120   0.120   1.205   6.153  0.1547  0.1676 -1.0700
 9496SOL    HW140121   0.158   1.202   6.241 -0.8975  0.3818 -0.6064
 9496SOL    HW240122   0.169   1.279   6.117 -1.0340  0.1692 -2.6774
 9497SOL     OW40123   4.147   2.408   9.987 -0.8043 -0.3511  0.0160
 9497SOL    HW140124   4.055   2.429  10.002 -1.1891 -1.5373 -0.6576
 9497SOL    HW240125   4.201   2.475  10.028  0.0033  0.8493 -3.0454
 9498SOL     OW40126   2.490   3.430  17.231 -0.2061  0.3645 -0.0917
 9498SOL    HW140127   2.420   3.491  17.206 -0.0108  1.1495  1.2622
 9498SOL    HW240128   2.543   3.481  17.293 -1.8118  2.9662 -0.8289
 9499SOL     OW40129   1.867   1.936   4.276  0.2135 -0.4458  0.2069
 9499SOL    HW140130   1.772   1.949   4.278  0.0597 -1.5318 -0.5801
 9499SOL    HW240131   1.894   2.022   4.310 -1.7810  0.3106 -0.1223
 9500SOL     OW40132   0.429   1.652   8.394 -0.0068 -0.0352  0.2280
 9500SOL    HW140133   0.509   1.680   8.350 -0.1628  0.3346  0.1838
 9500SOL    HW240134   0.368   1.722   8.373 -0.0218  0.3839  1.6497
 9501SOL     OW40135   2.790   1.531   3.066 -0.1085 -0.0192  0.3155
 9501SOL    HW140136   2.747   1.554   2.984 -1.9710  4.2801  2.4691
 9501SOL    HW240137   2.808   1.437   3.065  0.6939  0.1368  0.4360
 9502SOL     OW40138   3.566   1.649   3.608 -0.4630  0.4795  0.5361
 9502SOL    HW140139   3.474   1.671   3.591 -0.1435 -0.0071 -1.7908
 9502SOL    HW240140   3.590   1.578   3.549 -0.0108  0.2012  1.0606
 9503SOL     OW40141   4.069   0.925  15.764 -0.4437  0.0190  0.3642
 9503SOL    HW140142   4.002   0.987  15.735  1.8613  1.6951 -1.3511
 9503SOL    HW240143   4.086   0.958  15.852 -3.5692  1.7339  0.3511
 9504SOL     OW40144   4.360   0.336   5.842  0.7413 -0.1237 -0.8529
 9504SOL    HW140145   4.383   0.264   5.783  1.1127 -1.1427  0.5360
 9504SOL    HW240146   4.354   0.405   5.776  1.3787 -1.0858 -1.9146
 9505SOL     OW40147   2.810   1.806   7.678 -0.5757  0.3734  0.0857
 9505SOL    HW140148   2.715   1.806   7.673 -0.6130  1.0195  0.8541
 9505SOL    HW240149   2.835   1.727   7.630  1.9009  1.2337 -0.0615
 9506SOL     OW40150   3.021   4.720   1.166  0.4284 -0.1255  0.1194
 9506SOL    HW140151   2.964   4.660   1.214 -1.0230  0.2744 -1.1278
 9506SOL    HW240152   3.085   4.663   1.123 -0.8322 -0.9261 -0.6758
 9507SOL     OW40153   2.938   1.547   0.588  0.0364 -0.1833  0.8636
 9507SOL    HW140154   3.001   1.614   0.615  0.5897  0.4346 -1.8692
 9507SOL    HW240155   2.854   1.563   0.630 -0.2340  0.6348  0.0264
 9508SOL     OW40156   3.873   0.562   3.675  0.0112  0.1177 -1.1216
 9508SOL    HW140157   3.870   0.651   3.640  2.3876  1.1543  1.3150
 9508SOL    HW240158   3.887   0.586   3.767  3.3892  3.3200 -2.4896
 9509SOL     OW40159   1.723   3.900   1.913  0.6559 -0.3904 -0.0811
 9509SOL    HW140160   1.816   3.901   1.890  0.3308 -0.0264 -1.3277
 9509SOL    HW240161   1.701   3.812   1.882 -2.7697 -0.2247  1.8051
 9510SOL     OW40162   3.799   2.087   4.933  0.0308  0.1364 -0.4107
 9510SOL    HW140163   3.846   2.079   5.016 -1.6786 -1.0693  0.4395
 9510SOL    HW240164   3.802   2.183   4.928  0.4789  0.1652  0.3420
 9511SOL     OW40165   3.732   1.810   1.981 -0.7566 -0.5995 -0.1204
 9511SOL    HW140166   3.638   1.791   1.982 -1.4341  2.8462 -0.3621
 9511SOL    HW240167   3.727   1.900   2.011  1.6497  0.7167 -3.7345
 9512SOL     OW40168   0.932   2.365   9.883  0.3960 -0.1386  0.0055
 9512SOL    HW140169   0.885   2.327   9.957  3.4790 -2.0423  0.9723
 9512SOL    HW240170   0.931   2.291   9.823 -1.8735 -1.2300  1.4207
 9513SOL     OW40171   4.129   2.914   3.903  0.5749  0.5732 -0.1759
 9513SOL    HW140172   4.102   2.832   3.944  2.4831 -0.5765 -1.2026
 9513SOL    HW240173   4.047   2.961   3.890 -0.1226  0.2868  3.0878
 9514SOL     OW40174   0.843   1.000   5.680  0.0433 -0.0163  0.4808
 9514SOL    HW140175   0.914   0.983   5.618 -0.2539  0.1419  0.0996
 9514SOL    HW240176   0.894   1.024   5.757 -0.2973 -0.2800  0.7933
 9515SOL     OW40177   1.114   3.395  17.516  0.3605  0.2342  0.1312
 9515SOL    HW140178   1.091   3.451  17.442 -0.8223 -2.2762 -1.3961
 9515SOL    HW240179   1.190   3.439  17.555  0.9600 -0.1934 -0.5571
 9516SOL     OW40180   1.270   3.887   1.622 -0.1793 -0.6662 -0.6626
 9516SOL    HW140181   1.323   3.851   1.551  0.6426  2.8875 -1.8383
 9516SOL    HW240182   1.210   3.945   1.574 -0.1954  0.3358  0.5635
 9517SOL     OW40183   0.888   2.635   3.035  0.2463  0.1504 -0.2569
 9517SOL    HW140184   0.856   2.658   3.123  0.4305 -1.1968  0.1626
 9517SOL    HW240185   0.827   2.690   2.986  1.2874 -0.2050 -1.9481
 9518SOL     OW40186   4.312   4.385   8.093 -0.4438  0.1190 -0.1665
 9518SOL    HW140187   4.290   4.330   8.018  1.3868 -4.1129  2.3472
 9518SOL    HW240188   4.320   4.323   8.166 -0.0131  1.0908  0.6055
 9519SOL     OW40189   0.258   0.614   3.045 -0.0164  0.5316 -0.1176
 9519SOL    HW140190   0.230   0.572   3.126  0.1822  3.1871  1.3241
 9519SOL    HW240191   0.265   0.547   2.977 -0.9380 -0.1998  0.5104
 9520SOL     OW40192   2.665   3.530  12.559  0.1728 -0.5479  0.0164
 9520SOL    HW140193   2.604   3.477  12.610  1.7341 -2.1943  0.2076
 9520SOL    HW240194   2.605   3.550  12.488  1.0863  1.3267 -0.2492
 9521SOL     OW40195   1.985   3.446   3.633 -0.2857 -0.1683 -0.0963
 9521SOL    HW140196   1.980   3.507   3.559 -2.0246  0.2333  0.3487
 9521SOL    HW240197   2.035   3.496   3.697 -1.0925  1.7053 -0.9248
 9522SOL     OW40198   1.300   2.568   7.335  0.1815  0.1495 -0.0514
 9522SOL    HW140199   1.290   2.655   7.296  2.6884  0.6940  0.5270
 9522SOL    HW240200   1.210   2.535   7.325  0.3597  0.0134 -1.2244
 9523SOL     OW40201   0.778   2.735   2.227 -0.2683 -0.0530 -0.1076
 9523SOL    HW140202   0.841   2.719   2.298 -0.3927  0.7776  0.1849
 9523SOL    HW240203   0.799   2.669   2.161  1.7254 -0.2476  0.7118
 9524SOL     OW40204   4.726   3.361   6.949  0.0976  0.0303 -0.0065
 9524SOL    HW140205   4.697   3.347   6.859  1.9377 -0.4094 -0.5313
 9524SOL    HW240206   4.684   3.447   6.960 -1.7734 -0.7213 -1.1954
 9525SOL     OW40207   4.218   2.416  13.680  0.0134  0.6441 -0.4937
 9525SOL    HW140208   4.248   2.349  13.742  2.1526  1.6935 -0.3740
 9525SOL    HW240209   4.204   2.491  13.738  1.2032  0.1752  0.4181
 9526SOL     OW40210   3.075   4.269  10.872 -0.1569  0.7940 -0.4109
 9526SOL    HW140211   3.147   4.218  10.835  0.3974  2.1185 -1.1247
 9526SOL    HW240212   3.116   4.355  10.869 -2.5535  1.8949 -1.2381
 9527SOL     OW40213   1.637   0.389  12.743  0.0856 -0.0440 -0.3270
 9527SOL    HW140214   1.729   0.397  12.719 -0.7579  1.0315 -3.2480
 9527SOL    HW240215   1.616   0.476  12.778 -0.4592 -0.5734  0.6900
 9528SOL     OW40216   1.704   3.603  16.659 -0.1144 -0.0437  0.1463
 9528SOL    HW140217   1.630   3.653  16.692 -0.4768 -1.7561  1.9199
 9528SOL    HW240218   1.702   3.532  16.724 -2.1631 -1.3278 -1.3492
 9529SOL     OW40219   3.700   2.695   7.722 -0.0312  0.1660 -0.2561
 9529SOL    HW140220   3.756   2.716   7.647 -0.0620  0.0223 -0.3177
 9529SOL    HW240221   3.725   2.608   7.752  0.4269 -0.3569 -2.1725
 9530SOL     OW40222   2.459   2.206  12.027 -0.0638  0.9203 -0.7838
 9530SOL    HW140223   2.436   2.299  12.028 -0.0885  0.9002  0.4285
 9530SOL    HW240224   2.554   2.207  12.041 -0.5459 -0.4838  2.7223
 9531SOL     OW40225   2.426   2.895   3.684  0.1034  0.3434  0.1170
 9531SOL    HW140226   2.372   2.950   3.742 -2.4966 -1.1835 -0.8712
 9531SOL    HW240227   2.366   2.889   3.610 -0.4701 -0.9035  0.6950
 9532SOL     OW40228   2.921   4.362  14.941  0.0859 -0.5485  0.3489
 9532SOL    HW140229   2.921   4.371  15.037 -0.8096 -1.4720  0.4331
 9532SOL    HW240230   2.841   4.412  14.925  0.3244  0.3777  1.9746
 9533SOL     OW40231   2.254   1.588   9.360  0.1836  0.2726  0.1695
 9533SOL    HW140232   2.327   1.593   9.421  0.7918 -0.1240 -0.5201
 9533SOL    HW240233   2.186   1.646   9.393  1.7101  1.6256  0.9024
 9534SOL     OW40234   1.704   0.211  10.856  0.2787 -0.3248  0.3052
 9534SOL    HW140235   1.738   0.127  10.888  0.8068  0.1346  0.9458
 9534SOL    HW240236   1.667   0.257  10.932  0.5156  0.8148 -0.2786
 9535SOL     OW40237   3.559   1.365   1.986 -0.3074  0.0546  0.2045
 9535SOL    HW140238   3.639   1.401   2.023  0.3038 -0.5718 -0.5272
 9535SOL    HW240239   3.514   1.450   1.988 -0.5079 -0.0174 -1.8168
 9536SOL     OW40240   0.472   4.637   1.673 -0.3499  0.5677  0.3299
 9536SOL    HW140241   0.467   4.716   1.618  0.5911  0.0730 -0.4502
 9536SOL    HW240242   0.414   4.655   1.747  0.7398 -0.5411  1.4388
 9537SOL     OW40243   1.157   0.002   2.526  0.2861 -0.0976  0.7335
 9537SOL    HW140244   1.168   0.023   2.433 -0.8763  0.2891  0.6801
 9537SOL    HW240245   1.170   0.094   2.551 -1.9433  0.2328  0.6942
 9538SOL     OW40246   2.192   2.713   0.321 -0.4064  0.2707 -0.2683
 9538SOL    HW140247   2.144   2.677   0.247 -1.0493  0.8732 -0.1423
 9538SOL    HW240248   2.228   2.638   0.369 -0.8847  1.5205  2.0315
 9539SOL     OW40249   2.423   4.652  13.310 -0.4159  0.0888  0.0719
 9539SOL    HW140250   2.466   4.628  13.392 -0.4011  0.4014  0.1546
 9539SOL    HW240251   2.388   4.565  13.292  1.3584 -0.8352  1.0979
 9540SOL     OW40252   2.939   0.225   4.346  0.2454  0.1446 -0.8445
 9540SOL    HW140253   2.943   0.134   4.374 -0.4750  0.5765  0.6416
 9540SOL    HW240254   2.957   0.266   4.431 -1.0520 -3.1250  0.9816
 9541SOL     OW40255   3.108   2.029   0.910 -0.1624  0.7971 -0.0437
 9541SOL    HW140256   3.157   2.081   0.846 -0.9178  1.3738 -0.1602
 9541SOL    HW240257   3.178   1.999   0.969 -1.0917  1.8785  1.6138
 9542SOL     OW40258   0.225   3.666   6.528  0.1631 -0.0153 -0.2318
 9542SOL    HW140259   0.313   3.686   6.496 -0.1334  1.3561 -0.1757
 9542SOL    HW240260   0.180   3.749   6.510 -0.0361  0.2935  1.6607
 9543SOL     OW40261   2.478   0.377   8.401 -0.1936 -0.4449  0.0415
 9543SOL    HW140262   2.486   0.442   8.330  1.0837 -0.9343 -0.2450
 9543SOL    HW240263   2.463   0.298   8.349 -0.3457 -0.2952 -0.1418
 9544SOL     OW40264   3.295   1.107   3.115 -0.2980 -0.4241 -0.7758
 9544SOL    HW140265   3.356   1.144   3.050  3.4337 -1.6792  2.0129
 9544SOL    HW240266   3.305   1.018   3.079  1.3446 -0.3962 -0.3991
 9545SOL     OW40267   1.487   2.734   5.452  0.5098  0.0355  0.1055
 9545SOL    HW140268   1.520   2.783   5.528  0.1168  2.6325 -1.3999
 9545SOL    HW240269   1.500   2.644   5.480  1.1973  0.1888  0.2882
 9546SOL     OW40270   0.730   4.284  16.508 -0.3115  0.0186  0.0071
 9546SOL    HW140271   0.691   4.203  16.474 -1.3891  0.3450  0.4630
 9546SOL    HW240272   0.823   4.261  16.512 -0.2365  0.2313 -0.5182
 9547SOL     OW40273   2.032   0.906  10.323  0.4460 -0.2481 -0.3866
 9547SOL    HW140274   2.052   0.989  10.280 -0.3962  1.0155  1.7015
 9547SOL    HW240275   2.034   0.849  10.246 -0.6859 -0.5060 -0.2365
 9548SOL     OW40276   3.894   3.506  10.280 -1.0174 -0.4603  0.7974
 9548SOL    HW140277   3.945   3.427  10.299 -0.2468  0.6372  3.3165
 9548SOL    HW240278   3.948   3.541  10.209  0.9815 -2.1746  1.4679
 9549SOL     OW40279   3.418   3.489   6.258  0.8917 -0.2012  0.4109
 9549SOL    HW140280   3.489   3.534   6.212 -0.1780  1.7652  0.7236
 9549SOL    HW240281   3.367   3.569   6.256  0.8648 -0.2239  0.2421
 9550SOL     OW40282   2.048   3.021   6.377  0.1699  0.9248 -0.0007
 9550SOL    HW140283   2.128   3.068   6.356  1.2181 -0.0055  1.9608
 9550SOL    HW240284   2.011   3.087   6.435  2.2520  1.1617  1.0274
 9551SOL     OW40285   2.490   2.039  13.536  0.2263  0.4282 -0.4679
 9551SOL    HW140286   2.583   2.062  13.534  0.8961 -2.1079  2.1997
 9551SOL    HW240287   2.502   1.960  13.484  0.5266 -1.2106  2.0845
 9552SOL     OW40288   1.027   3.148  12.566 -0.0444 -0.1834  0.4307
 9552SOL    HW140289   1.072   3.113  12.644  2.0621  0.5457 -0.4502
 9552SOL    HW240290   0.938   3.127  12.595 -0.6153  0.1133 -1.1234
 9553SOL     OW40291   3.509   0.129   9.584  0.1758  0.3987 -0.0856
 9553SOL    HW140292   3.514   0.220   9.614  1.8246  1.2629 -3.0503
 9553SOL    HW240293   3.516   0.087   9.670  2.1288 -1.5643 -1.1927
 9554SOL     OW40294   0.218   3.766   1.623 -0.1119 -0.1286  0.3698
 9554SOL    HW140295   0.158   3.830   1.585  0.1776 -0.3818 -0.5046
 9554SOL    HW240296   0.193   3.682   1.586  0.0428  0.0241 -0.0894
 9555SOL     OW40297   1.072   0.468   3.187 -0.5738  0.0125  0.5187
 9555SOL    HW140298   0.981   0.489   3.208 -1.1586 -1.9692 -0.0324
 9555SOL    HW240299   1.058   0.374   3.177 -2.5248  0.2399  1.1955
 9556SOL     OW40300   3.528   0.379   9.061 -0.3158  0.2078 -0.0949
 9556SOL    HW140301   3.481   0.456   9.093 -1.0567 -1.3935  2.7597
 9556SOL    HW240302   3.480   0.308   9.104  0.0843 -0.2447 -0.3951
 9557SOL     OW40303   0.568   3.514   1.776  0.4870  0.4141 -0.3000
 9557SOL    HW140304   0.596   3.504   1.685  1.0601 -0.7354  0.0145
 9557SOL    HW240305   0.563   3.610   1.785  0.3879  0.3587  0.1968
 9558SOL     OW40306   0.448   4.107  12.144  0.4016  0.1662 -0.5783
 9558SOL    HW140307   0.376   4.151  12.100 -0.1429 -1.7534 -1.5887
 9558SOL    HW240308   0.424   4.016  12.128 -0.1984  0.3272 -0.5819
 9559SOL     OW40309   4.570   1.379   2.457 -0.3674 -0.0666  0.3810
 9559SOL    HW140310   4.665   1.387   2.453 -0.3540 -0.0272  0.7531
 9559SOL    HW240311   4.551   1.454   2.514  1.4383  1.0809 -0.5363
 9560SOL     OW40312   4.231   1.623   6.812  0.0805 -0.0790  0.3529
 9560SOL    HW140313   4.199   1.539   6.846 -1.9204  0.3449 -0.4905
 9560SOL    HW240314   4.179   1.627   6.732  0.5868  0.0567  0.0278
 9561SOL     OW40315   1.302   0.228   0.594  0.0766  0.6819 -0.2386
 9561SOL    HW140316   1.254   0.246   0.513  1.4223 -0.3432 -1.2432
 9561SOL    HW240317   1.381   0.269   0.559 -0.2149  0.8420 -0.7102
 9562SOL     OW40318   2.875   0.331   3.562 -0.4129 -1.0773 -0.2682
 9562SOL    HW140319   2.838   0.342   3.650 -0.2208  0.7135 -0.4214
 9562SOL    HW240320   2.957   0.285   3.582 -1.3971 -1.9526  1.7539
 9563SOL     OW40321   3.573   1.994   1.726  0.2311 -0.1376 -0.3979
 9563SOL    HW140322   3.597   1.903   1.742  2.7951  1.0056  2.2451
 9563SOL    HW240323   3.478   1.989   1.723  0.3028 -0.8870 -1.3283
 9564SOL     OW40324   3.214   1.274   7.478 -0.5980  0.0058 -0.3755
 9564SOL    HW140325   3.222   1.220   7.557 -1.3281 -2.1541 -1.7945
 9564SOL    HW240326   3.283   1.337   7.497  0.0598 -0.9751  0.5067
 9565SOL     OW40327   1.156   2.514   9.928  0.2576 -0.0804  0.1137
 9565SOL    HW140328   1.152   2.527   9.833 -1.0167 -1.2735  0.0015
 9565SOL    HW240329   1.109   2.430   9.929  0.2667 -0.0874 -0.0596
 9566SOL     OW40330   2.863   3.136  17.356 -0.5194 -0.3744  0.3182
 9566SOL    HW140331   2.953   3.119  17.328 -1.0145 -0.9967 -0.9094
 9566SOL    HW240332   2.807   3.132  17.279 -0.1629  1.2547 -0.0134
 9567SOL     OW40333   3.247   1.378  17.071 -0.8647 -0.8078 -0.0790
 9567SOL    HW140334   3.214   1.415  17.153 -0.9477 -0.0026 -0.4739
 9567SOL    HW240335   3.321   1.434  17.050  0.2450 -2.1281  0.3251
 9568SOL     OW40336   0.629   3.079   0.233  0.1219 -0.0547  0.0827
 9568SOL    HW140337   0.705   3.121   0.272 -1.3073 -0.8259  3.6641
 9568SOL    HW240338   0.611   3.120   0.148  0.6012 -1.9885 -0.9671
 9569SOL     OW40339   1.448   3.762   1.478  0.3322 -0.2875  0.0782
 9569SOL    HW140340   1.452   3.727   1.389 -2.4653 -2.2704  0.7411
 9569SOL    HW240341   1.454   3.678   1.524 -0.0664 -0.3857 -0.0489
 9570SOL     OW40342   2.992   2.472   2.143 -0.2620  0.0696 -0.1374
 9570SOL    HW140343   3.045   2.422   2.206  0.3660 -1.6003 -1.9821
 9570SOL    HW240344   2.990   2.408   2.072  0.4835  0.3092 -0.3671
 9571SOL     OW40345   3.644   2.896   5.432 -0.1576  0.2771 -0.4314
 9571SOL    HW140346   3.583   2.909   5.505 -0.3747  1.2193 -0.7847
 9571SOL    HW240347   3.652   2.801   5.432  0.9901  0.3705 -0.2292
   4.73494   4.73494  17.73866
