Membrane in water
40347
    1TMC1    C1    1   2.569   0.185  11.309 -0.3977  0.4546 -0.4276
    1TMC1    C2    2   2.674   0.194  11.222 -0.3444 -0.0513  0.6781
    1TMC1    C3    3   2.800   0.239  11.275  0.4041 -0.3278 -0.0040
    1TMC1    C4    4   2.592   0.215  11.442 -0.3219  0.6010  0.1313
    1TMC1    C5    5   2.705   0.265  11.485 -0.6399 -0.3576 -0.3867
    1TMC1    C6    6   2.817   0.277  11.406 -1.1407  0.0900 -0.2758
    1TMC1     C    7   2.457   0.105  11.275 -0.3450 -0.5096 -0.3883
    1TMC1     O    8   2.387   0.073  11.375 -0.1536  0.1950  0.8576
    1TMC1     H    9   2.674   0.176  11.116 -2.3977  1.2270  0.4431
    1TMC1    H1   10   2.508   0.212  11.511  0.3143  1.8783  0.9491
    1TMC1    H2   11   2.916   0.303  11.441 -0.7037 -0.9570 -0.7368
    1TMC1    C7   12   2.715   0.312  11.620  0.0578  0.5276  0.1735
    1TMC1    C8   13   2.916   0.229  11.189 -0.4506  0.5547 -0.1610
    1TMC1    O1   14   2.612   0.349  11.677 -0.4833 -0.2455  0.5148
    1TMC1    O2   15   2.915   0.128  11.127  0.4876 -0.0304  0.1719
    1TMC1    O3   16   2.823   0.263  11.676  0.2260 -0.3371 -0.2130
    1TMC1    H3   17   2.862   0.194  11.617 -0.7662  1.0370 -2.4591
    1TMC1    O5   18   2.929   0.353  11.130  0.0608  0.9199  0.2952
    1TMC1    H5   19   2.926   0.431  11.189  3.4265  0.2413  1.3087
    2MPD2     C   20   2.231   4.479  10.988 -0.0614 -0.2902 -0.0863
    2MPD2    C1   21   2.239   4.496  11.123  0.5929  0.0027  0.1588
    2MPD2    C2   22   2.307   4.605  11.171 -0.0418  0.1122  0.0599
    2MPD2    C3   23   2.371   4.694  11.089  0.1349 -0.2490  0.4015
    2MPD2    C4   24   2.361   4.678  10.958  0.3398 -0.1234  0.2784
    2MPD2    C5   25   2.302   4.569  10.906  0.6316  0.0978  0.2358
    2MPD2     H   26   2.315   4.611  11.279 -0.0074  1.4553 -0.0162
    2MPD2    H1   27   2.404   0.009  10.885 -0.1748 -0.5893 -0.4694
    2MPD2    H2   28   2.183   4.394  10.943 -1.4881 -0.2702  1.4043
    2MPD2    H3   29   2.301   4.548  10.799 -0.6204 -2.2381  0.7089
    2MPD2     N   30   2.453   0.058  11.140 -0.5127 -0.2117  0.1236
    2MPD2    H5   31   2.514   0.108  11.076 -1.0211  1.5064  0.9744
    2MPD2    N1   32   2.169   4.416  11.218  0.6644 -0.0171  0.0381
    2MPD2    H7   33   2.172   4.441  11.316  1.4754 -1.8674  0.4951
    3TMC1    C1   34   1.922   0.734  10.244 -0.6108 -0.2912  0.2888
    3TMC1    C2   35   1.929   0.867  10.197  0.0248 -0.3966  0.2534
    3TMC1    C3   36   2.006   0.887  10.089  0.9226 -0.6373  0.0616
    3TMC1    C4   37   1.994   0.632  10.182  0.8169  0.3166 -0.5140
    3TMC1    C5   38   2.074   0.664  10.082  0.3653  0.6883  0.3043
    3TMC1    C6   39   2.088   0.793  10.032 -0.4321  0.3336  0.3341
    3TMC1     C   40   1.837   0.696  10.362 -0.4094 -0.0413  0.3178
    3TMC1     O   41   1.832   0.577  10.387  0.0260  0.4325 -0.2709
    3TMC1     H   42   1.856   0.938  10.233 -0.2289 -0.4206 -0.2177
    3TMC1    H1   43   2.000   0.528  10.212  2.0628 -0.1974 -2.5859
    3TMC1    H2   44   2.144   0.812   9.941 -1.8793  0.2568 -0.5721
    3TMC1    C7   45   2.120   0.540  10.015 -0.5059 -0.0001 -0.2925
    3TMC1    C8   46   1.978   0.996  10.009  0.6626  0.5226  0.2197
    3TMC1    O1   47   2.067   0.428  10.018 -0.9676  0.1563  0.3770
    3TMC1    O2   48   1.986   1.002   9.883 -0.2059 -0.6413 -0.4027
    3TMC1    O3   49   2.250   0.561   9.964 -0.0546 -0.1010 -0.5082
    3TMC1    H3   50   2.292   0.647   9.984 -1.0597  0.3512 -0.3444
    3TMC1    O5   51   1.990   1.100  10.090 -0.7071  0.9371  0.1421
    3TMC1    H5   52   2.019   1.067  10.177 -0.6317 -0.8516 -0.5551
    4MPD2     C   53   1.509   0.786  10.747 -0.1405  0.7402 -0.2963
    4MPD2    C1   54   1.568   0.907  10.705  0.4784  0.7667 -0.3150
    4MPD2    C2   55   1.659   0.903  10.602 -0.4715  0.6567  0.2148
    4MPD2    C3   56   1.685   0.791  10.531 -0.5287 -0.2311 -0.9516
    4MPD2    C4   57   1.637   0.673  10.584  0.3638 -0.8386 -0.5660
    4MPD2    C5   58   1.547   0.667  10.692 -0.0199  0.0406 -0.4851
    4MPD2     H   59   1.709   0.993  10.568  0.7582  0.4301  1.4022
    4MPD2    H1   60   1.643   0.579  10.531 -0.1535 -0.9449 -0.4412
    4MPD2    H2   61   1.437   0.771  10.827 -0.9625  3.6284 -0.4851
    4MPD2    H3   62   1.506   0.575  10.731 -0.2929  1.0532  1.6396
    4MPD2     N   63   1.776   0.805  10.421  0.9974  0.3590 -0.1177
    4MPD2    H5   64   1.811   0.898  10.402  0.8786  0.2969 -0.6427
    4MPD2    N1   65   1.572   1.028  10.773  0.5830 -0.0503  0.2057
    4MPD2    H7   66   1.611   1.109  10.726  0.5042  0.0634  0.3362
    5TCq1    O1   67   2.339   2.268  11.620 -0.1424 -0.5351  0.0799
    5TCq1    C1   68   2.307   2.339  11.731 -0.0977  0.4241 -0.0575
    5TCq1    O2   69   2.362   2.348  11.841 -0.7285 -0.1284 -0.2784
    5TCq1    C2   70   2.240   2.456  11.685  0.0874 -0.5568 -0.9755
    5TCq1    C3   71   2.142   2.504  11.762 -0.3564 -0.2264 -0.0892
    5TCq1    C4   72   2.041   2.578  11.712  0.0038 -0.0390 -0.4572
    5TCq1    C5   73   2.038   2.612  11.581 -0.5495 -0.3217  0.8365
    5TCq1    C6   74   2.139   2.560  11.508  0.0349 -0.5134  0.4869
    5TCq1    C7   75   2.244   2.480  11.554  0.7441  0.5852 -0.1410
    5TCq1    C8   76   2.116   2.564  11.363 -0.2895 -0.0216  0.0530
    5TCq1    O4   77   2.203   2.507  11.303  0.5922 -0.1784 -0.0339
    5TCq1    C9   78   1.945   2.632  11.799  0.2550  0.0575  0.2643
    5TCq1    O5   79   1.860   2.710  11.744  0.5412 -0.9597 -0.5883
    5TCq1    O6   80   1.954   2.594  11.922 -0.8574  0.4317  0.4073
    5TCq1    H1   81   2.295   2.293  11.536  2.3358  3.4143 -0.0460
    5TCq1    H2   82   2.149   2.485  11.868 -0.7370  0.1452  0.0063
    5TCq1    H3   83   1.974   2.690  11.543  1.1967  0.3558 -0.7143
    5TCq1    H4   84   2.339   2.472  11.502  0.2518  1.1624 -1.1287
    6MPD2     C   85   1.800   2.577  11.186  0.0207  0.6535  0.0501
    6MPD2    C1   86   1.938   2.574  11.197 -0.2635  0.2901 -0.9737
    6MPD2    C2   87   2.015   2.564  11.080 -0.0988  0.0623  0.7140
    6MPD2    C3   88   1.961   2.569  10.955 -0.4555  0.6131  0.1795
    6MPD2    C4   89   1.823   2.566  10.948 -0.3970 -0.3587  0.5037
    6MPD2    C5   90   1.745   2.568  11.059 -0.1161 -0.0808 -0.5621
    6MPD2     H   91   2.121   2.542  11.078 -0.7243 -2.7296 -1.3125
    6MPD2    H1   92   1.773   2.529  10.860 -0.2740 -2.2620  1.2289
    6MPD2    H2   93   1.743   2.568  11.278 -1.2106 -2.1981 -0.9918
    6MPD2    H3   94   1.643   2.533  11.059  0.1354 -0.7967 -1.7813
    6MPD2     N   95   2.050   2.555  10.847  0.1382  0.8447  0.3751
    6MPD2    H5   96   2.145   2.533  10.877  0.0078  1.7388  1.4300
    6MPD2    N1   97   1.984   2.575  11.332 -0.3919 -0.8413 -0.0430
    6MPD2    H7   98   1.921   2.592  11.411  0.6434 -0.8888  0.7964
    7TCq1    O1   99   3.751   1.956  12.942 -0.5276 -0.4881  0.5434
    7TCq1    C1  100   3.852   1.892  12.889 -0.7768  0.5978  0.5898
    7TCq1    O2  101   3.938   1.939  12.815  0.0183 -0.8586  0.1347
    7TCq1    C2  102   3.847   1.758  12.938 -0.4391 -0.3562  0.1868
    7TCq1    C3  103   3.723   1.704  12.956 -0.0474  0.5605 -0.0025
    7TCq1    C4  104   3.713   1.595  13.031 -0.3412  0.7808 -0.1389
    7TCq1    C5  105   3.825   1.543  13.093 -0.7502 -0.1204 -0.2506
    7TCq1    C6  106   3.951   1.588  13.060  0.0756  0.2369  0.2687
    7TCq1    C7  107   3.962   1.705  12.987 -0.1774 -0.5281  0.8332
    7TCq1    C8  108   4.062   1.498  13.083 -0.4305 -0.5754 -0.4749
    7TCq1    O4  109   4.043   1.375  13.071 -0.6240 -0.0567  0.4286
    7TCq1    C9  110   3.580   1.553  13.074 -0.1198 -0.7987  0.0731
    7TCq1    O5  111   3.478   1.620  13.037  0.2287 -0.4588 -0.1748
    7TCq1    O6  112   3.577   1.480  13.175 -0.4866  0.3768  0.4175
    7TCq1    H1  113   3.702   1.898  13.005 -1.4679 -2.4957 -2.0422
    7TCq1    H2  114   3.638   1.744  12.903  0.6820  2.5092  0.2896
    7TCq1    H3  115   3.813   1.457  13.159 -1.0969 -0.5189 -0.8385
    7TCq1    H4  116   4.052   1.763  12.971 -0.9068  0.2444 -0.4926
    8MPD2     C  117   4.565   1.425  13.166  0.1949 -0.0633 -0.1830
    8MPD2    C1  118   4.476   1.341  13.105  0.2280  0.0005 -0.2134
    8MPD2    C2  119   4.346   1.388  13.086 -0.4497  0.4151  0.1856
    8MPD2    C3  120   4.314   1.519  13.114 -0.7579 -0.4375 -0.2442
    8MPD2    C4  121   4.405   1.606  13.163  0.2986 -0.1321  0.1032
    8MPD2    C5  122   4.530   1.552  13.199  0.4020 -0.0851 -0.3193
    8MPD2     H  123   4.262   1.327  13.056  0.7575 -0.8934 -0.5122
    8MPD2    H1  124   4.367   1.704  13.186  0.8246  0.1742 -0.3282
    8MPD2    H2  125   4.665   1.395  13.195 -0.2839 -1.6649 -0.1873
    8MPD2    H3  126   4.599   1.618  13.250  0.8637  0.0536 -1.1200
    8MPD2     N  127   4.180   1.568  13.109 -0.6848  0.1829 -0.0208
    8MPD2    H5  128   4.160   1.665  13.130 -2.9872 -0.5697  1.2289
    8MPD2    N1  129   4.522   1.208  13.084 -0.0180 -0.0676  0.2151
    8MPD2    H7  130   4.602   1.183  13.141  0.8170  0.9989 -0.4798
    9TMC1    C1  131   2.082   0.153  11.153 -0.2958  1.0034  0.0732
    9TMC1    C2  132   2.031   0.044  11.217  0.5216  0.2001 -0.0936
    9TMC1    C3  133   1.941   4.701  11.152  0.1157 -0.2460 -0.3928
    9TMC1    C4  134   2.055   0.181  11.023 -0.7689  0.2089  0.0766
    9TMC1    C5  135   1.973   0.095  10.964 -0.5269  0.5517  0.3448
    9TMC1    C6  136   1.909   4.723  11.022 -0.8181  0.3232 -0.3987
    9TMC1     C  137   2.140   0.261  11.235 -0.6523  0.3719  0.5577
    9TMC1     O  138   2.197   0.350  11.176  0.0192  0.1297 -0.2914
    9TMC1     H  139   2.081   0.011  11.307  3.3115 -0.0248 -1.7298
    9TMC1    H1  140   2.103   0.266  10.976  0.0754  1.2492  2.8278
    9TMC1    H2  141   1.834   4.665  10.970 -1.2243  1.2094 -0.7959
    9TMC1    C7  142   1.954   0.114  10.824  0.5847 -1.0218  0.4587
    9TMC1    C8  143   1.887   4.582  11.224 -0.4556  0.1358  0.1029
    9TMC1    O1  144   1.985   0.222  10.780  0.2333 -0.1247  0.1299
    9TMC1    O2  145   1.862   4.477  11.165  0.3317 -0.1125  0.1208
    9TMC1    O3  146   1.937   4.732  10.756  0.5773 -0.1253  0.0388
    9TMC1    H3  147   1.915   4.652  10.808 -0.4513  0.2075  0.1184
    9TMC1    O5  148   1.914   4.602  11.356 -0.3965 -0.2107  0.8170
    9TMC1    H5  149   1.913   4.696  11.387 -1.7363  0.2231 -0.5927
   10MPD2     C  150   2.209   0.451  11.459  0.6514  0.1423 -0.6374
   10MPD2    C1  151   2.122   0.346  11.468  0.2149 -0.6507  0.1535
   10MPD2    C2  152   2.084   0.303  11.602  0.8457 -0.1024 -0.3518
   10MPD2    C3  153   2.129   0.374  11.712 -0.2979 -0.6952  0.1560
   10MPD2    C4  154   2.209   0.486  11.698 -0.5465 -0.6404 -0.1164
   10MPD2    C5  155   2.255   0.518  11.571 -0.4107 -0.6848  0.5310
   10MPD2     H  156   2.019   0.217  11.614  1.5934 -0.8487 -1.6522
   10MPD2    H1  157   2.237   0.554  11.777 -0.6343 -0.7970  0.0508
   10MPD2    H2  158   2.258   0.477  11.366  0.1517  1.7714 -0.4558
   10MPD2    H3  159   2.326   0.597  11.547 -0.0240 -1.7161 -1.7030
   10MPD2     N  160   2.093   0.346  11.844 -0.1439 -0.7341  0.5883
   10MPD2    H5  161   2.138   0.398  11.919 -0.4223 -0.5732  0.6459
   10MPD2    N1  162   2.091   0.253  11.362 -0.0757 -0.5950  0.0980
   10MPD2    H7  163   2.032   0.177  11.393 -0.8995  0.1165  0.2715
   11TCq1    O1  164   2.950   4.512  13.776 -0.3889  0.1915 -0.2508
   11TCq1    C1  165   2.956   4.417  13.871  0.1601 -0.0549 -0.5384
   11TCq1    O2  166   2.858   4.368  13.925  0.8913 -0.0656 -0.6010
   11TCq1    C2  167   3.052   4.326  13.813  0.4813  0.5421  0.2505
   11TCq1    C3  168   3.184   4.344  13.836 -0.1012 -0.2379 -0.2014
   11TCq1    C4  169   3.268   4.246  13.804  0.4854 -0.3902  0.6480
   11TCq1    C5  170   3.224   4.131  13.752 -0.0295 -0.1796 -0.1930
   11TCq1    C6  171   3.090   4.117  13.733  0.5822  0.4384 -0.3824
   11TCq1    C7  172   3.006   4.218  13.750  0.4106 -0.0207 -0.0757
   11TCq1    C8  173   3.039   3.988  13.705  0.0826 -0.1037  0.2240
   11TCq1    O4  174   3.109   3.897  13.748 -0.3230 -0.3301 -0.2164
   11TCq1    C9  175   3.409   4.262  13.822 -0.2931 -0.1949 -0.6809
   11TCq1    O5  176   3.480   4.159  13.785  0.4038  0.7647 -0.0238
   11TCq1    O6  177   3.461   4.375  13.849 -0.1520  0.1808 -0.2330
   11TCq1    H1  178   3.039   4.542  13.750 -0.7367  0.9528 -0.5492
   11TCq1    H2  179   3.223   4.434  13.883  0.6128  0.1718 -1.6015
   11TCq1    H3  180   3.295   4.052  13.734  0.5132  0.2607  0.0071
   11TCq1    H4  181   2.901   4.224  13.722  1.1483  3.0235 -2.1845
   12MPD2     C  182   2.718   3.895  13.548  0.5730  0.5202  0.6370
   12MPD2    C1  183   2.840   3.874  13.617 -0.3744 -0.1279 -0.0625
   12MPD2    C2  184   2.877   3.743  13.633 -0.6380  0.7786  0.3421
   12MPD2    C3  185   2.794   3.635  13.602  0.6947  0.3159  0.1053
   12MPD2    C4  186   2.674   3.662  13.551 -0.8379  0.7640 -0.1268
   12MPD2    C5  187   2.635   3.791  13.528 -0.1376  0.0811  0.3673
   12MPD2     H  188   2.965   3.726  13.693 -0.8380 -2.0226 -0.1387
   12MPD2    H1  189   2.598   3.589  13.526  0.7778 -0.9583  0.0346
   12MPD2    H2  190   2.679   3.993  13.522  0.0786  0.7819  2.3790
   12MPD2    H3  191   2.538   3.807  13.483 -0.6805 -0.8743  1.2077
   12MPD2     N  192   2.813   3.504  13.641 -0.5420  0.5899 -0.2833
   12MPD2    H5  193   2.734   3.441  13.635  0.2298 -0.4874  0.8482
   12MPD2    N1  194   2.911   3.991  13.654  0.3091  0.8896  0.1852
   12MPD2    H7  195   2.864   4.079  13.637 -0.2809  0.7015  0.8766
   13TCq1    O1  196   2.390   0.729  10.407  0.6181  0.1787 -0.0931
   13TCq1    C1  197   2.333   0.701  10.527 -0.5754  0.1846 -1.0332
   13TCq1    O2  198   2.353   0.597  10.587 -0.3933  0.2472 -0.6471
   13TCq1    C2  199   2.234   0.791  10.572 -0.4350  0.0775  0.4337
   13TCq1    C3  200   2.179   0.887  10.488  0.8869 -0.3944  0.5852
   13TCq1    C4  201   2.071   0.956  10.531 -0.1599  0.5893 -0.1949
   13TCq1    C5  202   2.011   0.925  10.651 -0.2139 -1.1660  0.2991
   13TCq1    C6  203   2.066   0.831  10.727  0.1424 -0.3074 -0.3557
   13TCq1    C7  204   2.172   0.752  10.689  0.8358 -0.2016 -0.1193
   13TCq1    C8  205   1.991   0.790  10.848  0.1790  0.2142  0.4019
   13TCq1    O4  206   1.952   0.883  10.920 -0.3574 -0.0615 -0.6503
   13TCq1    C9  207   2.015   1.065  10.446  0.9153 -0.4119 -0.1939
   13TCq1    O5  208   2.070   1.081  10.333  0.5729  0.3451 -0.1412
   13TCq1    O6  209   1.894   1.094  10.467 -0.1483  0.6154  0.4090
   13TCq1    H1  210   2.399   0.825  10.389  0.4228 -0.1656 -2.0730
   13TCq1    H2  211   2.213   0.912  10.388 -0.4508  0.7706  0.4164
   13TCq1    H3  212   1.933   0.987  10.692 -0.2084 -1.5555  0.8948
   13TCq1    H4  213   2.224   0.680  10.751  2.4667  2.6978  1.8413
   14MPD2     C  214   1.831   0.469  10.918  0.3314 -0.2231 -0.0697
   14MPD2    C1  215   1.881   0.594  10.947 -0.2272  0.0246  0.2256
   14MPD2    C2  216   1.886   0.630  11.078 -0.6528  0.9450  0.1446
   14MPD2    C3  217   1.846   0.542  11.178 -0.3014  0.4700 -0.0936
   14MPD2    C4  218   1.790   0.420  11.141 -0.9665  0.1807 -0.1369
   14MPD2    C5  219   1.777   0.388  11.008  0.0684 -0.6969 -0.5186
   14MPD2     H  220   1.936   0.723  11.101  0.8660 -0.0329  0.8272
   14MPD2    H1  221   1.758   0.355  11.222 -1.0856 -0.7957 -0.9733
   14MPD2    H2  222   1.823   0.440  10.814 -0.7313 -0.9980  0.2340
   14MPD2    H3  223   1.729   0.294  10.981  1.0274 -0.9806 -1.2243
   14MPD2     N  224   1.863   0.587  11.312 -0.3615  0.0174 -0.4603
   14MPD2    H5  225   1.902   0.681  11.315  1.8364 -0.9335  0.8898
   14MPD2    N1  226   1.949   0.659  10.843  0.1843 -0.2930  0.5575
   14MPD2    H7  227   1.957   0.618  10.750  2.7248 -0.3191  0.7922
   15TCq1    O1  228   0.112   3.645   0.543  0.2864 -0.6008  0.1683
   15TCq1    C1  229   0.024   3.744   0.540 -0.3872  0.1411  0.5426
   15TCq1    O2  230   0.050   3.863   0.520 -0.1428  0.1460 -0.0533
   15TCq1    C2  231   4.660   3.711   0.641  0.2159 -0.5068 -0.2430
   15TCq1    C3  232   4.623   3.802   0.737  0.6220 -0.2677 -0.5769
   15TCq1    C4  233   4.534   3.767   0.830 -0.4279  0.4555  0.7780
   15TCq1    C5  234   4.481   3.644   0.838 -0.0096 -0.4932  0.1748
   15TCq1    C6  235   4.531   3.545   0.745 -0.4464 -0.1498  0.1600
   15TCq1    C7  236   4.623   3.581   0.653  0.2283  0.1499  0.1927
   15TCq1    C8  237   4.498   3.412   0.764 -0.5820 -0.5873  0.1011
   15TCq1    O4  238   4.572   3.329   0.718  0.9206  0.8140  0.2780
   15TCq1    C9  239   4.492   3.854   0.931  0.0355  0.4245  0.6392
   15TCq1    O5  240   4.521   3.978   0.910  0.2732  0.5593 -0.4514
   15TCq1    O6  241   4.451   3.801   1.037 -0.0795 -0.0350  0.0648
   15TCq1    H1  242   0.071   3.572   0.594 -0.6575  0.7271  1.3148
   15TCq1    H2  243   4.658   3.905   0.744  0.9920 -0.4657  0.4342
   15TCq1    H3  244   4.410   3.618   0.917 -0.1602  0.4346  0.3536
   15TCq1    H4  245   4.662   3.503   0.588  0.8349  1.0530 -0.5370
   16MPD2     C  246   4.252   3.284   1.005 -0.8303 -0.9088 -0.1959
   16MPD2    C1  247   4.351   3.272   0.912 -0.0983  0.5122  0.0243
   16MPD2    C2  248   4.393   3.143   0.877 -0.8663 -0.2312 -0.7958
   16MPD2    C3  249   4.345   3.032   0.940  0.4636 -0.6302 -0.4480
   16MPD2    C4  250   4.238   3.052   1.025  0.3989  0.6660  0.2092
   16MPD2    C5  251   4.185   3.176   1.052  0.8512  0.2995  0.0149
   16MPD2     H  252   4.475   3.132   0.807 -0.1950  1.1675 -0.2209
   16MPD2    H1  253   4.194   2.963   1.068  1.5352 -0.3958 -0.8248
   16MPD2    H2  254   4.218   3.379   1.045 -1.7668 -0.6763 -1.5705
   16MPD2    H3  255   4.102   3.195   1.120  0.4500 -0.5260 -0.2404
   16MPD2     N  256   4.407   2.901   0.916 -0.2162  0.0087  0.3662
   16MPD2    H5  257   4.505   2.899   0.892 -0.6750 -0.0730 -1.5017
   16MPD2    N1  258   4.399   3.390   0.854 -0.4948  0.2221 -0.4204
   16MPD2    H7  259   4.354   3.474   0.890  0.7286 -0.4666  2.7398
   17TMC1    C1  260   2.092   3.592  10.029 -0.3401  1.1554 -0.4383
   17TMC1    C2  261   2.028   3.476   9.981 -0.1400 -0.4445  0.4253
   17TMC1    C3  262   1.969   3.398  10.082 -0.3043  0.2532 -0.3084
   17TMC1    C4  263   2.098   3.620  10.160  0.1767  0.6232  1.2739
   17TMC1    C5  264   2.044   3.535  10.253  0.5677 -0.7693  0.4905
   17TMC1    C6  265   1.979   3.419  10.216 -0.3817 -0.3356 -0.7384
   17TMC1     C  266   2.158   3.673   9.930 -0.2805 -0.4903  0.2536
   17TMC1     O  267   2.185   3.624   9.818  0.1683  0.5200  0.7175
   17TMC1     H  268   2.022   3.451   9.876 -0.4229 -1.1849  0.6174
   17TMC1    H1  269   2.158   3.700  10.201 -1.6436  1.7061  1.8159
   17TMC1    H2  270   1.936   3.358  10.295 -0.0937 -2.0407 -1.9004
   17TMC1    C7  271   2.111   3.530  10.378  0.7986  0.1416 -0.0832
   17TMC1    C8  272   1.925   3.263  10.043  0.6134  0.0456  0.6533
   17TMC1    O1  273   2.157   3.428  10.422  0.1867 -0.0291 -0.2198
   17TMC1    O2  274   1.880   3.247   9.933 -0.3267 -0.2746 -0.7243
   17TMC1    O3  275   2.101   3.658  10.432  0.0775 -0.2607  0.3524
   17TMC1    H3  276   2.028   3.716  10.403 -0.1381  0.5757  2.5787
   17TMC1    O5  277   1.969   3.170  10.137 -0.5199 -0.4251  0.1457
   17TMC1    H5  278   2.011   3.199  10.221  1.3422 -1.4363 -0.4425
   18MPD2     C  279   2.338   3.860   9.778 -0.3599 -0.4375 -0.1271
   18MPD2    C1  280   2.310   3.868   9.914  0.2360 -0.3900  0.2667
   18MPD2    C2  281   2.380   3.974   9.985 -0.5397 -0.2563 -0.1463
   18MPD2    C3  282   2.475   4.061   9.930 -0.3993 -0.5428 -0.1690
   18MPD2    C4  283   2.506   4.035   9.797  0.0765 -0.3457 -0.1998
   18MPD2    C5  284   2.438   3.940   9.733  0.4254  0.4499  0.2408
   18MPD2     H  285   2.352   3.978  10.089 -0.6451  0.3400 -0.1973
   18MPD2    H1  286   2.581   4.087   9.740  1.2477 -0.9267  0.7911
   18MPD2    H2  287   2.301   3.786   9.707  2.3443  0.1160 -2.1044
   18MPD2    H3  288   2.440   3.926   9.626 -2.3796 -0.4098  0.3031
   18MPD2     N  289   2.540   4.168  10.002  0.4566 -0.2032 -0.3706
   18MPD2    H5  290   2.610   4.224   9.955 -1.5359  0.5925 -2.4396
   18MPD2    N1  291   2.217   3.788   9.982 -0.7772  1.0060 -0.3591
   18MPD2    H7  292   2.183   3.823  10.071  0.6210  1.6299 -0.0576
   19TMC2    C1  293   4.001   4.371  13.879 -1.1490 -0.4263  0.3922
   19TMC2    C2  294   3.919   4.458  13.808  0.1209 -0.0364  0.6704
   19TMC2    C3  295   3.801   4.406  13.760  0.2905 -0.0466  0.1279
   19TMC2    C4  296   3.948   4.253  13.925  0.0559  0.5456  0.2275
   19TMC2    C5  297   3.828   4.210  13.876 -0.1077 -0.2212 -0.0659
   19TMC2    C6  298   3.757   4.285  13.795 -0.0043 -0.5636 -0.1893
   19TMC2     C  299   4.141   4.414  13.899  0.7030 -0.2697 -0.0554
   19TMC2     O  300   4.181   4.515  13.839  0.6814  0.5754 -0.0945
   19TMC2     H  301   3.962   4.550  13.769  0.4424 -0.5520 -0.2019
   19TMC2    H1  302   4.011   4.175  13.968 -1.5052  0.1530  1.8092
   19TMC2    H2  303   3.667   4.244  13.751 -1.1785  2.9495 -1.0589
   19TMC2    C7  304   3.801   4.069  13.914  0.4355  0.1126  0.6048
   19TMC2    C8  305   3.742   4.472  13.643  0.3674 -0.2151 -0.3763
   19TMC2    O1  306   3.871   4.010  13.995  0.0180 -0.5114 -0.4940
   19TMC2    O2  307   3.803   4.550  13.571 -0.7270 -0.2340 -0.0312
   19TMC2    O5  308   3.607   4.453  13.640 -0.6241  0.1518 -0.4794
   19TMC2    H5  309   3.583   4.422  13.730 -1.8123  0.9539 -0.5258
   20MPD2     C  310   4.409   4.449  14.007  0.4566  0.1920  0.1949
   20MPD2    C1  311   4.318   4.357  14.050  0.1254 -0.7297 -0.1919
   20MPD2    C2  312   4.359   4.269  14.146 -0.0646  0.4555  0.7343
   20MPD2    C3  313   4.480   4.295  14.215 -0.4260  1.3858 -0.3395
   20MPD2    C4  314   4.560   4.397  14.174 -0.4495  0.3248  0.0204
   20MPD2    C5  315   4.536   4.462  14.060  0.0769  0.0260 -0.8090
   20MPD2     H  316   4.286   4.192  14.168  1.5392 -0.8611  1.4543
   20MPD2    H1  317   4.651   4.411  14.232 -1.3362  0.6701  1.3274
   20MPD2    H2  318   4.401   4.511  13.918 -2.4912 -0.0351  0.2984
   20MPD2    H3  319   4.592   4.541  14.012 -0.2732 -0.6511 -2.2989
   20MPD2     N  320   4.518   4.216  14.324  0.2698 -0.4292 -0.1758
   20MPD2    H5  321   4.594   4.254  14.381  1.2056 -2.1326 -0.2944
   20MPD2    N1  322   4.192   4.336  14.000 -0.2226 -0.3754 -0.2096
   20MPD2    H7  323   4.136   4.260  14.038 -2.6127  0.4110 -2.1212
   21TMC2    C1  324   1.548   0.055  13.943 -0.6043  0.5479  1.0306
   21TMC2    C2  325   1.547   4.657  13.969  0.0519 -0.0557 -0.1233
   21TMC2    C3  326   1.493   4.614  14.091 -0.0068  0.2476  0.2643
   21TMC2    C4  327   1.505   0.143  14.038  0.3031 -0.1251  0.1699
   21TMC2    C5  328   1.452   0.098  14.155 -0.7339  0.4039  0.1234
   21TMC2    C6  329   1.452   4.701  14.190 -0.3946 -0.1202 -0.5256
   21TMC2     C  330   1.610   0.102  13.827 -0.3701 -0.1914 -0.2210
   21TMC2     O  331   1.535   0.163  13.746 -0.2023 -0.3071 -0.0246
   21TMC2     H  332   1.578   4.588  13.891 -1.7614  1.1757 -1.9514
   21TMC2    H1  333   1.506   0.247  14.008  0.3900 -0.0505  0.4387
   21TMC2    H2  334   1.440   4.665  14.292  0.4821 -0.1142 -0.4227
   21TMC2    C7  335   1.393   0.181  14.257  0.7174 -0.4858  0.5228
   21TMC2    C8  336   1.515   4.471  14.128 -0.5464  0.4522 -0.2300
   21TMC2    O1  337   1.401   0.145  14.375  0.1689 -0.3642  0.5114
   21TMC2    O2  338   1.598   4.403  14.078 -0.0170  0.1927 -0.1977
   21TMC2    O5  339   1.456   4.443  14.239 -0.2086  0.1268  0.3854
   21TMC2    H5  340   1.373   4.492  14.259  0.0677  0.2405  1.2722
   22MPD2     C  341   2.025   4.576  14.006 -0.2848 -0.1681 -0.3525
   22MPD2    C1  342   1.929   4.652  14.073  0.4309 -0.0958  0.1941
   22MPD2    C2  343   1.844   4.731  14.001 -0.1675 -0.2453  0.2498
   22MPD2    C3  344   1.839   4.723  13.863 -0.8852 -0.2671 -0.2438
   22MPD2    C4  345   1.930   4.642  13.794 -0.2442  0.0331 -0.3809
   22MPD2    C5  346   2.028   4.575  13.870  0.1938  0.9538  0.6428
   22MPD2     H  347   1.767   0.051  14.052  1.2969 -0.3826  2.6203
   22MPD2    H1  348   1.936   4.639  13.686 -0.7265  1.8685 -0.4617
   22MPD2    H2  349   2.102   4.517  14.055 -2.0215 -1.0644  1.2964
   22MPD2    H3  350   2.102   4.512  13.821  0.5583  2.1825 -0.3888
   22MPD2     N  351   1.724   0.036  13.788 -0.7256 -0.2688 -0.2709
   22MPD2    H5  352   1.731   0.034  13.686  0.6723 -0.1443 -0.1827
   22MPD2    N1  353   1.911   4.658  14.214  0.2103  0.3773 -0.1821
   22MPD2    H7  354   1.843   4.721  14.255  0.8924  1.3211 -0.5121
   23TMC2    C1  355   2.687   0.842  14.571 -0.5361 -0.1161 -0.3646
   23TMC2    C2  356   2.716   0.919  14.456  0.3502  1.0669  0.3492
   23TMC2    C3  357   2.630   0.927  14.353 -0.6838 -0.6722  0.6782
   23TMC2    C4  358   2.565   0.781  14.586 -1.0394 -0.1431 -0.0417
   23TMC2    C5  359   2.480   0.797  14.482 -0.0640  0.3976  0.6054
   23TMC2    C6  360   2.508   0.863  14.366 -0.1476  0.3318  0.0315
   23TMC2     C  361   2.797   0.788  14.651 -0.5659  0.0939 -0.3451
   23TMC2     O  362   2.769   0.740  14.760 -0.1852  0.2012  0.2411
   23TMC2     H  363   2.815   0.960  14.443  0.3746  0.7493 -0.4596
   23TMC2    H1  364   2.553   0.704  14.661  2.1277  0.2943  0.9452
   23TMC2    H2  365   2.438   0.882  14.285  0.0050 -0.4457 -0.2826
   23TMC2    C7  366   2.349   0.734  14.491 -0.2891 -0.8932 -0.4678
   23TMC2    C8  367   2.664   0.992  14.221 -0.4025 -1.0430  0.5928
   23TMC2    O1  368   2.332   0.670  14.595 -0.4887  0.3530  0.1628
   23TMC2    O2  369   2.600   1.006  14.118  0.1193 -0.0370 -0.1708
   23TMC2    O5  370   2.780   1.063  14.248  0.5913  0.5232 -0.2172
   23TMC2    H5  371   2.816   1.037  14.336  3.0160 -0.9139 -1.6412
   24MPD2     C  372   3.287   0.843  14.801 -0.0209 -0.0981 -0.4325
   24MPD2    C1  373   3.177   0.808  14.880  0.6453 -0.1083  0.3144
   24MPD2    C2  374   3.054   0.796  14.816 -0.1271 -0.0486 -0.1773
   24MPD2    C3  375   3.046   0.817  14.678  0.1764  0.2902 -0.0810
   24MPD2    C4  376   3.160   0.849  14.607 -0.6303 -0.1440  0.5429
   24MPD2    C5  377   3.286   0.860  14.668  0.8497  0.4369 -0.0706
   24MPD2     H  378   2.963   0.788  14.875 -0.8015 -0.6654 -1.3119
   24MPD2    H1  379   3.157   0.860  14.499  2.9694 -1.5352  0.2980
   24MPD2    H2  380   3.390   0.844  14.836  0.2457 -0.0838 -1.2168
   24MPD2    H3  381   3.377   0.893  14.618  0.6697 -2.7414 -2.5316
   24MPD2     N  382   2.923   0.832  14.605  0.0709 -0.4294  0.7476
   24MPD2    H5  383   2.930   0.856  14.507  0.8120  0.9508  1.1399
   24MPD2    N1  384   3.190   0.798  15.025  0.1593 -0.4240 -0.5418
   24MPD2    H7  385   3.108   0.791  15.085  0.5164  2.0710  0.1954
   25TMC2    C1  386   1.735   3.384  11.331 -0.1475  0.2434 -0.2400
   25TMC2    C2  387   1.786   3.494  11.388  1.0689  0.8697 -0.5545
   25TMC2    C3  388   1.698   3.576  11.454  0.3182 -0.0457  0.6520
   25TMC2    C4  389   1.609   3.343  11.355 -0.0441  0.2706 -0.2439
   25TMC2    C5  390   1.529   3.416  11.438 -0.3808  0.3409  0.0435
   25TMC2    C6  391   1.571   3.535  11.489  0.7068 -0.1579 -0.0689
   25TMC2     C  392   1.830   3.286  11.280 -0.4570  0.1972  0.1802
   25TMC2     O  393   1.944   3.309  11.310  0.2456  0.0170  0.3208
   25TMC2     H  394   1.888   3.518  11.357  1.5018  0.1557  0.3103
   25TMC2    H1  395   1.569   3.245  11.329 -0.5373  0.2274  0.6907
   25TMC2    H2  396   1.514   3.604  11.549 -0.4164 -1.5663  0.4866
   25TMC2    C7  397   1.462   3.330  11.531  0.1716  0.3995  0.2530
   25TMC2    C8  398   1.756   3.684  11.534  0.0954  0.3816 -0.7439
   25TMC2    O1  399   1.433   3.213  11.503  0.6206  0.2410  0.4470
   25TMC2    O2  400   1.703   3.721  11.637  0.3139 -1.5011  0.2940
   25TMC2    O5  401   1.830   3.756  11.448 -0.0583 -0.5967  0.2129
   25TMC2    H5  402   1.838   3.714  11.360  0.1982  0.3963 -0.2393
   26MPD2     C  403   1.958   2.912  10.953  0.7691  0.5089 -0.4390
   26MPD2    C1  404   1.831   2.960  10.915 -0.0324 -0.7262  0.1330
   26MPD2    C2  405   1.778   3.073  10.986 -0.5464 -0.0811  0.5486
   26MPD2    C3  406   1.844   3.121  11.095 -0.0640  0.2113  0.6234
   26MPD2    C4  407   1.972   3.075  11.124  0.2388  0.1900  0.1110
   26MPD2    C5  408   2.024   2.972  11.055 -0.2432  0.5167  0.3509
   26MPD2     H  409   1.685   3.117  10.952 -0.9743 -0.1147  1.6984
   26MPD2    H1  410   2.022   3.110  11.214  0.5722 -0.9881  0.3897
   26MPD2    H2  411   1.987   2.823  10.898  2.3595  1.0866 -0.5407
   26MPD2    H3  412   2.118   2.933  11.091  0.2804 -0.1898 -1.7818
   26MPD2     N  413   1.776   3.211  11.175  0.1512 -0.2681 -0.4541
   26MPD2    H5  414   1.684   3.237  11.138 -0.5126 -0.3214  1.1652
   26MPD2    N1  415   1.765   2.889  10.813 -0.3505  0.0043  0.0804
   26MPD2    H7  416   1.808   2.803  10.781  0.0297  0.2976 -0.1832
   27TMC2    C1  417   3.956   1.030  11.313  0.2714 -0.5454 -0.4625
   27TMC2    C2  418   3.821   1.034  11.281  0.2186 -0.2264 -0.0891
   27TMC2    C3  419   3.793   1.113  11.177  0.0911  0.6069  0.1923
   27TMC2    C4  420   4.062   1.090  11.239  0.4753  0.1794 -0.3560
   27TMC2    C5  421   4.020   1.168  11.125 -0.0231 -0.6764 -0.2260
   27TMC2    C6  422   3.889   1.177  11.094 -0.1795  0.1569  0.6191
   27TMC2     C  423   4.001   0.951  11.425  0.3557 -0.5518 -0.1183
   27TMC2     O  424   3.917   0.877  11.474  0.1700  0.3298  0.1307
   27TMC2     H  425   3.743   0.993  11.345 -1.4661  1.2762 -1.1522
   27TMC2    H1  426   4.167   1.075  11.261  0.0283  0.0383  1.6751
   27TMC2    H2  427   3.860   1.240  11.011  0.9882  0.8825  0.7591
   27TMC2    C7  428   4.115   1.221  11.025 -0.3248 -0.6696 -0.2496
   27TMC2    C8  429   3.658   1.102  11.124  0.7057  0.6439  0.3510
   27TMC2    O1  430   4.072   1.265  10.920 -0.4479  0.2980 -0.5771
   27TMC2    O2  431   3.588   1.008  11.140 -0.0077 -0.0185 -0.2802
   27TMC2    O5  432   3.612   1.235  11.110  0.4909 -0.6810  0.5521
   27TMC2    H5  433   3.683   1.302  11.112 -2.4579  2.4069  0.5530
   28MPD2     C  434   4.232   0.832  11.850 -0.6485 -0.1148 -0.2662
   28MPD2    C1  435   4.270   0.959  11.828 -0.0536  0.2030 -0.0421
   28MPD2    C2  436   4.232   1.015  11.705 -0.1279  0.1218  0.1140
   28MPD2    C3  437   4.157   0.941  11.615  0.3495  0.2960 -0.4813
   28MPD2    C4  438   4.134   0.808  11.635 -0.0911  0.4969  0.6716
   28MPD2    C5  439   4.174   0.756  11.749  0.0243  0.0625 -0.2120
   28MPD2     H  440   4.255   1.117  11.676  0.6265  0.0085  0.3096
   28MPD2    H1  441   4.099   0.740  11.559 -1.2150 -0.7992  2.3560
   28MPD2    H2  442   4.241   0.783  11.947  1.3738  0.6911 -0.0562
   28MPD2    H3  443   4.151   0.652  11.773  0.5775 -0.3305 -1.3707
   28MPD2     N  444   4.112   0.998  11.490  0.4357  0.2998  0.3395
   28MPD2    H5  445   4.158   1.082  11.456 -0.2104 -0.2840 -1.9712
   28MPD2    N1  446   4.315   1.025  11.941 -0.1290  0.4678  0.1331
   28MPD2    H7  447   4.313   0.980  12.032 -0.8768  2.2394  0.9865
   29TMC2    C1  448   4.716   3.261  14.372  0.2414  0.1925 -0.2061
   29TMC2    C2  449   4.735   3.250  14.502 -0.2606 -0.1773 -0.0678
   29TMC2    C3  450   0.004   3.365  14.578 -0.8159 -0.3806 -0.2018
   29TMC2    C4  451   4.695   3.383  14.318  0.0340  0.8073 -0.4707
   29TMC2    C5  452   4.694   3.494  14.397  0.2039  0.1551  0.4987
   29TMC2    C6  453   4.722   3.495  14.529  0.7581 -0.7155  0.3512
   29TMC2     C  454   4.714   3.139  14.292 -0.5125  0.1602  0.0776
   29TMC2     O  455   4.720   3.035  14.352 -0.2664 -0.1918  0.2501
   29TMC2     H  456   0.002   3.153  14.551 -0.1704 -0.3682 -0.4560
   29TMC2    H1  457   4.660   3.404  14.218 -1.3367 -0.6502 -0.3003
   29TMC2    H2  458   4.697   3.581  14.590  1.2886 -1.5599  1.7706
   29TMC2    C7  459   4.688   3.625  14.344 -1.2249 -0.1954  0.7162
   29TMC2    C8  460   4.698   3.338  14.715  0.0404  0.4806 -0.0797
   29TMC2    O1  461   4.602   3.660  14.265  0.1765 -0.4401 -0.3308
   29TMC2    O2  462   4.667   3.227  14.756  0.3997 -0.3733 -0.2667
   29TMC2    O5  463   0.010   3.433  14.794 -0.0672 -0.0703  0.4890
   29TMC2    H5  464   0.059   3.509  14.755  0.0914 -2.6353 -4.2601
   30MPD2     C  465   4.681   2.853  13.871 -0.8984  0.3858 -0.0307
   30MPD2    C1  466   4.734   2.824  13.997  0.2481 -0.4509  0.0244
   30MPD2    C2  467   0.009   2.926  14.090  0.8045 -0.0251  0.2303
   30MPD2    C3  468   4.699   3.058  14.060 -0.2039 -0.4601  0.1144
   30MPD2    C4  469   4.645   3.082  13.936 -0.5059  0.3548  0.7520
   30MPD2    C5  470   4.638   2.979  13.846 -0.5323  0.2901  0.5557
   30MPD2     H  471   0.058   2.912  14.186 -0.8437 -0.6595  0.9841
   30MPD2    H1  472   4.611   3.181  13.906  0.0984  0.2892 -0.1636
   30MPD2    H2  473   4.690   2.780  13.791 -0.3588  0.7976 -0.3494
   30MPD2    H3  474   4.600   3.006  13.748 -1.1193 -1.4319  0.3070
   30MPD2     N  475   4.700   3.165  14.156 -0.0282  0.0520 -0.9708
   30MPD2    H5  476   4.689   3.264  14.136  0.6990  0.3571  0.1475
   30MPD2    N1  477   0.030   2.698  14.046 -0.0413 -0.0701  0.1563
   30MPD2    H7  478   0.091   2.693  14.127 -0.9264 -1.7670  0.7192
   31TMC2    C1  479   2.488   1.577  15.079 -0.2015 -0.8971 -0.3557
   31TMC2    C2  480   2.361   1.621  15.051  0.3707  0.3223  0.0566
   31TMC2    C3  481   2.281   1.657  15.157 -0.4471  0.4999 -0.9848
   31TMC2    C4  482   2.530   1.549  15.203 -0.8473  0.3173  0.7107
   31TMC2    C5  483   2.441   1.587  15.299  0.1373  0.1380 -0.6506
   31TMC2    C6  484   2.324   1.642  15.279  0.0909  0.3301  0.6275
   31TMC2     C  485   2.578   1.642  14.992 -0.3907  0.0798  0.0291
   31TMC2     O  486   2.542   1.731  14.917 -0.3656 -0.3148 -0.4073
   31TMC2     H  487   2.326   1.643  14.951 -1.4283 -1.4586  0.2770
   31TMC2    H1  488   2.626   1.505  15.226 -0.0439  2.2395  1.1020
   31TMC2    H2  489   2.251   1.655  15.358  1.3632  1.9935  1.5060
   31TMC2    C7  490   2.483   1.553  15.429 -0.0964  0.0932 -0.2862
   31TMC2    C8  491   2.151   1.721  15.142  1.0025 -0.1316 -0.2084
   31TMC2    O1  492   2.578   1.481  15.441 -0.3434  0.1905 -0.5348
   31TMC2    O2  493   2.114   1.821  15.201  0.2429  0.2041 -0.0292
   31TMC2    O5  494   2.095   1.675  15.028  0.1931 -0.7267 -0.2566
   31TMC2    H5  495   2.121   1.592  14.981 -3.6156 -2.4458  0.6632
   32MPD2     C  496   3.016   1.633  14.707 -0.7322 -0.1569  0.0277
   32MPD2    C1  497   2.910   1.715  14.699  0.2679  0.5048  0.0408
   32MPD2    C2  498   2.806   1.696  14.791 -0.3635  0.2159  0.7837
   32MPD2    C3  499   2.810   1.601  14.892 -0.6108 -0.6515  0.5096
   32MPD2    C4  500   2.920   1.516  14.895 -0.1723 -0.2925 -0.4955
   32MPD2    C5  501   3.023   1.534  14.807  0.9491 -0.2386  0.4919
   32MPD2     H  502   2.726   1.769  14.788  0.2868  0.9888  2.2665
   32MPD2    H1  503   2.943   1.437  14.965  0.7524  1.0492  0.7142
   32MPD2    H2  504   3.099   1.640  14.638 -1.5440  0.1139 -0.9214
   32MPD2    H3  505   3.107   1.466  14.799  0.3963 -0.5980 -2.2085
   32MPD2     N  506   2.701   1.570  14.979 -0.1048 -0.3665 -0.1867
   32MPD2    H5  507   2.718   1.492  15.041  1.5853  1.5764  1.8243
   32MPD2    N1  508   2.908   1.816  14.597  0.0470  0.0439 -0.0442
   32MPD2    H7  509   2.989   1.818  14.536 -1.6286 -0.5302 -2.2661
   33TMC2    C1  510   3.312   4.663   9.675 -0.5404 -0.5002 -0.3464
   33TMC2    C2  511   3.281   4.614   9.550  0.2741  0.7574 -0.2400
   33TMC2    C3  512   3.360   4.660   9.448  0.0992  0.0546 -0.7762
   33TMC2    C4  513   3.417   0.013   9.692 -0.3077  0.5454 -0.0428
   33TMC2    C5  514   3.487   0.062   9.589 -0.1756 -0.0677 -0.4306
   33TMC2    C6  515   3.472   0.004   9.463  0.0844 -0.2019 -0.3765
   33TMC2     C  516   3.213   4.661   9.780 -0.2470  0.1365  0.1852
   33TMC2     O  517   3.127   4.577   9.774  0.1330 -0.0233  0.1262
   33TMC2     H  518   3.190   4.558   9.532  1.0475 -0.5702  0.0261
   33TMC2    H1  519   3.463   0.039   9.787 -1.0378 -2.1931  1.0437
   33TMC2    H2  520   3.550   0.020   9.389  0.0307 -0.6312 -0.5226
   33TMC2    C7  521   3.566   0.177   9.608  0.4885  0.1958 -0.6281
   33TMC2    C8  522   3.313   4.627   9.313 -0.0539 -0.8676  0.2790
   33TMC2    O1  523   3.543   0.235   9.715 -0.0957  0.3195 -0.3968
   33TMC2    O2  524   3.245   4.524   9.301  0.0208 -0.3346  0.6561
   33TMC2    O5  525   3.409   4.655   9.224 -0.2961 -0.1480  0.4543
   33TMC2    H5  526   3.427   0.015   9.228  2.0017 -0.7319  3.7495
   34MPD2     C  527   3.014   0.131  10.201  0.0867  0.3374  0.2920
   34MPD2    C1  528   2.990   0.007  10.144  0.3782 -0.0971 -0.0732
   34MPD2    C2  529   3.062   4.707  10.031  0.3097  0.2363  0.0906
   34MPD2    C3  530   3.162   0.059   9.978  0.2600  0.8017 -0.6356
   34MPD2    C4  531   3.185   0.175  10.046 -0.1622  0.1417 -0.3187
   34MPD2    C5  532   3.123   0.206  10.162  0.3705  0.6720 -0.3525
   34MPD2     H  533   3.048   4.615   9.975  0.8562  0.8548 -1.0759
   34MPD2    H1  534   3.268   0.234  10.008 -0.7340 -0.6981 -2.8251
   34MPD2    H2  535   2.952   0.170  10.281 -1.0377 -1.6417  0.3932
   34MPD2    H3  536   3.141   0.293  10.224  1.9563  1.0877 -1.3937
   34MPD2     N  537   3.226   0.037   9.854 -0.1348  0.2398  0.2590
   34MPD2    H5  538   3.281   0.115   9.819  0.9565 -1.5479 -2.0276
   34MPD2    N1  539   2.882   4.666  10.189 -0.9571  0.2642 -0.3070
   34MPD2    H7  540   2.855   4.692  10.283  1.2722  0.1553  0.3746
   35TMC2    C1  541   2.844   1.188  11.742  0.3623  0.7824  0.1690
   35TMC2    C2  542   2.727   1.243  11.794  0.6955 -0.1212  0.7115
   35TMC2    C3  543   2.646   1.158  11.866  0.0663  0.2913 -0.1290
   35TMC2    C4  544   2.875   1.057  11.748  0.4786  0.1823 -0.4986
   35TMC2    C5  545   2.782   0.977  11.808  0.6829  0.2004 -0.3748
   35TMC2    C6  546   2.669   1.021  11.866 -0.2296 -0.3257 -0.2184
   35TMC2     C  547   2.949   1.270  11.692  0.2188 -0.5879 -0.1916
   35TMC2     O  548   2.911   1.378  11.651  0.3718 -0.3317 -0.7490
   35TMC2     H  549   2.713   1.348  11.771 -0.8669 -0.4236  0.3036
   35TMC2    H1  550   2.960   1.009  11.701 -0.8539 -0.2282 -2.4685
   35TMC2    H2  551   2.615   0.963  11.941  0.1263 -0.7221 -0.2665
   35TMC2    C7  552   2.812   0.836  11.819 -0.2712  0.9001  0.3596
   35TMC2    C8  553   2.523   1.209  11.925  0.4168  0.0356 -0.6867
   35TMC2    O1  554   2.929   0.800  11.785  0.2521 -0.1422  0.4035
   35TMC2    O2  555   2.431   1.130  11.958 -0.3926  0.0944  0.0790
   35TMC2    O5  556   2.499   1.339  11.900 -0.2681 -0.7701 -0.4851
   35TMC2    H5  557   2.584   1.387  11.910 -1.7550  1.3521  2.0285
   36MPD2     C  558   3.408   1.458  11.683  0.6065  0.1267  0.2294
   36MPD2    C1  559   3.411   1.336  11.748 -0.0917  0.4311  0.2769
   36MPD2    C2  560   3.305   1.253  11.757 -0.2406  0.3000  0.0521
   36MPD2    C3  561   3.194   1.295  11.693  0.1617 -0.0741 -0.3402
   36MPD2    C4  562   3.195   1.407  11.614  0.6566  0.2407 -0.1614
   36MPD2    C5  563   3.301   1.494  11.610  0.1949 -0.6773  0.7361
   36MPD2     H  564   3.308   1.175  11.832  1.6030  1.5208  1.2551
   36MPD2    H1  565   3.107   1.436  11.558  0.0158  0.2310  0.8507
   36MPD2    H2  566   3.494   1.524  11.685  1.4255 -0.8828 -1.7603
   36MPD2    H3  567   3.292   1.589  11.558  0.3607 -1.2123 -0.2731
   36MPD2     N  568   3.072   1.225  11.719 -0.1052 -0.6353 -0.2690
   36MPD2    H5  569   3.085   1.138  11.770  0.2175 -1.0775 -1.1093
   36MPD2    N1  570   3.533   1.316  11.821 -0.7111 -1.2760 -0.3326
   36MPD2    H7  571   3.607   1.381  11.798 -1.7762 -1.1999 -3.6267
   37TMC2    C1  572   1.205   1.544  11.994  1.2334  1.0108 -0.5598
   37TMC2    C2  573   1.098   1.626  11.967  0.1455  0.5454 -0.1920
   37TMC2    C3  574   1.122   1.722  11.880  0.4847  0.3436  0.2834
   37TMC2    C4  575   1.327   1.559  11.939  0.5922 -0.2911  0.0638
   37TMC2    C5  576   1.346   1.658  11.843 -0.4114  0.2849 -0.6061
   37TMC2    C6  577   1.243   1.745  11.824  0.2249 -0.3378 -0.8292
   37TMC2     C  578   1.199   1.471  12.122  0.0308  0.4485  0.4544
   37TMC2     O  579   1.082   1.452  12.154 -0.2983 -0.2444  0.3874
   37TMC2     H  580   1.015   1.631  12.036 -0.4491 -0.3957 -0.8462
   37TMC2    H1  581   1.399   1.478  11.936  0.4645 -0.2972 -3.1627
   37TMC2    H2  582   1.258   1.825  11.752  1.0202  0.4441  0.2170
   37TMC2    C7  583   1.458   1.636  11.748  0.4163  0.5107  0.0065
   37TMC2    C8  584   1.030   1.822  11.847  0.4511  0.1645  0.5646
   37TMC2    O1  585   1.539   1.547  11.774  0.3440 -0.2115  0.0131
   37TMC2    O2  586   1.058   1.925  11.790  0.2724  0.4809  0.2347
   37TMC2    O5  587   0.911   1.761  11.851 -0.1935 -0.0936  0.2513
   37TMC2    H5  588   0.904   1.672  11.891 -1.8070 -0.5138 -0.9268
   38MPD2     C  589   1.399   1.235  12.537  0.3912 -0.1837 -0.2742
   38MPD2    C1  590   1.495   1.320  12.479  0.7149 -0.5548  0.5431
   38MPD2    C2  591   1.459   1.391  12.363 -0.0740  0.3362 -0.4003
   38MPD2    C3  592   1.338   1.382  12.310 -0.3979 -0.4386  0.4867
   38MPD2    C4  593   1.245   1.304  12.374  0.6415 -0.4093  0.0512
   38MPD2    C5  594   1.273   1.229  12.483  0.3790 -0.4186  0.2377
   38MPD2     H  595   1.536   1.443  12.309  1.4305 -2.0272 -0.5469
   38MPD2    H1  596   1.146   1.284  12.335  1.4694 -0.6279 -1.9713
   38MPD2    H2  597   1.414   1.167  12.619 -0.8426  0.9303  0.8615
   38MPD2    H3  598   1.201   1.161  12.525 -0.7945 -0.7371 -2.2604
   38MPD2     N  599   1.322   1.442  12.184  0.2694 -0.4049 -0.3290
   38MPD2    H5  600   1.408   1.470  12.138  1.2803 -1.6689  0.8280
   38MPD2    N1  601   1.630   1.326  12.521 -0.7947 -0.2195  0.1921
   38MPD2    H7  602   1.698   1.376  12.465  1.9158 -2.3721  1.5685
   39TMC2    C1  603   4.488   2.971   1.326  0.0495  0.3174 -0.3931
   39TMC2    C2  604   4.405   3.068   1.385  0.5800 -0.2051 -0.1295
   39TMC2    C3  605   4.426   3.200   1.367 -0.1020 -0.4678 -0.3448
   39TMC2    C4  606   4.590   3.011   1.249 -0.4339 -0.5718 -0.2924
   39TMC2    C5  607   4.599   3.142   1.219  0.3454 -0.1740  0.2287
   39TMC2    C6  608   4.521   3.239   1.274 -0.1521  0.1266 -0.6128
   39TMC2     C  609   4.433   2.836   1.317  0.1998 -0.0899  0.6018
   39TMC2     O  610   4.313   2.825   1.304 -0.6499  0.3051  0.3557
   39TMC2     H  611   4.323   3.035   1.448  1.1279 -1.2271  0.0478
   39TMC2    H1  612   4.648   2.939   1.193  0.0023  0.4349 -1.1504
   39TMC2    H2  613   4.544   3.344   1.261  3.0723 -0.3145  1.3644
   39TMC2    C7  614   4.703   3.186   1.124  0.4150  0.2308  0.0723
   39TMC2    C8  615   4.319   3.296   1.400 -0.3241  0.1776 -0.4398
   39TMC2    O1  616   0.044   3.100   1.090 -0.1153  0.2431  0.1921
   39TMC2    O2  617   4.313   3.412   1.357  0.3049  0.2710  0.8818
   39TMC2    O5  618   4.295   3.257   1.531 -0.0093  0.4459  0.0420
   39TMC2    H5  619   4.345   3.176   1.553 -0.2831  0.9010  2.3162
   40MPD2     C  620   4.616   2.521   1.302 -0.0903  0.2086  0.3588
   40MPD2    C1  621   4.507   2.606   1.290  0.3939 -0.2548  0.7485
   40MPD2    C2  622   4.388   2.546   1.245  0.1240 -0.2974 -0.4087
   40MPD2    C3  623   4.382   2.411   1.197 -0.1132  0.1297 -0.6506
   40MPD2    C4  624   4.498   2.338   1.206 -0.8844  0.5569 -0.5718
   40MPD2    C5  625   4.608   2.387   1.272  0.2168 -0.4617 -0.5324
   40MPD2     H  626   4.306   2.613   1.227  0.7536  0.6796  0.3661
   40MPD2    H1  627   4.501   2.234   1.176 -1.2209  0.5008 -0.4155
   40MPD2    H2  628   4.707   2.552   1.353 -0.0826  0.3459  0.2644
   40MPD2    H3  629   4.695   2.327   1.297  0.2796 -0.4578 -0.7417
   40MPD2     N  630   4.268   2.357   1.134 -0.1120  0.0103 -0.7271
   40MPD2    H5  631   4.287   2.279   1.071  0.8746 -1.3522  1.2720
   40MPD2    N1  632   4.529   2.743   1.317  0.3125  0.0534 -1.1532
   40MPD2    H7  633   4.625   2.769   1.334  0.5584 -0.4694 -1.7382
   41TMC2    C1  634   3.885   0.904  14.149  0.7488  0.1835 -0.4080
   41TMC2    C2  635   3.946   1.016  14.207 -1.1423  0.0686 -0.0889
   41TMC2    C3  636   3.934   1.131  14.143 -0.2157 -0.3107 -0.3416
   41TMC2    C4  637   3.839   0.906  14.018 -0.3589 -0.4061 -0.5163
   41TMC2    C5  638   3.844   1.022  13.954  0.1234  0.0817 -0.2765
   41TMC2    C6  639   3.887   1.138  14.015 -0.6750  0.2758 -0.3710
   41TMC2     C  640   3.900   0.771  14.205 -0.6440  0.4432  0.3819
   41TMC2     O  641   3.905   0.679  14.125  0.6537 -0.4303  0.3857
   41TMC2     H  642   3.987   1.011  14.308 -0.5757  1.9354 -0.2180
   41TMC2    H1  643   3.808   0.814  13.969  0.0531 -1.5295  1.3328
   41TMC2    H2  644   3.872   1.236  13.969 -0.1988  1.8210  2.7847
   41TMC2    C7  645   3.812   1.018  13.811  0.8720 -0.1331  0.8319
   41TMC2    C8  646   3.977   1.253  14.213  0.2243  0.0002 -0.5743
   41TMC2    O1  647   3.751   0.917  13.770  0.4617  0.3756 -0.2411
   41TMC2    O2  648   3.999   1.243  14.334 -0.1567 -0.0614 -0.4515
   41TMC2    O5  649   4.019   1.346  14.129  0.2692  0.2181 -0.0457
   41TMC2    H5  650   3.968   1.352  14.045  2.5435  0.5970 -1.4230
   42MPD2     C  651   3.974   0.538  14.387 -0.5453 -0.2682  0.5953
   42MPD2    C1  652   3.949   0.663  14.429 -0.3931  0.3060 -0.6062
   42MPD2    C2  653   3.957   0.686  14.565  0.2287  0.0872  0.8518
   42MPD2    C3  654   3.989   0.592  14.658 -0.4470  0.3583 -0.0402
   42MPD2    C4  655   4.011   0.467  14.611 -0.3931  0.0795  0.1163
   42MPD2    C5  656   3.998   0.441  14.478 -0.3733 -0.4596 -0.3464
   42MPD2     H  657   3.932   0.785  14.601  1.1876  1.4298 -2.1438
   42MPD2    H1  658   4.040   0.387  14.678 -0.5656  1.1152  1.4326
   42MPD2    H2  659   3.968   0.511  14.282  1.3504  1.0063  0.1595
   42MPD2    H3  660   4.029   0.344  14.441  0.4591 -0.5213  0.5090
   42MPD2     N  661   4.013   0.618  14.800 -0.1630  0.3429  0.5659
   42MPD2    H5  662   4.038   0.535  14.852  3.6278  0.1468 -1.5699
   42MPD2    N1  663   3.908   0.768  14.341  0.0392  0.1461 -0.1471
   42MPD2    H7  664   3.884   0.858  14.380  0.9499  1.0058 -1.5798
   43TMC2    C1  665   0.483   3.545  17.663 -0.3335 -0.4758  0.8727
   43TMC2    C2  666   0.352   3.558  17.667 -0.1289  0.3784  0.2928
   43TMC2    C3  667   0.298   3.679  17.704 -0.5414  0.4770 -0.0624
   43TMC2    C4  668   0.565   3.654  17.666 -0.1141 -0.2501  0.0013
   43TMC2    C5  669   0.504   3.771  17.702  0.2543  0.3826  0.0299
   43TMC2    C6  670   0.370   3.791  17.718  0.3252  0.2234  0.0485
   43TMC2     C  671   0.549   3.422  17.664 -0.4937  0.4823  0.0147
   43TMC2     O  672   0.648   3.409  17.591 -0.5695 -0.2741 -0.0802
   43TMC2     H  673   0.286   3.473  17.658  0.0885  0.4960 -2.7066
   43TMC2    H1  674   0.671   3.637  17.655 -0.0407  0.0093  0.2951
   43TMC2    H2  675   0.322   3.886  17.737  0.4216  0.4472 -0.8033
   43TMC2    C7  676   0.593   3.887  17.725  0.2820 -0.2077  0.1727
   43TMC2    C8  677   0.158   3.672  17.742 -0.0086  0.0867  0.1132
   43TMC2    O1  678   0.708   3.853  17.694  0.3650 -0.1553  0.4069
   43TMC2    O2  679   0.090   3.589  17.687 -0.1356  0.0905 -0.2041
   43TMC2    O5  680   0.158   3.706   0.125 -0.1177 -0.5210  0.7477
   43TMC2    H5  681   0.225   3.774   0.150  1.3991 -1.3428 -1.1101
   44MPD2     C  682   0.549   2.929   0.040 -0.6856 -0.1958  0.1477
   44MPD2    C1  683   0.636   2.998  17.699  0.3038 -0.7007 -0.1603
   44MPD2    C2  684   0.616   3.132  17.697  0.1635  0.2183  0.4216
   44MPD2    C3  685   0.509   3.193   0.015 -0.8025  0.0669 -0.7669
   44MPD2    C4  686   0.423   3.126   0.098  1.0131  0.0227 -0.2565
   44MPD2    C5  687   0.450   2.991   0.111 -0.4401  0.6509 -0.7735
   44MPD2     H  688   0.687   3.188  17.638 -0.0914  0.4725  0.3553
   44MPD2    H1  689   0.338   3.171   0.149  1.8736 -0.5026  1.6392
   44MPD2    H2  690   0.556   2.821   0.053 -0.1764  0.0040  1.5075
   44MPD2    H3  691   0.387   2.938   0.181  0.2069 -1.1323 -1.5368
   44MPD2     N  692   0.477   3.331  17.740  0.1838  0.3536 -0.5655
   44MPD2    H5  693   0.404   3.363   0.057  0.0984  0.5012 -0.7381
   44MPD2    N1  694   0.746   2.946  17.631 -0.8312  0.5335  0.5507
   44MPD2    H7  695   0.823   3.010  17.614  1.3214 -2.6389 -1.4938
   45TMC2    C1  696   1.399   1.480   9.089  0.3026  0.2670  0.2870
   45TMC2    C2  697   1.532   1.465   9.083 -0.1874  0.0382  0.2202
   45TMC2    C3  698   1.614   1.571   9.117  0.1258  0.0997 -0.5503
   45TMC2    C4  699   1.339   1.600   9.115  0.1032 -0.1591  0.1488
   45TMC2    C5  700   1.421   1.694   9.162 -0.3495 -0.0352  0.6688
   45TMC2    C6  701   1.557   1.687   9.154  0.2280 -0.1722 -0.5568
   45TMC2     C  702   1.322   1.364   9.055 -0.9239 -0.5848  0.0392
   45TMC2     O  703   1.362   1.254   9.089 -0.4540 -0.4679  0.3262
   45TMC2     H  704   1.562   1.376   9.030 -0.7967 -0.0924  0.0848
   45TMC2    H1  705   1.234   1.598   9.142 -0.3811  1.0103 -1.6019
   45TMC2    H2  706   1.604   1.770   9.206 -1.3575  0.1785  0.3132
   45TMC2    C7  707   1.367   1.814   9.222 -0.0477 -0.5078 -0.2851
   45TMC2    C8  708   1.760   1.557   9.129  0.4697  0.3695 -0.4442
   45TMC2    O1  709   1.440   1.895   9.273  0.5106  0.3056  0.2193
   45TMC2    O2  710   1.830   1.645   9.171 -0.2795 -0.0776 -0.5032
   45TMC2    O5  711   1.789   1.426   9.148 -0.0319  0.0622 -0.3610
   45TMC2    H5  712   1.722   1.365   9.110 -0.4847 -0.6531  1.5879
   46MPD2     C  713   1.101   1.186   8.961  0.2630  0.3627 -0.2806
   46MPD2    C1  714   1.096   1.320   8.956 -0.6764 -0.0920  0.3016
   46MPD2    C2  715   0.984   1.388   8.912  0.9147  0.0857 -0.1771
   46MPD2    C3  716   0.873   1.316   8.873 -0.0688 -0.0667 -0.1894
   46MPD2    C4  717   0.878   1.177   8.875  0.3812  0.3774  0.6021
   46MPD2    C5  718   0.990   1.115   8.917  0.0236  0.1309  0.8523
   46MPD2     H  719   0.992   1.496   8.912 -1.1431  0.2217 -1.9076
   46MPD2    H1  720   0.792   1.112   8.864  0.3141  0.4741  0.5590
   46MPD2    H2  721   1.184   1.132   9.005 -1.6452 -3.0219 -0.9082
   46MPD2    H3  722   0.984   1.007   8.928 -3.0640  0.1789 -0.2611
   46MPD2     N  723   0.761   1.387   8.826 -0.6966  0.0920  0.2100
   46MPD2    H5  724   0.791   1.483   8.810 -2.2260  0.6256  0.5828
   46MPD2    N1  725   1.201   1.402   8.997 -0.5953  0.1554  0.5673
   46MPD2    H7  726   1.184   1.502   8.995  2.1919  0.6604  1.5252
   47TMC2    C1  727   2.738   2.504   9.255 -0.5628 -0.2667 -0.5413
   47TMC2    C2  728   2.800   2.460   9.145 -0.3695  0.0397 -0.5643
   47TMC2    C3  729   2.724   2.440   9.028 -0.6815  0.3234  0.0752
   47TMC2    C4  730   2.600   2.523   9.255 -0.3749 -0.7353  0.6722
   47TMC2    C5  731   2.531   2.515   9.138  0.0859  0.4195 -0.0541
   47TMC2    C6  732   2.590   2.472   9.022  0.0259  0.4488 -0.0133
   47TMC2     C  733   2.812   2.527   9.377 -0.0800  0.0406 -0.2262
   47TMC2     O  734   2.759   2.597   9.459 -0.1692  0.8342  0.0290
   47TMC2     H  735   2.909   2.461   9.146 -0.4283  0.8144  3.9416
   47TMC2    H1  736   2.565   2.562   9.350  1.5515 -0.8660  1.4389
   47TMC2    H2  737   2.537   2.439   8.933  0.8567 -2.2126  0.4637
   47TMC2    C7  738   2.386   2.541   9.135 -0.2241 -0.3673 -0.6194
   47TMC2    C8  739   2.805   2.426   8.905  1.1186  0.3154  0.3891
   47TMC2    O1  740   2.330   2.553   9.244 -0.1689  0.8364 -0.0094
   47TMC2    O2  741   2.749   2.435   8.796  0.2966  0.3256  0.2984
   47TMC2    O5  742   2.921   2.360   8.936 -0.4064 -0.0363  0.1411
   47TMC2    H5  743   2.934   2.341   9.031 -1.0540 -0.9399  0.0477
   48MPD2     C  744   3.018   2.567   9.586 -0.1192 -0.4341 -0.5415
   48MPD2    C1  745   3.032   2.483   9.480 -0.5414  0.6283  0.3892
   48MPD2    C2  746   3.137   2.399   9.494  0.3816  0.3449  0.6913
   48MPD2    C3  747   3.233   2.410   9.598  0.1428 -0.5357  0.3248
   48MPD2    C4  748   3.214   2.492   9.700  0.0125  0.1656  0.0388
   48MPD2    C5  749   3.109   2.571   9.691  0.8059 -0.4005  0.0875
   48MPD2     H  750   3.152   2.319   9.422 -2.0229  0.3688  0.1660
   48MPD2    H1  751   3.278   2.508   9.787 -1.4805  1.0489  0.9666
   48MPD2    H2  752   2.929   2.629   9.593  0.6230  0.6864 -0.9790
   48MPD2    H3  753   3.094   2.638   9.775  0.0136  0.6710 -0.8999
   48MPD2     N  754   3.344   2.325   9.591  1.0133 -0.1537  0.0169
   48MPD2    H5  755   3.350   2.273   9.504  0.4903  1.7046 -1.1308
   48MPD2    N1  756   2.930   2.462   9.382  0.4274  0.1428 -0.3732
   48MPD2    H7  757   2.956   2.403   9.304 -0.6243  0.7559 -1.1882
   49TMC2    C1  758   2.171   4.217   9.798  0.4993  0.4338 -0.8718
   49TMC2    C2  759   2.217   4.261   9.673 -0.1348 -0.3590 -0.2064
   49TMC2    C3  760   2.170   4.199   9.561  0.4876  0.3536  0.0500
   49TMC2    C4  761   2.084   4.105   9.799 -0.5469  0.4464 -0.1325
   49TMC2    C5  762   2.042   4.046   9.684  0.1003 -0.0897  0.4645
   49TMC2    C6  763   2.089   4.091   9.562  0.1807 -0.2595 -0.4858
   49TMC2     C  764   2.165   4.304   9.912 -0.6745  0.6162 -0.1905
   49TMC2     O  765   2.213   4.413   9.898 -0.1103  0.2541  0.2764
   49TMC2     H  766   2.267   4.357   9.672  2.1315 -1.5250  1.6974
   49TMC2    H1  767   2.048   4.060   9.891  0.0167 -0.6086 -0.4178
   49TMC2    H2  768   2.035   4.047   9.478  0.1524 -0.5461 -0.3198
   49TMC2    C7  769   1.964   3.926   9.687 -0.2829 -0.2729 -0.2104
   49TMC2    C8  770   2.233   4.223   9.439  0.0170 -0.3897  0.4031
   49TMC2    O1  771   1.974   3.855   9.586  0.3250  0.4288  0.1810
   49TMC2    O2  772   2.276   4.336   9.423  0.1771  0.3759  0.1232
   49TMC2    O5  773   2.298   4.111   9.415  0.0430 -0.3558  0.0788
   49TMC2    H5  774   2.236   4.038   9.437  1.3447 -1.4531  0.1149
   50MPD2     C  775   2.180   4.417  10.171 -0.0095  1.0587 -0.1395
   50MPD2    C1  776   2.082   4.325  10.137 -0.3239 -0.1241  0.0790
   50MPD2    C2  777   1.978   4.286  10.223 -0.0392  0.1638 -0.1816
   50MPD2    C3  778   1.974   4.343  10.351  0.3908  0.5161  0.7067
   50MPD2    C4  779   2.065   4.443  10.385 -0.3774 -0.2293 -0.2758
   50MPD2    C5  780   2.167   4.477  10.298  0.0062  0.3394  0.7799
   50MPD2     H  781   1.921   4.195  10.204  0.3828 -0.2682  0.6469
   50MPD2    H1  782   2.060   4.490  10.483 -0.6486 -0.4822 -0.1682
   50MPD2    H2  783   2.273   4.424  10.116 -1.2404 -2.6834 -2.7027
   50MPD2    H3  784   2.249   4.540  10.332  1.3031 -0.6356 -0.5613
   50MPD2     N  785   1.871   4.315  10.446  0.1562  0.0009 -0.0015
   50MPD2    H5  786   1.885   4.357  10.538 -0.5861  0.8712 -0.2818
   50MPD2    N1  787   2.097   4.252  10.020  0.9206  0.4054  0.5128
   50MPD2    H7  788   2.047   4.164  10.016  2.6847 -0.5547 -0.4680
   51TMC2    C1  789   2.202   2.567   1.562  0.1135  0.7221  0.2652
   51TMC2    C2  790   2.180   2.700   1.579 -0.0334 -1.1295 -0.4659
   51TMC2    C3  791   2.281   2.776   1.624 -0.5338  0.3709 -0.6432
   51TMC2    C4  792   2.327   2.514   1.573 -0.4571 -0.0395  0.2590
   51TMC2    C5  793   2.422   2.592   1.631  0.3413  0.4860  0.1349
   51TMC2    C6  794   2.403   2.723   1.651  0.7081 -0.1198 -0.1622
   51TMC2     C  795   2.095   2.472   1.545 -0.3439  1.1730  0.2690
   51TMC2     O  796   2.125   2.356   1.522  0.3597 -0.0609 -0.0565
   51TMC2     H  797   2.084   2.750   1.572 -0.2065 -0.8973  3.6292
   51TMC2    H1  798   2.342   2.408   1.559 -2.7805  0.0677 -2.9270
   51TMC2    H2  799   2.481   2.778   1.702  0.4629 -0.0506  0.1419
   51TMC2    C7  800   2.562   2.563   1.587 -0.1095 -0.1905  0.7365
   51TMC2    C8  801   2.244   2.908   1.666 -0.5678 -0.4892 -0.1600
   51TMC2    O1  802   2.630   2.663   1.557  0.5626 -0.5971 -0.3101
   51TMC2    O2  803   2.126   2.937   1.688  0.0118 -0.1238  0.2539
   51TMC2    O5  804   2.350   2.982   1.674  0.0325  0.5094 -0.2564
   51TMC2    H5  805   2.431   2.942   1.638 -0.4856  0.9947 -1.9489
   52MPD2     C  806   1.594   2.338   1.476 -0.0430  0.4461  0.0857
   52MPD2    C1  807   1.708   2.262   1.475  0.2828  0.1708 -0.1189
   52MPD2    C2  808   1.837   2.321   1.488 -0.5513 -0.2607  0.2665
   52MPD2    C3  809   1.843   2.458   1.512  0.1391  0.3912  0.3041
   52MPD2    C4  810   1.729   2.534   1.529  0.1129  0.2849 -0.3637
   52MPD2    C5  811   1.610   2.471   1.498 -1.1229 -1.0866  0.1877
   52MPD2     H  812   1.927   2.261   1.486 -0.5023 -0.1747 -0.4032
   52MPD2    H1  813   1.717   2.641   1.543 -1.6222 -0.0390  0.7033
   52MPD2    H2  814   1.501   2.307   1.429  0.2644  0.8974 -0.8205
   52MPD2    H3  815   1.525   2.531   1.469 -1.5383 -1.9089 -0.3058
   52MPD2     N  816   1.964   2.527   1.544 -0.0585  0.1089 -0.5532
   52MPD2    H5  817   1.957   2.628   1.544  0.7713  0.1658 -2.3021
   52MPD2    N1  818   1.706   2.120   1.455  0.5188  0.2347 -0.3969
   52MPD2    H7  819   1.800   2.086   1.439  1.0941  1.9120 -0.5220
   53TMC2    C1  820   2.097   1.498  11.439  0.3062  0.4430  0.3963
   53TMC2    C2  821   2.226   1.548  11.414  0.0315 -0.2923  0.2842
   53TMC2    C3  822   2.322   1.525  11.505  0.1913 -0.1918  0.4614
   53TMC2    C4  823   2.072   1.425  11.551 -0.2751  0.4830  0.0600
   53TMC2    C5  824   2.167   1.413  11.646 -0.2947 -0.5453  0.8563
   53TMC2    C6  825   2.290   1.466  11.625  0.4408 -0.6232  0.0782
   53TMC2     C  826   1.985   1.563  11.372 -0.1043 -0.3999  0.3011
   53TMC2     O  827   2.004   1.616  11.267  0.0408  0.0635  0.1104
   53TMC2     H  828   2.239   1.604  11.322 -0.5528  1.3033  1.1580
   53TMC2    H1  829   1.972   1.383  11.563 -0.9927  1.8417 -1.1829
   53TMC2    H2  830   2.361   1.470  11.707 -0.0598  0.3180  0.4635
   53TMC2    C7  831   2.111   1.434  11.774 -0.1801 -0.1207 -0.7546
   53TMC2    C8  832   2.460   1.557  11.484 -0.1359  0.5140 -0.1170
   53TMC2    O1  833   1.989   1.454  11.780  0.0051 -0.1343  0.1891
   53TMC2    O2  834   2.544   1.528  11.568  0.1392  0.3645 -0.4563
   53TMC2    O5  835   2.463   1.676  11.414  0.0948  0.0324  0.8247
   53TMC2    H5  836   2.379   1.696  11.367 -0.5018 -1.6242  1.2213
   54MPD2     C  837   1.718   1.696  11.310 -0.4756 -0.0191 -0.7803
   54MPD2    C1  838   1.754   1.630  11.428  0.1048 -0.1660 -0.0994
   54MPD2    C2  839   1.669   1.631  11.532  0.5383 -0.2741  0.3146
   54MPD2    C3  840   1.550   1.710  11.526  0.1884  0.0642 -0.4480
   54MPD2    C4  841   1.519   1.775  11.410  0.5798  0.6844 -0.1227
   54MPD2    C5  842   1.603   1.769  11.310  0.5734 -0.8181  0.1734
   54MPD2     H  843   1.712   1.589  11.623  2.5032 -0.7549 -0.8437
   54MPD2    H1  844   1.429   1.836  11.402  0.9316  1.0102 -1.6182
   54MPD2    H2  845   1.777   1.687  11.219  1.5879 -0.8774  0.6459
   54MPD2    H3  846   1.568   1.814  11.218 -0.3146 -0.7460  0.5457
   54MPD2     N  847   1.453   1.715  11.634  0.2355 -0.0493 -0.5484
   54MPD2    H5  848   1.384   1.786  11.616 -0.6010 -0.4356  1.1291
   54MPD2    N1  849   1.875   1.569  11.456  0.0219  0.5891  0.3739
   54MPD2    H7  850   1.894   1.550  11.554  1.7512 -0.3411 -0.1426
   55TMC2    C1  851   3.291   4.031  17.587  0.7838 -0.5522 -0.1467
   55TMC2    C2  852   3.326   4.041  17.458  0.2756  0.1685 -0.3400
   55TMC2    C3  853   3.339   3.924  17.386  0.0285  0.5458  0.1182
   55TMC2    C4  854   3.255   3.910  17.637 -0.6827 -0.2723 -0.4305
   55TMC2    C5  855   3.270   3.797  17.568 -0.7451  0.5464 -0.1849
   55TMC2    C6  856   3.324   3.800  17.443  0.2067 -0.2336  1.3245
   55TMC2     C  857   3.221   4.139  17.660  0.1823 -0.4327 -0.4666
   55TMC2     O  858   3.141   4.109  17.744 -0.5680 -0.2578  0.2095
   55TMC2     H  859   3.345   4.136  17.409 -0.7363 -0.0116 -1.0776
   55TMC2    H1  860   3.211   3.910  17.737  3.8628  3.7783  1.5941
   55TMC2    H2  861   3.316   3.713  17.379 -1.5724  0.7546  0.2294
   55TMC2    C7  862   3.218   3.672  17.619 -0.0510  0.5523 -0.0039
   55TMC2    C8  863   3.392   3.919  17.253 -0.7251 -0.2882  1.2758
   55TMC2    O1  864   3.218   3.584  17.538  0.1521 -0.1367  0.2219
   55TMC2    O2  865   3.351   3.840  17.170  0.1300 -0.0012 -0.0780
   55TMC2    O5  866   3.502   3.994  17.244  0.9585  0.1172  0.7009
   55TMC2    H5  867   3.527   4.047  17.323 -0.4126  1.1934  0.4072
   56MPD2     C  868   3.228   4.503  17.610 -0.4701  0.4125 -0.1608
   56MPD2    C1  869   3.177   4.386  17.656 -0.5931 -0.3352  0.4647
   56MPD2    C2  870   3.074   4.386  17.743 -0.0037  0.3431  0.3764
   56MPD2    C3  871   3.021   4.505   0.036  0.1272 -0.6685  0.5667
   56MPD2    C4  872   3.069   4.624  17.737  0.4882  0.9161 -0.1890
   56MPD2    C5  873   3.170   4.624  17.648  0.1906 -0.2143  0.0737
   56MPD2     H  874   3.036   4.297   0.045  0.7753 -0.2218 -0.0715
   56MPD2    H1  875   3.027   4.720   0.022 -2.0409  0.5672 -2.5312
   56MPD2    H2  876   3.311   4.497  17.540  1.1777  0.7989  1.7860
   56MPD2    H3  877   3.210   4.713  17.603  0.6718 -0.3021  0.3254
   56MPD2     N  878   2.928   4.502   0.148  0.4308  0.8496 -0.5095
   56MPD2    H5  879   2.901   4.413   0.189 -0.6439  1.0518 -0.7927
   56MPD2    N1  880   3.239   4.264  17.606  0.0293  0.1962  0.0901
   56MPD2    H7  881   3.314   4.279  17.539 -0.0359  1.1960  0.2390
   57TMC2    C1  882   2.329   0.032  13.601 -0.6488 -0.2324  0.1732
   57TMC2    C2  883   2.349   4.640  13.645  0.4063 -0.4387  0.4111
   57TMC2    C3  884   2.442   4.567  13.572  0.0089 -0.3891  0.3122
   57TMC2    C4  885   2.387   0.073  13.485  0.2030 -0.3538  0.6606
   57TMC2    C5  886   2.476   4.735  13.418 -0.8438 -0.3835  0.6786
   57TMC2    C6  887   2.504   4.609  13.460  0.4368 -0.3978  0.2618
   57TMC2     C  888   2.241   0.121  13.674 -0.0737 -0.5735  0.2408
   57TMC2     O  889   2.198   0.224  13.614  1.0460 -0.1364 -0.4030
   57TMC2     H  890   2.316   4.599  13.740  0.9071 -0.3283  0.6303
   57TMC2    H1  891   2.353   0.171  13.450  1.6870 -1.0729 -2.8273
   57TMC2    H2  892   2.578   4.547  13.410 -0.0777  0.1916 -1.2337
   57TMC2    C7  893   2.535   0.052  13.293 -0.0517  0.3864  0.2987
   57TMC2    C8  894   2.495   4.441  13.628  0.6893  0.4178 -0.0510
   57TMC2    O1  895   2.532   0.172  13.276  0.4967 -0.1371  0.1058
   57TMC2    O2  896   2.619   4.411  13.633 -0.0593 -0.3274 -0.6499
   57TMC2    O5  897   2.412   4.351  13.577  0.4728  0.9643  0.1672
   57TMC2    H5  898   2.334   4.405  13.552 -0.2363 -0.7821 -1.4262
   58MPD2     C  899   2.022   0.284  14.108 -0.1933  0.6217 -0.3966
   58MPD2    C1  900   2.000   0.321  13.976  0.0533 -0.8804 -0.3030
   58MPD2    C2  901   2.072   0.263  13.875  0.2721 -0.9142  0.1787
   58MPD2    C3  902   2.157   0.158  13.909 -0.3750  1.0585 -0.1779
   58MPD2    C4  903   2.177   0.115  14.040  0.6312 -0.6325  0.4411
   58MPD2    C5  904   2.108   0.180  14.145 -0.1199  0.5414 -0.4589
   58MPD2     H  905   2.045   0.276  13.771  3.3624  0.4921 -0.4776
   58MPD2    H1  906   2.243   0.034  14.070 -0.3724 -0.6640  2.6249
   58MPD2    H2  907   1.966   0.341  14.181 -1.4507  1.8955 -2.3536
   58MPD2    H3  908   2.132   0.156  14.248  3.0367  1.0126 -1.0740
   58MPD2     N  909   2.241   0.093  13.810  0.1059 -0.1542 -0.0270
   58MPD2    H5  910   2.316   0.037  13.850 -0.2703 -1.1276 -0.6798
   58MPD2    N1  911   1.907   0.416  13.932  0.1769  0.0643  0.3845
   58MPD2    H7  912   1.905   0.445  13.835  0.7474  2.7133  1.1364
   59TMC2    C1  913   4.486   0.487  12.445  0.2958 -0.2988 -0.1420
   59TMC2    C2  914   4.520   0.366  12.489 -0.9005  0.3394 -0.3414
   59TMC2    C3  915   4.480   0.255  12.427 -0.3642  0.0592  0.7122
   59TMC2    C4  916   4.404   0.502  12.336  0.2936  0.0813  0.2124
   59TMC2    C5  917   4.353   0.389  12.282 -0.2528 -0.3046 -1.1407
   59TMC2    C6  918   4.397   0.265  12.319  0.0814 -0.1620 -0.1791
   59TMC2     C  919   4.549   0.604  12.492  0.6058  0.3440  0.1863
   59TMC2     O  920   4.502   0.711  12.461 -0.4262 -0.3525 -0.0848
   59TMC2     H  921   4.568   0.355  12.585 -1.0529  2.3432 -0.0491
   59TMC2    H1  922   4.383   0.597  12.290  0.6581 -0.9860 -2.1627
   59TMC2    H2  923   4.360   0.176  12.270 -0.7557 -0.0729  0.2928
   59TMC2    C7  924   4.251   0.392  12.186  0.2185  1.0122 -0.6572
   59TMC2    C8  925   4.503   0.122  12.491  0.1493  0.2286  0.2055
   59TMC2    O1  926   4.227   0.291  12.118  0.3557  0.0022 -0.3453
   59TMC2    O2  927   4.443   0.026  12.443  0.6634  0.1768 -0.1378
   59TMC2    O5  928   4.636   0.129  12.498  0.0094  0.4906  0.7020
   59TMC2    H5  929   4.672   0.218  12.517  1.2508  0.4546 -1.4038
   60MPD2     C  930   4.714   0.808  12.645  0.7977 -0.5332  0.5583
   60MPD2    C1  931   4.730   0.669  12.656  0.0350 -0.6758  0.3419
   60MPD2    C2  932   0.080   0.623  12.750  0.4318  0.6367 -0.8613
   60MPD2    C3  933   0.139   0.704  12.842  0.3174 -0.2992 -0.3876
   60MPD2    C4  934   0.132   0.839  12.813  0.0143  0.6153  0.3125
   60MPD2    C5  935   0.052   0.887  12.717  0.1633 -0.3264 -0.0557
   60MPD2     H  936   0.097   0.517  12.735  0.9272  0.4639  0.9490
   60MPD2    H1  937   0.194   0.908  12.868 -0.2684  2.6171 -1.8806
   60MPD2    H2  938   4.639   0.853  12.582 -0.0820 -0.1091  1.9081
   60MPD2    H3  939   0.042   0.995  12.713  0.0757 -0.1714  4.1432
   60MPD2     N  940   0.228   0.656  12.935 -0.4460 -0.4917  0.5160
   60MPD2    H5  941   0.271   0.720  13.001 -2.1262 -0.2185  1.3471
   60MPD2    N1  942   4.656   0.577  12.575  0.5154  0.1613  0.0749
   60MPD2    H7  943   4.681   0.479  12.581 -1.2081 -0.2842  0.0390
   61TMC2    C1  944   4.222   1.278  15.109  0.1142 -0.6590 -0.1093
   61TMC2    C2  945   4.250   1.170  15.194  0.5112  0.7282  0.3044
   61TMC2    C3  946   4.259   1.191  15.330  0.4229 -0.3461 -0.9687
   61TMC2    C4  947   4.192   1.400  15.170  0.6149  0.2790 -0.1753
   61TMC2    C5  948   4.171   1.402  15.307 -0.1162  0.7118 -0.0073
   61TMC2    C6  949   4.208   1.302  15.389 -0.6362 -1.0172  0.4667
   61TMC2     C  950   4.142   1.230  15.006 -0.4861  0.4139 -0.7738
   61TMC2     O  951   4.120   1.109  15.011 -0.4066 -0.6168 -0.1640
   61TMC2     H  952   4.286   1.075  15.157 -1.1621  1.2262 -2.6283
   61TMC2    H1  953   4.174   1.492  15.117  0.7281  1.1511  1.3119
   61TMC2    H2  954   4.206   1.324  15.495  3.6498  0.9739  0.1379
   61TMC2    C7  955   4.177   1.540  15.348  0.2119  0.3897 -0.0513
   61TMC2    C8  956   4.292   1.087  15.422  0.9180  0.6562 -1.0255
   61TMC2    O1  957   4.244   1.620  15.286 -0.5524  0.3671  0.2515
   61TMC2    O2  958   4.235   1.072  15.526 -0.1933 -0.0726  0.5842
   61TMC2    O5  959   4.387   1.001  15.371  0.5289  0.0910 -0.3714
   61TMC2    H5  960   4.440   1.037  15.297  0.5152 -0.9634 -0.8910
   62MPD2     C  961   3.920   1.228  14.802 -0.7439 -1.1471 -0.2684
   62MPD2    C1  962   3.980   1.340  14.845 -0.3327 -0.5871  0.3938
   62MPD2    C2  963   3.932   1.461  14.793  0.5117  0.2213  0.3522
   62MPD2    C3  964   3.822   1.470  14.707 -0.2462  0.8568  0.3866
   62MPD2    C4  965   3.760   1.351  14.673  0.0236  0.0209  1.2009
   62MPD2    C5  966   3.812   1.229  14.722  0.4617  0.2208 -0.1641
   62MPD2     H  967   3.989   1.548  14.823 -0.7784  1.4571 -0.7804
   62MPD2    H1  968   3.673   1.354  14.609  0.9089  1.1430  0.0423
   62MPD2    H2  969   3.944   1.135  14.852  2.6718  0.3676  0.8842
   62MPD2    H3  970   3.761   1.136  14.700 -1.4941  0.9863  1.1948
   62MPD2     N  971   3.763   1.586  14.652  0.1672 -0.0657 -0.3214
   62MPD2    H5  972   3.684   1.562  14.594 -0.7581  2.4656 -0.0714
   62MPD2    N1  973   4.078   1.338  14.938 -0.0428  0.1032  0.3547
   62MPD2    H7  974   4.126   1.426  14.956  0.2121 -0.7063  3.6020
   63TMC2    C1  975   3.038   2.333   9.999 -0.0051 -0.3922  0.1629
   63TMC2    C2  976   2.977   2.458   9.987 -0.2649 -0.0991 -0.1303
   63TMC2    C3  977   2.893   2.473   9.885 -0.6251 -0.5959 -0.4678
   63TMC2    C4  978   3.018   2.239   9.906 -0.2315  0.5228  0.7969
   63TMC2    C5  979   2.935   2.265   9.803 -0.5310  0.4972  0.1016
   63TMC2    C6  980   2.872   2.386   9.785 -0.1137 -0.4488 -0.5598
   63TMC2     C  981   3.159   2.337  10.074 -0.6461 -0.1262  0.5629
   63TMC2     O  982   3.223   2.439  10.059  0.1379 -0.2331  0.4833
   63TMC2     H  983   2.997   2.534  10.062 -2.4863 -0.0802  0.4476
   63TMC2    H1  984   3.074   2.148   9.917 -0.0746  0.3543 -1.4117
   63TMC2    H2  985   2.794   2.397   9.711  0.5629 -1.5563 -1.4352
   63TMC2    C7  986   2.921   2.158   9.712  0.0546 -1.0002 -0.6019
   63TMC2    C8  987   2.795   2.577   9.911  0.2288 -0.0487 -0.2170
   63TMC2    O1  988   2.986   2.058   9.739  0.3262  0.0110  0.0338
   63TMC2    O2  989   2.761   2.647   9.816  0.0827  0.1136  0.2866
   63TMC2    O5  990   2.706   2.518   9.988  0.2922  0.7363  0.1408
   63TMC2    H5  991   2.738   2.440  10.040  3.2088  1.5268 -0.4988
   64MPD2     C  992   3.469   2.171  10.437 -0.8337  0.5133 -0.0577
   64MPD2    C1  993   3.374   2.076  10.423 -0.2949 -0.3168  0.4546
   64MPD2    C2  994   3.280   2.100  10.323  0.3145  0.3651 -0.3324
   64MPD2    C3  995   3.286   2.214  10.245  0.2608  0.4272  0.8217
   64MPD2    C4  996   3.388   2.306  10.259 -0.5311 -0.4017 -0.4056
   64MPD2    C5  997   3.486   2.280  10.353  0.6050  0.0523  0.5141
   64MPD2     H  998   3.189   2.042  10.314 -0.2563  1.6105 -2.5257
   64MPD2    H1  999   3.401   2.398  10.203  1.2791 -0.0210  0.6752
   64MPD2    H2 1000   3.553   2.161  10.504  0.8181  0.9722 -2.0650
   64MPD2    H3 1001   3.565   2.352  10.367 -0.6451  1.4881  0.1672
   64MPD2     N 1002   3.171   2.239  10.168  0.1923 -0.4283  0.3831
   64MPD2    H5 1003   3.097   2.170  10.166 -0.9211  0.7525  0.7528
   64MPD2    N1 1004   3.375   1.972  10.514  0.0107  0.4284  0.5494
   64MPD2    H7 1005   3.461   1.956  10.564 -0.6033  0.1311  1.5060
   65TMC2    C1 1006   0.200   1.247  15.655 -0.1080  0.1682  0.0196
   65TMC2    C2 1007   0.169   1.219  15.521 -0.1872 -0.3357 -0.2899
   65TMC2    C3 1008   0.155   1.327  15.440 -0.2111  0.2049  0.2548
   65TMC2    C4 1009   0.211   1.375  15.706  0.7622  0.4191  0.3411
   65TMC2    C5 1010   0.171   1.482  15.623  0.2268  0.3963 -0.0494
   65TMC2    C6 1011   0.146   1.456  15.490 -0.0931  0.3840  0.1324
   65TMC2     C 1012   0.179   1.139  15.754 -0.3751  0.3268 -0.1700
   65TMC2     O 1013   0.173   1.173  15.873  0.2887  0.4480 -0.3731
   65TMC2     H 1014   0.146   1.126  15.470  0.5048 -0.3110 -0.6514
   65TMC2    H1 1015   0.230   1.389  15.812  0.1717  2.5445  0.1691
   65TMC2    H2 1016   0.135   1.543  15.426  2.2866 -0.1470 -0.9885
   65TMC2    C7 1017   0.178   1.618  15.667  0.3863  0.1684  0.1271
   65TMC2    C8 1018   0.138   1.313  15.298  0.4320  0.6926  0.0374
   65TMC2    O1 1019   0.206   1.704  15.589  0.2784 -0.5325  0.1572
   65TMC2    O2 1020   0.103   1.211  15.238 -0.1746  0.4152  0.2025
   65TMC2    O5 1021   0.238   1.397  15.255  0.8505  0.0059  0.3564
   65TMC2    H5 1022   0.268   1.453  15.330  1.5965  0.3457 -0.2022
   66MPD2     C 1023   0.071   0.889  15.886 -0.4261  0.1152 -0.1375
   66MPD2    C1 1024   0.087   0.912  15.752 -0.7663  0.1964  0.3862
   66MPD2    C2 1025   0.046   0.810  15.670 -0.1733 -0.5940  0.1994
   66MPD2    C3 1026   4.726   0.695  15.725 -0.0346 -0.2787  0.0531
   66MPD2    C4 1027   4.712   0.682  15.863 -0.3502  0.1032 -0.1100
   66MPD2    C5 1028   0.016   0.776  15.945  0.0650 -0.5390  0.7034
   66MPD2     H 1029   0.067   0.833  15.567  1.8461  0.5165  0.8664
   66MPD2    H1 1030   4.668   0.599  15.917 -0.4883  0.3112  0.0959
   66MPD2    H2 1031   0.080   0.969  15.958 -0.0970 -0.5589  0.5724
   66MPD2    H3 1032   0.019   0.762  16.053  1.0682 -0.1743  0.7250
   66MPD2     N 1033   4.676   0.596  15.644  0.0430  0.0893 -0.4645
   66MPD2    H5 1034   4.657   0.507  15.688  0.9645  0.4723  0.7098
   66MPD2    N1 1035   0.144   1.025  15.695 -0.4780 -0.3456 -0.2092
   66MPD2    H7 1036   0.144   1.031  15.594  3.4773 -1.0035 -0.2346
   67TMC2    C1 1037   4.726   0.956  14.285 -1.4510  0.5074 -0.5964
   67TMC2    C2 1038   4.708   1.033  14.399 -0.4232 -0.3748  0.1813
   67TMC2    C3 1039   0.065   1.038  14.494 -0.3164 -0.0513 -0.4607
   67TMC2    C4 1040   0.098   0.866  14.287 -0.2366 -1.2249  0.2239
   67TMC2    C5 1041   0.178   0.864  14.394 -0.2914  0.2489 -0.4574
   67TMC2    C6 1042   0.169   0.947  14.503  0.3668  0.1205 -0.2835
   67TMC2     C 1043   4.729   1.041  14.173  1.2030 -0.0277 -0.0490
   67TMC2     O 1044   0.009   1.158  14.206  0.0962 -0.4835 -0.6288
   67TMC2     H 1045   4.630   1.109  14.401  1.8209  1.9866 -2.2280
   67TMC2    H1 1046   0.115   0.799  14.204  0.2079 -1.7747  0.7635
   67TMC2    H2 1047   0.248   0.944  14.577 -1.0648  0.4753  1.2603
   67TMC2    C7 1048   0.239   0.738  14.416 -0.6689 -0.3770 -0.5813
   67TMC2    C8 1049   0.047   1.144  14.589  0.2607 -0.2532  0.5153
   67TMC2    O1 1050   0.273   0.672  14.319  0.4354  0.3557 -0.1968
   67TMC2    O2 1051   0.022   1.255  14.549 -0.4113  0.1512  0.3855
   67TMC2    O5 1052   4.729   1.088  14.700  0.0514  0.6103  0.4085
   67TMC2    H5 1053   0.012   0.993  14.713 -2.3400 -0.3329 -2.9136
   68MPD2     C 1054   4.678   1.187  13.924  0.1942  0.5792  0.1245
   68MPD2    C1 1055   4.645   1.054  13.941 -0.8610 -0.8122 -0.4706
   68MPD2    C2 1056   4.582   0.986  13.834  0.0089 -0.8394 -0.0068
   68MPD2    C3 1057   4.559   1.047  13.711 -0.1135  0.3582  0.2077
   68MPD2    C4 1058   4.590   1.181  13.700 -0.2417  0.7819  0.2281
   68MPD2    C5 1059   4.646   1.248  13.806 -0.4345 -0.2248 -0.3639
   68MPD2     H 1060   4.566   0.880  13.848  3.3178 -1.3149  0.1842
   68MPD2    H1 1061   4.574   1.226  13.602  1.4861  2.1213  0.5694
   68MPD2    H2 1062   4.733   1.242  13.999  0.3271  0.6393 -0.0160
   68MPD2    H3 1063   4.662   1.355  13.798  4.0789 -0.7559  1.2728
   68MPD2     N 1064   4.503   0.988  13.594 -0.3463  0.3867  0.5855
   68MPD2    H5 1065   4.493   1.045  13.510  1.6340 -1.5771 -0.9790
   68MPD2    N1 1066   4.680   0.984  14.056  0.8228  0.3707 -0.1543
   68MPD2    H7 1067   4.646   0.890  14.072  0.2841  0.6854  0.5471
   69TMC2    C1 1068   1.976   1.962  12.367 -0.4918  0.4412 -0.7310
   69TMC2    C2 1069   1.894   2.069  12.371  0.1861  0.5660 -1.2345
   69TMC2    C3 1070   1.862   2.139  12.260  0.4540 -0.4278 -0.0853
   69TMC2    C4 1071   2.022   1.915  12.245 -0.4720  0.3291 -0.2072
   69TMC2    C5 1072   1.990   1.992  12.132  0.1145  0.3296 -0.3874
   69TMC2    C6 1073   1.912   2.110  12.141 -0.5787 -0.6400  0.2899
   69TMC2     C 1074   1.969   1.875  12.482 -0.5426  0.1014  0.0643
   69TMC2     O 1075   1.890   1.908  12.570  0.0773 -0.1036 -0.1584
   69TMC2     H 1076   1.848   2.104  12.463  1.0228  0.5498 -0.8132
   69TMC2    H1 1077   2.085   1.829  12.229  1.0703  1.1189  1.6095
   69TMC2    H2 1078   1.858   2.161  12.063 -0.1360 -0.7259 -0.0764
   69TMC2    C7 1079   2.058   1.967  12.010  0.3753  0.2163  0.1381
   69TMC2    C8 1080   1.758   2.231  12.267  0.5031  0.6749  0.0641
   69TMC2    O1 1081   2.171   1.927  12.029 -0.4600 -0.6899 -0.3109
   69TMC2    O2 1082   1.683   2.230  12.364  0.5981  0.2880 -0.9357
   69TMC2    O5 1083   1.801   2.350  12.221 -0.2143 -0.5735 -0.3628
   69TMC2    H5 1084   1.846   2.341  12.134  0.1435 -0.0904 -0.2261
   70MPD2     C 1085   2.166   1.573  12.581 -0.0828 -0.2361  0.1144
   70MPD2    C1 1086   2.052   1.661  12.572  0.0552 -0.0912  0.3605
   70MPD2    C2 1087   1.974   1.653  12.688  0.9037  0.4212  0.2606
   70MPD2    C3 1088   1.985   1.550  12.783 -0.5842 -0.0809  0.1883
   70MPD2    C4 1089   2.098   1.473  12.791 -0.2823  0.5976  0.0695
   70MPD2    C5 1090   2.179   1.482  12.680 -0.3443 -0.0213  0.5692
   70MPD2     H 1091   1.891   1.722  12.702  1.4780  0.6878  2.4609
   70MPD2    H1 1092   2.114   1.398  12.867  1.5159  0.6153 -0.2996
   70MPD2    H2 1093   2.244   1.578  12.506  1.0553 -1.3348  1.2238
   70MPD2    H3 1094   2.266   1.416  12.680  1.2944  2.1632 -1.0537
   70MPD2     N 1095   1.892   1.529  12.889  0.2807 -0.3907 -0.0553
   70MPD2    H5 1096   1.912   1.457  12.957  0.8951  0.8530  1.0844
   70MPD2    N1 1097   2.051   1.763  12.475 -0.3019  0.0631  0.3880
   70MPD2    H7 1098   2.122   1.765  12.403 -0.3460 -0.0094  0.3423
   71TMC2    C1 1099   3.725   0.801   1.111  1.1387 -0.1995  0.2061
   71TMC2    C2 1100   3.787   0.728   1.210 -0.1789  0.0387 -0.2733
   71TMC2    C3 1101   3.733   0.602   1.235 -0.2088  0.0791  0.3497
   71TMC2    C4 1102   3.610   0.752   1.054  0.1832  0.2303 -0.3677
   71TMC2    C5 1103   3.561   0.631   1.092 -0.0510  0.5847 -0.1158
   71TMC2    C6 1104   3.631   0.543   1.170 -0.1212 -1.0242  0.7464
   71TMC2     C 1105   3.783   0.926   1.071 -0.5832  0.8228  0.0788
   71TMC2     O 1106   3.748   0.977   0.967 -0.6648  0.2347 -0.2110
   71TMC2     H 1107   3.884   0.757   1.248  0.2310 -0.2287 -1.1216
   71TMC2    H1 1108   3.557   0.825   0.994  1.5179  0.1623 -1.6126
   71TMC2    H2 1109   3.594   0.442   1.188 -1.0207 -1.1247 -1.5388
   71TMC2    C7 1110   3.447   0.582   1.020 -0.0255 -0.6809 -0.0006
   71TMC2    C8 1111   3.808   0.506   1.324  0.5071  0.4065 -0.6171
   71TMC2    O1 1112   3.435   0.460   1.005 -0.5152 -0.0289  0.1276
   71TMC2    O2 1113   3.816   0.392   1.296 -0.2428  0.1801  0.4524
   71TMC2    O5 1114   3.889   0.576   1.408  0.3152  0.4576  0.4889
   71TMC2    H5 1115   3.853   0.667   1.420 -1.0574  0.0933 -0.8712
   72MPD2     C 1116   4.120   1.297   1.153  0.0783 -0.0461  0.3167
   72MPD2    C1 1117   4.040   1.279   1.038  0.7056  0.1487  0.3125
   72MPD2    C2 1118   3.959   1.168   1.043 -0.1671 -0.1823 -0.2632
   72MPD2    C3 1119   3.943   1.095   1.163  0.1557  0.3068  0.4909
   72MPD2    C4 1120   4.012   1.129   1.273 -0.3583 -0.2768  0.5944
   72MPD2    C5 1121   4.109   1.228   1.269 -0.3507 -0.0847 -0.4083
   72MPD2     H 1122   3.901   1.139   0.956 -0.4736  0.1449 -0.1663
   72MPD2    H1 1123   4.016   1.062   1.358 -0.9397  1.0577  1.6761
   72MPD2    H2 1124   4.200   1.370   1.141  0.2805 -0.2482  0.4464
   72MPD2    H3 1125   4.172   1.244   1.356 -1.9412  1.1262  0.5191
   72MPD2     N 1126   3.865   0.977   1.170  0.0507 -0.6850 -0.1588
   72MPD2    H5 1127   3.853   0.929   1.259  0.6894  2.7207  1.7572
   72MPD2    N1 1128   4.056   1.347   0.916  0.9428  0.1861 -0.7947
   72MPD2    H7 1129   3.993   1.314   0.845 -0.9797  0.4959  0.7787
   73TMC2    C1 1130   4.227   3.844  13.887  0.2553  0.5798 -0.5139
   73TMC2    C2 1131   4.192   3.817  14.014  0.3410  0.0702  0.0889
   73TMC2    C3 1132   4.291   3.809  14.105 -0.0824  0.8102  0.2369
   73TMC2    C4 1133   4.360   3.868  13.857 -0.3226 -0.3355 -0.1627
   73TMC2    C5 1134   4.450   3.868  13.956 -0.3977  0.2419 -1.0702
   73TMC2    C6 1135   4.421   3.826  14.076 -0.8210 -0.7363  0.0343
   73TMC2     C 1136   4.143   3.945  13.829  0.1807 -0.4618 -0.3234
   73TMC2     O 1137   4.207   4.046  13.809  0.1395  0.1056 -0.2096
   73TMC2     H 1138   4.086   3.807  14.034  0.2013 -0.1391 -0.7445
   73TMC2    H1 1139   4.387   3.890  13.754 -0.7231  0.0576 -0.1844
   73TMC2    H2 1140   4.488   3.843  14.159  1.2919 -0.0955 -1.8227
   73TMC2    C7 1141   4.538   3.986  13.957  0.1767 -0.2628 -1.0225
   73TMC2    C8 1142   4.238   3.759  14.230  0.3373  0.0573  0.2799
   73TMC2    O1 1143   4.650   3.968  13.999 -0.1996 -0.4821 -0.0451
   73TMC2    O2 1144   4.122   3.775  14.257  0.2406  0.7077  0.3530
   73TMC2    O5 1145   4.340   3.726  14.304  0.1276  0.1057  0.8029
   73TMC2    H5 1146   4.414   3.723  14.240 -0.5883 -0.0864 -0.0166
   74MPD2     C 1147   3.802   4.092  13.479 -0.7223 -0.4530 -0.2399
   74MPD2    C1 1148   3.932   4.138  13.505 -0.2864 -0.3148 -0.3439
   74MPD2    C2 1149   4.012   4.066  13.596 -0.6511 -0.5288  0.3435
   74MPD2    C3 1150   3.967   3.955  13.655  0.6002 -0.1654 -0.1957
   74MPD2    C4 1151   3.847   3.893  13.610 -0.2261  0.3739 -0.1954
   74MPD2    C5 1152   3.770   3.967  13.523  0.2073 -0.1370  0.1258
   74MPD2     H 1153   4.108   4.106  13.627 -1.2723  1.5404 -0.4231
   74MPD2    H1 1154   3.822   3.793  13.645  0.2756  0.1747 -0.4063
   74MPD2    H2 1155   3.724   4.144  13.425 -0.7962 -1.0058 -0.6647
   74MPD2    H3 1156   3.674   3.923  13.502  0.1389  0.6527 -1.1608
   74MPD2     N 1157   4.039   3.892  13.759  0.0185 -0.3326 -0.1901
   74MPD2    H5 1158   4.006   3.803  13.796 -0.9884  0.4382  0.7625
   74MPD2    N1 1159   3.976   4.261  13.452 -0.5695  0.1881 -0.2137
   74MPD2    H7 1160   3.915   4.296  13.378 -2.7610 -1.8217  0.6269
   75TMC2    C1 1161   4.388   0.835  13.469  0.2132 -0.7103  0.0064
   75TMC2    C2 1162   4.343   0.945  13.403 -0.1520 -0.0941  0.1643
   75TMC2    C3 1163   4.272   0.924  13.286 -1.1621 -0.2385 -0.2683
   75TMC2    C4 1164   4.396   0.711  13.410 -0.4697  0.8454  0.0375
   75TMC2    C5 1165   4.340   0.690  13.290  0.0946 -0.8401  0.3504
   75TMC2    C6 1166   4.284   0.798  13.225 -0.1738 -0.1138  0.0825
   75TMC2     C 1167   4.470   0.853  13.587 -0.0885  0.6738 -0.9789
   75TMC2     O 1168   4.467   0.759  13.666  0.0749  0.2813  0.7045
   75TMC2     H 1169   4.322   1.040  13.452  0.6420 -0.3068  0.9193
   75TMC2    H1 1170   4.444   0.626  13.458 -0.5402  0.5208 -0.4735
   75TMC2    H2 1171   4.217   0.788  13.140  0.5858  1.0710 -0.6717
   75TMC2    C7 1172   4.303   0.548  13.253  0.7692 -0.1388  0.0818
   75TMC2    C8 1173   4.183   1.026  13.231  0.2201 -0.0357  0.3181
   75TMC2    O1 1174   4.339   0.462  13.330  0.0800  0.6339  0.1695
   75TMC2    O2 1175   4.162   1.018  13.111 -0.7581  0.0607  0.4724
   75TMC2    O5 1176   4.094   1.068  13.324 -0.2505 -0.1576 -0.3417
   75TMC2    H5 1177   4.110   1.044  13.418  0.2253 -1.5747 -0.7927
   76TMC2    C1 1178   3.140   1.306  12.113 -0.4836  0.4300  0.3020
   76TMC2    C2 1179   3.041   1.226  12.152 -0.6000  0.1644 -0.1016
   76TMC2    C3 1180   3.064   1.114  12.222 -0.0715  0.5902  0.3741
   76TMC2    C4 1181   3.275   1.258  12.127  0.0361 -0.0177 -0.0093
   76TMC2    C5 1182   3.300   1.133  12.185 -0.0025 -0.4791  0.0855
   76TMC2    C6 1183   3.195   1.064  12.234  0.3159 -0.4013 -0.2551
   76TMC2     C 1184   3.106   1.412  12.029  0.3133 -0.4996  0.0208
   76TMC2     O 1185   2.989   1.441  12.025  0.3815 -0.3853 -0.1282
   76TMC2     H 1186   2.937   1.256  12.147 -0.6256  0.0201 -0.4056
   76TMC2    H1 1187   3.354   1.309  12.073 -0.3047 -1.5581 -2.0014
   76TMC2    H2 1188   3.215   0.965  12.271  0.8556 -0.5122 -0.8509
   76TMC2    C7 1189   3.429   1.149  12.258  0.1571  0.3298  0.1207
   76TMC2    C8 1190   2.953   1.025  12.228  0.0591 -0.0271  0.0386
   76TMC2    O1 1191   3.500   1.243  12.218 -0.4089 -0.2261 -0.0311
   76TMC2    O2 1192   2.837   1.064  12.222 -0.2595  0.0967  0.4249
   76TMC2    O5 1193   3.002   0.912  12.158  0.7408  0.1188  0.1790
   76TMC2    H5 1194   3.098   0.920  12.139  0.5652 -1.3759 -1.2721
   77MPD2     C 1195   3.194   1.819  11.720 -0.4817  0.6091  0.2659
   77MPD2    C1 1196   3.080   1.744  11.740 -0.7906  0.0741  0.0527
   77MPD2    C2 1197   3.077   1.638  11.833  0.5904 -0.0078  0.9424
   77MPD2    C3 1198   3.192   1.606  11.904 -0.0123 -0.6669 -0.0653
   77MPD2    C4 1199   3.301   1.691  11.890  0.4170 -0.4034 -0.4429
   77MPD2    C5 1200   3.302   1.791  11.798 -0.7590 -0.1267  0.4503
   77MPD2     H 1201   2.984   1.584  11.845 -0.4274  1.4006 -0.5344
   77MPD2    H1 1202   3.393   1.678  11.946  0.4320 -2.4350 -0.9526
   77MPD2    H2 1203   3.199   1.905  11.654 -0.6370  0.8628  0.5841
   77MPD2    H3 1204   3.390   1.854  11.789 -1.7363  1.0304 -0.9837
   77MPD2     N 1205   3.209   1.496  11.991 -0.0873  0.0515 -0.2467
   77MPD2    H5 1206   3.301   1.465  12.020  1.2543  2.5050 -1.8975
   77MPD2    N1 1207   2.963   1.772  11.661 -0.2046 -0.4330  0.0635
   77MPD2    H7 1208   2.881   1.720  11.691 -0.1732 -0.6777 -0.2781
   78TMC2    C1 1209   4.530   0.659   0.259  0.5088  0.5800 -0.5340
   78TMC2    C2 1210   4.588   0.568   0.168 -0.7156  0.4770 -0.1208
   78TMC2    C3 1211   4.717   0.597   0.126 -0.3761  0.3731 -0.0631
   78TMC2    C4 1212   4.597   0.765   0.316 -0.2201 -0.2681  0.1666
   78TMC2    C5 1213   4.725   0.788   0.268  0.2579 -0.1394 -0.2898
   78TMC2    C6 1214   0.056   0.705   0.177 -0.0498  0.4007  0.1537
   78TMC2     C 1215   4.389   0.645   0.271 -0.4713  0.3916  0.5429
   78TMC2     O 1216   4.336   0.561   0.200  0.1812  0.9931 -0.1404
   78TMC2     H 1217   4.535   0.485   0.123 -1.4003 -0.1272  1.8500
   78TMC2    H1 1218   4.547   0.831   0.387  0.5647 -0.5984  1.0217
   78TMC2    H2 1219   0.159   0.721   0.148  0.3019 -0.5790  0.8491
   78TMC2    C7 1220   0.066   0.892   0.329  0.0469 -0.5018  0.5869
   78TMC2    C8 1221   0.029   0.534   0.011  0.5480 -0.0192 -0.7819
   78TMC2    O1 1222   0.168   0.924   0.269 -0.0557  0.0183 -0.1170
   78TMC2    O2 1223   0.144   0.505  17.745 -0.1297  0.0218 -0.1147
   78TMC2    O5 1224   4.659   0.521  17.671  0.3836 -0.1594 -0.1642
   78TMC2    H5 1225   4.583   0.582  17.683  0.2982 -0.8169  2.7300
   79MPD1     C 1226   3.920   0.817   0.339  0.1743 -0.3082  0.1864
   79MPD1    C1 1227   3.958   0.692   0.303  0.3760  0.0553 -1.0143
   79MPD1    C2 1228   4.091   0.667   0.322 -0.3624 -0.5790 -0.1631
   79MPD1    C3 1229   4.186   0.767   0.348  0.2452  0.6892 -0.1482
   79MPD1    C4 1230   4.137   0.885   0.383 -0.5301  0.1399  0.0993
   79MPD1    C5 1231   4.006   0.908   0.382 -0.7152 -0.6018 -0.3476
   79MPD1     H 1232   4.124   0.566   0.302  1.2327 -0.4418  1.8417
   79MPD1    H1 1233   4.201   0.969   0.408 -1.1219  0.6914 -0.2276
   79MPD1    H2 1234   3.814   0.839   0.346 -0.4356 -2.3741 -2.3636
   79MPD1    H3 1235   3.959   1.005   0.400  0.0870 -0.2459 -0.1632
   79MPD1     N 1236   4.326   0.753   0.332  1.0510 -0.2039 -0.7917
   79MPD1    H5 1237   4.382   0.836   0.344 -0.2352  0.6422 -0.6041
   79MPD1    N1 1238   3.872   0.583   0.277  0.3640  0.1606  0.4426
   79MPD1    H6 1239   3.781   0.603   0.235  0.9612 -1.7911 -1.7526
   79MPD1    H7 1240   3.915   0.506   0.225  0.4628 -0.7587  1.8984
   80TMC2    C1 1241   1.418   0.785  11.959 -0.1126 -0.3978 -0.2524
   80TMC2    C2 1242   1.329   0.769  11.856 -0.1723 -0.6599 -0.1549
   80TMC2    C3 1243   1.190   0.771  11.884  0.2886  0.1576 -0.1241
   80TMC2    C4 1244   1.370   0.815  12.084 -0.0404 -0.1965 -0.1372
   80TMC2    C5 1245   1.234   0.815  12.109  0.4492  0.2575  0.2357
   80TMC2    C6 1246   1.142   0.792  12.014 -0.0247  0.0199  0.6236
   80TMC2     C 1247   1.550   0.848  11.920  0.9481  0.4724 -0.1017
   80TMC2     O 1248   1.568   0.865  11.798 -0.1810 -0.4398 -0.1230
   80TMC2     H 1249   1.361   0.752  11.754 -0.8332 -0.2882 -0.4239
   80TMC2    H1 1250   1.424   0.847  12.173  2.0358 -3.2540 -0.2936
   80TMC2    H2 1251   1.038   0.772  12.035 -0.0777  0.9872  1.2516
   80TMC2    C7 1252   1.192   0.850  12.242  0.6466 -0.4518  0.4334
   80TMC2    C8 1253   1.102   0.707  11.785  0.5030 -0.8082  0.4620
   80TMC2    O1 1254   1.090   0.917  12.257  0.2624 -0.1221  0.0287
   80TMC2    O2 1255   1.097   0.584  11.794 -0.4763 -0.1433  0.1801
   80TMC2    O5 1256   0.995   0.784  11.785 -0.1910  0.7857  0.0040
   80TMC2    H5 1257   1.025   0.877  11.790  2.2246  0.0302 -0.2528
   81MPD2     C 1258   1.801   1.022  11.920 -0.1786 -0.5915 -0.2597
   81MPD2    C1 1259   1.747   0.960  12.029  0.4371  0.1780  0.2700
   81MPD2    C2 1260   1.809   0.984  12.148  0.1270  0.0740 -0.3079
   81MPD2    C3 1261   1.912   1.072  12.154  0.1406  0.4719 -0.4343
   81MPD2    C4 1262   1.960   1.130  12.043  0.2091  0.0909  0.6970
   81MPD2    C5 1263   1.906   1.106  11.919 -0.6548  0.2638  0.1941
   81MPD2     H 1264   1.769   0.934  12.236 -1.5014  2.2988  0.2110
   81MPD2    H1 1265   2.046   1.196  12.046 -1.2496  1.8623  2.9673
   81MPD2    H2 1266   1.752   0.993  11.827 -3.6457 -1.1690  1.7189
   81MPD2    H3 1267   1.948   1.137  11.824 -0.0653  2.8063  1.2778
   81MPD2     N 1268   1.976   1.121  12.268 -0.3432  0.5849  0.2492
   81MPD2    H5 1269   2.031   1.205  12.251  1.2920 -0.7229 -0.9512
   81MPD2    N1 1270   1.634   0.868  12.027 -0.7534 -0.1473 -0.6553
   81MPD2    H7 1271   1.621   0.808  12.107  0.8166  0.9396  0.4274
   82TMC2    C1 1272   0.407   0.083  11.026 -0.2189  0.5374  0.3267
   82TMC2    C2 1273   0.465   0.119  10.910 -0.1207  0.0626 -0.8332
   82TMC2    C3 1274   0.507   0.020  10.826 -0.5223  0.4477 -0.3142
   82TMC2    C4 1275   0.378   4.694  11.054  0.3977 -0.1900  0.8314
   82TMC2    C5 1276   0.415   4.600  10.969  0.1382 -0.1349  0.0820
   82TMC2    C6 1277   0.484   4.629  10.860 -0.7297 -0.0072  0.4521
   82TMC2     C 1278   0.300   0.181  11.054 -0.1934  0.6291 -0.0280
   82TMC2     O 1279   0.286   0.278  10.979  0.0319  0.0211 -0.2421
   82TMC2     H 1280   0.494   0.223  10.899  0.7051 -0.1226 -0.4614
   82TMC2    H1 1281   0.327   4.674  11.148  0.1384  1.2597  0.9962
   82TMC2    H2 1282   0.535   4.549  10.809 -0.3037 -0.2993  1.3423
   82TMC2    C7 1283   0.356   4.473  10.987 -0.1325 -0.3002 -0.4517
   82TMC2    C8 1284   0.585   0.048  10.707  0.5396 -0.1680  0.2260
   82TMC2    O1 1285   0.315   4.452  11.101  0.3746 -0.3317 -0.0227
   82TMC2    O2 1286   0.601   4.690  10.630  0.3012 -0.2086  0.0365
   82TMC2    O5 1287   0.682   0.126  10.753 -0.5416  0.2159 -0.0181
   82TMC2    H5 1288   0.681   0.165  10.843 -1.5842  0.2800 -0.0490
   83MPD2     C 1289   4.661   0.375  11.342 -0.3577 -0.3448  0.2436
   83MPD2    C1 1290   4.728   0.431  11.238  0.2901  0.0453 -0.7787
   83MPD2    C2 1291   0.094   0.358  11.184 -0.0026  0.8863 -0.0480
   83MPD2    C3 1292   0.128   0.230  11.230  0.3112  0.3847  0.3626
   83MPD2    C4 1293   0.067   0.186  11.343  0.3352  0.0008  0.2881
   83MPD2    C5 1294   4.703   0.260  11.398 -0.0972 -0.0631  0.0473
   83MPD2     H 1295   0.154   0.403  11.106  0.6783 -0.4700 -0.3123
   83MPD2    H1 1296   0.081   0.085  11.382  1.4081 -0.3080 -0.8876
   83MPD2    H2 1297   4.571   0.424  11.378 -0.2391  1.8319 -2.3949
   83MPD2    H3 1298   4.648   0.227  11.485  0.0555  1.1028  0.5982
   83MPD2     N 1299   0.230   0.153  11.173  0.5205 -0.2319 -0.1939
   83MPD2    H5 1300   0.266   0.085  11.240  0.0715 -2.5912 -2.3658
   83MPD2    N1 1301   4.692   0.556  11.198 -0.7942  0.7544 -0.6021
   83MPD2    H7 1302   4.630   0.609  11.259 -0.5263 -0.2174  0.5071
   84TMC2    C1 1303   1.595   4.336  10.731 -0.0938 -0.0930 -0.2468
   84TMC2    C2 1304   1.509   4.239  10.761  0.5710  0.0771  0.4167
   84TMC2    C3 1305   1.511   4.126  10.679 -0.2176 -0.0040  0.2807
   84TMC2    C4 1306   1.678   4.339  10.629  0.1142 -0.0633 -0.2762
   84TMC2    C5 1307   1.669   4.232  10.544  0.2709 -1.0477 -0.1456
   84TMC2    C6 1308   1.584   4.128  10.568  0.0970 -0.2842  0.0627
   84TMC2     C 1309   1.565   4.472  10.800 -0.3309 -0.7687 -0.2757
   84TMC2     O 1310   1.494   4.466  10.895 -0.3545 -0.3565 -0.6729
   84TMC2     H 1311   1.432   4.250  10.836  0.8409 -1.0625  0.8677
   84TMC2    H1 1312   1.746   4.422  10.614 -0.7668  0.6910 -0.0604
   84TMC2    H2 1313   1.597   4.043  10.502  2.1242  0.2195 -0.1924
   84TMC2    C7 1314   1.768   4.219  10.434  0.1987 -0.0339  0.5871
   84TMC2    C8 1315   1.420   4.027  10.699  0.4122  0.0347  0.0952
   84TMC2    O1 1316   1.732   4.147  10.336 -0.4269  0.3608 -0.1303
   84TMC2    O2 1317   1.384   4.011  10.814 -0.5330 -0.1519 -0.4471
   84TMC2    O5 1318   1.338   4.054  10.600  0.3716  0.3846  0.7720
   84TMC2    H5 1319   1.388   4.076  10.519  0.0111  0.0368  0.4580
   85TMC2    C1 1320   2.415   2.331  15.699 -0.2750 -0.1029 -0.0564
   85TMC2    C2 1321   2.293   2.365  15.648  0.5052  0.1323  0.2499
   85TMC2    C3 1322   2.280   2.381  15.517  0.0103 -0.0452  0.2165
   85TMC2    C4 1323   2.522   2.336  15.619  0.4822 -0.1236  0.5035
   85TMC2    C5 1324   2.508   2.357  15.482 -0.3765 -0.0879 -0.3902
   85TMC2    C6 1325   2.383   2.384  15.432  0.7600  0.4665 -0.4727
   85TMC2     C 1326   2.422   2.271  15.830  0.2092 -0.1705  0.1542
   85TMC2     O 1327   2.524   2.275  15.894  0.0743  0.0501  0.3135
   85TMC2     H 1328   2.208   2.371  15.715 -0.9120 -1.0198 -1.4560
   85TMC2    H1 1329   2.617   2.300  15.656  1.1548  1.7767  0.5673
   85TMC2    H2 1330   2.358   2.407  15.329  2.5617 -1.7779 -1.4072
   85TMC2    C7 1331   2.602   2.307  15.392  0.0367  0.2832 -0.5821
   85TMC2    C8 1332   2.182   2.480  15.478 -0.3504 -0.2858 -0.0161
   85TMC2    O1 1333   2.691   2.233  15.434 -0.5775 -0.3336 -0.7790
   85TMC2    O2 1334   2.102   2.471  15.387  0.1224 -0.5272 -0.3892
   85TMC2    O5 1335   2.192   2.576  15.574 -0.3982  0.0132 -0.5720
   85TMC2    H5 1336   2.278   2.570  15.621 -0.7124  1.4760  0.1760
   86MPD2     C 1337   2.235   2.028  16.238 -0.3094  0.0364  0.6579
   86MPD2    C1 1338   2.164   1.993  16.126 -0.0399  0.6745 -0.3612
   86MPD2    C2 1339   2.198   2.051  16.007 -0.6824 -0.0896 -0.4542
   86MPD2    C3 1340   2.292   2.145  15.988 -0.1962  0.4665  0.4590
   86MPD2    C4 1341   2.355   2.190  16.104  0.2817 -0.3410  0.3908
   86MPD2    C5 1342   2.329   2.125  16.222 -0.4352 -0.4831  0.7594
   86MPD2     H 1343   2.147   2.015  15.919 -1.4350  0.5296 -0.2748
   86MPD2    H1 1344   2.421   2.276  16.097 -0.0597 -0.2235 -1.5783
   86MPD2    H2 1345   2.221   1.980  16.334 -2.9903 -2.1127 -0.8135
   86MPD2    H3 1346   2.386   2.166  16.305 -1.7165 -1.4961  2.1298
   86MPD2     N 1347   2.308   2.197  15.862 -0.2300 -0.3344 -0.7319
   86MPD2    H5 1348   2.233   2.188  15.795 -0.8194  1.6225 -0.3235
   86MPD2    N1 1349   2.061   1.901  16.120  0.9205 -0.3311 -0.4712
   86MPD2    H7 1350   1.998   1.897  16.041  1.6443  0.6701 -1.1056
   87TMC2    C1 1351   0.240   0.222   0.365 -0.2936  0.1778  0.2107
   87TMC2    C2 1352   0.321   0.329   0.331  0.7479  0.3350 -0.0815
   87TMC2    C3 1353   0.282   0.450   0.381 -0.2012  0.3091 -0.4143
   87TMC2    C4 1354   0.112   0.244   0.414  0.1897  0.6572  0.1740
   87TMC2    C5 1355   0.077   0.370   0.455 -0.3749 -0.4229 -0.0393
   87TMC2    C6 1356   0.161   0.468   0.446 -0.2887  0.1049  0.3402
   87TMC2     C 1357   0.266   0.107   0.283 -0.4666  0.2758  0.8764
   87TMC2     O 1358   0.355   0.123   0.200 -0.3477 -0.5520 -0.4490
   87TMC2     H 1359   0.423   0.315   0.299  1.5196 -0.0107  2.5929
   87TMC2    H1 1360   0.049   0.163   0.447  1.3338  0.2743  1.4542
   87TMC2    H2 1361   0.127   0.565   0.478  1.1552  0.5054  0.6932
   87TMC2    C7 1362   4.680   0.403   0.485 -0.0007 -0.1369  0.1484
   87TMC2    C8 1363   0.363   0.558   0.338  0.2123  0.8522  0.0381
   87TMC2    O1 1364   4.667   0.506   0.540 -0.7730  0.0279  0.1181
   87TMC2    O2 1365   0.392   0.561   0.224  0.1992 -0.1029  0.1103
   87TMC2    O5 1366   0.419   0.631   0.440 -0.3364  0.3641  0.4750
   87TMC2    H5 1367   0.377   0.613   0.527  0.4979  0.4202  0.8923
   88MPD2     C 1368   4.376   0.233   0.389 -0.0444 -0.5232  0.1496
   88MPD2    C1 1369   4.444   0.327   0.460 -0.3638 -0.3106  0.2077
   88MPD2    C2 1370   4.379   0.425   0.542 -0.0340  0.5156  0.6199
   88MPD2    C3 1371   4.245   0.418   0.550  0.2021  0.4931  0.5971
   88MPD2    C4 1372   4.177   0.327   0.478 -0.0095 -0.0815  0.4115
   88MPD2    C5 1373   4.241   0.233   0.392 -0.1207  0.6480  1.1551
   88MPD2     H 1374   4.439   0.500   0.592  0.7408 -0.3548  0.9998
   88MPD2    H1 1375   4.070   0.320   0.468 -0.2185  0.4466  2.4265
   88MPD2    H2 1376   4.427   0.144   0.355 -1.7578 -1.6480  0.4966
   88MPD2    H3 1377   4.188   0.150   0.346  0.2269  1.2723 -0.3514
   88MPD2     N 1378   4.165   0.519   0.613 -0.2064 -0.9476  0.3661
   88MPD2    H5 1379   4.064   0.511   0.613 -0.3701  1.0655 -0.5525
   88MPD2    N1 1380   4.582   0.313   0.444  0.1881  0.3480  0.0618
   88MPD2    H7 1381   4.617   0.246   0.377  2.6961 -0.4781  2.2323
   89TMC2    C1 1382   0.202   3.978   0.945 -0.4755  0.6156  0.3888
   89TMC2    C2 1383   0.092   4.013   1.015  0.1997  0.2097 -1.1744
   89TMC2    C3 1384   0.065   4.149   1.025  0.2153  0.7595  0.1608
   89TMC2    C4 1385   0.294   4.065   0.901  0.7971  0.0352 -0.0713
   89TMC2    C5 1386   0.268   4.198   0.928  0.0917 -0.1580  0.3099
   89TMC2    C6 1387   0.152   4.243   0.986  0.2259 -0.0229  0.2646
   89TMC2     C 1388   0.227   3.839   0.909  0.1631  0.2350  0.5607
   89TMC2     O 1389   0.322   3.825   0.832  0.3877 -0.6783 -0.1415
   89TMC2     H 1390   0.019   3.946   1.058 -0.4978  1.4680 -0.3934
   89TMC2    H1 1391   0.390   4.022   0.875  0.5909  0.4910 -1.5613
   89TMC2    H2 1392   0.136   4.348   1.007  1.3989  0.0883  0.6088
   89TMC2    C7 1393   0.374   4.291   0.924  0.8510  0.7219  0.3215
   89TMC2    C8 1394   4.693   4.204   1.106 -0.2249 -0.7749 -0.3685
   89TMC2    O1 1395   0.365   4.388   1.002 -0.0943 -0.2313 -0.1553
   89TMC2    O2 1396   4.706   4.312   1.166 -0.6067  0.1890 -0.0130
   89TMC2    O5 1397   4.579   4.134   1.088  0.3052  0.0828 -0.1338
   89TMC2    H5 1398   4.579   4.072   1.012 -1.0206 -0.2557  0.1485
   90MPD2     C 1399   0.146   3.323   0.909  0.3107  1.0070  0.6362
   90MPD2    C1 1400   0.074   3.380   1.006 -0.7519  0.1425  0.2293
   90MPD2    C2 1401   0.071   3.522   1.010  0.5019 -0.0776 -0.6379
   90MPD2    C3 1402   0.152   3.598   0.940  0.6255  0.2508 -0.6169
   90MPD2    C4 1403   0.228   3.535   0.844 -0.1801  0.0463  0.4882
   90MPD2    C5 1404   0.225   3.395   0.817 -0.7694  0.0853 -0.0301
   90MPD2     H 1405   4.736   3.565   1.077  0.1723 -2.0855  0.3122
   90MPD2    H1 1406   0.288   3.596   0.777  0.2241 -3.0536 -1.9995
   90MPD2    H2 1407   0.145   3.215   0.894  1.6210  1.1019 -0.0689
   90MPD2    H3 1408   0.275   3.340   0.738 -0.3314 -0.1440  0.4054
   90MPD2     N 1409   0.135   3.739   0.956  0.3229  0.9455  0.6164
   90MPD2    H5 1410   0.071   3.773   1.026 -0.0854 -1.4206  1.3781
   90MPD2    N1 1411   4.713   3.323   1.095  0.3672 -0.1955  0.5360
   90MPD2    H7 1412   4.646   3.385   1.138 -0.6378 -0.4257 -0.6840
   91TMC2    C1 1413   1.949   3.093  16.137 -0.4549  0.0770  0.3812
   91TMC2    C2 1414   1.979   3.129  16.269 -0.0237  0.1246  0.0709
   91TMC2    C3 1415   1.868   3.132  16.359  0.6228 -0.0582 -0.2531
   91TMC2    C4 1416   1.817   3.067  16.099  0.4621 -0.3442 -0.4434
   91TMC2    C5 1417   1.717   3.073  16.188  0.2421  0.1158 -0.6731
   91TMC2    C6 1418   1.743   3.107  16.322  0.0780  0.0727  0.4113
   91TMC2     C 1419   2.037   3.133  16.038  0.7325  0.3360  0.3756
   91TMC2     O 1420   1.988   3.172  15.933 -0.2969 -0.4720  0.5661
   91TMC2     H 1421   2.073   3.177  16.293 -0.2861  0.7771 -0.1965
   91TMC2    H1 1422   1.802   3.037  15.996 -0.0929 -1.2490 -0.0930
   91TMC2    H2 1423   1.666   3.105  16.398 -1.6860  2.1129 -1.3041
   91TMC2    C7 1424   1.579   3.087  16.144 -0.3405  0.2653 -0.1289
   91TMC2    C8 1425   1.891   3.107  16.500 -0.1720  0.0694  0.1097
   91TMC2    O1 1426   1.495   3.122  16.224  0.3578 -0.8186  1.2218
   91TMC2    O2 1427   1.828   3.012  16.550 -0.5649 -0.1760  0.3530
   91TMC2    O5 1428   2.022   3.129  16.518 -0.3325  0.0346  0.3107
   91TMC2    H5 1429   2.043   3.214  16.474  0.0191 -0.9086 -1.3605
   92MPD2     C 1430   2.271   3.250  15.898 -1.0096  0.7836  0.8004
   92MPD2    C1 1431   2.284   3.144  15.979  0.7952 -0.4727  0.2093
   92MPD2    C2 1432   2.407   3.077  15.994  0.1601  0.4169  0.2306
   92MPD2    C3 1433   2.518   3.130  15.942 -0.1962 -0.5084  0.2577
   92MPD2    C4 1434   2.494   3.232  15.847 -0.0594 -0.1855  0.5962
   92MPD2    C5 1435   2.375   3.284  15.820  0.4282  0.3784 -0.1790
   92MPD2     H 1436   2.403   2.983  16.047 -0.5967 -0.0370 -0.6167
   92MPD2    H1 1437   2.574   3.264  15.781  0.1229  0.8935  1.3406
   92MPD2    H2 1438   2.176   3.298  15.877 -0.6895  1.7883  1.6484
   92MPD2    H3 1439   2.364   3.354  15.738  2.3599 -1.9713 -2.4303
   92MPD2     N 1440   2.642   3.066  15.968 -0.5196  0.0855 -0.3563
   92MPD2    H5 1441   2.651   2.980  16.022 -2.2336 -0.5720 -1.1154
   92MPD2    N1 1442   2.170   3.099  16.051  0.4675 -0.0857 -0.2310
   92MPD2    H7 1443   2.188   3.037  16.129  1.0961  0.4787  0.0701
   93TMC2    C1 1444   3.919   3.519  13.526 -0.7942  0.3488  0.0806
   93TMC2    C2 1445   3.836   3.581  13.438  0.1863  0.7563  0.3170
   93TMC2    C3 1446   3.890   3.680  13.358 -0.2893  0.0306 -0.3476
   93TMC2    C4 1447   4.039   3.573  13.557  0.2767 -0.1135 -0.1238
   93TMC2    C5 1448   4.089   3.671  13.479  0.8784  0.3898  0.0380
   93TMC2    C6 1449   4.018   3.728  13.378  0.3922  0.1142  0.2369
   93TMC2     C 1450   3.902   3.376  13.563  0.4264  1.0523  0.0597
   93TMC2     O 1451   3.995   3.313  13.613 -0.3211  0.5882  0.3219
   93TMC2     H 1452   3.732   3.554  13.428  0.8826 -1.1167 -2.0711
   93TMC2    H1 1453   4.098   3.536  13.640 -0.2240 -0.6930 -0.0303
   93TMC2    H2 1454   4.056   3.806  13.313  2.5627  0.8603  2.4283
   93TMC2    C7 1455   4.219   3.734  13.515  0.7433  0.1582 -0.2435
   93TMC2    C8 1456   3.824   3.711  13.231 -0.5211  1.3307  0.1215
   93TMC2    O1 1457   4.282   3.679  13.606 -0.6585 -0.2700  0.6345
   93TMC2    O2 1458   3.759   3.619  13.180 -0.3812 -0.5077 -0.5246
   93TMC2    O5 1459   3.872   3.806  13.158  0.8281 -0.0970 -0.1295
   93TMC2    H5 1460   3.951   3.852  13.193 -1.2293  1.4732  2.4541
   94MPD2     C 1461   3.819   3.092  13.608  0.8344  0.0109 -0.6107
   94MPD2    C1 1462   3.741   3.190  13.549 -0.0369 -0.3836  0.0309
   94MPD2    C2 1463   3.617   3.149  13.499 -0.5713  0.1674  0.0933
   94MPD2    C3 1464   3.573   3.015  13.490 -0.1307  0.1333 -0.2803
   94MPD2    C4 1465   3.663   2.920  13.534  0.5143 -0.4870 -0.9393
   94MPD2    C5 1466   3.779   2.962  13.602 -0.3869  0.5564  0.8103
   94MPD2     H 1467   3.556   3.227  13.454  1.0097  0.1353 -2.0530
   94MPD2    H1 1468   3.653   2.813  13.524 -3.5617 -0.2421  0.4304
   94MPD2    H2 1469   3.921   3.105  13.643  0.9442 -1.5825 -0.3395
   94MPD2    H3 1470   3.854   2.889  13.629  0.8003  1.2884 -0.4467
   94MPD2     N 1471   3.453   2.987  13.423 -0.4793  0.5567 -0.7984
   94MPD2    H5 1472   3.399   3.064  13.386 -0.1383  0.3677 -1.7057
   94MPD2    N1 1473   3.777   3.330  13.535 -0.2292  0.0609  0.2207
   94MPD2    H7 1474   3.707   3.397  13.507  0.4830 -0.4343 -2.8105
   95TMC2    C1 1475   3.989   0.033  16.115 -0.2494  0.4942 -0.2053
   95TMC2    C2 1476   3.979   0.126  16.221  0.0774  0.0482  0.3615
   95TMC2    C3 1477   3.947   0.076  16.347  0.7867  0.4864  0.6092
   95TMC2    C4 1478   3.965   4.638  16.133 -0.8784  0.4635  0.3131
   95TMC2    C5 1479   3.944   4.598  16.262  0.0223  0.1608  0.3118
   95TMC2    C6 1480   3.925   4.672  16.369  0.5648  0.3981  0.0698
   95TMC2     C 1481   4.021   0.088  15.982  0.6135 -0.4844  0.0556
   95TMC2     O 1482   4.061   0.201  15.965 -0.3050  0.0057  0.2826
   95TMC2     H 1483   3.996   0.231  16.204  0.9099 -0.0438  0.6362
   95TMC2    H1 1484   3.982   4.563  16.056  2.0511  0.6774  0.7739
   95TMC2    H2 1485   3.910   4.635  16.470  1.1120  0.7558  0.2828
   95TMC2    C7 1486   3.933   4.452  16.281  0.6218  0.5704 -0.1495
   95TMC2    C8 1487   4.008   0.153  16.458 -0.4147  0.1077 -0.1169
   95TMC2    O1 1488   3.906   4.385  16.181 -1.4527  0.1268  0.0412
   95TMC2    O2 1489   4.041   0.085  16.556  0.1978 -0.6007 -0.5113
   95TMC2    O5 1490   4.084   0.252  16.405  0.2418  0.2157  0.2918
   95TMC2    H5 1491   4.023   0.309  16.353  0.7484 -1.3933 -2.0857
   96MPD2     C 1492   4.103   4.718  15.475  0.1202 -0.7934 -0.2851
   96MPD2    C1 1493   4.142   0.089  15.549 -0.8195 -0.4489 -0.1222
   96MPD2    C2 1494   4.106   0.100  15.682 -0.4776  0.2033 -0.1691
   96MPD2    C3 1495   4.021   0.008  15.742  0.1385 -0.1144  0.1173
   96MPD2    C4 1496   3.981   4.644  15.662  0.3923 -0.3581  0.4746
   96MPD2    C5 1497   4.018   4.627  15.537 -0.3959  0.5941  0.4933
   96MPD2     H 1498   4.140   0.184  15.742 -0.7985  0.3322 -0.1662
   96MPD2    H1 1499   3.910   4.569  15.695  1.5009 -1.3079  0.7242
   96MPD2    H2 1500   4.139   4.687  15.377  0.8461  0.8253 -0.5338
   96MPD2    H3 1501   3.982   4.544  15.478  0.9445  1.7917 -2.0139
   96MPD2     N 1502   3.987   4.734  15.877  0.0801 -0.2716  0.0453
   96MPD2    H5 1503   3.938   4.649  15.901  0.9924 -0.7640  0.1449
   96MPD2    N1 1504   4.242   0.174  15.496  0.1144 -0.3107 -0.1545
   96MPD2    H7 1505   4.251   0.156  15.396 -0.8882 -1.0747 -0.1116
   97TMC2    C1 1506   2.435   2.828   0.854  0.3070 -0.4962  0.0665
   97TMC2    C2 1507   2.558   2.852   0.912  1.0624 -0.0601  0.1607
   97TMC2    C3 1508   2.623   2.965   0.864 -0.0075 -0.7204 -0.2751
   97TMC2    C4 1509   2.378   2.917   0.769  0.0379 -0.2553 -0.0601
   97TMC2    C5 1510   2.444   3.026   0.723 -0.0081 -0.3588  0.3966
   97TMC2    C6 1511   2.565   3.055   0.777  0.1258 -0.1283 -0.1864
   97TMC2     C 1512   2.367   2.698   0.865 -0.2448  0.0925 -0.2876
   97TMC2     O 1513   2.246   2.692   0.847  0.5839  0.2681 -0.5721
   97TMC2     H 1514   2.607   2.788   0.984  3.2520 -0.1706 -1.4206
   97TMC2    H1 1515   2.277   2.900   0.734 -0.7025  2.2724  0.8720
   97TMC2    H2 1516   2.622   3.144   0.755  2.0697 -0.5699  2.9618
   97TMC2    C7 1517   2.395   3.103   0.606  0.5392  0.4791 -0.1013
   97TMC2    C8 1518   2.754   2.997   0.931 -0.5624 -0.3484 -0.2555
   97TMC2    O1 1519   2.481   3.164   0.544  0.0856 -0.1550  0.0601
   97TMC2    O2 1520   2.775   2.964   1.046 -0.2573  0.4838  0.4347
   97TMC2    O5 1521   2.840   3.007   0.830 -0.3526  0.3946  0.6188
   97TMC2    H5 1522   2.807   3.010   0.738  1.3615 -0.4898 -0.0161
   98MPD2     C 1523   2.397   2.190   0.917 -0.1996  0.3941  0.0529
   98MPD2    C1 1524   2.289   2.275   0.945  0.2688 -0.7132  0.1592
   98MPD2    C2 1525   2.306   2.415   0.932 -0.3998 -0.4370  0.1345
   98MPD2    C3 1526   2.430   2.462   0.893 -0.0520  0.4090 -0.2616
   98MPD2    C4 1527   2.535   2.375   0.878  0.1341  0.1746 -0.2729
   98MPD2    C5 1528   2.518   2.236   0.877 -0.3071  0.2287 -0.0324
   98MPD2     H 1529   2.218   2.477   0.938  0.7656  1.3450 -1.3746
   98MPD2    H1 1530   2.637   2.410   0.867  0.2587  0.2326  1.0892
   98MPD2    H2 1531   2.381   2.082   0.918  0.1338  0.3283 -1.3782
   98MPD2    H3 1532   2.608   2.179   0.858 -0.6921 -0.0400 -1.0117
   98MPD2     N 1533   2.458   2.601   0.881  0.3076 -0.5339  0.2650
   98MPD2    H5 1534   2.553   2.634   0.868  0.5058 -0.5329  1.7099
   98MPD2    N1 1535   2.164   2.215   0.983  0.4373  0.1816  0.3762
   98MPD2    H7 1536   2.154   2.114   0.994  0.9872 -0.0303 -1.0265
   99TMC2    C1 1537   0.595   4.611   0.427 -0.2280  1.0123  0.2969
   99TMC2    C2 1538   0.685   4.708   0.462  0.9111 -0.3409  0.1621
   99TMC2    C3 1539   0.650   0.053   0.569 -0.0363 -0.1368  0.0263
   99TMC2    C4 1540   0.479   4.588   0.487  0.1897 -0.0250  0.1434
   99TMC2    C5 1541   0.453   4.664   0.598 -0.4546  0.2759  0.3779
   99TMC2    C6 1542   0.529   0.037   0.632 -0.3966 -0.2080  0.1285
   99TMC2     C 1543   0.622   4.542   0.303  0.1706  0.0056 -0.1213
   99TMC2     O 1544   0.692   4.599   0.221 -0.5833  0.1044 -0.1454
   99TMC2     H 1545   0.779   4.700   0.409  1.2160  0.2936  0.6064
   99TMC2    H1 1546   0.417   4.502   0.466  1.1725 -1.6179  3.7836
   99TMC2    H2 1547   0.504   0.090   0.723  1.8570 -0.6375  0.9915
   99TMC2    C7 1548   0.329   4.652   0.669 -0.1114 -0.2515 -0.0602
   99TMC2    C8 1549   0.764   0.109   0.640 -0.7499  0.4051 -0.6855
   99TMC2    O1 1550   0.289   0.012   0.734  0.3046  0.1316  0.4298
   99TMC2    O2 1551   0.752   0.128   0.760  0.1038 -0.2300  0.2909
   99TMC2    O5 1552   0.865   0.145   0.564  0.1300  0.5073  0.3061
   99TMC2    H5 1553   0.846   0.127   0.470  0.1034  3.0639 -0.1818
  100MPD2     C 1554   0.752   4.341   0.134 -0.4496  0.7334  0.1470
  100MPD2    C1 1555   0.631   4.315   0.197 -0.6874  0.4451 -0.2848
  100MPD2    C2 1556   0.557   4.198   0.166  0.0363 -0.0800 -0.0096
  100MPD2    C3 1557   0.610   4.111   0.075  0.2809 -0.1717 -0.1736
  100MPD2    C4 1558   0.735   4.133   0.020  0.3475  0.1784  0.0026
  100MPD2    C5 1559   0.804   4.255   0.043  0.1098  0.3956 -0.0477
  100MPD2     H 1560   0.464   4.177   0.219  0.4669 -1.2520  0.2659
  100MPD2    H1 1561   0.777   4.087  17.676 -2.8396 -1.7878 -0.4831
  100MPD2    H2 1562   0.818   4.423   0.162 -0.2694 -0.1127  2.1891
  100MPD2    H3 1563   0.901   4.280   0.001  1.1260 -0.5440  1.7252
  100MPD2     N 1564   0.535   3.994   0.052  0.0898 -0.2695 -0.2954
  100MPD2    H5 1565   0.443   3.988   0.093  1.0048 -1.2778  1.6230
  100MPD2    N1 1566   0.582   4.412   0.298 -0.4073  0.0818  0.4542
  100MPD2    H7 1567   0.514   4.380   0.367 -1.1137 -0.5425 -0.5224
  101TMC2    C1 1568   0.789   1.085  12.418 -0.2824 -0.2461  0.1207
  101TMC2    C2 1569   0.826   1.075  12.285 -0.0155  0.1892 -0.6295
  101TMC2    C3 1570   0.857   1.193  12.222 -0.0372 -0.2300  0.2410
  101TMC2    C4 1571   0.767   1.211  12.479  0.2295  0.0680 -0.1525
  101TMC2    C5 1572   0.791   1.319  12.404  0.1182  0.7340 -0.2533
  101TMC2    C6 1573   0.841   1.317  12.281 -0.2671 -0.5892 -0.0259
  101TMC2     C 1574   0.788   0.974  12.509  0.8490  0.4972 -0.1636
  101TMC2     O 1575   0.734   0.995  12.616 -0.5136 -0.2577  0.0572
  101TMC2     H 1576   0.818   0.973  12.249  2.9247 -0.0630 -0.6427
  101TMC2    H1 1577   0.736   1.228  12.582  0.0735  0.1211 -0.2089
  101TMC2    H2 1578   0.844   1.409  12.223  0.1633  0.1861  1.2167
  101TMC2    C7 1579   0.816   1.441  12.482  0.4976 -0.6570 -0.3883
  101TMC2    C8 1580   0.840   1.189  12.079 -0.3909 -0.6053  0.4541
  101TMC2    O1 1581   0.758   1.447  12.588  1.0668  0.2868 -0.3337
  101TMC2    O2 1582   0.794   1.085  12.029  0.1033  0.5401 -0.4533
  101TMC2    O5 1583   0.957   1.242  12.041  0.5033  0.2759 -0.2562
  101TMC2    H5 1584   0.976   1.333  12.070  1.6043 -0.4870  1.4604
  102MPD2     C 1585   0.951   0.626  12.497 -0.1292 -0.4052  0.0676
  102MPD2    C1 1586   0.864   0.731  12.541  0.8225  0.0204  0.3320
  102MPD2    C2 1587   0.810   0.716  12.666 -0.6752  0.7119  0.0385
  102MPD2    C3 1588   0.806   0.595  12.732 -0.4051  0.1725 -0.0107
  102MPD2    C4 1589   0.886   0.490  12.687 -0.0649 -0.0007  0.4849
  102MPD2    C5 1590   0.960   0.508  12.575  0.4120 -0.0085  0.2919
  102MPD2     H 1591   0.758   0.800  12.712  1.1617  1.7566  0.1936
  102MPD2    H1 1592   0.903   0.394  12.735 -1.1606 -0.1695  0.5560
  102MPD2    H2 1593   1.006   0.633  12.403  0.5979 -0.3245  0.5015
  102MPD2    H3 1594   1.027   0.428  12.545 -0.3109 -0.1647 -0.9064
  102MPD2     N 1595   0.732   0.582  12.847  0.0782  0.0992 -0.1175
  102MPD2    H5 1596   0.677   0.658  12.887 -0.4912 -0.0073 -0.6997
  102MPD2    N1 1597   0.848   0.853  12.465 -0.0733  0.0922 -0.1357
  102MPD2    H7 1598   0.899   0.862  12.378  2.1878 -1.2152  1.0444
  103TMC2    C1 1599   3.562   0.817  12.988 -1.4295  0.1540 -0.2852
  103TMC2    C2 1600   3.483   0.706  13.015  0.0566 -0.2414 -0.6256
  103TMC2    C3 1601   3.432   0.679  13.134 -0.0588 -0.8705 -0.1839
  103TMC2    C4 1602   3.598   0.906  13.084  0.4745 -0.8221 -0.3161
  103TMC2    C5 1603   3.549   0.869  13.207  0.7885  0.6578  0.5787
  103TMC2    C6 1604   3.471   0.756  13.238  0.0061  0.4467 -0.3938
  103TMC2     C 1605   3.554   0.858  12.844  0.5993  0.0941  0.1189
  103TMC2     O 1606   3.464   0.803  12.782  0.5183 -0.5449  0.2559
  103TMC2     H 1607   3.462   0.633  12.938  0.0825  0.9148 -1.7364
  103TMC2    H1 1608   3.648   1.000  13.064 -1.3122 -0.0085 -1.0315
  103TMC2    H2 1609   3.439   0.731  13.339  0.1796 -0.8586 -0.6687
  103TMC2    C7 1610   3.630   0.912  13.316  0.0790 -0.5641  0.0952
  103TMC2    C8 1611   3.375   0.546  13.159 -0.1441 -0.7131  0.5706
  103TMC2    O1 1612   3.652   0.834  13.413 -0.3201  0.3765 -0.2544
  103TMC2    O2 1613   3.364   0.461  13.073 -0.0763  0.0318  0.4626
  103TMC2    O5 1614   3.280   0.571  13.250  0.1260  0.6932  0.1637
  103TMC2    H5 1615   3.298   0.648  13.309  0.1746  1.0456 -0.3186
  104MPD2     C 1616   3.747   1.112  12.666 -0.8134  1.0999 -0.0983
  104MPD2    C1 1617   3.639   1.029  12.685  0.0775 -0.3678 -0.1571
  104MPD2    C2 1618   3.551   1.008  12.581  0.2138 -0.2407  0.5121
  104MPD2    C3 1619   3.554   1.078  12.464 -0.0607 -0.0334  1.1277
  104MPD2    C4 1620   3.654   1.175  12.458  0.1629 -0.2892 -0.2560
  104MPD2    C5 1621   3.749   1.194  12.554 -0.1516 -0.0318 -0.0988
  104MPD2     H 1622   3.472   0.936  12.600  1.0984 -1.6048 -1.0113
  104MPD2    H1 1623   3.662   1.237  12.370 -0.0677  0.9538  0.5930
  104MPD2    H2 1624   3.825   1.128  12.739  0.0877 -1.7291 -0.4151
  104MPD2    H3 1625   3.819   1.276  12.540  0.1478  0.0232  1.7123
  104MPD2     N 1626   3.448   1.066  12.363  0.1645  0.6057  0.0656
  104MPD2    H5 1627   3.379   0.994  12.380  0.9747  0.2352  1.8182
  104MPD2    N1 1628   3.641   0.957  12.807  0.4510 -0.0505  0.1323
  104MPD2    H7 1629   3.713   0.993  12.869 -0.0117  1.6855 -0.3313
  105TMC2    C1 1630   0.651   4.364  17.431 -0.4737 -0.1829  0.1172
  105TMC2    C2 1631   0.679   4.242  17.366 -0.7817 -0.8588  0.0777
  105TMC2    C3 1632   0.585   4.146  17.385  0.0052 -1.0145 -0.1043
  105TMC2    C4 1633   0.547   4.395  17.515  0.1647  0.7008 -0.4306
  105TMC2    C5 1634   0.459   4.294  17.533 -0.0253 -0.6077 -0.0706
  105TMC2    C6 1635   0.476   4.175  17.464  0.5981  0.2921  0.2416
  105TMC2     C 1636   0.744   4.466  17.399 -0.6861 -0.7220 -1.0082
  105TMC2     O 1637   0.859   4.427  17.381  0.2415  0.2011 -0.3050
  105TMC2     H 1638   0.765   4.222  17.304 -0.2482 -1.2470  0.9492
  105TMC2    H1 1639   0.543   4.494  17.559 -1.5253  0.3034  0.2747
  105TMC2    H2 1640   0.405   4.094  17.476  2.7776 -1.5831  0.5011
  105TMC2    C7 1641   0.351   4.305  17.625 -0.0208 -0.1180  0.3701
  105TMC2    C8 1642   0.597   4.017  17.327 -0.2699 -0.0313 -0.5602
  105TMC2    O1 1643   0.283   4.204  17.649  0.0860  0.0535  0.1018
  105TMC2    O2 1644   0.497   3.945  17.317 -0.9816  0.6313 -0.3341
  105TMC2    O5 1645   0.723   3.985  17.359  0.2603 -0.7712 -0.2930
  105TMC2    H5 1646   0.787   4.059  17.371 -0.6540  0.0086 -0.2843
  106MPD2     C 1647   0.919   0.184  17.318  0.3160  0.0958 -0.6745
  106MPD2    C1 1648   0.784   0.188  17.288  0.2207 -0.3432 -0.1748
  106MPD2    C2 1649   0.709   0.078  17.331 -0.5612  0.0994  0.1083
  106MPD2    C3 1650   0.771   4.708  17.397  0.1930 -0.1501 -0.1119
  106MPD2    C4 1651   0.906   4.715  17.442 -0.1140 -0.7167  0.1214
  106MPD2    C5 1652   0.979   0.077  17.388  0.0253  0.2845 -0.0428
  106MPD2     H 1653   0.603   0.076  17.310 -0.6953  0.6589  0.7224
  106MPD2    H1 1654   0.964   4.645  17.500 -2.2111 -1.8797  0.7891
  106MPD2    H2 1655   0.986   0.261  17.281 -0.6605  1.0552 -0.4387
  106MPD2    H3 1656   1.085   0.084  17.412  0.2016 -1.7080 -0.2339
  106MPD2     N 1657   0.691   4.589  17.409 -0.8817  1.6992  0.0996
  106MPD2    H5 1658   0.591   4.602  17.397 -1.0917 -0.7534 -0.6760
  106MPD2    N1 1659   0.726   0.277  17.207 -0.8201  0.2824 -0.2526
  106MPD2    H7 1660   0.629   0.258  17.182 -0.9934  1.1844 -0.2610
  107TMC2    C1 1661   1.449   0.209  11.453  0.2519 -0.1115  0.1167
  107TMC2    C2 1662   1.483   0.321  11.508 -0.1414  0.8588 -0.1595
  107TMC2    C3 1663   1.464   0.437  11.430 -0.2291  0.0011  0.1022
  107TMC2    C4 1664   1.419   0.202  11.322 -0.8141 -0.9900 -0.4774
  107TMC2    C5 1665   1.406   0.317  11.248  0.5140 -0.4279 -1.0667
  107TMC2    C6 1666   1.427   0.438  11.297 -0.2467  0.1179 -0.5389
  107TMC2     C 1667   1.375   0.107  11.531 -0.2638 -0.8714 -0.2870
  107TMC2     O 1668   1.283   0.042  11.485  0.6372  0.3398  0.1192
  107TMC2     H 1669   1.504   0.337  11.613  0.7230 -0.1634 -0.1758
  107TMC2    H1 1670   1.390   0.105  11.284 -0.3103 -1.3112 -0.0329
  107TMC2    H2 1671   1.406   0.526  11.236 -0.0070  0.3959 -0.2181
  107TMC2    C7 1672   1.429   0.312  11.104 -0.2053  0.5402 -0.0125
  107TMC2    C8 1673   1.446   0.564  11.495  0.2708  0.1553  0.5318
  107TMC2    O1 1674   1.429   0.416  11.045 -0.4791  0.4726 -0.1140
  107TMC2    O2 1675   1.456   0.574  11.615  0.8131 -0.4471 -0.3771
  107TMC2    O5 1676   1.509   0.652  11.419 -0.2727  0.0887  0.1352
  107TMC2    H5 1677   1.505   0.626  11.324  1.6231  0.2263  0.0040
  108MPD2     C 1678   1.447   4.736  11.871  0.0001 -0.7019  0.4190
  108MPD2    C1 1679   1.364   0.014  11.764  0.3936 -0.2535  0.3627
  108MPD2    C2 1680   1.233   4.710  11.765  0.4140  0.4074 -0.4556
  108MPD2    C3 1681   1.181   4.654  11.881  0.3214  0.6381 -0.1322
  108MPD2    C4 1682   1.266   4.640  11.991 -0.0478 -0.3251 -0.1600
  108MPD2    C5 1683   1.400   4.679  11.984  0.0187  0.3134  0.5494
  108MPD2     H 1684   1.172   4.725  11.677  2.6849  0.2711 -2.0510
  108MPD2    H1 1685   1.226   4.614  12.088 -0.8729 -1.7893 -0.8822
  108MPD2    H2 1686   1.552   0.024  11.859 -0.1170 -0.2947  0.2235
  108MPD2    H3 1687   1.467   4.678  12.069 -1.1513 -2.5598  1.4463
  108MPD2     N 1688   1.043   4.643  11.904  0.0611  0.5917  0.6776
  108MPD2    H5 1689   1.017   4.618  11.999 -0.1698  2.3615  1.0836
  108MPD2    N1 1690   1.424   0.089  11.659  0.3160  0.1592  0.6028
  108MPD2    H7 1691   1.513   0.134  11.677  0.0068  1.2456 -0.5478
  109TMC2    C1 1692   1.539   1.493   0.101 -0.2676 -0.8795 -0.5567
  109TMC2    C2 1693   1.621   1.559   0.013  0.4780  0.0575 -0.2295
  109TMC2    C3 1694   1.739   1.610   0.062 -0.3498  0.0110  0.0145
  109TMC2    C4 1695   1.567   1.482   0.233 -0.2872 -0.7079 -0.0052
  109TMC2    C5 1696   1.687   1.547   0.277  0.3850 -0.2321 -0.5379
  109TMC2    C6 1697   1.774   1.611   0.193  0.2330 -0.1899 -0.2735
  109TMC2     C 1698   1.408   1.464   0.040 -0.0637 -0.6273 -0.0677
  109TMC2     O 1699   1.395   1.475  17.663 -0.5011  0.2054  0.5451
  109TMC2     H 1700   1.594   1.571  17.654  0.2377 -2.4614 -0.4715
  109TMC2    H1 1701   1.507   1.417   0.295  0.6664 -2.3108 -0.7606
  109TMC2    H2 1702   1.861   1.664   0.232  1.1789 -1.6157 -0.4399
  109TMC2    C7 1703   1.704   1.583   0.408 -0.4160  0.8531  0.0592
  109TMC2    C8 1704   1.835   1.668  17.721 -0.1077  0.4915  0.6275
  109TMC2    O1 1705   1.818   1.614   0.445  0.1413  0.1435 -0.8162
  109TMC2    O2 1706   1.913   1.755   0.012 -0.0775  0.0861 -0.5069
  109TMC2    O5 1707   1.808   1.638  17.589 -0.0120  0.2434  0.2271
  109TMC2    H5 1708   1.761   1.558  17.558 -0.1292 -0.3715  1.9979
  110MPD2     C 1709   0.923   1.309   0.066 -0.6657  0.0639 -0.1342
  110MPD2    C1 1710   0.966   1.356   0.193 -0.0869  0.3447  0.0123
  110MPD2    C2 1711   1.097   1.395   0.210 -0.0385  0.2989 -0.0067
  110MPD2    C3 1712   1.178   1.400   0.101 -0.7927  0.5482  0.1815
  110MPD2    C4 1713   1.140   1.370  17.723  0.2709 -0.7768  0.8542
  110MPD2    C5 1714   1.014   1.320  17.706 -0.4057 -0.2051  0.0154
  110MPD2     H 1715   1.128   1.440   0.304  0.1716  0.1941 -0.0267
  110MPD2    H1 1716   1.208   1.363  17.639  0.0095 -1.4920  0.7086
  110MPD2    H2 1717   0.830   1.258   0.046 -0.9882  1.4657 -2.2253
  110MPD2    H3 1718   0.992   1.265  17.615 -1.4603  0.0528  0.1114
  110MPD2     N 1719   1.311   1.444   0.129 -0.4589  0.3387 -0.0611
  110MPD2    H5 1720   1.328   1.478   0.224 -0.8785  1.0810 -0.2458
  110MPD2    N1 1721   0.872   1.344   0.304  0.9271 -0.9441  0.0690
  110MPD2    H7 1722   0.775   1.327   0.280  0.2881  2.0542  0.4712
  111TMC2    C1 1723   1.811   2.251  11.296 -0.5103  0.3679 -0.2654
  111TMC2    C2 1724   1.937   2.213  11.255 -1.2869  0.6177  0.1541
  111TMC2    C3 1725   2.023   2.195  11.354  0.6581  0.1315 -0.1887
  111TMC2    C4 1726   1.783   2.279  11.425  0.6439 -0.1750 -0.0515
  111TMC2    C5 1727   1.885   2.279  11.524  0.3168 -0.8162  0.3559
  111TMC2    C6 1728   2.001   2.228  11.489 -0.1103 -0.8792 -0.5704
  111TMC2     C 1729   1.695   2.215  11.210 -0.1137 -0.1479 -0.3278
  111TMC2     O 1730   1.713   2.185  11.091 -0.4101 -0.8566  0.2681
  111TMC2     H 1731   1.953   2.192  11.150 -0.1155  1.9004  0.0718
  111TMC2    H1 1732   1.685   2.306  11.461  0.5601  0.0716 -0.4762
  111TMC2    H2 1733   2.088   2.212  11.552  1.1067  3.5562 -1.1500
  111TMC2    C7 1734   1.835   2.276  11.659  0.5240  0.1052 -0.2575
  111TMC2    C8 1735   2.156   2.175  11.312  0.0290  0.0974  0.4626
  111TMC2    O1 1736   1.921   2.245  11.747 -0.6724  0.2000 -0.3282
  111TMC2    O2 1737   2.255   2.225  11.371 -0.3516 -0.0317  0.3212
  111TMC2    O5 1738   2.161   2.063  11.239 -0.0387  0.1837  0.4225
  111TMC2    H5 1739   2.080   2.010  11.223  0.1308  0.6955 -2.1305
  112MPD2     C 1740   1.196   2.083  11.167 -0.2631 -0.2285  0.6809
  112MPD2    C1 1741   1.288   2.120  11.071 -0.8771  0.0618 -0.1613
  112MPD2    C2 1742   1.419   2.147  11.107 -0.2534 -0.7510 -0.5482
  112MPD2    C3 1743   1.459   2.148  11.237  0.0066 -0.2995 -0.2716
  112MPD2    C4 1744   1.370   2.114  11.337  0.0513  0.2911 -0.2304
  112MPD2    C5 1745   1.241   2.084  11.298  0.4255  0.3272  0.3148
  112MPD2     H 1746   1.486   2.178  11.027 -1.2196  0.5903 -0.8291
  112MPD2    H1 1747   1.394   2.097  11.441 -1.3211  1.6934  0.3159
  112MPD2    H2 1748   1.093   2.056  11.147 -0.0053 -1.0412  0.4512
  112MPD2    H3 1749   1.176   2.049  11.377 -0.6543 -2.3887 -1.7677
  112MPD2     N 1750   1.587   2.186  11.287  0.1896  0.0866  0.9472
  112MPD2    H5 1751   1.592   2.182  11.388 -1.4053  2.3821  1.1101
  112MPD2    N1 1752   1.253   2.130  10.933 -0.0201 -0.2597 -0.6746
  112MPD2    H7 1753   1.325   2.156  10.867 -0.1388 -0.8902 -1.0617
  113TMC2    C1 1754   3.921   4.311   0.300 -0.5483  0.0003 -0.4134
  113TMC2    C2 1755   3.817   4.328   0.389  1.0947  0.1221 -0.5268
  113TMC2    C3 1756   3.719   4.230   0.394  0.3944 -0.2619 -0.2713
  113TMC2    C4 1757   3.919   4.202   0.224  0.4100 -0.1106  0.2953
  113TMC2    C5 1758   3.816   4.115   0.225 -0.8876 -0.4491  0.4647
  113TMC2    C6 1759   3.715   4.115   0.319  0.3037  0.2518 -0.5880
  113TMC2     C 1760   4.042   4.385   0.340  0.2877 -0.2326  0.4527
  113TMC2     O 1761   4.015   4.493   0.394  0.0938 -0.6695 -0.2427
  113TMC2     H 1762   3.825   4.392   0.475 -2.8551  0.2727 -0.2447
  113TMC2    H1 1763   3.997   4.188   0.151  0.1924  2.8761 -0.5426
  113TMC2    H2 1764   3.627   4.052   0.313 -0.1942  1.1534 -2.7910
  113TMC2    C7 1765   3.800   4.036   0.109  0.1899 -0.3170 -0.1355
  113TMC2    C8 1766   3.643   4.217   0.514  0.3898 -0.1214  0.1072
  113TMC2    O1 1767   3.831   4.074  17.742  0.3910 -0.1961 -0.5097
  113TMC2    O2 1768   3.626   4.318   0.584 -0.0875 -0.3822  0.0841
  113TMC2    O5 1769   3.646   4.088   0.550  0.0788  0.1860  0.0063
  113TMC2    H5 1770   3.688   4.026   0.487  0.2017  1.5738 -1.2968
  114MPD2     C 1771   4.541   4.499   0.348  0.3079 -0.3441  0.0537
  114MPD2    C1 1772   4.437   4.547   0.417  0.1059  0.8334  0.0745
  114MPD2    C2 1773   4.310   4.492   0.405 -0.3193 -0.2684 -0.2646
  114MPD2    C3 1774   4.289   4.382   0.322  0.2128 -0.1652  0.0195
  114MPD2    C4 1775   4.398   4.326   0.255  0.4495 -0.0152  1.1164
  114MPD2    C5 1776   4.517   4.390   0.274 -0.1965  0.4805  0.0167
  114MPD2     H 1777   4.231   4.528   0.470  1.3965  0.9702  1.1292
  114MPD2    H1 1778   4.399   4.230   0.205  1.8978  1.1372 -1.0731
  114MPD2    H2 1779   4.644   4.527   0.366  0.0141  1.1249 -0.5407
  114MPD2    H3 1780   4.609   4.359   0.226 -1.5139 -2.0426 -0.8212
  114MPD2     N 1781   4.161   4.334   0.295 -0.2718 -0.4099 -0.2746
  114MPD2    H5 1782   4.157   4.244   0.247  0.1435 -0.1772 -0.7415
  114MPD2    N1 1783   4.449   4.644   0.518 -0.2678  0.1899 -0.6409
  114MPD2    H7 1784   4.371   4.659   0.581 -0.3792  2.8453 -1.4248
  115TMC2    C1 1785   4.674   2.175  17.629 -0.4648  0.1986 -1.0521
  115TMC2    C2 1786   0.060   2.182  17.674 -0.2300  0.1056  0.4885
  115TMC2    C3 1787   0.142   2.292  17.655  0.0486 -0.4361  0.3013
  115TMC2    C4 1788   4.612   2.290  17.588  0.5881  0.3135  0.4476
  115TMC2    C5 1789   4.687   2.401  17.577  1.1457  0.2095  0.2653
  115TMC2    C6 1790   0.084   2.408  17.619 -0.5987  0.6533 -0.2517
  115TMC2     C 1791   4.612   2.043  17.626  0.0593 -0.5928 -0.4136
  115TMC2     O 1792   4.682   1.943  17.640  0.5154 -0.5895  0.3949
  115TMC2     H 1793   0.107   2.096  17.722 -1.0422 -0.5062  0.1971
  115TMC2    H1 1794   4.512   2.294  17.547  0.6388  1.9117  0.4780
  115TMC2    H2 1795   0.140   2.501  17.620  1.5848 -0.6279 -0.9427
  115TMC2    C7 1796   4.607   2.527  17.572  0.0409  0.0578  0.9531
  115TMC2    C8 1797   0.256   2.307  17.745 -0.3591  0.2052 -0.2515
  115TMC2    O1 1798   4.488   2.518  17.598 -0.2194 -0.6691 -0.1099
  115TMC2    O2 1799   0.292   2.424   0.024  0.0319 -0.4990  0.1191
  115TMC2    O5 1800   0.327   2.192   0.015 -0.0479 -0.2934  0.5249
  115TMC2    H5 1801   0.294   2.115  17.710 -1.8513  0.7224  0.1614
  116MPD2     C 1802   4.213   1.763  17.486  0.6589  0.6771  0.3491
  116MPD2    C1 1803   4.344   1.728  17.476 -0.5841 -0.3148  0.2487
  116MPD2    C2 1804   4.438   1.819  17.527  0.2470  0.0391 -0.2420
  116MPD2    C3 1805   4.396   1.941  17.580  0.7825 -0.2251 -0.7631
  116MPD2    C4 1806   4.262   1.968  17.591  0.6426  0.6262  0.0011
  116MPD2    C5 1807   4.165   1.885  17.535 -0.7815  0.2891 -0.5195
  116MPD2     H 1808   4.546   1.810  17.517  0.4038 -0.7237  2.1803
  116MPD2    H1 1809   4.222   2.056  17.640 -1.5426  0.1058 -0.8592
  116MPD2    H2 1810   4.137   1.702  17.437  1.7350  0.2035 -0.7298
  116MPD2    H3 1811   4.058   1.906  17.541 -0.1712  2.7236  2.1157
  116MPD2     N 1812   4.478   2.048  17.616  0.2001 -0.1517 -0.5466
  116MPD2    H5 1813   4.433   2.138  17.629  3.0322  1.3886 -1.3896
  116MPD2    N1 1814   4.379   1.604  17.419  0.6742  0.3702  0.3873
  116MPD2    H7 1815   4.300   1.542  17.407  1.1538 -0.4416  1.3854
  117TMC2    C1 1816   3.935   3.177  13.982  0.2391 -0.2315  0.5267
  117TMC2    C2 1817   4.051   3.173  14.049  0.0434  0.2515 -0.1142
  117TMC2    C3 1818   4.112   3.288  14.089 -0.4011  0.0944 -0.2345
  117TMC2    C4 1819   3.891   3.298  13.935  0.2156 -1.3661  0.7166
  117TMC2    C5 1820   3.970   3.404  13.952 -0.2676  0.1592 -0.4272
  117TMC2    C6 1821   4.076   3.410  14.033 -0.1391  0.0598 -0.1785
  117TMC2     C 1822   3.855   3.054  13.975 -0.2526 -0.6641  0.8555
  117TMC2     O 1823   3.913   2.947  13.979 -0.3258 -0.3519  0.0396
  117TMC2     H 1824   4.073   3.077  14.094 -0.4005  0.5720  0.7685
  117TMC2    H1 1825   3.820   3.298  13.852  1.7672  1.3557 -0.6058
  117TMC2    H2 1826   4.144   3.493  14.048  0.0939  0.0048 -0.9233
  117TMC2    C7 1827   3.914   3.534  13.920  0.6743 -0.5805  0.9569
  117TMC2    C8 1828   4.244   3.279  14.140 -0.2668 -0.4037  0.3878
  117TMC2    O1 1829   3.986   3.626  13.882  0.3876 -0.4335  0.0853
  117TMC2    O2 1830   4.326   3.229  14.068 -0.2867 -0.0353  0.1299
  117TMC2    O5 1831   4.273   3.392  14.211 -0.1488 -0.2874  0.5964
  117TMC2    H5 1832   4.193   3.425  14.258 -1.1530  1.1764 -2.1648
  118MPD2     C 1833   3.564   3.622  13.891  0.6991 -0.2242 -0.2209
  118MPD2    C1 1834   3.702   3.642  13.907  0.0054 -0.0156  0.0451
  118MPD2    C2 1835   3.733   3.776  13.907 -0.0503 -0.1417 -0.0026
  118MPD2    C3 1836   3.647   3.881  13.884  0.4365 -0.2167  0.3711
  118MPD2    C4 1837   3.517   3.852  13.865  0.3659  0.3985 -0.6220
  118MPD2    C5 1838   3.472   3.722  13.862 -0.0047 -0.5510  0.9663
  118MPD2     H 1839   3.837   3.797  13.927  0.3266 -0.0146 -2.1780
  118MPD2    H1 1840   3.443   3.929  13.851 -1.6095 -1.4986 -0.6214
  118MPD2    H2 1841   3.529   3.521  13.907  3.5844 -1.1994  0.0322
  118MPD2    H3 1842   3.366   3.705  13.854 -0.1806 -0.3182  2.7403
  118MPD2     N 1843   3.683   4.018  13.868 -0.0871  0.0353  0.1244
  118MPD2    H5 1844   3.618   4.074  13.814  4.0617  2.6631 -2.1779
  118MPD2    N1 1845   3.784   3.529  13.941  0.6270  0.0616  0.0635
  118MPD2    H7 1846   3.735   3.446  13.971  0.0462  0.9653  1.6275
  119TMC2    C1 1847   1.875   0.284  13.504  0.6415 -0.1134  0.3277
  119TMC2    C2 1848   1.967   0.238  13.411 -0.6561 -0.1172 -0.5224
  119TMC2    C3 1849   1.923   0.137  13.330 -0.3378  0.1593  0.1457
  119TMC2    C4 1850   1.742   0.258  13.499 -0.1477  0.2458 -0.5371
  119TMC2    C5 1851   1.700   0.179  13.401 -0.3147 -1.2105 -0.5478
  119TMC2    C6 1852   1.789   0.125  13.315  0.5064  0.0662  0.0457
  119TMC2     C 1853   1.904   0.412  13.566 -0.5751 -0.8874 -0.0730
  119TMC2     O 1854   1.822   0.457  13.644 -0.2124  0.2450  0.3612
  119TMC2     H 1855   2.070   0.272  13.406 -0.2216 -1.6263 -1.6876
  119TMC2    H1 1856   1.671   0.303  13.568 -0.3000 -0.1505 -0.4346
  119TMC2    H2 1857   1.742   0.069  13.235 -1.8839  1.9588  0.1158
  119TMC2    C7 1858   1.559   0.184  13.373 -0.2690  0.0244  0.8206
  119TMC2    C8 1859   2.014   0.074  13.238  0.7926  0.2440 -0.8485
  119TMC2    O1 1860   1.528   0.152  13.260 -0.7312 -0.4583 -0.6055
  119TMC2    O2 1861   2.133   0.103  13.247 -0.5715 -0.3349  0.2456
  119TMC2    O5 1862   1.948   0.063  13.124  0.2945  1.0164  0.3925
  119TMC2    H5 1863   1.873   0.001  13.133  1.6073 -0.6129  0.1341
  120MPD2     C 1864   2.186   0.802  13.750  0.6564 -0.2346 -0.6953
  120MPD2    C1 1865   2.049   0.784  13.725  0.0425  1.2614 -0.1637
  120MPD2    C2 1866   2.008   0.680  13.652 -0.3967 -0.2744 -0.1380
  120MPD2    C3 1867   2.085   0.573  13.621  0.4890  0.2615  0.8977
  120MPD2    C4 1868   2.221   0.584  13.641  0.2208 -0.5032 -0.1339
  120MPD2    C5 1869   2.271   0.704  13.699  0.4724  0.0716  0.1016
  120MPD2     H 1870   1.905   0.677  13.621 -0.7935  2.9835  0.9027
  120MPD2    H1 1871   2.294   0.514  13.602  0.0683 -0.7466  0.0171
  120MPD2    H2 1872   2.232   0.887  13.800 -0.8756  0.8501 -1.1188
  120MPD2    H3 1873   2.375   0.715  13.727  1.2351 -1.5843 -2.0865
  120MPD2     N 1874   2.035   0.454  13.566 -0.0686  0.6040 -0.2133
  120MPD2    H5 1875   2.107   0.387  13.542 -0.9069  0.0968 -1.3405
  120MPD2    N1 1876   1.971   0.894  13.760 -0.3909 -0.1869  0.9211
  120MPD2    H7 1877   2.009   0.987  13.774 -2.5840  0.9292 -0.4991
  121TMC2    C1 1878   3.090   1.868  13.551  0.0236 -0.2383  0.5293
  121TMC2    C2 1879   3.045   1.806  13.436  0.2108  0.5991 -0.5086
  121TMC2    C3 1880   2.922   1.762  13.431  0.3613 -0.2709  0.2087
  121TMC2    C4 1881   3.016   1.869  13.659  0.2097  0.1920 -0.1374
  121TMC2    C5 1882   2.888   1.816  13.649  0.7196  0.2818  0.2891
  121TMC2    C6 1883   2.835   1.762  13.534 -0.0113  0.3059  0.1407
  121TMC2     C 1884   3.219   1.940  13.563 -0.6950 -1.0835  0.0647
  121TMC2     O 1885   3.248   1.987  13.673 -0.2051 -0.4071 -0.1940
  121TMC2     H 1886   3.108   1.798  13.349 -2.1267 -0.8377 -2.0673
  121TMC2    H1 1887   3.062   1.881  13.756  0.4966 -2.1268  0.0226
  121TMC2    H2 1888   2.734   1.724  13.533  0.4909 -1.0562  1.0566
  121TMC2    C7 1889   2.804   1.828  13.764  0.3461  0.2329  1.1659
  121TMC2    C8 1890   2.887   1.732  13.292 -0.4641  0.5584 -0.7101
  121TMC2    O1 1891   2.867   1.841  13.869  0.5904  0.2623 -0.2954
  121TMC2    O2 1892   2.968   1.739  13.199 -0.0927  0.3302  0.4383
  121TMC2    O5 1893   2.751   1.746  13.283  0.0565  0.6753  0.2822
  121TMC2    H5 1894   2.709   1.732  13.371  1.4951 -0.8998  0.7218
  122MPD2     C 1895   3.494   2.063  13.523 -0.4580  0.1582 -0.1384
  122MPD2    C1 1896   3.400   2.049  13.418  0.3531 -0.2497  0.3478
  122MPD2    C2 1897   3.425   2.102  13.290  0.5626 -0.0727 -0.4899
  122MPD2    C3 1898   3.539   2.172  13.271  0.1017 -0.2144  1.3818
  122MPD2    C4 1899   3.632   2.192  13.375  0.0829 -0.3196  0.9990
  122MPD2    C5 1900   3.612   2.130  13.493  0.2260  0.1309 -0.2394
  122MPD2     H 1901   3.349   2.086  13.214  0.5695 -0.4141 -0.4268
  122MPD2    H1 1902   3.723   2.246  13.352  1.9831 -2.9988  2.3014
  122MPD2    H2 1903   3.494   2.018  13.621 -0.1402 -1.5756 -0.9357
  122MPD2    H3 1904   3.685   2.148  13.571  0.8329  1.6746 -1.1526
  122MPD2     N 1905   3.569   2.235  13.150  0.1388 -0.7194 -0.5832
  122MPD2    H5 1906   3.650   2.296  13.148 -0.8859  0.6528 -0.2160
  122MPD2    N1 1907   3.273   1.979  13.443 -0.2022  0.4613  0.4099
  122MPD2    H7 1908   3.219   1.960  13.359  1.1618 -1.6543  0.0051
  123TMC2    C1 1909   1.276   0.881  10.432 -0.3700 -0.7179 -0.2456
  123TMC2    C2 1910   1.233   1.004  10.383  0.1629  0.8885  0.4320
  123TMC2    C3 1911   1.276   1.029  10.254 -0.9408  0.0025  1.2306
  123TMC2    C4 1912   1.355   0.791  10.363 -0.2276 -0.2368 -0.0609
  123TMC2    C5 1913   1.407   0.832  10.243  0.3909  0.3029  0.2334
  123TMC2    C6 1914   1.361   0.948  10.183  0.2492  0.5762 -0.2010
  123TMC2     C 1915   1.212   0.835  10.560 -0.1879 -1.2236  0.6512
  123TMC2     O 1916   1.147   0.912  10.629  0.2143 -0.3705  0.6142
  123TMC2     H 1917   1.154   1.066  10.422 -0.9845 -0.3371  0.0827
  123TMC2    H1 1918   1.396   0.699  10.404 -1.3021 -0.5883  0.2162
  123TMC2    H2 1919   1.384   0.994  10.088 -1.9888  2.1183 -0.0041
  123TMC2    C7 1920   1.463   0.719  10.174 -0.0082 -0.2764  0.0248
  123TMC2    C8 1921   1.212   1.136  10.177 -0.3115  0.2479 -0.6850
  123TMC2    O1 1922   1.431   0.606  10.212  0.1285 -0.3484  0.3131
  123TMC2    O2 1923   1.196   1.121  10.057 -0.4545  0.2022  0.5581
  123TMC2    O5 1924   1.208   1.257  10.239  0.0272  0.3094  0.3242
  123TMC2    H5 1925   1.252   1.261  10.326  0.1353  0.7997  0.2479
  124MPD2     C 1926   1.101   0.407  10.845  0.0910  0.6280 -0.0282
  124MPD2    C1 1927   1.177   0.372  10.734  1.0042  0.4333  0.4637
  124MPD2    C2 1928   1.231   0.478  10.654 -0.3787  0.2741 -0.1203
  124MPD2    C3 1929   1.194   0.607  10.678  0.7940  0.9253  1.1500
  124MPD2    C4 1930   1.102   0.640  10.778 -0.3631 -0.4911  0.4349
  124MPD2    C5 1931   1.077   0.539  10.866  0.6926 -0.2710  0.0040
  124MPD2     H 1932   1.285   0.457  10.562 -0.7267  1.3601 -0.5621
  124MPD2    H1 1933   1.047   0.732  10.788  0.8044  0.2423  0.0982
  124MPD2    H2 1934   1.069   0.333  10.918  2.6370  1.2937  1.7695
  124MPD2    H3 1935   1.013   0.561  10.951  0.7045  1.2963 -0.3979
  124MPD2     N 1936   1.228   0.699  10.576 -0.3836 -0.5683 -0.0700
  124MPD2    H5 1937   1.289   0.658  10.506 -1.1845 -1.9712  0.0515
  124MPD2    N1 1938   1.194   0.233  10.708  0.3083 -0.6147 -0.3198
  124MPD2    H7 1939   1.181   0.172  10.788  0.8916  1.6882  1.5485
  125TMC2    C1 1940   1.590   2.618   9.343 -0.2547  0.3858  0.1886
  125TMC2    C2 1941   1.465   2.650   9.315  0.1829 -0.2793 -0.7277
  125TMC2    C3 1942   1.430   2.717   9.202 -0.4895 -0.4675 -0.0491
  125TMC2    C4 1943   1.691   2.658   9.259 -0.3501  0.5446  0.6497
  125TMC2    C5 1944   1.654   2.711   9.137  0.3211 -0.3122 -0.6932
  125TMC2    C6 1945   1.524   2.747   9.112 -0.7757 -0.2460 -0.1730
  125TMC2     C 1946   1.613   2.524   9.450  0.0118 -0.2303 -0.6911
  125TMC2     O 1947   1.510   2.492   9.513 -0.2507  0.0583  0.0268
  125TMC2     H 1948   1.385   2.634   9.386  0.3975  0.1493 -0.3907
  125TMC2    H1 1949   1.793   2.629   9.281 -0.4246 -1.0072 -1.0329
  125TMC2    H2 1950   1.502   2.769   9.008 -1.5983 -0.3051 -0.0050
  125TMC2    C7 1951   1.755   2.737   9.034  0.1570 -0.8294  0.7749
  125TMC2    C8 1952   1.294   2.703   9.153 -0.3273 -0.1127  0.2325
  125TMC2    O1 1953   1.716   2.782   8.924  0.1673 -0.1122 -0.3156
  125TMC2    O2 1954   1.214   2.626   9.203  0.1984  0.0056  0.6884
  125TMC2    O5 1955   1.268   2.800   9.067  0.4102 -0.4099  0.2401
  125TMC2    H5 1956   1.340   2.866   9.057  0.0455 -0.1218 -0.4400
  126MPD1     C 1957   1.870   2.203   9.730  0.6025 -0.0056 -0.9435
  126MPD1    C1 1958   1.956   2.244   9.638  0.8783 -0.6120 -0.5032
  126MPD1    C2 1959   1.912   2.332   9.544  0.1614 -0.5548  0.4410
  126MPD1    C3 1960   1.780   2.385   9.556 -0.3735 -0.3096  0.2911
  126MPD1    C4 1961   1.699   2.347   9.666 -0.2015  0.1536 -0.4023
  126MPD1    C5 1962   1.747   2.253   9.755  0.3617 -0.5757  0.0628
  126MPD1     H 1963   1.986   2.358   9.469 -1.2429  0.5993 -0.5409
  126MPD1    H1 1964   1.601   2.389   9.689  1.2176  2.2688  1.6670
  126MPD1    H2 1965   1.895   2.123   9.800 -1.8568 -0.4816 -0.6195
  126MPD1    H3 1966   1.699   2.216   9.845 -0.7228 -1.2150 -0.7779
  126MPD1     N 1967   1.741   2.481   9.460 -0.0377  0.4184  0.3020
  126MPD1    H5 1968   1.806   2.495   9.383 -0.5529  0.4189 -0.1325
  126MPD1    N1 1969   2.061   2.150   9.618  0.0185  0.2141 -0.1370
  126MPD1    H6 1970   2.106   2.131   9.707  1.5972 -0.4833 -1.0859
  126MPD1    H7 1971   2.135   2.193   9.563 -0.6452 -0.5025 -1.6183
  127TMC2    C1 1972   3.554   1.129   9.704  0.2152 -0.7823 -0.3725
  127TMC2    C2 1973   3.510   1.105   9.832  0.8500  0.6033 -0.6635
  127TMC2    C3 1974   3.514   0.968   9.866 -0.3969 -0.7510 -0.2155
  127TMC2    C4 1975   3.601   1.035   9.619  0.2499  0.0120  0.2119
  127TMC2    C5 1976   3.605   0.902   9.665 -0.5923 -0.2714  0.8634
  127TMC2    C6 1977   3.571   0.868   9.789 -0.3828 -0.1330  0.4734
  127TMC2     C 1978   3.547   1.267   9.660  0.3248  0.3805 -0.1260
  127TMC2     O 1979   3.579   1.347   9.741 -0.3837 -0.2373  0.2412
  127TMC2     H 1980   3.495   1.191   9.897  0.8355 -1.2856  1.8322
  127TMC2    H1 1981   3.640   1.059   9.520 -1.7838  1.2953 -0.2638
  127TMC2    H2 1982   3.599   0.771   9.828  0.5726  0.1532  0.4778
  127TMC2    C7 1983   3.690   0.814   9.579  0.2378 -0.1572 -0.7521
  127TMC2    C8 1984   3.459   0.926   9.994  0.1459 -0.0517 -0.0227
  127TMC2    O1 1985   3.751   0.858   9.484 -0.7303 -0.2638 -0.1451
  127TMC2    O2 1986   3.466   0.809  10.021  0.7728 -0.1680 -0.2191
  127TMC2    O5 1987   3.441   1.032  10.076 -0.1925 -0.2110 -0.0048
  127TMC2    H5 1988   3.431   1.110  10.018  1.7290 -0.3958 -0.5953
  128MPD2     C 1989   3.381   1.414   9.356 -0.2962  0.0509 -0.7933
  128MPD2    C1 1990   3.458   1.404   9.472  0.2122  0.1719  0.0398
  128MPD2    C2 1991   3.522   1.517   9.521  0.8609  0.1603 -1.3727
  128MPD2    C3 1992   3.505   1.640   9.460  0.6207  1.0811  0.2620
  128MPD2    C4 1993   3.429   1.648   9.341 -0.4174  0.2347 -0.5066
  128MPD2    C5 1994   3.367   1.535   9.289  0.1527  0.1881  0.2908
  128MPD2     H 1995   3.591   1.516   9.604 -0.7284  2.9364 -0.0270
  128MPD2    H1 1996   3.438   1.733   9.274 -3.9284  1.6406  0.8090
  128MPD2    H2 1997   3.335   1.334   9.300 -0.0273 -0.9793  0.4544
  128MPD2    H3 1998   3.317   1.545   9.193  1.7860 -1.9807 -0.7901
  128MPD2     N 1999   3.556   1.758   9.521  0.2059  0.0393  0.2478
  128MPD2    H5 2000   3.615   1.749   9.603  0.7784 -0.1386 -0.1823
  128MPD2    N1 2001   3.479   1.279   9.539 -0.7768 -0.0513 -0.4570
  128MPD2    H7 2002   3.444   1.196   9.492 -1.7873  0.4649 -0.6157
  129TMC2    C1 2003   2.214   1.158   2.054  0.5292 -0.8199 -0.0903
  129TMC2    C2 2004   2.270   1.112   2.170  0.3015 -0.1793  0.2842
  129TMC2    C3 2005   2.327   0.988   2.174  0.3767 -0.0815 -0.5147
  129TMC2    C4 2006   2.213   1.081   1.939 -0.6889 -0.1893 -0.0199
  129TMC2    C5 2007   2.270   0.957   1.945  0.3543 -0.5715  0.7220
  129TMC2    C6 2008   2.330   0.912   2.058 -0.4285 -0.4857  0.0006
  129TMC2     C 2009   2.091   1.232   2.090 -0.3295  0.8185  0.3224
  129TMC2     O 2010   2.058   1.235   2.207 -0.4935  0.8327  0.3564
  129TMC2     H 2011   2.269   1.172   2.260  0.2231 -0.6245  0.5843
  129TMC2    H1 2012   2.142   1.099   1.859 -1.6483  3.0785  1.5800
  129TMC2    H2 2013   2.360   0.808   2.057  0.6120 -0.1772 -2.3398
  129TMC2    C7 2014   2.226   0.875   1.836 -0.4555  0.5663  0.2682
  129TMC2    C8 2015   2.398   0.943   2.287 -0.2270  1.3538  0.0932
  129TMC2    O1 2016   2.113   0.899   1.791 -0.2186  0.0541 -0.2085
  129TMC2    O2 2017   2.503   0.877   2.271 -0.1272 -0.9147  0.0700
  129TMC2    O5 2018   2.315   0.936   2.396 -0.1945 -0.2995  0.0900
  129TMC2    H5 2019   2.232   0.990   2.391  0.1867  0.2521 -0.2830
  130MPD2     C 2020   1.845   1.376   2.097 -0.1654 -0.3215 -0.3362
  130MPD2    C1 2021   1.921   1.362   1.982  0.1682  0.3900  0.7770
  130MPD2    C2 2022   1.886   1.422   1.863  0.0578  0.5851 -0.4807
  130MPD2    C3 2023   1.775   1.503   1.843  0.1815  0.3541  0.3444
  130MPD2    C4 2024   1.692   1.504   1.950  0.1552  0.2395  0.3506
  130MPD2    C5 2025   1.731   1.441   2.072 -1.0109 -0.6132  0.1467
  130MPD2     H 2026   1.957   1.422   1.781 -0.7520 -0.4880 -1.1688
  130MPD2    H1 2027   1.591   1.543   1.950 -0.2546 -0.8590 -1.2287
  130MPD2    H2 2028   1.856   1.328   2.193  1.7823 -0.2641 -0.5284
  130MPD2    H3 2029   1.657   1.430   2.150 -1.3316 -1.0833 -0.2228
  130MPD2     N 2030   1.755   1.555   1.711  0.3946  0.0281  0.5830
  130MPD2    H5 2031   1.834   1.541   1.650 -0.2941 -0.8915 -0.0954
  130MPD2    N1 2032   2.038   1.288   1.980  0.2300  0.5456  0.1907
  130MPD2    H7 2033   2.088   1.281   1.892 -2.7568  3.6255 -1.7669
  131TMC2    C1 2034   1.503   0.254   9.708  0.2812 -0.3824 -0.0720
  131TMC2    C2 2035   1.453   0.385   9.713 -0.2906  0.0735 -0.2342
  131TMC2    C3 2036   1.531   0.484   9.661  0.1169 -0.7043 -0.1184
  131TMC2    C4 2037   1.628   0.226   9.667 -0.4597 -1.0003  0.2360
  131TMC2    C5 2038   1.697   0.326   9.598  0.4419  0.5088  0.8529
  131TMC2    C6 2039   1.649   0.454   9.600  0.3649 -0.1879 -0.4578
  131TMC2     C 2040   1.446   0.174   9.820  0.2289 -0.4434  0.0953
  131TMC2     O 2041   1.415   0.238   9.919 -0.2696 -0.6224  0.2883
  131TMC2     H 2042   1.353   0.411   9.747 -1.5801 -2.9828 -1.6871
  131TMC2    H1 2043   1.669   0.126   9.658 -2.6042 -1.9178  0.7105
  131TMC2    H2 2044   1.697   0.516   9.525 -0.9739 -0.9860 -1.9904
  131TMC2    C7 2045   1.826   0.293   9.533  0.6756 -0.4867  0.3837
  131TMC2    C8 2046   1.491   0.622   9.642 -0.1300 -0.4601  0.8039
  131TMC2    O1 2047   1.853   0.182   9.487  0.0118 -0.3889  0.0492
  131TMC2    O2 2048   1.552   0.702   9.575 -0.2027 -0.1394  1.0272
  131TMC2    O5 2049   1.394   0.653   9.737  0.3740  0.2439 -0.1290
  131TMC2    H5 2050   1.362   0.583   9.798  0.8001 -1.0223 -1.3778
  132MPD2     C 2051   1.423   4.544   9.824  0.0262 -0.2678  0.3211
  132MPD2    C1 2052   1.418   4.670   9.873 -0.0098 -0.2294  0.0629
  132MPD2    C2 2053   1.369   4.686  10.005 -0.5920 -0.3850 -0.5891
  132MPD2    C3 2054   1.343   4.576  10.086 -0.1625 -0.3109 -0.1319
  132MPD2    C4 2055   1.344   4.456  10.027  0.1520 -0.9277 -0.2323
  132MPD2    C5 2056   1.385   4.433   9.902 -0.2110  0.6708  0.4005
  132MPD2     H 2057   1.353   0.048  10.046  0.0221 -0.3648 -0.3941
  132MPD2    H1 2058   1.324   4.369  10.088 -1.5252 -0.9136 -0.7575
  132MPD2    H2 2059   1.466   4.516   9.728  0.6697 -0.0654  0.5518
  132MPD2    H3 2060   1.389   4.330   9.869  0.6249  0.7290  0.3391
  132MPD2     N 2061   1.307   4.602  10.219 -0.2275 -0.1592 -0.6560
  132MPD2    H5 2062   1.290   4.697  10.249 -1.7997 -0.3444 -0.9552
  132MPD2    N1 2063   1.462   0.041   9.793  0.1509  0.5071  0.3088
  132MPD2    H7 2064   1.502   0.010   9.705 -2.1967 -0.3708 -0.4233
  133TMC2    C1 2065   1.252   2.105   8.924 -0.0121 -0.7133  0.3276
  133TMC2    C2 2066   1.282   2.212   9.011  0.5469  0.5089 -0.3442
  133TMC2    C3 2067   1.416   2.236   9.030 -0.2424 -0.1097  0.8080
  133TMC2    C4 2068   1.348   2.017   8.887  0.4220  0.9620  0.3287
  133TMC2    C5 2069   1.481   2.037   8.920  0.2613 -0.4753 -0.1456
  133TMC2    C6 2070   1.518   2.150   8.993  0.1560 -0.2454 -0.0982
  133TMC2     C 2071   1.109   2.060   8.921  0.1593  0.4429 -1.0425
  133TMC2     O 2072   1.085   1.949   8.873 -0.1648  0.2039  0.0376
  133TMC2     H 2073   1.206   2.282   9.044  0.1489  0.3233 -0.8513
  133TMC2    H1 2074   1.314   1.940   8.819  1.3554  0.4151  0.4659
  133TMC2    H2 2075   1.620   2.161   9.028  0.1172  1.1523 -0.4293
  133TMC2    C7 2076   1.578   1.932   8.892  0.5239 -0.2164  0.1962
  133TMC2    C8 2077   1.455   2.371   9.061  1.0245  0.7413  0.0490
  133TMC2    O1 2078   1.533   1.825   8.856 -0.6669 -0.8437 -0.0958
  133TMC2    O2 2079   1.573   2.398   9.093  0.2226 -0.2716  0.0862
  133TMC2    O5 2080   1.368   2.444   8.985 -0.1167 -0.2278 -0.1006
  133TMC2    H5 2081   1.298   2.395   8.936  0.3517  0.6379 -1.6304
  134MPD2     C 2082   0.786   2.242   9.023 -0.5187 -0.3704 -0.3903
  134MPD2    C1 2083   0.866   2.140   8.973  0.0153  0.4445 -0.1825
  134MPD2    C2 2084   0.800   2.025   8.935 -0.4074 -0.6223  0.1970
  134MPD2    C3 2085   0.662   2.018   8.942 -0.4379  1.0152  0.2536
  134MPD2    C4 2086   0.590   2.107   9.006 -0.0083 -0.2389  0.4385
  134MPD2    C5 2087   0.653   2.226   9.048 -0.3461  0.2150 -0.3926
  134MPD2     H 2088   0.863   1.950   8.888  3.5362  2.4426  0.5418
  134MPD2    H1 2089   0.482   2.097   9.017 -0.0961  1.1541  0.8259
  134MPD2    H2 2090   0.823   2.340   9.053 -0.3633  0.2914 -2.7816
  134MPD2    H3 2091   0.590   2.303   9.090  2.9430  2.6123  0.1313
  134MPD2     N 2092   0.590   1.909   8.889 -0.3850  0.0169  0.1745
  134MPD2    H5 2093   0.488   1.911   8.895 -0.3952 -0.3675  0.1585
  134MPD2    N1 2094   1.014   2.159   8.961  0.1872  0.0217  0.8305
  134MPD2    H7 2095   1.048   2.250   8.991 -2.1330  1.0713  0.2410
  135TMC2    C1 2096   1.684   2.672   9.835  0.4688 -0.4391 -0.6347
  135TMC2    C2 2097   1.593   2.650   9.938  0.4135  0.3989  0.4448
  135TMC2    C3 2098   1.628   2.559  10.031 -0.4383 -0.7121  0.1486
  135TMC2    C4 2099   1.805   2.614   9.832 -0.0575 -0.3852 -0.7178
  135TMC2    C5 2100   1.838   2.536   9.937  0.8236 -0.1243 -0.8587
  135TMC2    C6 2101   1.748   2.502  10.032 -0.0544 -0.4779  0.2170
  135TMC2     C 2102   1.640   2.760   9.727 -0.2063  0.4085  0.2188
  135TMC2     O 2103   1.518   2.775   9.725  0.0483  0.4025 -0.3968
  135TMC2     H 2104   1.502   2.708   9.946  1.0125  0.9773  2.9375
  135TMC2    H1 2105   1.869   2.600   9.746  0.4184 -0.2140 -0.3928
  135TMC2    H2 2106   1.786   2.452  10.120  0.9281  0.9588  0.6246
  135TMC2    C7 2107   1.972   2.485   9.945  0.1990 -0.2108  0.3989
  135TMC2    C8 2108   1.560   2.565  10.157 -0.6247 -0.6897 -0.5820
  135TMC2    O1 2109   2.055   2.537   9.871 -0.3980 -0.1393  0.2176
  135TMC2    O2 2110   1.524   2.673  10.199  0.0421  0.3301  0.4264
  135TMC2    O5 2111   1.569   2.445  10.216 -0.2077 -0.4125 -0.0133
  135TMC2    H5 2112   1.590   2.370  10.156  1.8659  0.2305 -0.0997
  136MPD2     C 2113   1.633   2.928   9.483  0.3155 -0.1464 -0.1446
  136MPD2    C1 2114   1.748   2.869   9.526 -0.8676  0.3661 -0.2146
  136MPD2    C2 2115   1.870   2.887   9.463 -0.2432 -0.6420  0.0553
  136MPD2    C3 2116   1.875   2.972   9.349 -0.2214 -0.3721  0.2969
  136MPD2    C4 2117   1.754   3.021   9.303 -0.0246  0.4899  0.6255
  136MPD2    C5 2118   1.631   2.998   9.360 -0.1262  0.3217 -0.3844
  136MPD2     H 2119   1.958   2.834   9.497  0.3849 -0.5233 -1.4042
  136MPD2    H1 2120   1.746   3.099   9.228 -1.8870 -0.7701 -0.4916
  136MPD2    H2 2121   1.545   2.926   9.546  0.3012  3.3145 -0.0669
  136MPD2    H3 2122   1.535   3.038   9.329  0.5775  0.9706 -1.7327
  136MPD2     N 2123   1.992   3.010   9.272  0.4270 -0.1042  0.0932
  136MPD2    H5 2124   1.980   3.084   9.204 -1.1189  0.9480  1.5026
  136MPD2    N1 2125   1.747   2.785   9.645 -0.3201  0.2437 -0.3879
  136MPD2    H7 2126   1.839   2.747   9.667 -1.2093 -0.8279  1.5189
  137TMC2    C1 2127   3.398   0.495  10.151  1.0597 -0.5866 -0.4729
  137TMC2    C2 2128   3.519   0.444  10.133  0.5634  0.2683 -0.0106
  137TMC2    C3 2129   3.572   0.414  10.008 -0.0647  0.3267 -1.0305
  137TMC2    C4 2130   3.323   0.527  10.039 -0.5805  0.0924  0.2772
  137TMC2    C5 2131   3.375   0.507   9.913 -0.3218  0.3958 -0.5482
  137TMC2    C6 2132   3.505   0.455   9.893 -0.4285  0.6251  0.2816
  137TMC2     C 2133   3.357   0.543  10.282  0.2146 -0.7938  0.0134
  137TMC2     O 2134   3.238   0.575  10.296  0.1751  0.3425  0.5263
  137TMC2     H 2135   3.581   0.415  10.217 -1.6775 -0.3044  1.4233
  137TMC2    H1 2136   3.237   0.591  10.057  0.4561  1.1929  1.2938
  137TMC2    H2 2137   3.550   0.466   9.795 -0.7813 -2.5637 -0.2349
  137TMC2    C7 2138   3.331   0.592   9.815  0.0922  0.3343 -0.0984
  137TMC2    C8 2139   3.704   0.368  10.005 -0.5754 -0.1150  0.2558
  137TMC2    O1 2140   3.419   0.624   9.738  0.0619  0.3371  0.1199
  137TMC2    O2 2141   3.768   0.369  10.109  0.0857 -0.4866  0.3087
  137TMC2    O5 2142   3.697   0.262   9.919 -0.1235  0.6263  0.0720
  137TMC2    H5 2143   3.617   0.272   9.863 -0.3295 -1.2525  0.0258
  138MPD2     C 2144   3.543   0.604  10.592  0.4947 -0.4702 -0.6642
  138MPD2    C1 2145   3.445   0.627  10.494 -0.1301  0.0311  0.6020
  138MPD2    C2 2146   3.332   0.702  10.527  0.2539 -0.6307  0.7858
  138MPD2    C3 2147   3.321   0.775  10.640  0.7253 -0.3004 -0.7090
  138MPD2    C4 2148   3.417   0.757  10.736 -0.1064 -0.6394 -0.4627
  138MPD2    C5 2149   3.527   0.676  10.711  0.1437  0.7119 -0.5762
  138MPD2     H 2150   3.246   0.708  10.461  0.5597  0.0857  0.4545
  138MPD2    H1 2151   3.417   0.810  10.830 -0.0597 -1.3143 -0.0848
  138MPD2    H2 2152   3.625   0.535  10.574  1.0862  0.1301 -0.2769
  138MPD2    H3 2153   3.590   0.675  10.799 -0.8405 -3.4859  0.0929
  138MPD2     N 2154   3.217   0.873  10.645 -0.3359 -0.1781  0.4412
  138MPD2    H5 2155   3.158   0.880  10.563  0.6779 -1.8919 -0.4428
  138MPD2    N1 2156   3.457   0.559  10.368  0.7436  0.4198 -0.2114
  138MPD2    H7 2157   3.549   0.519  10.351  0.2097 -0.3187 -1.3040
  139TMC2    C1 2158   2.981   4.444  13.398 -0.4936 -0.7608  0.1706
  139TMC2    C2 2159   3.064   4.489  13.299  0.6971 -0.3981  0.6619
  139TMC2    C3 2160   3.055   4.624  13.267 -0.3234 -0.1747 -0.2692
  139TMC2    C4 2161   2.900   4.527  13.474  0.2944  0.5108  0.1610
  139TMC2    C5 2162   2.908   4.658  13.453 -0.3984  0.6665 -0.3823
  139TMC2    C6 2163   2.983   4.706  13.352 -0.2052  0.1879 -0.2001
  139TMC2     C 2164   2.971   4.297  13.409  0.2029 -0.3050  0.1723
  139TMC2     O 2165   2.863   4.255  13.447  0.3034  0.5015  0.0454
  139TMC2     H 2166   3.140   4.437  13.240 -1.0735 -0.1134 -1.8539
  139TMC2    H1 2167   2.829   4.484  13.543 -0.0503 -0.6525 -0.9210
  139TMC2    H2 2168   3.001   0.075  13.337  2.6182 -0.2029  0.3466
  139TMC2    C7 2169   2.820   0.014  13.528  0.8572  0.3563  0.2906
  139TMC2    C8 2170   3.168   4.674  13.192 -0.7890 -0.0866 -0.5069
  139TMC2    O1 2171   2.822   0.130  13.504 -0.4353 -0.2130 -0.1916
  139TMC2    O2 2172   3.208   4.618  13.090 -0.3557 -0.1335  0.0675
  139TMC2    O5 2173   3.256   4.701  13.293 -0.6433 -0.2311  0.3242
  139TMC2    H5 2174   3.217   4.720  13.381  0.3144 -0.4505  0.7950
  140MPD2     C 2175   2.982   3.999  13.338  0.1183 -0.1643 -0.0548
  140MPD2    C1 2176   3.081   4.093  13.317 -0.1170 -0.2195  0.3322
  140MPD2    C2 2177   3.199   4.047  13.269 -0.2122 -0.1579 -0.2665
  140MPD2    C3 2178   3.223   3.911  13.250  0.2573  0.0375  0.3386
  140MPD2    C4 2179   3.124   3.820  13.274 -0.2725  0.7195 -0.1554
  140MPD2    C5 2180   3.005   3.869  13.311  0.5290  0.4081 -0.4639
  140MPD2     H 2181   3.283   4.110  13.242 -1.7887  1.1677 -2.1179
  140MPD2    H1 2182   3.126   3.712  13.263  2.2035  0.6681  0.8019
  140MPD2    H2 2183   2.886   4.018  13.384  0.7587 -0.7870  1.5303
  140MPD2    H3 2184   2.921   3.804  13.335  0.9495  0.4297  1.0515
  140MPD2     N 2185   3.348   3.873  13.200 -0.0707  0.8674  0.1347
  140MPD2    H5 2186   3.408   3.948  13.167 -0.0721  0.9210  0.2542
  140MPD2    N1 2187   3.070   4.229  13.350 -0.3032  0.8486  0.0712
  140MPD2    H7 2188   3.160   4.275  13.348  0.1755  0.0628  3.1421
  141TMC2    C1 2189   4.016   0.758  14.995  0.6365 -0.1735 -0.0221
  141TMC2    C2 2190   4.122   0.685  15.047 -0.7525 -0.2990 -0.2316
  141TMC2    C3 2191   4.147   0.707  15.177  0.2996 -0.4798 -0.4723
  141TMC2    C4 2192   3.956   0.864  15.068 -0.2828 -0.0589  0.6422
  141TMC2    C5 2193   3.994   0.877  15.199  0.0689  0.2172 -0.4055
  141TMC2    C6 2194   4.082   0.790  15.263  0.0446  0.0409  0.1544
  141TMC2     C 2195   3.976   0.739  14.856 -0.0137  1.2259 -0.4792
  141TMC2     O 2196   3.930   0.840  14.802 -0.4440 -0.5811  0.4531
  141TMC2     H 2197   4.159   0.597  14.995  1.7937 -0.7420  2.3116
  141TMC2    H1 2198   3.880   0.929  15.026  0.2069  0.3296  0.3600
  141TMC2    H2 2199   4.121   0.802  15.363  0.7087  0.4846 -0.1575
  141TMC2    C7 2200   3.921   0.973  15.275 -0.5970 -0.2119 -0.2356
  141TMC2    C8 2201   4.224   0.608  15.253  0.3408 -0.7520 -0.2071
  141TMC2    O1 2202   3.936   0.967  15.396 -0.9360  0.4096 -0.1018
  141TMC2    O2 2203   4.190   0.564  15.366  0.5686 -0.3283  0.0345
  141TMC2    O5 2204   4.344   0.606  15.199 -0.7735 -0.3247 -0.2688
  141TMC2    H5 2205   4.360   0.666  15.124 -2.0542  0.1344 -0.1611
  142TMC2    C1 2206   1.775   4.595   9.997  0.2224  0.3253 -0.3596
  142TMC2    C2 2207   1.750   4.582  10.127 -0.4612 -0.5927  0.3929
  142TMC2    C3 2208   1.777   4.694  10.198 -0.1939  0.6572  0.1880
  142TMC2    C4 2209   1.787   4.717   9.935 -0.3569 -0.2251  0.2179
  142TMC2    C5 2210   1.815   0.088  10.011  0.0171  0.2496  0.1231
  142TMC2    C6 2211   1.804   0.081  10.144  0.0329  0.3567 -1.0326
  142TMC2     C 2212   1.741   4.481   9.918 -0.3076  0.2925  0.5305
  142TMC2     O 2213   1.705   4.387   9.987 -0.4196 -0.0508 -0.4556
  142TMC2     H 2214   1.743   4.486  10.175  1.2924 -0.8658  0.0912
  142TMC2    H1 2215   1.798   4.726   9.827  1.2325  1.7865  0.5454
  142TMC2    H2 2216   1.819   0.166  10.209 -2.5855 -0.2665  0.4158
  142TMC2    C7 2217   1.816   0.215   9.945 -0.6726  0.7721  0.3078
  142TMC2    C8 2218   1.729   4.687  10.336  0.0408  0.1807 -0.1383
  142TMC2    O1 2219   1.872   0.203   9.837  0.0242  0.3350  0.7045
  142TMC2    O2 2220   1.746   4.585  10.406 -0.1634  0.2570  0.0055
  142TMC2    O5 2221   1.608   0.010  10.334 -0.5047 -0.4235  0.0719
  142TMC2    H5 2222   1.577   0.070  10.263  0.3521 -1.0807 -0.8417
  143MPD2     C 2223   1.714   4.165   9.521  0.2914  0.3034 -0.2694
  143MPD2    C1 2224   1.656   4.160   9.646  0.6329  0.6266  0.2508
  143MPD2    C2 2225   1.681   4.262   9.735 -0.4185 -0.3482 -0.5058
  143MPD2    C3 2226   1.766   4.372   9.701  0.3827  0.1051 -0.1124
  143MPD2    C4 2227   1.830   4.358   9.580  1.0526  0.7609 -0.1664
  143MPD2    C5 2228   1.815   4.251   9.494 -0.1548  0.0941  0.7016
  143MPD2     H 2229   1.623   4.268   9.827  2.1363 -4.3578  1.3949
  143MPD2    H1 2230   1.900   4.434   9.546 -0.9596  1.9259 -1.6965
  143MPD2    H2 2231   1.713   4.086   9.447 -1.0102 -1.2158  1.3786
  143MPD2    H3 2232   1.877   4.244   9.406  0.0720  2.7238  0.6585
  143MPD2     N 2233   1.789   4.481   9.786 -0.1965  0.2514 -0.4423
  143MPD2    H5 2234   1.834   4.565   9.753  1.4614 -0.5074 -0.0809
  143MPD2    N1 2235   1.556   4.061   9.674 -0.2127 -0.0197 -0.1314
  143MPD2    H7 2236   1.527   3.999   9.599  1.9854  0.4283 -1.3387
  144TMC2    C1 2237   4.150   2.984   0.394 -0.1674 -0.2955 -0.3584
  144TMC2    C2 2238   4.184   2.854   0.443 -0.9686 -0.3524  0.0576
  144TMC2    C3 2239   4.310   2.835   0.501 -0.1557 -0.2744 -0.0472
  144TMC2    C4 2240   4.233   3.098   0.420  0.5200 -0.1704  0.5280
  144TMC2    C5 2241   4.346   3.071   0.484 -0.6256  0.4008 -0.4396
  144TMC2    C6 2242   4.390   2.943   0.525 -0.2191 -0.1727  0.1695
  144TMC2     C 2243   4.044   2.978   0.293 -0.0295 -0.1172  0.4891
  144TMC2     O 2244   4.011   2.863   0.260  0.1635  1.2254 -0.3934
  144TMC2     H 2245   4.127   2.767   0.411 -1.5486  0.1541 -0.2869
  144TMC2    H1 2246   4.211   3.192   0.371  1.4530  0.3934  1.1962
  144TMC2    H2 2247   4.493   2.934   0.555 -0.9039 -0.0546  2.5574
  144TMC2    C7 2248   4.457   3.167   0.474  0.2224  0.0789  0.4594
  144TMC2    C8 2249   4.349   2.709   0.561 -0.5822 -0.7497 -0.6097
  144TMC2    O1 2250   4.570   3.121   0.476 -0.0529  0.1582 -1.1543
  144TMC2    O2 2251   4.459   2.697   0.612 -0.0110  0.3546  0.1635
  144TMC2    O5 2252   4.232   2.668   0.616 -0.2615 -0.1886 -0.2101
  144TMC2    H5 2253   4.153   2.711   0.576  1.5702  1.5226 -1.9704
  145MPD2     C 2254   3.746   3.183  17.688 -0.3589  0.0984  0.3636
  145MPD2    C1 2255   3.744   3.054  17.732  0.3862  0.1989  0.2419
  145MPD2    C2 2256   3.830   3.023   0.094  0.2776 -0.2523 -0.6269
  145MPD2    C3 2257   3.912   3.125   0.142 -0.1562  0.4825  0.3107
  145MPD2    C4 2258   3.907   3.255   0.092 -0.2267  0.5122  0.2455
  145MPD2    C5 2259   3.824   3.284  17.739 -0.2643  1.1277  0.1060
  145MPD2     H 2260   3.842   2.925   0.138  0.4767  0.4945  0.9651
  145MPD2    H1 2261   3.975   3.333   0.124  1.1316 -0.4325 -0.3778
  145MPD2    H2 2262   3.690   3.207  17.599  0.6041  0.8307 -0.0469
  145MPD2    H3 2263   3.825   3.380  17.689 -1.8153  1.1420  0.1083
  145MPD2     N 2264   4.007   3.105   0.246  0.4325 -0.0322 -0.5964
  145MPD2    H5 2265   4.064   3.186   0.269 -1.6993  0.4754  2.9265
  145MPD2    N1 2266   3.659   2.957  17.679  0.1040  0.0451  0.0702
  145MPD2    H7 2267   3.677   2.865  17.717  0.3693 -0.4600 -1.2976
  146TMC2    C1 2268   1.313   2.508  12.416  0.1054  0.5364 -0.4460
  146TMC2    C2 2269   1.287   2.581  12.305  0.1155 -0.1788  0.1134
  146TMC2    C3 2270   1.361   2.690  12.285 -0.3905 -0.3514 -0.4046
  146TMC2    C4 2271   1.407   2.540  12.513 -0.0142 -0.3946  0.3579
  146TMC2    C5 2272   1.479   2.651  12.487  0.1304  0.0661 -0.0157
  146TMC2    C6 2273   1.451   2.731  12.380 -0.1260  0.3429  0.7836
  146TMC2     C 2274   1.250   2.384  12.420  0.4485  0.0916 -0.5778
  146TMC2     O 2275   1.207   2.326  12.324  0.0266  0.1122  0.0590
  146TMC2     H 2276   1.223   2.553  12.222 -2.1407  2.8634  0.8213
  146TMC2    H1 2277   1.460   2.465  12.571 -1.4748 -0.1716  1.9930
  146TMC2    H2 2278   1.515   2.815  12.355 -0.6614  0.2140 -1.0057
  146TMC2    C7 2279   1.550   2.702  12.600 -0.1424 -0.1483  0.2673
  146TMC2    C8 2280   1.368   2.757  12.158 -0.6818  0.1993  0.0354
  146TMC2    O1 2281   1.634   2.789  12.571  0.2532  0.6839 -0.1870
  146TMC2    O2 2282   1.344   2.688  12.057 -0.6469 -0.0576  0.5341
  146TMC2    O5 2283   1.365   2.892  12.178 -0.2374 -0.1330 -0.0892
  146TMC2    H5 2284   1.354   2.935  12.266 -1.5942  1.6865 -1.1420
  147MPD2     C 2285   1.684   2.641  13.103 -0.2334  0.4085 -0.3058
  147MPD2    C1 2286   1.574   2.564  13.075 -0.2600 -0.2583  0.1335
  147MPD2    C2 2287   1.509   2.583  12.955  0.3257 -0.4292 -0.0884
  147MPD2    C3 2288   1.568   2.657  12.850  0.1018 -0.1626  0.1853
  147MPD2    C4 2289   1.687   2.723  12.871 -0.4201  0.0415 -0.1995
  147MPD2    C5 2290   1.739   2.712  12.999  0.6086  0.1078  0.8608
  147MPD2     H 2291   1.421   2.522  12.937 -0.9143  1.4314 -0.3911
  147MPD2    H1 2292   1.741   2.782  12.797 -0.7741 -1.0459 -1.3191
  147MPD2    H2 2293   1.733   2.639  13.199  0.2799  1.6972 -0.5472
  147MPD2    H3 2294   1.840   2.748  13.014  1.0304 -0.5992 -0.3249
  147MPD2     N 2295   1.508   2.642  12.719 -0.3169  0.5599  0.4783
  147MPD2    H5 2296   1.426   2.582  12.720 -0.1433  0.3331  0.8106
  147MPD2    N1 2297   1.538   2.464  13.177  0.4460 -0.0882  0.2262
  147MPD2    H7 2298   1.598   2.455  13.258 -1.1361 -0.3242  1.3654
  148TMC2    C1 2299   0.839   0.694  10.556 -0.0364  0.2966  0.1022
  148TMC2    C2 2300   0.763   0.685  10.669  0.4926  0.1519  0.0540
  148TMC2    C3 2301   0.759   0.561  10.729  0.2445  0.5109 -0.1924
  148TMC2    C4 2302   0.880   0.577  10.488  0.1005  0.3750 -0.8030
  148TMC2    C5 2303   0.856   0.455  10.539 -0.0202  0.1799  0.4047
  148TMC2    C6 2304   0.803   0.444  10.664 -0.5818  0.2410 -0.7868
  148TMC2     C 2305   0.853   0.826  10.498 -0.6750  0.1892 -0.3374
  148TMC2     O 2306   0.861   0.918  10.585 -1.0228 -0.1748 -0.3091
  148TMC2     H 2307   0.710   0.774  10.702 -0.8777 -0.8577  0.5805
  148TMC2    H1 2308   0.924   0.591  10.390 -0.5880 -2.5943 -1.5279
  148TMC2    H2 2309   0.794   0.346  10.709 -3.4972  0.4388 -0.9183
  148TMC2    C7 2310   0.914   0.345  10.460 -0.1130  0.8091  0.3149
  148TMC2    C8 2311   0.663   0.554  10.841 -0.3907  0.4500 -0.2630
  148TMC2    O1 2312   0.977   0.368  10.360  0.0819  0.7537 -0.3014
  148TMC2    O2 2313   0.651   0.634  10.932  0.1664  0.2985  0.0707
  148TMC2    O5 2314   0.581   0.448  10.811  0.1871  0.5724  0.2909
  148TMC2    H5 2315   0.594   0.424  10.717  0.2707 -0.0871  0.4697
  149MPD2     C 2316   0.846   1.066  10.320 -0.2058 -0.1470  0.3140
  149MPD2    C1 2317   0.857   0.930  10.279  0.4215 -0.2518 -0.1916
  149MPD2    C2 2318   0.874   0.911  10.141  0.5347  0.1910 -0.0287
  149MPD2    C3 2319   0.863   1.014  10.047  0.5501 -0.0271 -0.3173
  149MPD2    C4 2320   0.846   1.142  10.097  0.7785 -0.6606 -0.1201
  149MPD2    C5 2321   0.838   1.164  10.231  0.1721 -0.4421 -0.1909
  149MPD2     H 2322   0.877   0.808  10.107  1.1121  0.9973 -2.4241
  149MPD2    H1 2323   0.833   1.220  10.023  0.5607 -0.0972  0.5068
  149MPD2    H2 2324   0.837   1.080  10.427  0.3252 -0.1906  0.3650
  149MPD2    H3 2325   0.820   1.266  10.262  2.2441  0.5131 -2.1121
  149MPD2     N 2326   0.841   0.984   9.911 -0.7244 -0.2283  0.2633
  149MPD2    H5 2327   0.824   1.065   9.852  1.6168  0.4565  0.5292
  149MPD2    N1 2328   0.847   0.820  10.364 -0.1155  0.5388  0.8611
  149MPD2    H7 2329   0.839   0.730  10.319  1.2541  1.0976 -0.4753
  150TMC2    C1 2330   2.949   0.545  12.383  0.3577  0.1756 -0.0275
  150TMC2    C2 2331   2.878   0.623  12.469  0.1169  0.3465 -0.5762
  150TMC2    C3 2332   2.944   0.735  12.500  0.4655 -0.2141 -0.1504
  150TMC2    C4 2333   3.081   0.567  12.349  0.6167  0.0343  0.1094
  150TMC2    C5 2334   3.141   0.676  12.401  0.8980  0.1089  0.0678
  150TMC2    C6 2335   3.074   0.761  12.480 -0.4758  0.7004  0.1700
  150TMC2     C 2336   2.909   0.404  12.366 -0.1978 -0.2955 -1.0420
  150TMC2     O 2337   2.996   0.319  12.343  0.3464  0.8219 -0.2595
  150TMC2     H 2338   2.774   0.617  12.498  0.6043 -2.5713  0.5756
  150TMC2    H1 2339   3.138   0.505  12.281  0.7970 -0.9305  1.1306
  150TMC2    H2 2340   3.127   0.847  12.520 -2.1385  1.9040 -0.2221
  150TMC2    C7 2341   3.288   0.688  12.378  0.1267  0.2764  0.1871
  150TMC2    C8 2342   2.868   0.847  12.549 -0.4733 -0.0317 -0.1610
  150TMC2    O1 2343   3.337   0.797  12.417  0.7859  1.0901 -0.4732
  150TMC2    O2 2344   2.920   0.942  12.609 -0.3685  0.5656  0.3249
  150TMC2    O5 2345   2.753   0.851  12.481  0.3021  0.1411 -0.2369
  150TMC2    H5 2346   2.749   0.780  12.414  1.9359 -2.0733  2.0212
  151MPD2     C 2347   2.543   0.065  12.245  0.0718 -0.6622  0.9546
  151MPD2    C1 2348   2.476   0.182  12.264 -0.5516  0.2537 -0.7582
  151MPD2    C2 2349   2.560   0.293  12.294  1.0707  0.8928 -0.1956
  151MPD2    C3 2350   2.700   0.278  12.315  0.4443 -1.1019 -0.3105
  151MPD2    C4 2351   2.755   0.155  12.303 -0.1795 -0.8148  0.7852
  151MPD2    C5 2352   2.682   0.051  12.260 -0.1793 -0.4726 -0.4357
  151MPD2     H 2353   2.507   0.386  12.311 -1.6864 -0.2433 -2.4672
  151MPD2    H1 2354   2.863   0.145  12.298 -0.2896 -2.2248  1.2212
  151MPD2    H2 2355   2.488   4.709  12.232 -1.5651  0.4620 -0.1432
  151MPD2    H3 2356   2.736   4.695  12.245  1.3023  0.1456  1.1810
  151MPD2     N 2357   2.772   0.386  12.364  0.6154  0.4781  0.1021
  151MPD2    H5 2358   2.717   0.471  12.372 -2.0677 -1.2115 -0.1865
  151MPD2    N1 2359   2.333   0.193  12.245 -0.0672  0.4607 -0.3706
  151MPD2    H7 2360   2.299   0.289  12.248  0.8137  0.7401  0.8781
  152TMC2    C1 2361   2.478   0.154  12.625 -0.0010 -0.2891  0.2464
  152TMC2    C2 2362   2.531   0.034  12.585  0.2931 -0.9639 -0.4294
  152TMC2    C3 2363   2.663   0.018  12.615 -0.4860  0.0075 -0.0792
  152TMC2    C4 2364   2.546   0.251  12.682 -0.7445 -0.6570 -1.3255
  152TMC2    C5 2365   2.682   0.231  12.705  0.1553  0.6159  0.1966
  152TMC2    C6 2366   2.745   0.111  12.671  0.1420 -0.1099  0.0371
  152TMC2     C 2367   2.333   0.157  12.638 -0.6639  0.8936 -0.2679
  152TMC2     O 2368   2.284   0.264  12.667  0.8281  0.1901 -0.4987
  152TMC2     H 2369   2.484   4.721  12.501 -2.2243  0.0866  0.3521
  152TMC2    H1 2370   2.496   0.334  12.732  0.3327 -0.9479  0.2397
  152TMC2    H2 2371   2.850   0.084  12.678  0.6066  1.9700  0.8958
  152TMC2    C7 2372   2.753   0.350  12.743  0.1949  0.1829  0.0149
  152TMC2    C8 2373   2.735   4.641  12.561  0.0365 -0.6511  0.0799
  152TMC2    O1 2374   2.679   0.442  12.779 -0.1856 -0.5396 -0.0983
  152TMC2    O2 2375   2.854   4.637  12.533 -0.2220 -0.2296 -0.6475
  152TMC2    O5 2376   2.646   4.542  12.533  0.2580  0.2765 -0.4878
  152TMC2    H5 2377   2.565   4.554  12.588 -0.3659 -0.2696 -1.2995
  153MPD2     C 2378   2.102   4.607  12.662  0.5166  0.6419  0.4582
  153MPD2    C1 2379   2.138   4.736  12.672 -0.3127 -0.4877  0.2463
  153MPD2    C2 2380   2.043   0.092  12.722  0.2005 -0.4139  0.3631
  153MPD2    C3 2381   1.916   0.059  12.752 -0.0990 -0.0219 -0.0356
  153MPD2    C4 2382   1.879   4.667  12.726 -1.3068  0.0048 -0.4014
  153MPD2    C5 2383   1.970   4.578  12.673 -0.3863 -0.5286  0.0255
  153MPD2     H 2384   2.068   0.197  12.734 -1.0547 -0.1195  0.4061
  153MPD2    H1 2385   1.778   4.627  12.736 -1.4670  0.7417  1.0491
  153MPD2    H2 2386   2.173   4.532  12.630 -2.0344 -1.6714  0.1743
  153MPD2    H3 2387   1.939   4.481  12.636  0.2950 -0.6470 -0.2317
  153MPD2     N 2388   1.820   0.156  12.802  0.0172  0.9003 -0.0098
  153MPD2    H5 2389   1.858   0.247  12.823 -0.0593  0.6092  1.3646
  153MPD2    N1 2390   2.275   0.033  12.645  0.2044 -0.5080 -0.0820
  153MPD2    H7 2391   2.342   4.693  12.643  0.4681 -0.2374 -1.2967
  154TMC2    C1 2392   4.367   4.656   0.016 -0.5534 -0.2563 -0.4747
  154TMC2    C2 2393   4.432   0.034   0.052  0.3622 -0.1745  0.1268
  154TMC2    C3 2394   4.564   0.043   0.020 -0.3605  0.0073  0.0043
  154TMC2    C4 2395   4.435   4.545  17.721 -0.3788  0.9428  0.4218
  154TMC2    C5 2396   4.570   4.557  17.696 -0.4910  0.3076  0.1933
  154TMC2    C6 2397   4.637   4.677  17.719 -0.2597 -0.4210 -0.5604
  154TMC2     C 2398   4.222   4.644   0.058 -0.2290  0.0437  0.0730
  154TMC2     O 2399   4.180   4.729   0.136 -0.0778 -0.1170 -0.4822
  154TMC2     H 2400   4.384   0.113   0.108  2.0319  2.5026 -2.2235
  154TMC2    H1 2401   4.401   4.442  17.719 -1.1262  1.2086 -0.3025
  154TMC2    H2 2402   0.008   4.681  17.707  0.1015 -2.0389  2.1907
  154TMC2    C7 2403   4.633   4.462  17.598 -0.2678  0.1710 -0.3473
  154TMC2    C8 2404   4.635   0.141   0.088 -0.6306 -0.2835 -0.6456
  154TMC2    O1 2405   4.574   4.357  17.571  0.2213  0.2240 -0.8020
  154TMC2    O2 2406   4.605   0.198   0.192 -0.0306  0.8647  0.1067
  154TMC2    O5 2407   0.015   0.169   0.024  0.5155  0.2074  0.3415
  154TMC2    H5 2408   0.019   0.122  17.684 -0.3705  3.5052 -1.4568
  155MPD2     C 2409   3.968   4.397  17.686  0.4797 -0.6324 -0.2047
  155MPD2    C1 2410   4.024   4.507   0.007  0.3178 -0.3590  0.1733
  155MPD2    C2 2411   3.937   4.590   0.084  0.4023 -0.5527 -0.4829
  155MPD2    C3 2412   3.801   4.556   0.095 -0.6259  0.2223 -0.5775
  155MPD2    C4 2413   3.750   4.451   0.025  0.6049  0.6970 -0.2129
  155MPD2    C5 2414   3.833   4.374  17.691 -0.5637  0.4925 -0.5340
  155MPD2     H 2415   3.966   4.678   0.141 -3.6300  0.6012 -0.1595
  155MPD2    H1 2416   3.646   4.423   0.019  0.1209  2.0900  1.9600
  155MPD2    H2 2417   4.041   4.331  17.640  1.6887  0.2341  0.4538
  155MPD2    H3 2418   3.795   4.289  17.637 -0.6221  0.7728 -0.9389
  155MPD2     N 2419   3.723   4.628   0.185 -0.0267 -0.5856 -0.3051
  155MPD2    H5 2420   3.768   4.691   0.250 -1.6662  0.8904 -0.5716
  155MPD2    N1 2421   4.165   4.538  17.740 -0.6347 -0.0657  0.1197
  155MPD2    H7 2422   4.206   4.489  17.661 -0.3151  0.4798 -0.0495
  156TMC2    C1 2423   2.914   2.554  11.327  0.4323  0.1579 -1.1863
  156TMC2    C2 2424   3.024   2.507  11.260  0.4404  0.1384  0.3768
  156TMC2    C3 2425   3.030   2.532  11.127 -0.1345 -0.2228 -0.1820
  156TMC2    C4 2426   2.809   2.611  11.259  0.5319  0.1021  0.1056
  156TMC2    C5 2427   2.820   2.624  11.121 -0.5935  0.7224 -0.3884
  156TMC2    C6 2428   2.932   2.588  11.056 -0.0157  0.2649  0.1326
  156TMC2     C 2429   2.908   2.549  11.473 -0.3048  0.2847  0.1927
  156TMC2     O 2430   2.836   2.629  11.537  0.6371  0.7931 -0.4484
  156TMC2     H 2431   3.105   2.456  11.310  0.7751  1.8949  1.5837
  156TMC2    H1 2432   2.722   2.644  11.315 -0.3136 -2.8943  0.5280
  156TMC2    H2 2433   2.943   2.604  10.950 -1.7787 -2.7090 -0.4976
  156TMC2    C7 2434   2.769   2.740  11.061 -0.2537 -0.9906 -0.1998
  156TMC2    C8 2435   3.157   2.539  11.065  0.2246 -0.1624  0.1213
  156TMC2    O1 2436   2.846   2.810  10.996  0.2996 -0.3551  0.1864
  156TMC2    O2 2437   3.177   2.510  10.946 -0.2403  0.8451 -0.6421
  156TMC2    O5 2438   3.241   2.606  11.144 -0.5665 -0.0813 -0.2228
  156TMC2    H5 2439   3.197   2.661  11.212 -2.3595 -0.6795 -0.8963
  157MPD2     C 2440   3.030   2.257  11.653  0.5245 -0.4807  0.3180
  157MPD2    C1 2441   2.976   2.385  11.641  0.2322 -0.4943  0.2242
  157MPD2    C2 2442   2.908   2.439  11.747 -0.8557  0.2318 -0.0555
  157MPD2    C3 2443   2.894   2.362  11.861  0.6803  0.1702 -0.3620
  157MPD2    C4 2444   2.948   2.237  11.871  0.0217 -0.1037 -0.2698
  157MPD2    C5 2445   3.008   2.183  11.763  0.2143  0.3531 -0.7427
  157MPD2     H 2446   2.870   2.540  11.742 -1.4061  0.1776  2.7585
  157MPD2    H1 2447   2.939   2.178  11.962 -2.4363 -0.9433 -1.0619
  157MPD2    H2 2448   3.080   2.214  11.567 -1.5949 -3.0141  0.3439
  157MPD2    H3 2449   3.039   2.079  11.770  2.5747  1.2646  2.3987
  157MPD2     N 2450   2.800   2.413  11.952 -0.0970  0.1219  0.0307
  157MPD2    H5 2451   2.768   2.507  11.931 -0.6229  0.0786  0.6193
  157MPD2    N1 2452   2.991   2.450  11.522 -0.9521 -0.0251 -0.1344
  157MPD2    H7 2453   3.041   2.392  11.455 -1.1061  0.0379 -0.3050
  158TMC2    C1 2454   3.567   1.320  13.719 -0.7203  0.0970  0.1347
  158TMC2    C2 2455   3.624   1.421  13.647  0.4154  0.0566 -0.4241
  158TMC2    C3 2456   3.581   1.457  13.525  0.6687  0.7888 -0.1176
  158TMC2    C4 2457   3.465   1.245  13.660  0.4975 -0.1238  0.4915
  158TMC2    C5 2458   3.430   1.275  13.526  0.0299 -0.2359 -0.1288
  158TMC2    C6 2459   3.484   1.385  13.461 -0.3809 -0.3809 -0.1087
  158TMC2     C 2460   3.586   1.318  13.867 -0.3665 -0.5942 -0.0978
  158TMC2     O 2461   3.627   1.423  13.909 -0.7559  0.2214 -0.5917
  158TMC2     H 2462   3.690   1.486  13.703 -1.3949  0.8580  0.7545
  158TMC2    H1 2463   3.422   1.160  13.712  0.1466 -0.7481 -0.8261
  158TMC2    H2 2464   3.455   1.424  13.365  0.2386  0.6390  0.1155
  158TMC2    C7 2465   3.333   1.200  13.453  0.7732  0.4298 -0.0963
  158TMC2    C8 2466   3.582   1.599  13.504 -0.0597  0.6742  0.5632
  158TMC2    O1 2467   3.319   1.219  13.335 -0.5863  0.5104  0.3281
  158TMC2    O2 2468   3.598   1.673  13.601  0.2006  0.0845  0.6769
  158TMC2    O5 2469   3.612   1.630  13.375 -0.1860 -0.3491  0.3431
  158TMC2    H5 2470   3.606   1.548  13.321  1.6761 -0.1889 -0.1041
  159MPD2     C 2471   3.612   1.112  14.344  0.0548  0.1451 -0.0374
  159MPD2    C1 2472   3.565   1.013  14.253  0.5688 -0.9913 -0.4890
  159MPD2    C2 2473   3.542   1.052  14.123  0.7540 -0.6891  0.0914
  159MPD2    C3 2474   3.574   1.177  14.077  0.4710  0.0305 -0.1987
  159MPD2    C4 2475   3.620   1.268  14.166 -0.7384  0.3387 -0.7004
  159MPD2    C5 2476   3.643   1.241  14.295  0.1407  0.0792  0.6738
  159MPD2     H 2477   3.519   0.972  14.054  0.6082  0.6168 -1.3834
  159MPD2    H1 2478   3.656   1.369  14.145 -0.7770  0.0180 -2.3635
  159MPD2    H2 2479   3.647   1.084  14.443  0.7235  0.1065 -0.2875
  159MPD2    H3 2480   3.692   1.309  14.364 -0.0537 -1.5146  2.3859
  159MPD2     N 2481   3.560   1.201  13.936  0.0349 -0.3546 -0.5406
  159MPD2    H5 2482   3.510   1.129  13.884 -0.1679  0.7337 -1.8226
  159MPD2    N1 2483   3.546   0.875  14.292 -0.4762  0.2578 -0.3931
  159MPD2    H7 2484   3.500   0.818  14.221  1.8393 -1.2975 -0.6368
  160TMC2    C1 2485   3.254   3.479   1.206  0.0944  0.2794 -0.1318
  160TMC2    C2 2486   3.329   3.376   1.246  0.3986 -0.1284  0.2138
  160TMC2    C3 2487   3.429   3.333   1.163  0.3087  0.0593 -0.3211
  160TMC2    C4 2488   3.292   3.552   1.093 -1.0178  0.0674 -0.0876
  160TMC2    C5 2489   3.397   3.517   1.015  0.4384 -0.3707 -0.4158
  160TMC2    C6 2490   3.459   3.403   1.044 -0.4162  0.6717  0.3857
  160TMC2     C 2491   3.155   3.535   1.292  0.3263 -0.2463 -0.4436
  160TMC2     O 2492   3.159   3.483   1.401 -0.1865 -0.1442  0.1582
  160TMC2     H 2493   3.297   3.310   1.325 -0.6405 -2.8953 -2.4921
  160TMC2    H1 2494   3.240   3.644   1.069  2.8655  2.2610 -0.0817
  160TMC2    H2 2495   3.542   3.364   0.987 -0.9236  1.6535 -1.0025
  160TMC2    C7 2496   3.410   3.574   0.885 -0.5028 -0.7669 -0.0817
  160TMC2    C8 2497   3.512   3.219   1.188 -0.3208 -0.7092 -0.0164
  160TMC2    O1 2498   3.456   3.494   0.801 -0.2821 -0.0370  0.5513
  160TMC2    O2 2499   3.602   3.180   1.114  0.1938 -0.4041 -0.1382
  160TMC2    O5 2500   3.520   3.187   1.318  1.2159 -0.0891 -0.4920
  160TMC2    H5 2501   3.464   3.250   1.368  1.1698 -0.1569 -0.4594
  161MPD2     C 2502   2.963   3.699   1.452 -0.5198 -0.9227 -0.4299
  161MPD2    C1 2503   2.988   3.719   1.316 -0.7781 -0.1821 -0.6009
  161MPD2    C2 2504   2.925   3.832   1.262 -0.3817  0.3087 -0.1436
  161MPD2    C3 2505   2.841   3.913   1.324  0.2984  0.2981 -0.0715
  161MPD2    C4 2506   2.829   3.894   1.463 -0.0838 -0.4956 -0.6527
  161MPD2    C5 2507   2.896   3.790   1.523  0.4109  0.4958 -0.4104
  161MPD2     H 2508   2.934   3.844   1.154 -1.1333  2.4287  0.0165
  161MPD2    H1 2509   2.756   3.954   1.515 -0.4577 -1.3294 -0.2189
  161MPD2    H2 2510   3.001   3.622   1.518  0.6183 -0.5870 -0.6844
  161MPD2    H3 2511   2.899   3.768   1.629  0.1315 -1.3986 -0.8001
  161MPD2     N 2512   2.774   4.021   1.266  0.3598  0.5078  0.6323
  161MPD2    H5 2513   2.726   4.097   1.314 -0.3920 -0.3261  1.2055
  161MPD2    N1 2514   3.088   3.646   1.248 -0.4060 -0.1631 -0.2172
  161MPD2    H7 2515   3.106   3.676   1.153 -0.4732 -1.2733 -0.5831
  162TMC2    C1 2516   0.888   1.048   1.109  0.3639  0.2731  0.4651
  162TMC2    C2 2517   0.767   1.102   1.148  0.5994 -0.9607  0.0115
  162TMC2    C3 2518   0.769   1.165   1.272 -0.0614  0.0608  0.5470
  162TMC2    C4 2519   1.002   1.065   1.180 -0.2571 -0.5189 -0.4465
  162TMC2    C5 2520   1.001   1.121   1.304 -0.2312  1.0629 -0.4397
  162TMC2    C6 2521   0.882   1.175   1.353  0.5905 -0.4657  0.3911
  162TMC2     C 2522   0.900   0.992   0.971 -0.5973 -0.2538 -0.3058
  162TMC2     O 2523   1.007   0.963   0.922 -0.7733 -0.4534 -0.1296
  162TMC2     H 2524   0.676   1.094   1.091  0.0432  0.5408  0.6900
  162TMC2    H1 2525   1.096   1.032   1.136  0.2854 -0.1237  0.4155
  162TMC2    H2 2526   0.873   1.213   1.454  1.5087  0.9174 -0.0444
  162TMC2    C7 2527   1.129   1.139   1.383  0.3457 -0.4192  0.1548
  162TMC2    C8 2528   0.661   1.242   1.314  0.9482 -0.5026  0.4384
  162TMC2    O1 2529   1.119   1.197   1.491  0.2266  0.2760  0.6017
  162TMC2    O2 2530   0.643   1.274   1.431  0.5132 -0.0379  0.5380
  162TMC2    O5 2531   0.598   1.293   1.208  0.1420  0.0509  0.2518
  162TMC2    H5 2532   0.641   1.282   1.120 -2.3119 -0.5843 -0.8678
  163MPD2     C 2533   0.669   0.842   0.541 -0.0623  0.5592  0.4267
  163MPD2    C1 2534   0.793   0.891   0.562  0.3066 -0.2507  0.3762
  163MPD2    C2 2535   0.831   0.926   0.690 -0.2594 -0.2825  0.7539
  163MPD2    C3 2536   0.735   0.918   0.793  0.0768 -1.1554 -0.5129
  163MPD2    C4 2537   0.606   0.876   0.765  0.1412  0.2094  0.1175
  163MPD2    C5 2538   0.578   0.832   0.640 -0.9075  0.1213  0.6889
  163MPD2     H 2539   0.931   0.962   0.709  0.1609 -0.2221 -1.7032
  163MPD2    H1 2540   0.541   0.865   0.851  0.2147 -0.7967  0.0491
  163MPD2    H2 2541   0.639   0.805   0.444  1.2389  1.6951 -0.4163
  163MPD2    H3 2542   0.478   0.796   0.616 -1.7998  2.2211  1.2987
  163MPD2     N 2543   0.770   0.953   0.926  0.1317  0.1312 -0.4678
  163MPD2    H5 2544   0.689   0.949   0.988  0.4236  0.5774 -0.0534
  163MPD2    N1 2545   0.874   0.904   0.449  0.2877  0.3656  0.1748
  163MPD2    H7 2546   0.841   0.856   0.366  2.7575 -0.3977 -0.3570
  164TMC2    C1 2547   1.522   1.166  10.953 -0.5065  0.2393  1.1971
  164TMC2    C2 2548   1.645   1.216  10.938  0.4751 -0.1825 -0.1813
  164TMC2    C3 2549   1.665   1.327  11.010 -0.5877 -0.4706 -0.2288
  164TMC2    C4 2550   1.412   1.230  11.005  0.4009  0.2225  0.0571
  164TMC2    C5 2551   1.439   1.348  11.068 -0.2233 -0.0022 -1.0251
  164TMC2    C6 2552   1.565   1.397  11.075 -0.1768 -0.6428 -0.1709
  164TMC2     C 2553   1.503   1.044  10.887  0.1146  0.1699  0.3609
  164TMC2     O 2554   1.417   0.979  10.939  1.0811  0.5505  0.6706
  164TMC2     H 2555   1.730   1.160  10.902  0.4963  0.2606 -0.8182
  164TMC2    H1 2556   1.314   1.182  11.003  0.4069  0.2076  0.1278
  164TMC2    H2 2557   1.580   1.501  11.102 -1.3283 -0.1590 -1.3623
  164TMC2    C7 2558   1.332   1.437  11.075 -0.0131 -0.5282  0.6552
  164TMC2    C8 2559   1.800   1.387  10.989 -0.3773  0.2363  0.1153
  164TMC2    O1 2560   1.273   1.463  10.974  0.0969 -0.8506  0.8538
  164TMC2    O2 2561   1.865   1.384  10.885 -0.0019 -0.3524 -0.0426
  164TMC2    O5 2562   1.825   1.462  11.103 -0.1776 -0.8023 -0.0837
  164TMC2    H5 2563   1.786   1.433  11.188  0.7350 -1.8502 -0.0207
  165TMC2    C1 2564   3.189   2.579   1.312  0.2055 -0.6979 -0.1485
  165TMC2    C2 2565   3.296   2.501   1.344  0.4197  0.7089  0.9884
  165TMC2    C3 2566   3.415   2.543   1.298 -0.1147  0.0760  0.1770
  165TMC2    C4 2567   3.201   2.697   1.249  0.0741  0.5516 -0.3881
  165TMC2    C5 2568   3.324   2.733   1.212  0.0724  0.3063  0.3657
  165TMC2    C6 2569   3.435   2.655   1.224  0.0205 -0.6410  0.4661
  165TMC2     C 2570   3.056   2.539   1.353 -0.4435  0.3856 -0.4724
  165TMC2     O 2571   2.977   2.634   1.377  0.3939  0.0779 -0.0029
  165TMC2     H 2572   3.283   2.425   1.421 -1.4469  1.2932  1.2470
  165TMC2    H1 2573   3.111   2.747   1.216  0.0151  0.6846 -0.0259
  165TMC2    H2 2574   3.533   2.684   1.189 -0.7217 -0.1022 -1.1632
  165TMC2    C7 2575   3.330   2.845   1.119  0.1750  0.4074  0.7221
  165TMC2    C8 2576   3.528   2.460   1.311  0.3163  0.0645 -0.3609
  165TMC2    O1 2577   3.426   2.846   1.045 -0.1267  0.4945  0.2004
  165TMC2    O2 2578   3.642   2.493   1.282  0.3685  0.0220 -0.1604
  165TMC2    O5 2579   3.493   2.346   1.375 -0.2137  0.2008  0.1910
  165TMC2    H5 2580   3.399   2.317   1.377  0.0367 -0.6236 -0.0747
  166MPD2     C 2581   2.694   2.222   1.551 -0.0216 -0.0736 -0.0905
  166MPD2    C1 2582   2.700   2.357   1.546  0.1446  0.2130 -0.0465
  166MPD2    C2 2583   2.812   2.423   1.496 -0.2685  0.0708 -0.1653
  166MPD2    C3 2584   2.924   2.354   1.453  0.0835 -0.8583  0.0335
  166MPD2    C4 2585   2.915   2.218   1.456 -0.2779  0.1831 -0.6218
  166MPD2    C5 2586   2.797   2.153   1.497 -0.1135 -0.3806 -0.4438
  166MPD2     H 2587   2.814   2.530   1.479  0.7685  0.0346 -0.3181
  166MPD2    H1 2588   2.999   2.161   1.417  1.7616  1.6903  1.5769
  166MPD2    H2 2589   2.606   2.175   1.594  0.3933 -0.8576 -0.0920
  166MPD2    H3 2590   2.807   2.045   1.500 -0.3652 -0.5491 -4.7883
  166MPD2     N 2591   3.038   2.411   1.392  0.2172  0.1286  0.5433
  166MPD2    H5 2592   3.108   2.348   1.355 -0.6462  0.0421 -0.9264
  166MPD2    N1 2593   2.584   2.427   1.588 -0.0133  0.8741 -0.0365
  166MPD2    H7 2594   2.509   2.365   1.618  0.0144 -0.0690 -1.9189
  167TMC2    C1 2595   0.224   1.093  11.056  1.0902 -0.1857 -0.0836
  167TMC2    C2 2596   0.351   1.136  11.047  0.3325 -0.0275  0.1017
  167TMC2    C3 2597   0.437   1.107  11.152  0.1786 -0.4864 -0.0003
  167TMC2    C4 2598   0.184   1.000  11.141 -0.2633 -0.4287 -0.5502
  167TMC2    C5 2599   0.269   0.970  11.242 -0.0826 -1.0511  0.5636
  167TMC2    C6 2600   0.394   1.031  11.252  0.0525  0.0134 -0.3430
  167TMC2     C 2601   0.125   1.173  10.979  0.2507 -0.5192  0.9379
  167TMC2     O 2602   0.166   1.224  10.876  0.0101 -0.2328  0.2004
  167TMC2     H 2603   0.385   1.218  10.985  2.4326 -0.5676  0.5188
  167TMC2    H1 2604   0.084   0.958  11.136 -0.8855  1.4085 -3.3151
  167TMC2    H2 2605   0.467   1.013  11.330  0.8963  1.0262 -0.9001
  167TMC2    C7 2606   0.232   0.855  11.323  0.1490 -0.4316  0.1412
  167TMC2    C8 2607   0.559   1.192  11.182 -0.3755  1.0382 -0.0375
  167TMC2    O1 2608   0.112   0.832  11.336 -0.1900 -0.8197 -0.3239
  167TMC2    O2 2609   0.589   1.213  11.301  0.3918 -0.0051 -0.1350
  167TMC2    O5 2610   0.633   1.217  11.073 -0.9226  0.1477 -0.0884
  167TMC2    H5 2611   0.596   1.184  10.988 -0.2629 -1.0926  0.1063
  168MPD2     C 2612   4.610   1.232  10.844  0.1391 -0.1195  0.1144
  168MPD2    C1 2613   4.623   1.204  10.979  0.5253 -0.1906  0.2086
  168MPD2    C2 2614   4.493   1.196  11.045 -0.1309  0.0374 -0.0249
  168MPD2    C3 2615   4.364   1.219  10.991  0.2809 -0.1884 -0.2982
  168MPD2    C4 2616   4.361   1.249  10.858  0.5197 -0.3557 -0.5084
  168MPD2    C5 2617   4.483   1.242  10.785  0.0283 -0.6208 -0.2309
  168MPD2     H 2618   4.485   1.163  11.148  3.2192 -1.0065 -0.0987
  168MPD2    H1 2619   4.274   1.276  10.799  0.5776 -0.6190 -0.7130
  168MPD2    H2 2620   4.692   1.240  10.775 -0.1723 -1.0970 -0.3676
  168MPD2    H3 2621   4.476   1.258  10.677 -1.1692 -0.2463 -0.1051
  168MPD2     N 2622   4.247   1.208  11.069 -0.3889  0.3534 -0.4288
  168MPD2    H5 2623   4.271   1.179  11.164  0.9558  0.8310 -0.6298
  168MPD2    N1 2624   0.002   1.171  11.044 -0.1970  0.3145 -0.1036
  168MPD2    H7 2625   4.736   1.144  11.142  1.0345  1.5289  0.2699
  169MPD1     C 2626   0.002   0.691   9.397 -0.2458 -0.1895 -0.9824
  169MPD1    C1 2627   4.686   0.752   9.508  0.2868 -0.0250  0.5639
  169MPD1    C2 2628   4.563   0.700   9.557  0.2138 -0.4755  0.2486
  169MPD1    C3 2629   4.513   0.587   9.512 -0.2152 -0.1895  0.0934
  169MPD1    C4 2630   4.567   0.521   9.399 -0.0296  0.1997 -0.2849
  169MPD1    C5 2631   4.684   0.579   9.348 -0.2721 -0.0504 -0.2686
  169MPD1     H 2632   4.512   0.754   9.636  3.1192  0.5638  1.4022
  169MPD1    H1 2633   4.531   0.437   9.342  0.6847 -1.5478  1.8695
  169MPD1    H2 2634   0.096   0.721   9.351  0.0361  2.3988  1.2619
  169MPD1    H3 2635   0.003   0.537   9.265 -0.5393  0.0560 -0.5016
  169MPD1     N 2636   4.405   0.540   9.585  0.2602  0.2563  0.3263
  169MPD1    H5 2637   4.388   0.585   9.674 -0.2031 -0.2987  0.5143
  169MPD1    N1 2638   0.004   0.872   9.556  0.0082  0.0543  0.4487
  169MPD1    H6 2639   0.105   0.860   9.556 -0.2047 -1.8030  1.9178
  169MPD1    H7 2640   4.717   0.902   9.651  1.4376 -1.1671  1.1995
  170MPD1     C 2641   1.079   2.876  12.556 -0.9554  0.1718 -0.5549
  170MPD1    C1 2642   1.196   2.952  12.551 -0.6351 -0.2606  0.8839
  170MPD1    C2 2643   1.281   2.961  12.656 -0.9188  0.7567  0.5177
  170MPD1    C3 2644   1.238   2.905  12.777 -0.5871 -0.4516  0.3259
  170MPD1    C4 2645   1.118   2.839  12.789 -0.6823 -0.0832  0.3586
  170MPD1    C5 2646   1.042   2.825  12.675 -0.2278 -0.1244  0.0019
  170MPD1     H 2647   1.378   3.008  12.650 -0.3997 -0.4222 -0.4507
  170MPD1    H1 2648   1.090   2.796  12.884  0.1945  2.0091  1.5715
  170MPD1    H2 2649   1.005   2.876  12.477 -0.5049 -0.8044 -0.9754
  170MPD1    H3 2650   0.953   2.763  12.682 -0.4381  0.2500  0.5631
  170MPD1     N 2651   1.331   2.917  12.887  0.1057  0.5213 -0.3671
  170MPD1    H5 2652   1.422   2.955  12.863  0.3319  0.9672  1.1956
  170MPD1    N1 2653   1.236   2.985  12.416 -0.9156 -0.4095  0.3076
  170MPD1    H6 2654   1.154   3.014  12.363 -0.2824 -2.2503 -1.6664
  170MPD1    H7 2655   1.314   3.050  12.417  0.1087 -1.6535 -0.9114
  171MPD1     C 2656   0.011   4.232  15.250  0.1583 -0.3676  0.0361
  171MPD1    C1 2657   4.705   4.106  15.245  0.5956 -0.0426  0.1427
  171MPD1    C2 2658   0.029   4.008  15.313  0.2812 -0.4278  0.1010
  171MPD1    C3 2659   0.144   4.032  15.398 -0.4840  0.5746 -0.5315
  171MPD1    C4 2660   0.196   4.159  15.388 -0.4208 -0.2890 -0.5141
  171MPD1    C5 2661   0.128   4.253  15.314  0.0307  0.0936  0.0755
  171MPD1     H 2662   4.734   3.905  15.301 -1.5571  0.4824 -2.8655
  171MPD1    H1 2663   0.289   4.189  15.436  0.2097 -1.7766 -0.7924
  171MPD1    H2 2664   4.708   4.315  15.193  0.8820 -0.1589 -0.1754
  171MPD1    H3 2665   0.161   4.353  15.289 -0.2449 -0.3351 -2.0078
  171MPD1     N 2666   0.203   3.944  15.485  0.3803  0.8940 -0.5447
  171MPD1    H5 2667   0.278   3.972  15.549 -0.8244 -0.2508  1.3717
  171MPD1    N1 2668   4.589   4.077  15.171 -0.2324  0.0324 -0.3099
  171MPD1    H6 2669   4.580   3.988  15.122  0.2553 -0.4278  0.4367
  171MPD1    H7 2670   4.584   4.140  15.091 -2.5777  0.9827  0.5905
  172MPD1     C 2671   0.145   2.654   0.355  0.8386  0.6814 -0.1554
  172MPD1    C1 2672   0.015   2.681   0.391  0.6055 -0.2398 -0.2699
  172MPD1    C2 2673   4.678   2.765   0.315  0.3047 -0.4171 -0.2233
  172MPD1    C3 2674   4.733   2.811   0.194 -0.0538  0.4760 -0.3381
  172MPD1    C4 2675   0.113   2.758   0.145 -0.1875  0.7699  0.3490
  172MPD1    C5 2676   0.188   2.684   0.230 -0.1133 -0.3248 -0.1731
  172MPD1     H 2677   4.589   2.812   0.357 -0.2603  1.1487 -3.2110
  172MPD1    H1 2678   0.146   2.787   0.046  2.4406  0.2714  1.0634
  172MPD1    H2 2679   0.208   2.607   0.430 -0.2084  0.0177  0.3146
  172MPD1    H3 2680   0.287   2.659   0.193 -0.2141 -0.2855 -0.4671
  172MPD1     N 2681   4.663   2.893   0.095 -0.3577 -0.0428  0.1025
  172MPD1    H5 2682   4.712   2.923   0.011  2.1545  1.8077  2.2466
  172MPD1    N1 2683   4.704   2.649   0.523  0.1160 -0.2251 -0.1236
  172MPD1    H6 2684   4.607   2.659   0.552  0.4449  2.5043  0.0582
  172MPD1    H7 2685   0.006   2.560   0.554  3.2830  1.6549  1.3265
  173MPD1     C 2686   0.382   3.861  13.971  0.8795 -0.0679  0.2630
  173MPD1    C1 2687   0.497   3.794  13.947  0.0724 -0.7894 -0.2018
  173MPD1    C2 2688   0.526   3.682  14.024 -0.0819  0.2788  0.6177
  173MPD1    C3 2689   0.433   3.630  14.117  0.0374  0.5707 -0.8467
  173MPD1    C4 2690   0.313   3.694  14.129 -0.3701 -0.1158  0.3935
  173MPD1    C5 2691   0.288   3.805  14.055  0.8035 -0.1802  0.5623
  173MPD1     H 2692   0.625   3.638  14.017  1.5127  4.0431 -0.4967
  173MPD1    H1 2693   0.237   3.665  14.200  0.4421  0.3980  1.4624
  173MPD1    H2 2694   0.364   3.958  13.924  3.0173  0.7834  1.1879
  173MPD1    H3 2695   0.196   3.855  14.082  0.7252  2.0738 -3.9420
  173MPD1     N 2696   0.465   3.517  14.193  0.2025  0.3475 -0.5170
  173MPD1    H5 2697   0.547   3.460  14.173 -1.1532 -1.6268 -0.4842
  173MPD1    N1 2698   0.605   3.864  13.883  0.2757  0.0672  0.7495
  173MPD1    H6 2699   0.577   3.925  13.807  2.0676 -0.7003 -0.5336
  173MPD1    H7 2700   0.675   3.801  13.844 -1.8553 -3.1831  2.1321
  174MPD1     C 2701   0.395   2.752  13.822  1.2126 -0.3804  0.2004
  174MPD1    C1 2702   0.453   2.709  13.936 -0.1277 -0.8451  0.6093
  174MPD1    C2 2703   0.458   2.792  14.039  0.2094 -0.2498 -0.0035
  174MPD1    C3 2704   0.400   2.921  14.033  0.3534 -0.2461 -0.1069
  174MPD1    C4 2705   0.342   2.964  13.916  0.4569  0.2528  0.0099
  174MPD1    C5 2706   0.337   2.874  13.812 -0.2120 -0.6224 -0.5458
  174MPD1     H 2707   0.520   2.763  14.122  0.0861  1.7860  0.7906
  174MPD1    H1 2708   0.297   3.062  13.901  1.1735  0.4598 -0.7532
  174MPD1    H2 2709   0.371   2.683  13.741  3.5166  1.1015 -1.7367
  174MPD1    H3 2710   0.292   2.904  13.718 -1.6228  1.9355  0.9328
  174MPD1     N 2711   0.416   3.022  14.131 -0.0078 -0.5174 -0.0450
  174MPD1    H5 2712   0.370   3.110  14.113 -1.7216 -1.4665 -0.3169
  174MPD1    N1 2713   0.525   2.589  13.934  0.1081  0.0445 -0.9751
  174MPD1    H6 2714   0.534   2.557  14.030  0.4089 -0.2023 -1.0848
  174MPD1    H7 2715   0.482   2.518  13.874 -2.7930  1.4468 -0.5125
  175MPD1     C 2716   4.358   3.828  15.334  0.0886  0.3241  0.3939
  175MPD1    C1 2717   4.220   3.812  15.325 -0.0449 -0.1272  0.1863
  175MPD1    C2 2718   4.159   3.776  15.447  0.0150 -0.4858  0.0987
  175MPD1    C3 2719   4.222   3.781  15.567  0.0176  1.0638 -0.2197
  175MPD1    C4 2720   4.359   3.786  15.575  0.0134  0.0054  0.0154
  175MPD1    C5 2721   4.423   3.811  15.460 -0.1659  0.1687 -0.8722
  175MPD1     H 2722   4.053   3.757  15.433 -0.5987  1.9648  1.5934
  175MPD1    H1 2723   4.405   3.786  15.673  0.5507  0.1921 -0.2344
  175MPD1    H2 2724   4.422   3.856  15.251 -1.3186  1.0804 -0.4227
  175MPD1    H3 2725   4.531   3.823  15.464 -0.0042 -0.8821 -1.9208
  175MPD1     N 2726   4.163   3.764  15.695 -0.4342 -0.3521 -0.0397
  175MPD1    H5 2727   4.230   3.763  15.771  1.2350  2.1430 -1.4770
  175MPD1    N1 2728   4.152   3.801  15.199  0.0136  0.0229  0.3429
  175MPD1    H6 2729   4.050   3.810  15.201  0.0532  0.0874  1.9028
  175MPD1    H7 2730   4.194   3.864  15.130  0.1425 -0.6908 -0.2305
  176MPD1     C 2731   0.932   1.345  16.498 -0.4138  0.2054 -0.4945
  176MPD1    C1 2732   0.994   1.467  16.492  0.1417 -0.3849  0.4972
  176MPD1    C2 2733   0.973   1.552  16.597  0.0124 -0.2684  0.3907
  176MPD1    C3 2734   0.926   1.507  16.721  0.5916  0.3327  0.3310
  176MPD1    C4 2735   0.879   1.379  16.728 -0.0258 -0.2549  0.1782
  176MPD1    C5 2736   0.883   1.296  16.618 -0.8310 -0.4802  0.1930
  176MPD1     H 2737   1.023   1.648  16.593  0.0165 -0.2793  0.2091
  176MPD1    H1 2738   0.827   1.335  16.812  0.8123 -0.2060  0.7208
  176MPD1    H2 2739   0.918   1.273  16.419  0.3753 -0.2524 -0.2131
  176MPD1    H3 2740   0.844   1.198  16.641  0.2488 -1.2213 -1.1516
  176MPD1     N 2741   0.914   1.599  16.828 -0.3637  0.1488 -0.5467
  176MPD1    H5 2742   0.923   1.697  16.805 -1.4701  0.5785  0.8258
  176MPD1    N1 2743   1.043   1.521  16.369 -0.5423 -0.6375 -0.8696
  176MPD1    H6 2744   1.139   1.551  16.383  0.2810 -3.2870 -0.6931
  176MPD1    H7 2745   1.061   1.458  16.291 -1.8325 -1.2744 -0.6580
  177MPD1     C 2746   4.118   1.794  10.152 -0.4601 -0.1440 -0.9454
  177MPD1    C1 2747   4.023   1.711  10.097  0.5149 -0.7305  0.1867
  177MPD1    C2 2748   3.926   1.761  10.007 -0.3474  0.2887 -0.5157
  177MPD1    C3 2749   3.933   1.893   9.963  0.2220  0.8903  0.3197
  177MPD1    C4 2750   4.048   1.966  10.001 -0.0330 -0.4609 -0.8477
  177MPD1    C5 2751   4.131   1.916  10.095  0.3261 -0.4863 -0.4654
  177MPD1     H 2752   3.840   1.698   9.986 -0.4483 -0.5329  2.3332
  177MPD1    H1 2753   4.067   2.067   9.969 -0.4307 -0.5980 -1.5236
  177MPD1    H2 2754   4.185   1.758  10.229 -0.0801  1.4513 -0.5191
  177MPD1    H3 2755   4.207   1.982  10.134 -0.3150  0.4445 -0.7809
  177MPD1     N 2756   3.843   1.938   9.865  0.1274  0.0216  0.0980
  177MPD1    H5 2757   3.762   1.878   9.851  1.1846 -1.0812 -1.3516
  177MPD1    N1 2758   4.010   1.582  10.151 -0.2489  0.1995 -0.1886
  177MPD1    H6 2759   3.989   1.511  10.082  1.2616 -0.0169 -0.4257
  177MPD1    H7 2760   4.091   1.567  10.212  3.1805 -0.0526 -4.7931
  178MPD1     C 2761   1.485   1.883   0.370 -0.9086  0.2737  0.3610
  178MPD1    C1 2762   1.404   1.861   0.265 -0.1244  0.1089 -0.7291
  178MPD1    C2 2763   1.469   1.869   0.138  0.0074  0.0294  0.2447
  178MPD1    C3 2764   1.597   1.930   0.126 -0.2316 -0.8156  0.2869
  178MPD1    C4 2765   1.668   1.966   0.233 -0.3150  0.9105 -0.1686
  178MPD1    C5 2766   1.612   1.937   0.355 -0.5487 -0.3287 -0.5060
  178MPD1     H 2767   1.417   1.833   0.050  1.1361 -4.2161  1.3060
  178MPD1    H1 2768   1.763   2.017   0.224  0.2899 -0.1935 -0.0397
  178MPD1    H2 2769   1.450   1.869   0.471 -1.0238 -0.2914  0.2402
  178MPD1    H3 2770   1.666   1.967   0.444 -1.2384  1.1473 -0.5868
  178MPD1     N 2771   1.658   1.965   0.000  0.3912  0.0373  0.0793
  178MPD1    H5 2772   1.746   2.015  17.741 -0.6768  1.8827 -0.1122
  178MPD1    N1 2773   1.276   1.807   0.280 -0.3335  0.2413  0.2961
  178MPD1    H6 2774   1.230   1.855   0.357 -0.9071 -0.1690  0.2100
  178MPD1    H7 2775   1.213   1.832   0.204  0.2606 -1.6173 -0.7829
  179MPD1     C 2776   1.585   0.587  15.656 -0.4122 -0.5548  0.5692
  179MPD1    C1 2777   1.502   0.565  15.553  0.1350  0.1277  0.1453
  179MPD1    C2 2778   1.447   0.442  15.535 -0.3778  0.5032  0.9500
  179MPD1    C3 2779   1.472   0.347  15.635 -0.5125 -0.3955 -0.2179
  179MPD1    C4 2780   1.551   0.373  15.734 -0.0974 -0.2967  0.4187
  179MPD1    C5 2781   1.597   0.499  15.755 -0.5490 -0.1674 -0.7865
  179MPD1     H 2782   1.387   0.416  15.449 -0.3831  0.0345  1.0960
  179MPD1    H1 2783   1.554   0.305  15.818 -0.4795 -0.6063  0.1795
  179MPD1    H2 2784   1.637   0.682  15.654  1.5260 -1.5974  0.6964
  179MPD1    H3 2785   1.656   0.524  15.842  0.4116 -1.4304 -1.0694
  179MPD1     N 2786   1.423   0.212  15.629 -0.2146  0.0911 -0.3093
  179MPD1    H5 2787   1.451   0.141  15.695  1.1456  0.7763 -0.1522
  179MPD1    N1 2788   1.483   0.661  15.446 -0.2702  0.4238 -0.3218
  179MPD1    H6 2789   1.399   0.637  15.393 -0.5484 -1.2224  0.8673
  179MPD1    H7 2790   1.488   0.760  15.470  1.3534  0.7284 -1.9026
  180MPD1     C 2791   0.386   1.853  14.809  0.3368  0.2339  0.2678
  180MPD1    C1 2792   0.340   1.764  14.723 -0.0926 -0.0558  0.4277
  180MPD1    C2 2793   0.414   1.761  14.601 -0.2395  0.0623  0.0147
  180MPD1    C3 2794   0.535   1.832  14.582 -0.5842 -0.1215 -0.2327
  180MPD1    C4 2795   0.575   1.912  14.681  1.0749 -0.3982 -0.2523
  180MPD1    C5 2796   0.501   1.922  14.793 -0.0376  0.5694 -0.9929
  180MPD1     H 2797   0.372   1.704  14.518 -0.0452  1.5107 -1.0630
  180MPD1    H1 2798   0.667   1.969  14.666  0.6275  0.6503  1.0196
  180MPD1    H2 2799   0.334   1.869  14.903 -0.4224 -2.1218  0.2413
  180MPD1    H3 2800   0.532   1.984  14.876 -0.3405 -0.0516 -0.4123
  180MPD1     N 2801   0.607   1.803  14.469 -0.2962 -0.4169  0.4802
  180MPD1    H5 2802   0.566   1.735  14.406 -0.2512 -1.5557  1.6795
  180MPD1    N1 2803   0.218   1.712  14.746  0.1252  0.1899  0.0079
  180MPD1    H6 2804   0.202   1.624  14.699  3.6161 -0.2835 -0.3048
  180MPD1    H7 2805   0.217   1.683  14.844 -1.4296  1.1767  0.2854
  181MPD1     C 2806   4.474   4.370   9.559  0.8337 -0.0954 -0.4799
  181MPD1    C1 2807   4.398   4.486   9.558  0.4478 -0.4585  0.2128
  181MPD1    C2 2808   4.292   4.495   9.645  0.6399  0.1296 -0.1242
  181MPD1    C3 2809   4.282   4.408   9.749  0.1466  0.1223  0.5421
  181MPD1    C4 2810   4.370   4.300   9.757 -0.7364 -0.2698 -0.2555
  181MPD1    C5 2811   4.453   4.274   9.651  0.3177  0.5578  0.0244
  181MPD1     H 2812   4.240   4.591   9.642 -1.5272 -1.0746 -1.5035
  181MPD1    H1 2813   4.372   4.217   9.827  1.2940 -0.2617 -0.3221
  181MPD1    H2 2814   4.534   4.341   9.474  0.5612  0.2017 -0.7738
  181MPD1    H3 2815   4.503   4.177   9.646 -0.8269 -0.1371  2.1792
  181MPD1     N 2816   4.182   4.422   9.847  0.1661 -0.9340 -0.3363
  181MPD1    H5 2817   4.157   4.346   9.909  1.4468 -0.4182  0.8326
  181MPD1    N1 2818   4.408   4.581   9.457 -0.6205 -0.0529 -0.3802
  181MPD1    H6 2819   4.506   4.597   9.438 -0.3951 -0.1006  0.7706
  181MPD1    H7 2820   4.373   4.671   9.488 -1.3222 -0.2484 -0.6018
  182MPD1     C 2821   3.686   1.364   1.138 -0.2525  0.0237 -0.6890
  182MPD1    C1 2822   3.712   1.467   1.224 -0.3649  0.5508  0.1747
  182MPD1    C2 2823   3.673   1.596   1.189  0.4048 -0.3547  0.7887
  182MPD1    C3 2824   3.609   1.619   1.068  0.2345  0.0517  0.2575
  182MPD1    C4 2825   3.577   1.515   0.986  0.2102 -0.6239 -0.3874
  182MPD1    C5 2826   3.622   1.388   1.022 -0.2736 -0.7187  0.7308
  182MPD1     H 2827   3.688   1.683   1.252 -0.9582  0.1618  0.3994
  182MPD1    H1 2828   3.525   1.526   0.892  0.2506 -0.8576 -0.4358
  182MPD1    H2 2829   3.711   1.260   1.155 -3.3946  0.0225  3.6929
  182MPD1    H3 2830   3.612   1.308   0.951  0.1928  0.9826 -1.2542
  182MPD1     N 2831   3.580   1.745   1.016  0.0364 -0.6054  0.4758
  182MPD1    H5 2832   3.546   1.754   0.921  0.4362  2.6525  0.6356
  182MPD1    N1 2833   3.754   1.442   1.355 -1.0378  0.1808 -0.0936
  182MPD1    H6 2834   3.820   1.511   1.389  0.2741 -1.1980  0.1686
  182MPD1    H7 2835   3.798   1.350   1.356  0.6959  1.0389  1.2837
  183MPD1     C 2836   3.271   3.056   9.022 -0.1731  0.1727 -0.0956
  183MPD1    C1 2837   3.392   2.992   9.045 -0.1284 -0.0556 -0.0242
  183MPD1    C2 2838   3.449   3.002   9.170 -0.4386  0.1153  0.8881
  183MPD1    C3 2839   3.397   3.090   9.267 -0.4489 -0.6429 -0.1782
  183MPD1    C4 2840   3.281   3.163   9.232  0.8117 -0.4014 -0.0412
  183MPD1    C5 2841   3.214   3.146   9.114 -0.1501 -0.7646  0.0174
  183MPD1     H 2842   3.527   2.930   9.195  0.6031  0.5707 -1.0662
  183MPD1    H1 2843   3.237   3.231   9.304  0.0827 -0.4179 -0.4736
  183MPD1    H2 2844   3.219   3.050   8.927  1.7951  1.5677 -1.2753
  183MPD1    H3 2845   3.121   3.199   9.093  0.7096  1.0944  0.9568
  183MPD1     N 2846   3.455   3.102   9.395 -0.1588 -0.5578  0.3837
  183MPD1    H5 2847   3.540   3.048   9.410 -0.1556 -0.2713  1.3787
  183MPD1    N1 2848   3.436   2.893   8.953 -0.1223 -0.2843 -0.0849
  183MPD1    H6 2849   3.538   2.886   8.954 -0.0340  0.8626 -1.5656
  183MPD1    H7 2850   3.401   2.909   8.859  0.2826  0.2967 -0.1405
  184MPD1     C 2851   2.967   0.852  10.118 -0.9867 -0.1036 -0.7154
  184MPD1    C1 2852   3.091   0.913  10.146  0.1458  0.0604  0.2560
  184MPD1    C2 2853   3.107   1.044  10.104 -0.9380  0.0631 -0.3646
  184MPD1    C3 2854   3.022   1.099  10.012 -0.4563  0.1970  0.9677
  184MPD1    C4 2855   2.907   1.038   9.975  0.0733  0.3283 -0.8791
  184MPD1    C5 2856   2.878   0.912  10.029 -0.2464 -0.4060  0.2233
  184MPD1     H 2857   3.197   1.099  10.129 -0.8843  0.5743 -1.6598
  184MPD1    H1 2858   2.847   1.080   9.895 -2.0753  1.0076  1.0810
  184MPD1    H2 2859   2.937   0.752  10.147  3.5315 -0.5132  2.6294
  184MPD1    H3 2860   2.786   0.865   9.996  0.4854 -0.7882 -1.2960
  184MPD1     N 2861   3.055   1.216   9.944 -0.2678  0.2399 -0.0499
  184MPD1    H5 2862   2.984   1.246   9.878 -0.2668  1.1358  0.3530
  184MPD1    N1 2863   3.178   0.857  10.242  0.2300  0.5955 -0.4405
  184MPD1    H6 2864   3.192   0.757  10.228  2.5764  0.7686  0.7104
  184MPD1    H7 2865   3.270   0.897  10.224  0.2118  0.7600 -0.1683
  185MPD1     C 2866   2.863   1.526   9.044  1.0582  0.2619  0.5400
  185MPD1    C1 2867   2.885   1.398   9.095 -0.0872  0.9415  0.3172
  185MPD1    C2 2868   2.936   1.383   9.222  0.3225  0.1793 -0.1686
  185MPD1    C3 2869   2.983   1.498   9.284  0.0297  0.3938 -0.5225
  185MPD1    C4 2870   2.973   1.619   9.223  0.0611  0.3067 -0.0306
  185MPD1    C5 2871   2.915   1.634   9.109  0.1867  0.8997 -0.6694
  185MPD1     H 2872   2.926   1.286   9.269 -3.6506  0.6900  0.0670
  185MPD1    H1 2873   3.021   1.706   9.267  1.9594 -0.7722  0.0228
  185MPD1    H2 2874   2.798   1.545   8.960 -0.0532 -1.1468  1.0803
  185MPD1    H3 2875   2.907   1.735   9.071  1.5282  2.7009  3.9191
  185MPD1     N 2876   3.055   1.501   9.411 -0.1449  0.4301  0.6314
  185MPD1    H5 2877   3.088   1.591   9.444  0.5775 -0.1621  1.5263
  185MPD1    N1 2878   2.830   1.279   9.034 -0.1203  0.0489  0.1437
  185MPD1    H6 2879   2.882   1.198   9.067 -1.3847 -1.9722 -2.8708
  185MPD1    H7 2880   2.839   1.282   8.933  0.7296 -0.0991  0.2114
  186MPD1     C 2881   1.006   0.766  15.375  0.3664 -0.6947  0.1258
  186MPD1    C1 2882   1.126   0.810  15.332  0.6335  0.2362 -0.2173
  186MPD1    C2 2883   1.208   0.853  15.431 -0.1711 -0.3044 -0.1038
  186MPD1    C3 2884   1.184   0.841  15.568 -0.3163  0.1931 -0.5671
  186MPD1    C4 2885   1.054   0.818  15.605 -0.1559  0.7364 -0.3782
  186MPD1    C5 2886   0.964   0.783  15.503  0.0971  0.4542  0.7646
  186MPD1     H 2887   1.303   0.896  15.400 -1.3509  2.5747  0.2782
  186MPD1    H1 2888   1.025   0.817  15.709 -0.1694 -3.3350 -0.3915
  186MPD1    H2 2889   0.925   0.738  15.309 -0.6984  1.4324  0.5102
  186MPD1    H3 2890   0.859   0.771  15.524  0.1506  0.7321  1.1955
  186MPD1     N 2891   1.285   0.870  15.661 -0.8066 -0.2517  0.2993
  186MPD1    H5 2892   1.257   0.855  15.757 -2.7783  3.1875  0.2568
  186MPD1    N1 2893   1.162   0.801  15.193  0.1398 -1.0698 -0.2576
  186MPD1    H6 2894   1.226   0.876  15.169 -0.0939 -1.3277 -1.6679
  186MPD1    H7 2895   1.080   0.811  15.133  1.6800  0.0175 -2.1746
  187MPD1     C 2896   1.255   2.083  17.724 -0.3680  0.1594 -0.0442
  187MPD1    C1 2897   1.329   2.176  17.656  0.1682  0.3235  0.7103
  187MPD1    C2 2898   1.266   2.270  17.577 -0.3195 -0.5418 -0.4085
  187MPD1    C3 2899   1.133   2.259  17.552 -0.0985 -1.0577 -0.0028
  187MPD1    C4 2900   1.059   2.159  17.612  0.5169 -0.2534 -0.3066
  187MPD1    C5 2901   1.118   2.076  17.701  0.1951 -0.2036  0.4537
  187MPD1     H 2902   1.331   2.353  17.554 -0.9084  0.2771  0.8758
  187MPD1    H1 2903   0.951   2.158  17.599  0.2838 -2.7059  1.6932
  187MPD1    H2 2904   1.295   2.019   0.056 -0.0046 -0.0486 -0.4065
  187MPD1    H3 2905   1.059   2.009   0.016 -0.1706 -2.4499 -2.3507
  187MPD1     N 2906   1.068   2.338  17.459 -0.1419  0.8477  0.2092
  187MPD1    H5 2907   0.969   2.320  17.445 -0.2227  0.9258  0.6779
  187MPD1    N1 2908   1.465   2.209  17.690  0.1287 -0.1210  0.0793
  187MPD1    H6 2909   1.516   2.256  17.615  1.9771  1.0861  2.0970
  187MPD1    H7 2910   1.518   2.124  17.709 -0.3429 -0.5557 -0.5576
  188MPD1     C 2911   0.819   2.479   9.918 -0.3122  0.3498 -0.0364
  188MPD1    C1 2912   0.748   2.445   9.808  0.0996 -0.0788 -0.3576
  188MPD1    C2 2913   0.763   2.317   9.757 -0.4778 -0.0100  0.4765
  188MPD1    C3 2914   0.866   2.239   9.808 -0.5127 -0.2236  0.3686
  188MPD1    C4 2915   0.941   2.283   9.913 -0.5177 -0.0147 -0.0095
  188MPD1    C5 2916   0.925   2.406   9.962  0.3239 -0.1353 -0.0014
  188MPD1     H 2917   0.697   2.276   9.681 -0.8118  2.2911 -0.5043
  188MPD1    H1 2918   1.033   2.232   9.938 -0.5280 -0.4002 -0.7588
  188MPD1    H2 2919   0.807   2.576   9.966 -0.3808  0.5366 -0.4294
  188MPD1    H3 2920   0.997   2.435  10.037  1.2459 -1.1684 -0.4831
  188MPD1     N 2921   0.897   2.112   9.752  0.2019  0.2598  0.2810
  188MPD1    H5 2922   0.973   2.060   9.794 -0.5408 -1.4070 -0.4326
  188MPD1    N1 2923   0.641   2.524   9.774 -0.4798 -0.1266 -0.2852
  188MPD1    H6 2924   0.621   2.508   9.675  0.6287 -0.5279 -0.4464
  188MPD1    H7 2925   0.652   2.623   9.794 -1.8323 -0.0165 -0.0721
  189MPD1     C 2926   2.491   3.018  17.077 -0.2032 -0.0376  0.1513
  189MPD1    C1 2927   2.506   3.152  17.044 -0.2155 -0.0390 -0.3541
  189MPD1    C2 2928   2.481   3.245  17.143  0.6065 -0.4578 -0.4371
  189MPD1    C3 2929   2.463   3.204  17.273 -0.6251  0.0618 -0.8775
  189MPD1    C4 2930   2.478   3.075  17.305 -0.2477  0.2501 -1.1774
  189MPD1    C5 2931   2.487   2.980  17.207 -0.2464 -0.3448 -0.3845
  189MPD1     H 2932   2.483   3.350  17.118 -2.0634  0.5521  3.7243
  189MPD1    H1 2933   2.466   3.044  17.409  2.6590  1.1759 -0.5725
  189MPD1    H2 2934   2.482   2.939  17.003  0.3878 -0.2174  0.2662
  189MPD1    H3 2935   2.492   2.877  17.242  1.2265 -0.8774 -2.1578
  189MPD1     N 2936   2.422   3.302  17.365 -1.1916 -0.3518  0.3187
  189MPD1    H5 2937   2.420   3.395  17.323  1.0473  0.2675  1.5783
  189MPD1    N1 2938   2.512   3.197  16.912 -0.1715  0.0472 -0.3776
  189MPD1    H6 2939   2.555   3.128  16.851  0.1049 -0.2476  0.1509
  189MPD1    H7 2940   2.557   3.287  16.897  1.5430 -1.0079 -1.6194
  190MPD1     C 2941   2.045   2.188  14.739  0.0024 -0.0636  0.0370
  190MPD1    C1 2942   2.103   2.071  14.782  0.2023  0.3797  0.9643
  190MPD1    C2 2943   2.038   1.993  14.878  0.3416  0.4587  0.1840
  190MPD1    C3 2944   1.925   2.040  14.934 -0.4817 -0.1201 -0.0942
  190MPD1    C4 2945   1.860   2.153  14.892 -0.0755  0.1753 -0.2103
  190MPD1    C5 2946   1.917   2.219  14.791  0.2202 -0.2665 -0.1363
  190MPD1     H 2947   2.064   1.892  14.904 -1.1000  0.3703  1.3235
  190MPD1    H1 2948   1.767   2.193  14.930  0.7129  0.7521  1.1086
  190MPD1    H2 2949   2.097   2.254  14.671  2.8601 -1.4977  0.8147
  190MPD1    H3 2950   1.864   2.304  14.750 -0.2400 -1.1586 -1.3797
  190MPD1     N 2951   1.882   1.966  15.047  0.3075  0.2275  0.8815
  190MPD1    H5 2952   1.933   1.884  15.078 -0.6669 -0.7494 -0.1386
  190MPD1    N1 2953   2.206   2.019  14.701 -0.3142  0.4218 -0.0324
  190MPD1    H6 2954   2.259   2.095  14.660  0.6177  0.0169  0.4415
  190MPD1    H7 2955   2.283   1.964  14.736 -0.4330 -0.3772 -1.0207
  191MPD1     C 2956   0.602   3.585  12.682  0.0408  0.0350 -0.5002
  191MPD1    C1 2957   0.679   3.600  12.567 -0.7357 -0.2179  0.5630
  191MPD1    C2 2958   0.661   3.711  12.483 -0.6920  0.8155  0.2424
  191MPD1    C3 2959   0.559   3.804  12.505  0.9703 -0.2589 -0.4537
  191MPD1    C4 2960   0.468   3.768  12.606 -0.0555 -0.5960  0.7413
  191MPD1    C5 2961   0.493   3.669  12.690 -0.2169  0.5697 -0.7269
  191MPD1     H 2962   0.738   3.736  12.411  3.3864 -0.3930  4.1000
  191MPD1    H1 2963   0.389   3.839  12.625  1.2101  1.0254 -0.0809
  191MPD1    H2 2964   0.621   3.511  12.758 -2.1565 -1.9466 -1.8820
  191MPD1    H3 2965   0.426   3.657  12.775 -0.2309 -0.1573 -0.8411
  191MPD1     N 2966   0.543   3.913  12.418  0.0865  0.4788  0.0249
  191MPD1    H5 2967   0.630   3.932  12.371  1.1457 -1.4819  1.1977
  191MPD1    N1 2968   0.795   3.519  12.551  0.0827 -0.3485  0.0336
  191MPD1    H6 2969   0.789   3.429  12.598 -2.8154  0.3114  0.9590
  191MPD1    H7 2970   0.819   3.504  12.454  0.2618  1.7475 -0.2558
  192MPD1     C 2971   0.006   0.095  12.188  0.0022 -0.0737  0.6456
  192MPD1    C1 2972   4.713   4.705  12.130  0.3394 -0.2043 -0.5288
  192MPD1    C2 2973   0.065   4.603  12.151 -0.9949 -0.4759  0.2779
  192MPD1    C3 2974   0.193   4.628  12.187  0.1308  0.3290 -0.6078
  192MPD1    C4 2975   0.241   0.018  12.218 -0.0806  0.0485 -0.2040
  192MPD1    C5 2976   0.140   0.111  12.221 -0.2236  0.1679  0.0330
  192MPD1     H 2977   0.035   4.504  12.121  2.8020 -0.9477 -2.0094
  192MPD1    H1 2978   0.342   0.052  12.237  0.0376 -2.3975  3.4622
  192MPD1    H2 2979   4.675   0.177  12.208  1.2208  0.4532  2.5894
  192MPD1    H3 2980   0.161   0.215  12.246 -1.3945  0.1572  1.1292
  192MPD1     N 2981   0.292   4.525  12.212 -0.0827  0.1178  0.2767
  192MPD1    H5 2982   0.388   4.553  12.226 -0.5353  0.4636  2.7867
  192MPD1    N1 2983   4.577   4.677  12.106  0.0150 -0.0674  0.0921
  192MPD1    H6 2984   4.567   4.592  12.052  0.1067 -0.0130 -0.0112
  192MPD1    H7 2985   4.518   0.016  12.073  0.5652  1.3542  2.3325
  193MPD1     C 2986   0.124   3.392  16.088 -0.0583  0.2535  0.8288
  193MPD1    C1 2987   0.075   3.521  16.109 -0.2483 -0.2078 -0.1675
  193MPD1    C2 2988   0.145   3.620  16.182 -0.4264 -0.3962  0.7796
  193MPD1    C3 2989   0.271   3.587  16.232 -0.7810  0.5995  0.1029
  193MPD1    C4 2990   0.320   3.461  16.211 -0.2182 -0.5533 -0.2137
  193MPD1    C5 2991   0.248   3.371  16.137  0.1968  0.7238 -0.1943
  193MPD1     H 2992   0.091   3.711  16.205  0.1893  0.1268  0.1674
  193MPD1    H1 2993   0.410   3.422  16.257  0.2884 -2.9254 -3.2160
  193MPD1    H2 2994   0.081   3.318  16.021  2.3549 -0.4865  0.1205
  193MPD1    H3 2995   0.292   3.273  16.119 -1.5547  0.4112 -2.8480
  193MPD1     N 2996   0.351   3.680  16.303  0.2380 -0.4389  0.4584
  193MPD1    H5 2997   0.434   3.643  16.347  0.8881  0.6023  0.1085
  193MPD1    N1 2998   4.687   3.547  16.063  1.6400 -1.1309 -0.6881
  193MPD1    H6 2999   4.625   3.466  16.063  0.5067 -0.2576  1.0343
  193MPD1    H7 3000   4.654   3.621  16.124  2.2734 -1.4107  0.0000
  194MPD1     C 3001   3.725   1.060  16.392 -0.5958 -0.5932  0.0224
  194MPD1    C1 3002   3.603   1.021  16.331 -0.0565  0.3082  0.0920
  194MPD1    C2 3003   3.505   0.956  16.407 -0.3649  0.0306 -0.4008
  194MPD1    C3 3004   3.525   0.930  16.545 -0.6498  0.7056  0.0250
  194MPD1    C4 3005   3.644   0.979  16.600  0.6210  0.9979 -0.1259
  194MPD1    C5 3006   3.741   1.043  16.530 -0.0208  0.6717  0.0388
  194MPD1     H 3007   3.416   0.922  16.355 -0.4061 -0.1404 -0.2193
  194MPD1    H1 3008   3.668   0.963  16.704 -2.8402  2.8629  0.9743
  194MPD1    H2 3009   3.806   1.103  16.333 -0.3088  0.2188  1.0128
  194MPD1    H3 3010   3.835   1.075  16.573 -0.0036 -0.2484  0.6677
  194MPD1     N 3011   3.431   0.858  16.626 -0.4196  0.0472 -0.0034
  194MPD1    H5 3012   3.455   0.845  16.723  1.3446  0.1651 -0.4199
  194MPD1    N1 3013   3.567   1.043  16.198 -0.5013 -0.5302 -0.0255
  194MPD1    H6 3014   3.515   0.962  16.166  0.1387 -1.8843  2.3574
  194MPD1    H7 3015   3.644   1.055  16.133 -2.0951  1.8241 -1.4917
  195MPD1     C 3016   1.004   2.829   0.260 -0.0485 -1.0241 -0.2780
  195MPD1    C1 3017   0.872   2.859   0.229  0.2601  0.0912  0.5111
  195MPD1    C2 3018   0.781   2.759   0.256 -0.8326  0.6090  0.5529
  195MPD1    C3 3019   0.821   2.632   0.309  0.7875 -0.4991 -0.5253
  195MPD1    C4 3020   0.957   2.609   0.333  0.1657 -0.2156 -0.4852
  195MPD1    C5 3021   1.042   2.703   0.298 -0.3316  0.0827 -0.1493
  195MPD1     H 3022   0.678   2.788   0.238 -0.5443  1.1645 -0.2577
  195MPD1    H1 3023   0.998   2.516   0.371 -1.0409 -0.3838  0.4174
  195MPD1    H2 3024   1.075   2.910   0.244 -0.0129 -0.8053  1.0229
  195MPD1    H3 3025   1.149   2.685   0.310  0.3556  3.1105 -1.9089
  195MPD1     N 3026   0.734   2.514   0.308  0.1445 -0.1598  0.0741
  195MPD1    H5 3027   0.779   2.433   0.348  0.6642 -0.4823 -1.1766
  195MPD1    N1 3028   0.831   2.995   0.218 -0.1704  0.2316 -0.6188
  195MPD1    H6 3029   0.763   3.011   0.144 -1.5090  1.7863  0.9517
  195MPD1    H7 3030   0.909   3.059   0.203 -0.4702  0.3232 -1.7793
  196MPD1     C 3031   3.725   1.169   0.130  0.1602 -0.0057  0.4535
  196MPD1    C1 3032   3.829   1.245   0.094 -0.1549 -0.2884 -0.5741
  196MPD1    C2 3033   3.899   1.319   0.189 -0.3248 -0.4914  0.3711
  196MPD1    C3 3034   3.875   1.293   0.327 -0.0638 -0.1378  0.3727
  196MPD1    C4 3035   3.782   1.199   0.360 -0.5600  0.4414 -0.1261
  196MPD1    C5 3036   3.713   1.133   0.263  0.0082  0.5836 -0.0100
  196MPD1     H 3037   3.971   1.392   0.154 -0.8716  0.5943  1.5388
  196MPD1    H1 3038   3.758   1.173   0.463  2.0908 -2.1887 -0.1985
  196MPD1    H2 3039   3.676   1.103   0.060 -0.6978  0.9000  0.1928
  196MPD1    H3 3040   3.637   1.062   0.292  4.2838 -3.7571  0.6870
  196MPD1     N 3041   3.952   1.363   0.429  0.0420 -0.1646  0.5787
  196MPD1    H5 3042   3.943   1.329   0.524 -0.9421 -2.5107 -0.3706
  196MPD1    N1 3043   3.851   1.271  17.703 -0.0793 -0.3069  0.6985
  196MPD1    H6 3044   3.830   1.183  17.656  2.5599 -2.1075  2.8608
  196MPD1    H7 3045   3.946   1.301  17.679  0.4021 -2.0033  0.4390
  197MPD1     C 3046   3.641   0.090  17.633 -0.3985 -0.0473 -0.3682
  197MPD1    C1 3047   3.636   4.709  17.565  0.4227 -0.2498  0.0831
  197MPD1    C2 3048   3.732   4.687  17.468 -0.2611 -0.1777  0.5402
  197MPD1    C3 3049   3.830   0.046  17.441  0.3411 -0.1376 -0.7134
  197MPD1    C4 3050   3.818   0.170  17.500 -0.0877  0.3750 -0.4613
  197MPD1    C5 3051   3.730   0.181  17.599 -0.1073  0.0227  0.1137
  197MPD1     H 3052   3.737   4.597  17.408  1.5595 -0.2021  0.7315
  197MPD1    H1 3053   3.895   0.246  17.486  0.6540 -0.5587 -1.4382
  197MPD1    H2 3054   3.570   0.129  17.705 -0.8224 -2.0133  0.2754
  197MPD1    H3 3055   3.733   0.275  17.654 -2.2876  0.2130 -0.0999
  197MPD1     N 3056   3.931   0.025  17.348 -0.2651 -0.0273 -0.2865
  197MPD1    H5 3057   3.984   0.109  17.326 -2.1112  1.3377  0.4566
  197MPD1    N1 3058   3.529   4.622  17.585  0.5670 -0.1310 -0.1572
  197MPD1    H6 3059   3.539   4.532  17.539  1.5114 -1.3094  2.4031
  197MPD1    H7 3060   3.507   4.621  17.684 -0.5857 -0.6715 -0.4248
  198MPD1     C 3061   0.963   2.498  14.710  0.6724  0.4375  0.5657
  198MPD1    C1 3062   1.083   2.450  14.764 -0.2176 -0.4978  0.5548
  198MPD1    C2 3063   1.159   2.536  14.846  0.2244  1.1721 -0.0108
  198MPD1    C3 3064   1.106   2.654  14.890 -0.3248 -1.2297 -0.3177
  198MPD1    C4 3065   0.986   2.699  14.838 -0.3194 -0.1048  0.2597
  198MPD1    C5 3066   0.916   2.623  14.750 -0.3075  0.6444  0.1979
  198MPD1     H 3067   1.253   2.503  14.889  0.0514 -0.6058 -0.9819
  198MPD1    H1 3068   0.939   2.794  14.862  1.4497  0.6688  0.7272
  198MPD1    H2 3069   0.901   2.450  14.635  0.7964 -0.9852  1.3817
  198MPD1    H3 3070   0.831   2.677  14.711 -1.6873 -0.9425  1.0200
  198MPD1     N 3071   1.178   2.722  14.991  0.3358  0.8877 -0.1859
  198MPD1    H5 3072   1.264   2.674  15.015  0.7409  1.8930  0.3576
  198MPD1    N1 3073   1.129   2.326  14.715  0.0305  0.0427  0.0985
  198MPD1    H6 3074   1.190   2.290  14.788 -0.5109  1.0793  1.0570
  198MPD1    H7 3075   1.059   2.255  14.693  0.3504 -0.2919  0.1609
  199MPD1     C 3076   3.150   0.317  10.696 -1.1539 -0.4380  0.5297
  199MPD1    C1 3077   3.078   0.201  10.725 -0.0804 -0.3401 -0.1484
  199MPD1    C2 3078   3.107   0.101  10.633  0.5447  0.0325 -0.7425
  199MPD1    C3 3079   3.200   0.116  10.529  0.6259  0.4081 -0.5581
  199MPD1    C4 3080   3.259   0.236  10.509 -0.2392  0.0680 -0.4226
  199MPD1    C5 3081   3.232   0.340  10.594  0.5512 -0.4602  0.6907
  199MPD1     H 3082   3.064   0.003  10.651 -2.9646  1.6776 -0.2781
  199MPD1    H1 3083   3.335   0.244  10.433 -1.1283  0.0597 -1.3196
  199MPD1    H2 3084   3.136   0.403  10.762 -0.9938 -0.1301  0.1604
  199MPD1    H3 3085   3.267   0.443  10.585 -0.5162 -0.0616  1.1319
  199MPD1     N 3086   3.236   0.019  10.429  0.5116  0.5727  0.3348
  199MPD1    H5 3087   3.309   0.046  10.364  0.7058 -1.5499 -0.3244
  199MPD1    N1 3088   2.978   0.201  10.826  0.1470  0.8041  0.5932
  199MPD1    H6 3089   3.009   0.247  10.911 -1.3596  1.2545  0.8865
  199MPD1    H7 3090   2.940   0.112  10.858  0.8859 -0.5673 -2.3551
  200MPD1     C 3091   1.153   3.724  15.674 -0.1329 -0.4020 -0.3825
  200MPD1    C1 3092   1.162   3.601  15.609  0.1100  0.0441  0.3972
  200MPD1    C2 3093   1.207   3.591  15.477  0.4724  0.0242  0.5582
  200MPD1    C3 3094   1.239   3.706  15.407 -0.1506 -0.5829  0.2121
  200MPD1    C4 3095   1.211   3.833  15.466 -0.3571 -0.4536 -0.7721
  200MPD1    C5 3096   1.176   3.842  15.597 -0.2174 -0.1979 -0.0700
  200MPD1     H 3097   1.240   3.496  15.436 -0.2835 -0.0898  0.2274
  200MPD1    H1 3098   1.231   3.923  15.409  2.7546 -2.5691 -3.0404
  200MPD1    H2 3099   1.127   3.732  15.779  0.6578  2.4200 -0.4101
  200MPD1    H3 3100   1.169   3.939  15.644 -0.5573  0.3865 -1.3106
  200MPD1     N 3101   1.295   3.694  15.280  0.0247 -0.4373  0.3324
  200MPD1    H5 3102   1.321   3.603  15.243 -3.4799 -1.9721  1.6334
  200MPD1    N1 3103   1.159   3.482  15.680 -0.0339  0.4111 -0.4573
  200MPD1    H6 3104   1.097   3.491  15.760  1.0043 -0.2314  0.4160
  200MPD1    H7 3105   1.132   3.401  15.623 -1.7565  0.4780  0.2750
  201MPD1     C 3106   4.472   4.067  12.855  0.0226  0.4171  0.3662
  201MPD1    C1 3107   4.510   3.999  12.971 -0.2380  0.4622  0.3071
  201MPD1    C2 3108   4.497   3.858  12.971  0.1044  0.2901 -0.6739
  201MPD1    C3 3109   4.467   3.791  12.850 -0.2455 -0.8750  0.6189
  201MPD1    C4 3110   4.441   3.861  12.737 -0.1407 -0.1773  0.5095
  201MPD1    C5 3111   4.427   3.994  12.744 -0.1654  1.0218  0.0402
  201MPD1     H 3112   4.526   3.804  13.061  3.0409  1.8034 -0.6969
  201MPD1    H1 3113   4.418   3.809  12.645  1.5030 -3.4964  1.9675
  201MPD1    H2 3114   4.476   4.175  12.842 -1.0312  0.3854 -0.2044
  201MPD1    H3 3115   4.401   4.056  12.658  0.3204  0.0073 -0.8329
  201MPD1     N 3116   4.473   3.649  12.856 -0.1707  0.0262  0.1537
  201MPD1    H5 3117   4.475   3.607  12.948  3.1513  2.5597  1.2559
  201MPD1    N1 3118   4.533   4.064  13.092  0.3939  0.3732  0.1087
  201MPD1    H6 3119   4.588   4.147  13.068 -0.1391  0.5225 -0.5972
  201MPD1    H7 3120   4.592   4.025  13.165  2.9736  1.7925 -1.2073
  202MPD1     C 3121   4.377   2.591  10.900 -0.1700  0.5743  0.1060
  202MPD1    C1 3122   4.451   2.696  10.862 -0.0111  0.1499  0.2603
  202MPD1    C2 3123   4.490   2.688  10.731  0.6326  1.0631 -1.0977
  202MPD1    C3 3124   4.416   2.620  10.634 -0.1061  0.4736 -0.2576
  202MPD1    C4 3125   4.314   2.543  10.676 -0.0699  0.3301 -0.3078
  202MPD1    C5 3126   4.301   2.523  10.809  0.1645 -0.2323  0.1835
  202MPD1     H 3127   4.560   2.762  10.695  0.5170  1.1817 -1.0756
  202MPD1    H1 3128   4.259   2.477  10.611 -2.3689 -1.2497  3.2519
  202MPD1    H2 3129   4.349   2.573  11.003 -1.8305  0.5290 -0.3613
  202MPD1    H3 3130   4.235   2.442  10.840 -0.3553  0.8656  1.9431
  202MPD1     N 3131   4.429   2.628  10.494  0.1374  0.5316  0.7874
  202MPD1    H5 3132   4.360   2.580  10.436  0.2750  0.5854  0.5785
  202MPD1    N1 3133   4.542   2.748  10.950  0.2225 -0.3632 -0.3994
  202MPD1    H6 3134   4.562   2.846  10.934  0.4012 -0.4039 -0.4373
  202MPD1    H7 3135   4.522   2.737  11.049  3.5076  0.3333  0.3534
  203MPD1     C 3136   4.296   3.700  13.164  0.1093 -0.5519 -0.0576
  203MPD1    C1 3137   4.272   3.568  13.177 -1.2059  0.2881  0.6511
  203MPD1    C2 3138   4.172   3.512  13.102 -1.1343 -0.1119 -0.0511
  203MPD1    C3 3139   4.092   3.592  13.018 -0.0838  0.0073 -0.3317
  203MPD1    C4 3140   4.111   3.728  13.018  0.2629 -0.2223 -0.7179
  203MPD1    C5 3141   4.216   3.779  13.090  0.2437 -0.3157  0.1570
  203MPD1     H 3142   4.149   3.406  13.103 -0.0143 -0.3449  1.3612
  203MPD1    H1 3143   4.059   3.806  12.963 -1.8579 -0.8098  0.4373
  203MPD1    H2 3144   4.368   3.752  13.226  0.3976  0.3270 -1.1329
  203MPD1    H3 3145   4.257   3.879  13.078 -1.2271  0.1294 -1.2846
  203MPD1     N 3146   3.995   3.532  12.935  0.1572 -0.0491  0.1872
  203MPD1    H5 3147   3.984   3.432  12.951 -0.7315  0.0172 -0.0145
  203MPD1    N1 3148   4.376   3.500  13.239 -0.4212 -0.2390  0.0810
  203MPD1    H6 3149   4.339   3.420  13.290  0.3528 -1.5121 -1.3519
  203MPD1    H7 3150   4.428   3.555  13.307 -1.1379 -0.3560  0.7247
  204MPD1     C 3151   2.731   0.206  17.463 -0.4628  0.2456  0.2272
  204MPD1    C1 3152   2.832   0.193  17.379 -0.0633 -0.4752  0.4727
  204MPD1    C2 3153   2.890   0.066  17.366 -0.4220 -0.3633 -0.8189
  204MPD1    C3 3154   2.830   4.691  17.435  0.2853 -0.7506 -0.3691
  204MPD1    C4 3155   2.735   4.719  17.527  0.2570  0.1684  0.0435
  204MPD1    C5 3156   2.688   0.106  17.539 -0.2694 -0.3569 -0.4551
  204MPD1     H 3157   2.967   0.051  17.292  0.0119  0.7472 -0.6012
  204MPD1    H1 3158   2.690   4.649  17.596  1.2697 -0.7733 -0.2538
  204MPD1    H2 3159   2.686   0.304  17.476 -0.7045  0.0279  1.0501
  204MPD1    H3 3160   2.620   0.118  17.622  0.9851  0.7462  0.4092
  204MPD1     N 3161   2.874   4.561  17.404  0.4945  0.1018 -0.2165
  204MPD1    H5 3162   2.943   4.553  17.331  1.0882 -0.6914  0.4323
  204MPD1    N1 3163   2.879   0.297  17.300 -0.6498 -0.6066  0.0922
  204MPD1    H6 3164   2.811   0.372  17.293 -1.5269 -1.4311 -0.2691
  204MPD1    H7 3165   2.898   0.270  17.203  1.3474  0.5984  0.1330
  205MPD1     C 3166   3.026   3.311  16.754  0.8341  0.0422  0.0927
  205MPD1    C1 3167   2.975   3.188  16.791 -0.0253 -0.0823 -0.6850
  205MPD1    C2 3168   2.935   3.164  16.921 -0.5126  0.5975  0.3788
  205MPD1    C3 3169   2.951   3.264  17.011 -0.2740  0.1344  0.0088
  205MPD1    C4 3170   3.006   3.386  16.977 -0.0931  0.1659 -0.0596
  205MPD1    C5 3171   3.044   3.408  16.847 -0.0483  0.3089 -0.1544
  205MPD1     H 3172   2.879   3.074  16.944  0.3356  0.4600  1.8597
  205MPD1    H1 3173   3.016   3.464  17.051  1.4823 -1.1548  1.1084
  205MPD1    H2 3174   3.058   3.330  16.653 -2.0025 -0.6737 -0.9411
  205MPD1    H3 3175   3.093   3.500  16.815 -1.7703  0.5951 -1.9039
  205MPD1     N 3176   2.922   3.249  17.146  0.3748  0.4768  0.5448
  205MPD1    H5 3177   2.944   3.327  17.208  0.2682 -0.8252  2.2055
  205MPD1    N1 3178   2.945   3.104  16.681  0.7192  0.4669  0.4090
  205MPD1    H6 3179   3.001   3.122  16.598  1.7622 -0.4224  0.9260
  205MPD1    H7 3180   2.942   3.007  16.711 -1.4753  0.3701 -0.1004
  206MPD1     C 3181   2.926   1.539  16.906  0.5929 -0.6677 -0.3993
  206MPD1    C1 3182   2.935   1.403  16.873 -0.1190 -0.0301  0.1702
  206MPD1    C2 3183   2.912   1.375  16.737  0.4824 -0.5464 -0.8421
  206MPD1    C3 3184   2.878   1.472  16.639 -0.5529 -0.2118  0.2145
  206MPD1    C4 3185   2.852   1.598  16.681 -0.4153  1.3704  0.1485
  206MPD1    C5 3186   2.884   1.630  16.812  0.5260  0.3471 -0.0793
  206MPD1     H 3187   2.927   1.271  16.711 -0.6764 -0.6071 -1.2773
  206MPD1    H1 3188   2.833   1.683  16.616  1.7948  1.9918  0.3233
  206MPD1    H2 3189   2.959   1.575  17.003 -0.1560 -3.8894  1.0522
  206MPD1    H3 3190   2.865   1.729  16.853 -0.5241  0.0833  0.0707
  206MPD1     N 3191   2.872   1.446  16.502 -0.2005 -0.4863  0.4848
  206MPD1    H5 3192   2.838   1.513  16.433  2.0204  0.0130 -0.1359
  206MPD1    N1 3193   3.000   1.310  16.960 -0.0166  0.2051  0.2517
  206MPD1    H6 3194   2.956   1.221  16.936  0.2355 -0.2548  1.5077
  206MPD1    H7 3195   2.976   1.325  17.058 -0.9086  1.6572 -0.1805
  207MPD1     C 3196   0.931   3.904   9.140 -0.1118  0.5990 -0.3157
  207MPD1    C1 3197   0.864   3.864   9.256  0.2546 -0.0925 -0.8827
  207MPD1    C2 3198   0.933   3.851   9.369  0.2503  0.5550 -0.1652
  207MPD1    C3 3199   1.068   3.883   9.376  0.4111  0.3934  0.2969
  207MPD1    C4 3200   1.128   3.939   9.259 -1.2128 -0.1749  0.1046
  207MPD1    C5 3201   1.061   3.949   9.144  0.0575  0.1137  1.0727
  207MPD1     H 3202   0.879   3.813   9.455 -0.0795  2.5004  0.4740
  207MPD1    H1 3203   1.231   3.973   9.258 -1.4035  0.3774 -0.5375
  207MPD1    H2 3204   0.885   3.916   9.043 -0.0506 -1.6443 -0.6236
  207MPD1    H3 3205   1.115   3.989   9.059 -0.7672  1.9739  1.4215
  207MPD1     N 3206   1.155   3.873   9.489  0.3316  0.7188  0.3995
  207MPD1    H5 3207   1.249   3.910   9.486  1.2768 -1.8657 -2.1892
  207MPD1    N1 3208   0.735   3.802   9.233  0.4773 -0.5303 -0.6252
  207MPD1    H6 3209   0.679   3.803   9.318 -1.4785 -1.9331 -1.9172
  207MPD1    H7 3210   0.692   3.842   9.150 -0.2440 -1.7956 -0.8595
  208MPD1     C 3211   3.531   2.558  17.013  0.1362  0.4584  0.4097
  208MPD1    C1 3212   3.394   2.553  17.028  0.6404  0.0775  0.5401
  208MPD1    C2 3213   3.344   2.524  17.155  0.4757 -0.3699 -0.1223
  208MPD1    C3 3214   3.431   2.495  17.259  0.6827 -0.7037 -0.1670
  208MPD1    C4 3215   3.566   2.490  17.237 -0.0358  0.6845  0.0520
  208MPD1    C5 3216   3.609   2.520  17.117  0.2508 -0.0778  0.8826
  208MPD1     H 3217   3.237   2.526  17.172  0.3583  0.5839 -0.9411
  208MPD1    H1 3218   3.642   2.476  17.313  0.2946  0.3579 -0.3408
  208MPD1    H2 3219   3.575   2.575  16.916 -0.8762  1.9921  0.2086
  208MPD1    H3 3220   3.717   2.524  17.105 -0.1062  1.1056 -1.9687
  208MPD1     N 3221   3.387   2.464  17.396  0.0188  0.3750 -0.3887
  208MPD1    H5 3222   3.287   2.444  17.404  0.3761 -1.2190  0.1422
  208MPD1    N1 3223   3.315   2.601  16.926  0.4923 -0.5423  0.0741
  208MPD1    H6 3224   3.229   2.548  16.910 -0.3560  0.9227 -0.2745
  208MPD1    H7 3225   3.353   2.580  16.834  0.9683  1.0254 -0.0890
  209MPD1     C 3226   0.864   2.709  10.796 -0.1341 -0.1237 -0.3755
  209MPD1    C1 3227   0.926   2.719  10.675  0.1307  0.4395  0.1412
  209MPD1    C2 3228   1.032   2.809  10.652  0.4746  0.2033 -0.0691
  209MPD1    C3 3229   1.078   2.887  10.757 -0.3903  0.0534 -0.5296
  209MPD1    C4 3230   1.013   2.875  10.879 -0.0813 -0.3482  0.4425
  209MPD1    C5 3231   0.910   2.789  10.902  0.3096 -0.2289  0.3240
  209MPD1     H 3232   1.088   2.814  10.559  2.3387 -0.1649  1.0498
  209MPD1    H1 3233   1.041   2.936  10.964  1.5254  0.7230 -0.8372
  209MPD1    H2 3234   0.781   2.641  10.813 -0.4823  0.8325  1.7288
  209MPD1    H3 3235   0.849   2.787  10.992 -1.6120  0.4029 -0.9811
  209MPD1     N 3236   1.171   2.988  10.732  0.1591 -0.5538 -0.1578
  209MPD1    H5 3237   1.204   2.999  10.637 -1.2420 -1.0579 -0.6961
  209MPD1    N1 3238   0.894   2.628  10.567  0.9830 -0.3779  0.3335
  209MPD1    H6 3239   0.794   2.609  10.569  1.0698 -0.9423 -1.1690
  209MPD1    H7 3240   0.917   2.665  10.475  2.2654  0.5627  1.0359
  210MPD1     C 3241   1.779   3.867  11.040 -1.5139  0.0652 -0.5970
  210MPD1    C1 3242   1.817   3.735  11.069 -0.0637  1.0778  0.0797
  210MPD1    C2 3243   1.762   3.630  10.996  0.1910  0.5853 -0.0112
  210MPD1    C3 3244   1.665   3.651  10.906  0.7728 -0.6601 -0.0833
  210MPD1    C4 3245   1.633   3.781  10.869  0.5098 -0.4403 -0.0070
  210MPD1    C5 3246   1.685   3.891  10.942  0.9478  0.3561  0.9369
  210MPD1     H 3247   1.783   3.527  11.022  0.5689  0.2523 -1.6264
  210MPD1    H1 3248   1.546   3.795  10.806 -1.9404 -2.0402  3.0285
  210MPD1    H2 3249   1.832   3.952  11.081 -0.5317 -0.3623 -0.9916
  210MPD1    H3 3250   1.659   3.995  10.923 -1.0567 -0.5522 -1.3194
  210MPD1     N 3251   1.590   3.540  10.848  0.8632  0.0553 -0.6619
  210MPD1    H5 3252   1.527   3.573  10.776 -0.5863  0.9478  1.0205
  210MPD1    N1 3253   1.898   3.710  11.177 -0.4266  0.8343 -0.0798
  210MPD1    H6 3254   1.956   3.629  11.159  0.5301  1.5642 -0.2715
  210MPD1    H7 3255   1.962   3.783  11.209  0.5641  1.3891 -3.3317
  211MPD1     C 3256   3.233   2.276  16.149 -0.2691 -0.1984 -0.5862
  211MPD1    C1 3257   3.284   2.360  16.240  1.1691  0.1398  0.4172
  211MPD1    C2 3258   3.265   2.495  16.228  0.2923 -0.0616  0.4663
  211MPD1    C3 3259   3.182   2.548  16.133  0.1540  0.1255 -0.0129
  211MPD1    C4 3260   3.134   2.460  16.038  0.4025  0.5867 -0.1105
  211MPD1    C5 3261   3.155   2.327  16.051  0.0226  0.0646  0.2516
  211MPD1     H 3262   3.300   2.563  16.305 -0.0475  0.2997  0.3013
  211MPD1    H1 3263   3.070   2.487  15.955 -1.0329  1.1923  1.1848
  211MPD1    H2 3264   3.242   2.168  16.150 -0.8660 -0.2613 -1.6901
  211MPD1    H3 3265   3.121   2.259  15.975 -0.5466 -0.8628  1.3276
  211MPD1     N 3266   3.147   2.686  16.122  0.0849 -0.1015 -0.3182
  211MPD1    H5 3267   3.175   2.751  16.195  0.5250 -0.7980  0.1396
  211MPD1    N1 3268   3.353   2.306  16.348  0.0456  0.4043 -0.6249
  211MPD1    H6 3269   3.431   2.363  16.380  0.2714 -1.0033  1.3673
  211MPD1    H7 3270   3.387   2.211  16.333 -0.5641 -0.2731  2.2763
  212MPD1     C 3271   2.540   1.930  16.700 -0.4881  0.0615 -0.1559
  212MPD1    C1 3272   2.461   1.900  16.585 -0.0814 -0.0125  0.4640
  212MPD1    C2 3273   2.388   1.784  16.576  0.3874 -0.2189  0.4318
  212MPD1    C3 3274   2.389   1.689  16.679 -0.6716 -0.6851 -0.3292
  212MPD1    C4 3275   2.469   1.721  16.791  0.5286  0.0713 -0.2997
  212MPD1    C5 3276   2.545   1.835  16.797  0.2398  0.1279 -0.7441
  212MPD1     H 3277   2.340   1.761  16.481 -0.3887 -0.0181  0.7792
  212MPD1    H1 3278   2.488   1.642  16.864 -0.2866  0.2067  0.0603
  212MPD1    H2 3279   2.590   2.026  16.710  0.7336 -0.5563 -0.3842
  212MPD1    H3 3280   2.616   1.846  16.878  0.2888 -1.3438 -0.5798
  212MPD1     N 3281   2.321   1.565  16.677 -0.0400  0.0434  0.5013
  212MPD1    H5 3282   2.299   1.511  16.760 -0.0360  1.9343  1.7317
  212MPD1    N1 3283   2.446   1.997  16.488  0.0042  0.1804  0.2329
  212MPD1    H6 3284   2.514   2.073  16.496 -1.1975  1.2824  0.1125
  212MPD1    H7 3285   2.467   1.961  16.395  1.1275  0.7097  0.2782
  213MPD1     C 3286   0.880   1.898  15.617 -0.4493 -0.0197  0.0695
  213MPD1    C1 3287   0.755   1.860  15.636  0.4284 -0.0541  0.0153
  213MPD1    C2 3288   0.666   1.916  15.543 -0.5969 -0.0760 -0.6569
  213MPD1    C3 3289   0.696   2.020  15.459  0.3600  1.3525  0.9094
  213MPD1    C4 3290   0.822   2.080  15.465  0.5921 -0.1596  0.0871
  213MPD1    C5 3291   0.905   2.013  15.548 -0.3824 -0.0940 -0.2554
  213MPD1     H 3292   0.568   1.872  15.534 -1.0504  0.7703  0.1087
  213MPD1    H1 3293   0.857   2.154  15.394  0.7795  0.5626  0.9374
  213MPD1    H2 3294   0.956   1.853  15.680 -0.4677  0.2200  0.2607
  213MPD1    H3 3295   1.009   2.045  15.547 -0.5921  0.5835 -0.2641
  213MPD1     N 3296   0.594   2.068  15.374 -0.4968  0.9720 -0.2343
  213MPD1    H5 3297   0.507   2.014  15.376  0.1038 -0.0100 -0.5011
  213MPD1    N1 3298   0.738   1.740  15.699  0.1703 -0.5830  0.5583
  213MPD1    H6 3299   0.648   1.723  15.743 -1.0333 -2.3320 -2.6107
  213MPD1    H7 3300   0.812   1.718  15.765  0.1533  1.8618  1.3853
  214MPD1     C 3301   4.513   1.764  15.385 -0.0499 -0.0096  0.0065
  214MPD1    C1 3302   4.547   1.757  15.250  0.2693 -0.8103  0.2998
  214MPD1    C2 3303   4.667   1.813  15.206  0.5981 -0.7578  0.3079
  214MPD1    C3 3304   0.026   1.862  15.293 -0.7552 -0.3404 -0.4225
  214MPD1    C4 3305   0.003   1.842  15.427 -0.3270  0.1253 -0.0328
  214MPD1    C5 3306   4.620   1.785  15.470 -0.5103  0.4379  0.0421
  214MPD1     H 3307   4.696   1.819  15.102 -0.3948  0.6235  0.1053
  214MPD1    H1 3308   0.070   1.875  15.505 -0.7198 -0.6390  0.6262
  214MPD1    H2 3309   4.414   1.736  15.420 -0.1848  0.2262 -0.1759
  214MPD1    H3 3310   4.602   1.777  15.576  2.6988  0.6309  0.5973
  214MPD1     N 3311   0.143   1.937  15.255  0.0810 -0.2268 -0.2672
  214MPD1    H5 3312   0.202   1.964  15.332  1.0728 -0.6028 -0.9009
  214MPD1    N1 3313   4.448   1.735  15.153  0.5617 -0.5184  0.2313
  214MPD1    H6 3314   4.487   1.688  15.072 -1.2801  0.8679 -1.4680
  214MPD1    H7 3315   4.371   1.681  15.193  1.3123 -0.3097  1.9580
  215MPD1     C 3316   0.603   2.895  10.222  0.0685 -0.8917 -0.2008
  215MPD1    C1 3317   0.668   2.903  10.345 -0.0503 -0.0164  0.1078
  215MPD1    C2 3318   0.741   3.017  10.375  0.3742  0.2736 -0.0633
  215MPD1    C3 3319   0.732   3.135  10.302  0.2561  0.1063  0.9475
  215MPD1    C4 3320   0.653   3.135  10.189  0.5241  0.5353 -0.4927
  215MPD1    C5 3321   0.596   3.016  10.153  0.3712  0.3914 -0.0854
  215MPD1     H 3322   0.785   3.028  10.474  1.6620 -0.3979 -0.5514
  215MPD1    H1 3323   0.653   3.209  10.110 -0.2197  2.3163  1.1755
  215MPD1    H2 3324   0.549   2.807  10.188 -0.7962 -0.7343  0.7442
  215MPD1    H3 3325   0.554   3.012  10.053  1.3269  0.4940 -0.4868
  215MPD1     N 3326   0.812   3.245  10.349  0.0306  0.1039  0.4979
  215MPD1    H5 3327   0.853   3.232  10.441 -1.7266  1.1098  1.4191
  215MPD1    N1 3328   0.681   2.794  10.428  0.5392 -0.4756  0.0213
  215MPD1    H6 3329   0.704   2.822  10.523  0.7881 -0.2406 -0.1074
  215MPD1    H7 3330   0.594   2.741  10.432 -0.1843  0.7593  0.6208
  216MPD1     C 3331   2.630   1.081  16.337 -0.2184 -1.0117 -0.2128
  216MPD1    C1 3332   2.610   0.949  16.359 -0.1137  0.4221  0.6667
  216MPD1    C2 3333   2.552   0.910  16.482 -0.2864 -0.0307  0.3433
  216MPD1    C3 3334   2.492   0.999  16.572 -0.2533 -0.0454 -0.2019
  216MPD1    C4 3335   2.505   1.137  16.544  0.4364 -0.7323 -0.6429
  216MPD1    C5 3336   2.570   1.173  16.424 -0.1781 -0.7596  0.3205
  216MPD1     H 3337   2.554   0.808  16.520  1.2533 -0.3561 -0.6255
  216MPD1    H1 3338   2.470   1.213  16.613  1.4107 -0.6150 -0.2809
  216MPD1    H2 3339   2.697   1.111  16.257  0.8918  1.5112  1.6570
  216MPD1    H3 3340   2.585   1.277  16.399  0.4598 -0.7008  0.9524
  216MPD1     N 3341   2.426   0.943  16.679  0.4648  0.0599 -0.4068
  216MPD1    H5 3342   2.418   0.842  16.678  1.7257 -0.0520  0.1466
  216MPD1    N1 3343   2.688   0.858  16.290 -0.4529 -0.0052 -0.7010
  216MPD1    H6 3344   2.690   0.897  16.195 -2.1033  0.7470 -0.4344
  216MPD1    H7 3345   2.640   0.769  16.281  0.8909 -0.9578  1.5525
  217MPD1     C 3346   1.925   3.466   8.598  0.3390  0.5117  0.0046
  217MPD1    C1 3347   2.016   3.380   8.551 -0.0588 -0.2879 -0.2505
  217MPD1    C2 3348   2.056   3.278   8.638  0.0045 -0.4046  0.2036
  217MPD1    C3 3349   2.040   3.284   8.776 -0.0795  0.0085  0.2401
  217MPD1    C4 3350   1.955   3.380   8.819  0.8854 -0.3077  1.2309
  217MPD1    C5 3351   1.892   3.460   8.724 -0.1991 -0.3261  0.1255
  217MPD1     H 3352   2.121   3.202   8.596 -0.5557 -0.6579 -0.1919
  217MPD1    H1 3353   1.939   3.402   8.924  1.7710  1.3199  1.0271
  217MPD1    H2 3354   1.891   3.558   8.551  0.6069  1.1619  1.0763
  217MPD1    H3 3355   1.833   3.539   8.770  0.8795  0.9900 -0.7502
  217MPD1     N 3356   2.097   3.193   8.866  0.1836  0.0073 -0.5460
  217MPD1    H5 3357   2.069   3.205   8.963 -0.5981 -2.5362 -0.4506
  217MPD1    N1 3358   2.019   3.373   8.410 -0.2768  0.7501 -0.7356
  217MPD1    H6 3359   2.102   3.322   8.381  0.0165  1.3504 -0.9376
  217MPD1    H7 3360   2.019   3.466   8.370 -3.2376  0.9270 -0.3145
  218MPD1     C 3361   4.494   4.142  12.382 -0.6537 -0.1919 -0.8651
  218MPD1    C1 3362   4.620   4.191  12.383  0.4011 -0.1155  0.2928
  218MPD1    C2 3363   4.728   4.098  12.406  0.0281  0.0311 -0.6574
  218MPD1    C3 3364   4.710   3.964  12.403 -0.3325  0.0037 -0.1998
  218MPD1    C4 3365   4.578   3.918  12.393 -0.2419 -0.4591 -0.1656
  218MPD1    C5 3366   4.472   4.008  12.377 -0.3777  0.7622  0.4825
  218MPD1     H 3367   0.082   4.155  12.428  0.1067 -0.5500  0.5330
  218MPD1    H1 3368   4.552   3.813  12.405  1.5216 -0.7652  1.0230
  218MPD1    H2 3369   4.407   4.205  12.371  0.2585  1.2122  0.0251
  218MPD1    H3 3370   4.368   3.979  12.369 -0.0392 -0.8468  2.2266
  218MPD1     N 3371   0.081   3.875  12.414  0.3806 -0.1939  0.6098
  218MPD1    H5 3372   0.167   3.917  12.449  0.2950 -1.1201  1.9277
  218MPD1    N1 3373   4.638   4.329  12.378 -0.1772 -0.1090  0.0728
  218MPD1    H6 3374   4.717   4.356  12.320  0.9056 -0.9474  1.1651
  218MPD1    H7 3375   4.559   4.385  12.345 -1.2036 -1.8227 -0.3728
  219MPD1     C 3376   0.974   3.462  12.091  0.6443 -1.0401  1.2026
  219MPD1    C1 3377   0.910   3.582  12.093 -0.1026  0.3893 -0.5110
  219MPD1    C2 3378   0.781   3.581  12.135  0.3639  0.1151  0.6701
  219MPD1    C3 3379   0.705   3.465  12.167  0.1615 -0.2800 -0.6092
  219MPD1    C4 3380   0.768   3.349  12.161  0.0318 -0.5165 -0.3299
  219MPD1    C5 3381   0.904   3.352  12.126  0.1438  0.1489 -0.1897
  219MPD1     H 3382   0.729   3.676  12.144 -3.2704 -1.4950 -3.2057
  219MPD1    H1 3383   0.720   3.259  12.199  1.0479 -1.0662 -0.3244
  219MPD1    H2 3384   1.077   3.444  12.062  0.2451  0.7374 -1.3142
  219MPD1    H3 3385   0.959   3.258  12.127 -3.2346 -1.8456 -0.5094
  219MPD1     N 3386   0.573   3.472  12.215  0.6160  0.6723 -0.3481
  219MPD1    H5 3387   0.534   3.380  12.230 -0.0526  0.9602 -0.3412
  219MPD1    N1 3388   0.982   3.698  12.069  0.2539 -0.2485 -0.3245
  219MPD1    H6 3389   0.929   3.775  12.028  0.3054  0.2717  0.5735
  219MPD1    H7 3390   1.062   3.676  12.010  0.7063  0.5032  0.0115
  220MPD1     C 3391   0.780   4.501   8.778  0.0107 -0.5170 -0.0382
  220MPD1    C1 3392   0.680   4.409   8.798 -0.3469  0.0163 -0.3421
  220MPD1    C2 3393   0.677   4.343   8.914 -0.4755 -0.2989  0.3116
  220MPD1    C3 3394   0.781   4.359   9.011 -0.0585  0.2446  0.1434
  220MPD1    C4 3395   0.882   4.441   8.979 -0.6836 -0.0786  0.0429
  220MPD1    C5 3396   0.879   4.517   8.868 -0.3141  0.4293  0.3732
  220MPD1     H 3397   0.592   4.276   8.925 -2.0874  1.6447 -0.2718
  220MPD1    H1 3398   0.966   4.452   9.048 -0.7847 -0.4743  0.2285
  220MPD1    H2 3399   0.787   4.561   8.688 -0.8772  0.4068  0.5094
  220MPD1    H3 3400   0.956   4.592   8.854  0.2651 -0.1714  0.3800
  220MPD1     N 3401   0.767   4.281   9.130 -0.4894  0.4194  0.7429
  220MPD1    H5 3402   0.687   4.220   9.136 -1.1027  1.2479  1.0204
  220MPD1    N1 3403   0.576   4.407   8.702  0.2031 -1.1186 -0.4274
  220MPD1    H6 3404   0.528   4.319   8.689 -2.2547  0.2594 -0.6351
  220MPD1    H7 3405   0.604   4.439   8.610 -1.9195 -1.1249 -1.0619
  221MPD1     C 3406   2.752   2.911  16.350  0.1258  0.7914 -0.5136
  221MPD1    C1 3407   2.687   2.802  16.287  0.3234 -0.1451 -0.2480
  221MPD1    C2 3408   2.753   2.687  16.283  0.1981 -0.3278  0.2442
  221MPD1    C3 3409   2.875   2.666  16.353  0.4604  0.1909 -0.2916
  221MPD1    C4 3410   2.937   2.768  16.416 -0.8729  0.0157  0.4485
  221MPD1    C5 3411   2.876   2.889  16.403 -0.9242 -0.0186 -0.2531
  221MPD1     H 3412   2.710   2.601  16.233 -0.3934  0.8700 -1.3087
  221MPD1    H1 3413   3.031   2.762  16.470 -1.3024 -0.1710  1.1749
  221MPD1    H2 3414   2.711   3.011  16.356 -0.5655  0.5022 -0.3914
  221MPD1    H3 3415   2.918   2.977  16.451  1.8738 -0.7167 -1.4109
  221MPD1     N 3416   2.939   2.542  16.372  0.3238 -0.7665 -0.6654
  221MPD1    H5 3417   3.026   2.537  16.424  0.4549  0.9493 -0.7271
  221MPD1    N1 3418   2.562   2.830  16.225 -0.1278  0.1618 -0.3910
  221MPD1    H6 3419   2.513   2.743  16.210 -1.3463  0.9302 -0.8387
  221MPD1    H7 3420   2.502   2.901  16.266 -3.4251 -1.0581 -3.1624
  222MPD1     C 3421   3.260   0.642  17.721  0.5813  0.1799  0.6474
  222MPD1    C1 3422   3.164   0.684   0.072 -0.2328  0.2186  0.3985
  222MPD1    C2 3423   3.073   0.782   0.029 -0.0791  0.3517  0.0322
  222MPD1    C3 3424   3.064   0.826  17.644  0.5685 -0.4933 -0.3568
  222MPD1    C4 3425   3.165   0.786  17.555  0.5137 -0.5412  0.7020
  222MPD1    C5 3426   3.260   0.694  17.595 -0.9254  0.3201  0.2724
  222MPD1     H 3427   3.007   0.824   0.105 -0.0385  0.2074  0.1469
  222MPD1    H1 3428   3.169   0.817  17.451 -0.1278 -3.0688 -0.0798
  222MPD1    H2 3429   3.330   0.561  17.739 -0.2397 -0.9658 -1.3242
  222MPD1    H3 3430   3.331   0.665  17.519 -2.1639 -2.3216  0.0963
  222MPD1     N 3431   2.966   0.915  17.590 -0.2727  0.2163  0.3468
  222MPD1    H5 3432   2.975   0.936  17.491  0.9666 -1.6016  0.0599
  222MPD1    N1 3433   3.188   0.652   0.204 -0.6453 -0.1836  0.1412
  222MPD1    H6 3434   3.242   0.567   0.217 -1.7058 -1.0062 -0.7822
  222MPD1    H7 3435   3.105   0.656   0.264 -1.2083 -1.7805 -0.5455
  223MPD1     C 3436   2.903   0.999  16.776  0.2026  0.1746  0.2024
  223MPD1    C1 3437   2.987   0.966  16.881 -0.0459 -0.1350 -0.7943
  223MPD1    C2 3438   2.937   0.965  17.008  0.2321 -0.3283 -0.1322
  223MPD1    C3 3439   2.814   1.011  17.044  1.0338  0.3142  0.7154
  223MPD1    C4 3440   2.729   1.038  16.939 -0.1578  0.2646 -0.4039
  223MPD1    C5 3441   2.776   1.031  16.814  0.1050  0.3842 -0.3489
  223MPD1     H 3442   3.007   0.932  17.084  1.3623  1.2014 -0.5169
  223MPD1    H1 3443   2.623   1.060  16.946  0.1720  1.9505 -0.7253
  223MPD1    H2 3444   2.928   0.996  16.670 -0.8521  1.0460 -0.0687
  223MPD1    H3 3445   2.712   1.062  16.731  0.0095  2.8771  0.6468
  223MPD1     N 3446   2.774   1.015  17.182  0.2349 -0.2401  0.1692
  223MPD1    H5 3447   2.848   0.998  17.249  3.0068  0.9672 -2.5974
  223MPD1    N1 3448   3.117   0.927  16.852 -0.1491  0.0380  0.2794
  223MPD1    H6 3449   3.181   0.966  16.920 -3.3074  0.4918  3.0125
  223MPD1    H7 3450   3.145   0.959  16.759  1.4715 -0.8857  0.4591
  224MPD1     C 3451   2.797   3.965   9.005  0.7835  0.4508  0.0239
  224MPD1    C1 3452   2.915   4.029   9.028 -0.0111  0.4399 -0.5290
  224MPD1    C2 3453   2.956   4.016   9.159  0.3742 -0.2931 -0.1102
  224MPD1    C3 3454   2.926   3.915   9.243 -0.3057 -0.4839 -0.5230
  224MPD1    C4 3455   2.809   3.845   9.206  0.5456  0.8246  0.5278
  224MPD1    C5 3456   2.748   3.872   9.091 -0.4664 -0.1783 -0.4667
  224MPD1     H 3457   3.040   4.079   9.185 -0.8225  0.7537  1.1649
  224MPD1    H1 3458   2.764   3.776   9.277  0.6448  0.1703 -0.0405
  224MPD1    H2 3459   2.747   3.983   8.910 -0.9354 -0.2910  0.7897
  224MPD1    H3 3460   2.667   3.808   9.058 -1.3480 -1.1004  3.5295
  224MPD1     N 3461   2.990   3.886   9.367 -0.2139 -0.0372 -0.4595
  224MPD1    H5 3462   2.952   3.808   9.420  1.4685  1.2786  2.6625
  224MPD1    N1 3463   2.951   4.132   8.939 -0.1606 -0.5393 -0.9000
  224MPD1    H6 3464   2.924   4.118   8.842  0.5162 -0.8922 -1.0416
  224MPD1    H7 3465   3.053   4.142   8.938 -0.2503  0.5111  0.1414
  225MPD1     C 3466   0.601   4.069  11.908  0.0993 -0.2931 -0.4314
  225MPD1    C1 3467   0.538   3.969  11.973  0.3096 -0.4921  0.0107
  225MPD1    C2 3468   0.407   3.974  11.996 -0.0372 -0.2224  0.2478
  225MPD1    C3 3469   0.328   4.075  11.953 -0.1418  0.9194 -0.3470
  225MPD1    C4 3470   0.389   4.184  11.882 -0.8908 -0.0764 -0.2089
  225MPD1    C5 3471   0.528   4.177  11.865 -0.9848  0.3104 -0.4364
  225MPD1     H 3472   0.359   3.888  12.041  1.1244 -0.8277  0.3271
  225MPD1    H1 3473   0.325   4.271  11.871  1.0336  1.1303 -1.9832
  225MPD1    H2 3474   0.709   4.068  11.896  0.3969  1.5206  2.1213
  225MPD1    H3 3475   0.583   4.260  11.823 -1.0234  0.2108 -0.6807
  225MPD1     N 3476   0.190   4.079  11.976 -0.1818  0.4166  0.3891
  225MPD1    H5 3477   0.136   4.162  11.956  0.7525  1.1382  0.9087
  225MPD1    N1 3478   0.621   3.858  12.008 -0.3674  0.0582 -0.2832
  225MPD1    H6 3479   0.713   3.894  12.032 -0.9901  0.5817  1.3409
  225MPD1    H7 3480   0.582   3.796  12.079 -0.2426  0.2444 -0.0531
  226MPD1     C 3481   4.137   4.666  10.723 -0.6032 -0.7060 -0.0076
  226MPD1    C1 3482   4.233   4.591  10.656 -0.5157 -0.0561 -0.6201
  226MPD1    C2 3483   4.194   4.470  10.593 -0.3643 -0.1415  0.7828
  226MPD1    C3 3484   4.062   4.439  10.569  0.3425  0.4792 -0.4320
  226MPD1    C4 3485   3.969   4.532  10.618 -0.0340 -0.1002  0.0199
  226MPD1    C5 3486   4.008   4.643  10.700  0.4100  0.3157  0.1317
  226MPD1     H 3487   4.272   4.415  10.542 -2.0117 -0.3046 -1.5425
  226MPD1    H1 3488   3.863   4.514  10.605  0.0420  1.4618 -2.7328
  226MPD1    H2 3489   4.169   4.733  10.802 -1.5426 -0.7160  0.3797
  226MPD1    H3 3490   3.934   4.707  10.747  0.9746  0.8041  0.3510
  226MPD1     N 3491   4.033   4.324  10.495 -0.0480 -0.3646  0.0704
  226MPD1    H5 3492   4.104   4.262  10.458  0.6668  1.7871 -2.1884
  226MPD1    N1 3493   4.367   4.605  10.702  0.0595  0.3341 -0.0590
  226MPD1    H6 3494   4.431   4.595  10.623  1.0908  1.1614  0.6713
  226MPD1    H7 3495   4.394   4.698  10.733  0.7829 -0.0776  0.5366
  227MPD1     C 3496   4.114   3.952   9.544  0.0904  0.0711 -0.8573
  227MPD1    C1 3497   4.020   3.865   9.594 -0.0973 -0.7878  0.3578
  227MPD1    C2 3498   3.969   3.881   9.719  0.1487  0.2827 -0.4118
  227MPD1    C3 3499   4.030   3.972   9.806 -0.2405 -0.1483  0.4572
  227MPD1    C4 3500   4.131   4.057   9.750  0.0882  0.0741  0.3401
  227MPD1    C5 3501   4.168   4.050   9.623  0.6907 -1.2738  0.4491
  227MPD1     H 3502   3.890   3.825   9.768  0.4439  0.8099  0.6800
  227MPD1    H1 3503   4.164   4.145   9.804 -2.1066  0.3533  1.2129
  227MPD1    H2 3504   4.140   3.953   9.439 -1.2135 -0.5741 -1.1811
  227MPD1    H3 3505   4.229   4.127   9.578 -1.0732  1.0755  2.0487
  227MPD1     N 3506   3.988   3.992   9.936  0.2183  0.2932  0.7862
  227MPD1    H5 3507   3.911   3.927   9.955  1.4707 -1.4873 -0.2807
  227MPD1    N1 3508   3.951   3.776   9.509  0.3751  0.0932 -0.1240
  227MPD1    H6 3509   3.913   3.698   9.562 -0.3274 -0.7773 -1.9070
  227MPD1    H7 3510   4.011   3.741   9.435  0.6790  2.1824 -0.8655
  228MPD1     C 3511   1.519   2.572  14.046  0.4223 -0.2512  0.5488
  228MPD1    C1 3512   1.426   2.617  13.962  0.4774 -0.4052  0.1163
  228MPD1    C2 3513   1.417   2.557  13.837 -0.0803 -0.3045  0.5318
  228MPD1    C3 3514   1.500   2.447  13.802 -0.4125  0.0218  0.3463
  228MPD1    C4 3515   1.587   2.400  13.900 -0.5626  0.3707  0.1175
  228MPD1    C5 3516   1.597   2.465  14.019  0.0203 -0.0070  1.0420
  228MPD1     H 3517   1.352   2.600  13.761  1.0831  1.1920  0.3850
  228MPD1    H1 3518   1.660   2.324  13.877 -2.7503 -1.2903 -1.3972
  228MPD1    H2 3519   1.529   2.629  14.138  2.2736 -0.9816  0.7959
  228MPD1    H3 3520   1.668   2.428  14.092  1.0935 -0.0423 -0.0342
  228MPD1     N 3521   1.485   2.387  13.672  0.4996  0.5578 -0.0868
  228MPD1    H5 3522   1.417   2.427  13.608 -1.7009 -2.3254  0.4146
  228MPD1    N1 3523   1.370   2.745  13.980 -0.3311 -0.0179 -0.0228
  228MPD1    H6 3524   1.358   2.761  14.080 -1.1082 -0.1963 -0.0891
  228MPD1    H7 3525   1.285   2.765  13.927  0.4347  0.8930 -0.9124
  229MPD1     C 3526   1.617   0.554  14.564 -0.4151 -0.3599 -0.2591
  229MPD1    C1 3527   1.539   0.618  14.660 -0.2107  0.4553  1.2400
  229MPD1    C2 3528   1.453   0.550  14.739  0.0489  0.3855  0.2765
  229MPD1    C3 3529   1.435   0.414  14.719 -0.2239  0.4126 -0.7259
  229MPD1    C4 3530   1.491   0.349  14.608  0.5242 -0.8930  0.1894
  229MPD1    C5 3531   1.583   0.424  14.530  0.9184  0.2086  0.1511
  229MPD1     H 3532   1.406   0.598  14.825 -3.3261 -1.2712 -0.6612
  229MPD1    H1 3533   1.488   0.244  14.579  1.4269 -1.4112  1.9423
  229MPD1    H2 3534   1.684   0.606  14.495  1.5522 -1.5270  0.7813
  229MPD1    H3 3535   1.633   0.370  14.450 -0.7168 -1.4462  0.2593
  229MPD1     N 3536   1.367   0.329  14.809  0.0154  0.1442  0.8293
  229MPD1    H5 3537   1.365   0.231  14.782  0.5268 -0.3145  2.4208
  229MPD1    N1 3538   1.544   0.760  14.662  0.5189 -0.5350  0.9567
  229MPD1    H6 3539   1.636   0.787  14.628  0.4475  0.7777  1.8015
  229MPD1    H7 3540   1.509   0.809  14.744 -1.3145  0.8616 -0.6700
  230MPD1     C 3541   0.603   0.510  15.438 -0.1021  0.3018 -0.4025
  230MPD1    C1 3542   0.673   0.586  15.348  0.3179  0.2743 -0.1354
  230MPD1    C2 3543   0.783   0.529  15.287 -0.7025  0.0414  0.1021
  230MPD1    C3 3544   0.834   0.404  15.311 -0.0425  0.1381 -0.5479
  230MPD1    C4 3545   0.776   0.342  15.417  0.0222  0.1794  0.1457
  230MPD1    C5 3546   0.652   0.387  15.464  0.4694  0.7242 -0.2904
  230MPD1     H 3547   0.826   0.581  15.202 -1.3892 -0.3451 -0.4761
  230MPD1    H1 3548   0.813   0.247  15.455  1.1121  0.4348 -0.2807
  230MPD1    H2 3549   0.510   0.548  15.478 -0.7736 -0.5882 -1.1378
  230MPD1    H3 3550   0.599   0.326  15.537 -1.0783  1.3206 -0.9137
  230MPD1     N 3551   0.935   0.345  15.233  0.5141  0.3248  0.0600
  230MPD1    H5 3552   0.972   0.396  15.153 -1.4177  0.3431 -0.8147
  230MPD1    N1 3553   0.624   0.708  15.306 -0.1841  0.5642 -0.6731
  230MPD1    H6 3554   0.693   0.777  15.276 -0.1427  0.7630 -0.1188
  230MPD1    H7 3555   0.565   0.762  15.368  0.2748 -0.3840  0.5982
  231MPD1     C 3556   4.445   2.114  15.757 -0.3589  0.1125 -0.3121
  231MPD1    C1 3557   4.414   2.057  15.639 -0.8114  0.3826 -0.4276
  231MPD1    C2 3558   4.470   2.124  15.529 -0.4383  0.4678  0.1952
  231MPD1    C3 3559   4.567   2.226  15.541  0.2710  0.3038  0.0245
  231MPD1    C4 3560   4.607   2.268  15.667  0.8330 -0.2973 -0.6404
  231MPD1    C5 3561   4.546   2.205  15.774 -0.5899  0.7318 -0.2190
  231MPD1     H 3562   4.444   2.086  15.431  3.8436  0.2807 -0.9038
  231MPD1    H1 3563   4.672   2.353  15.685  0.3938 -0.3277  1.0645
  231MPD1    H2 3564   4.407   2.072  15.849  0.7245  1.9292  0.9695
  231MPD1    H3 3565   4.566   2.251  15.870  2.4848  0.5333 -0.7387
  231MPD1     N 3566   4.626   2.270  15.420  0.5047  0.1581  0.5752
  231MPD1    H5 3567   4.582   2.234  15.336 -0.8644 -1.1560  1.8409
  231MPD1    N1 3568   4.313   1.964  15.604 -0.7319  0.2852 -0.3737
  231MPD1    H6 3569   4.321   1.921  15.512  1.3291  0.5280 -0.2960
  231MPD1    H7 3570   4.298   1.888  15.671 -0.9264 -1.4063 -2.3240
  232MPD1     C 3571   2.600   0.101   0.644 -1.5356  0.4903  0.8184
  232MPD1    C1 3572   2.540   4.716   0.625 -0.0233  0.0757 -0.6745
  232MPD1    C2 3573   2.447   4.696   0.524  0.2129  0.2069 -0.3932
  232MPD1    C3 3574   2.414   0.056   0.438  0.1458 -0.3465  0.2407
  232MPD1    C4 3575   2.477   0.178   0.451 -0.1797  0.0084 -0.3667
  232MPD1    C5 3576   2.572   0.194   0.553 -0.1166 -0.3714  0.6545
  232MPD1     H 3577   2.403   4.597   0.521 -1.0120  0.6558  2.7258
  232MPD1    H1 3578   2.458   0.269   0.395 -2.9332 -0.0250  0.5198
  232MPD1    H2 3579   2.676   0.114   0.720 -0.0637 -0.7971 -0.4378
  232MPD1    H3 3580   2.604   0.295   0.578  0.6396 -0.5798  0.5332
  232MPD1     N 3581   2.318   0.030   0.337  0.2612 -0.6950 -0.0954
  232MPD1    H5 3582   2.270   4.679   0.353 -0.1201 -0.3651  0.5468
  232MPD1    N1 3583   2.561   4.614   0.720  0.1769 -0.4665 -0.0784
  232MPD1    H6 3584   2.658   4.623   0.752 -0.8164 -1.0273  3.0719
  232MPD1    H7 3585   2.545   4.520   0.685  0.5401 -0.3914 -0.4534
  233MPD1     C 3586   2.224   2.893   1.284  0.1837 -0.1343 -0.3056
  233MPD1    C1 3587   2.168   2.773   1.242 -0.1883  0.0068  0.1815
  233MPD1    C2 3588   2.248   2.659   1.211  0.5424  0.2799  0.3680
  233MPD1    C3 3589   2.384   2.671   1.236  0.6221 -0.5814 -0.9366
  233MPD1    C4 3590   2.428   2.788   1.296 -0.0123 -0.0716 -0.2138
  233MPD1    C5 3591   2.349   2.895   1.319 -0.0329  0.8998  0.1520
  233MPD1     H 3592   2.197   2.571   1.175  2.0211 -0.4269  0.0384
  233MPD1    H1 3593   2.532   2.798   1.328 -0.4024  1.5294  0.5825
  233MPD1    H2 3594   2.171   2.987   1.296 -2.3360 -1.3764 -1.6892
  233MPD1    H3 3595   2.388   2.985   1.366  1.1728  0.4703 -0.0184
  233MPD1     N 3596   2.480   2.573   1.212  0.1583  0.2342 -0.1816
  233MPD1    H5 3597   2.577   2.603   1.213  0.6635 -1.4178  0.9875
  233MPD1    N1 3598   2.027   2.759   1.220 -0.3819  0.2908 -0.3511
  233MPD1    H6 3599   1.996   2.662   1.223 -1.8717  0.8322  1.8074
  233MPD1    H7 3600   1.961   2.825   1.260 -1.4351 -3.6723  4.3956
  234MPD1     C 3601   3.898   2.379   9.442 -0.0035  1.0388  0.1173
  234MPD1    C1 3602   3.915   2.503   9.498 -0.0858 -0.2098 -0.3423
  234MPD1    C2 3603   3.800   2.577   9.522  0.8840  0.6829  0.3467
  234MPD1    C3 3604   3.672   2.539   9.485 -0.1516 -0.0661  0.5281
  234MPD1    C4 3605   3.659   2.415   9.431 -0.2611  0.4789  0.3174
  234MPD1    C5 3606   3.769   2.332   9.417  0.0825  0.2370 -0.1001
  234MPD1     H 3607   3.807   2.681   9.553  1.4530  0.6762  0.2444
  234MPD1    H1 3608   3.562   2.379   9.397  0.7808 -1.9112 -0.1244
  234MPD1    H2 3609   3.981   2.318   9.408 -1.0570 -0.6478  0.6032
  234MPD1    H3 3610   3.748   2.236   9.370 -0.5542  0.5555 -0.4618
  234MPD1     N 3611   3.561   2.628   9.504 -0.0188 -0.2060  0.6047
  234MPD1    H5 3612   3.580   2.709   9.562  1.9976 -0.2338  0.0051
  234MPD1    N1 3613   4.041   2.556   9.524 -0.2053  0.4254  0.4443
  234MPD1    H6 3614   4.039   2.629   9.594 -3.6202 -1.3339  2.1658
  234MPD1    H7 3615   4.106   2.484   9.555 -0.4753 -0.2453 -0.5269
  235MPD1     C 3616   1.064   4.361  11.267  0.1433 -0.5059  0.2055
  235MPD1    C1 3617   1.145   4.475  11.266 -0.6364 -0.2232 -0.8296
  235MPD1    C2 3618   1.191   4.529  11.152  0.6024 -0.3620  0.0816
  235MPD1    C3 3619   1.153   4.474  11.032  0.7031  0.2700  0.5013
  235MPD1    C4 3620   1.062   4.368  11.035  0.3467  0.1661  0.6860
  235MPD1    C5 3621   1.007   4.325  11.150 -0.2176  0.2910  0.0401
  235MPD1     H 3622   1.264   4.608  11.143  1.5004 -1.2861 -0.7569
  235MPD1    H1 3623   1.022   4.326  10.944 -0.7205 -1.6323  1.9775
  235MPD1    H2 3624   1.032   4.317  11.361 -0.6285 -0.8477 -0.2223
  235MPD1    H3 3625   0.953   4.231  11.142  1.6533 -0.6978 -0.8632
  235MPD1     N 3626   1.200   4.527  10.914  0.3981 -0.3366  0.4088
  235MPD1    H5 3627   1.233   4.621  10.931 -2.3678  1.0612 -2.0112
  235MPD1    N1 3628   1.203   4.518  11.385  0.4196 -1.0198 -0.1727
  235MPD1    H6 3629   1.224   4.618  11.380 -0.7063 -0.9464 -3.6630
  235MPD1    H7 3630   1.136   4.497  11.459 -1.5906 -1.9298 -2.2612
  236MPD1     C 3631   0.325   1.404   9.397 -0.1149  0.0322 -0.4344
  236MPD1    C1 3632   0.307   1.283   9.329  0.2149 -0.8299  0.0884
  236MPD1    C2 3633   0.381   1.182   9.378  0.2194  0.5798 -0.4077
  236MPD1    C3 3634   0.482   1.204   9.472 -0.0108  0.0410  0.0456
  236MPD1    C4 3635   0.495   1.326   9.534 -0.5273 -0.0916 -0.2976
  236MPD1    C5 3636   0.412   1.423   9.497 -0.3006  0.2935  0.1545
  236MPD1     H 3637   0.368   1.080   9.341  2.2932 -1.3784  4.2393
  236MPD1    H1 3638   0.562   1.329   9.619 -1.8911 -0.3519  0.7741
  236MPD1    H2 3639   0.252   1.482   9.376 -1.1171 -0.1403  2.3205
  236MPD1    H3 3640   0.410   1.517   9.551 -1.0213  1.0277 -1.1516
  236MPD1     N 3641   0.570   1.102   9.509 -0.6668 -0.7282 -0.0054
  236MPD1    H5 3642   0.643   1.136   9.570 -0.6433 -0.9492  0.0884
  236MPD1    N1 3643   0.206   1.277   9.235 -0.5646  0.2906  0.1542
  236MPD1    H6 3644   0.217   1.187   9.190  0.3785  0.0274  0.9229
  236MPD1    H7 3645   0.200   1.360   9.175  1.1519  0.9643  0.9252
  237MPD1     C 3646   0.120   3.137  15.537  0.2922 -0.2487 -0.4019
  237MPD1    C1 3647   0.021   3.208  15.595 -0.1258 -0.2743  0.2999
  237MPD1    C2 3648   4.630   3.199  15.539  0.2275  0.3462 -0.2465
  237MPD1    C3 3649   4.613   3.152  15.409 -0.1521 -0.4764  0.2940
  237MPD1    C4 3650   4.725   3.097  15.351  0.1111 -0.4741 -0.7208
  237MPD1    C5 3651   0.110   3.084  15.409  0.1139  0.4927 -0.7891
  237MPD1     H 3652   4.546   3.245  15.590  0.3062 -0.3232  0.4986
  237MPD1    H1 3653   4.711   3.047  15.256 -1.4244  1.5921 -1.5753
  237MPD1    H2 3654   0.211   3.118  15.593  0.1036  1.1788  0.3929
  237MPD1    H3 3655   0.189   3.038  15.350 -0.6910 -1.1599 -0.5999
  237MPD1     N 3656   4.495   3.146  15.336 -0.5267 -0.9272  0.1512
  237MPD1    H5 3657   4.503   3.112  15.240  1.4414 -3.4676  1.2148
  237MPD1    N1 3658   0.033   3.251  15.725  0.2631 -0.2751  0.0653
  237MPD1    H6 3659   4.709   3.331  15.742  2.1152  1.0797  0.3041
  237MPD1    H7 3660   0.125   3.290  15.741 -0.3908  0.8989  0.9831
  238MPD1     C 3661   1.714   2.616  14.708  0.3845 -0.2970 -0.3379
  238MPD1    C1 3662   1.625   2.564  14.799  0.0681 -0.3352 -0.3403
  238MPD1    C2 3663   1.575   2.441  14.763 -0.4492 -0.4632 -0.3587
  238MPD1    C3 3664   1.593   2.376  14.643  0.3269 -0.3299 -0.2301
  238MPD1    C4 3665   1.685   2.433  14.552  1.6118 -0.2378  0.0139
  238MPD1    C5 3666   1.744   2.550  14.590 -0.1349 -0.1899  0.3035
  238MPD1     H 3667   1.508   2.397  14.836 -1.5732 -0.8403 -1.6161
  238MPD1    H1 3668   1.725   2.379  14.468  0.0115  0.6643 -1.3261
  238MPD1    H2 3669   1.770   2.706  14.734 -2.1130  1.0884  0.2109
  238MPD1    H3 3670   1.836   2.582  14.542  0.2699  0.5904  1.6179
  238MPD1     N 3671   1.522   2.261  14.604  0.0462  0.2168 -0.1563
  238MPD1    H5 3672   1.543   2.223  14.513  1.7556 -1.1530  0.8081
  238MPD1    N1 3673   1.611   2.619  14.923 -0.2370 -0.1318 -0.4252
  238MPD1    H6 3674   1.533   2.581  14.977 -1.1341 -0.0084 -1.6458
  238MPD1    H7 3675   1.620   2.721  14.925  0.4268 -0.1934  0.0851
  239MPD1     C 3676   1.023   3.550  13.176  0.3686  0.0797  0.0343
  239MPD1    C1 3677   1.145   3.612  13.200 -0.0911 -0.8217  0.3132
  239MPD1    C2 3678   1.183   3.654  13.328  0.4661 -0.2788 -0.1012
  239MPD1    C3 3679   1.084   3.642  13.430  0.3448 -0.6318 -0.1377
  239MPD1    C4 3680   0.963   3.610  13.395  0.5256 -0.0287  0.7584
  239MPD1    C5 3681   0.928   3.559  13.274 -0.1151  0.6521  0.3650
  239MPD1     H 3682   1.282   3.696  13.343 -0.0372 -0.1232  2.7508
  239MPD1    H1 3683   0.884   3.619  13.469  0.0855 -1.6994  0.5020
  239MPD1    H2 3684   1.003   3.507  13.078  1.6548  0.3153 -0.3331
  239MPD1    H3 3685   0.832   3.512  13.259  0.0358  0.9508 -1.4998
  239MPD1     N 3686   1.113   3.675  13.564  0.6379 -0.0458 -0.1400
  239MPD1    H5 3687   1.044   3.643  13.630  0.8345 -0.2008 -0.0117
  239MPD1    N1 3688   1.240   3.588  13.096 -0.1909 -0.0232  0.0720
  239MPD1    H6 3689   1.322   3.649  13.095  0.0539 -0.3630 -0.3112
  239MPD1    H7 3690   1.211   3.587  12.999  3.4182 -1.5497 -0.9714
  240MPD1     C 3691   0.673   3.335  13.889  1.0423 -0.7580 -0.3856
  240MPD1    C1 3692   0.643   3.202  13.880  0.1569  0.0200 -0.1740
  240MPD1    C2 3693   0.691   3.116  13.981  0.1570 -0.0060  0.1011
  240MPD1    C3 3694   0.762   3.162  14.097  0.0193  0.0572  0.5081
  240MPD1    C4 3695   0.778   3.295  14.104  0.3059  0.1777  0.2290
  240MPD1    C5 3696   0.737   3.377  14.000  0.0777 -0.4867  0.2838
  240MPD1     H 3697   0.672   3.010  13.973  2.6446 -0.3955 -0.5690
  240MPD1    H1 3698   0.820   3.343  14.192  2.5523 -1.7225  0.1936
  240MPD1    H2 3699   0.654   3.410  13.814  1.7801  1.3699  1.5403
  240MPD1    H3 3700   0.742   3.484  14.009 -1.7588 -0.2292 -1.7804
  240MPD1     N 3701   0.800   3.060  14.185 -0.2711 -0.2606 -0.4413
  240MPD1    H5 3702   0.742   2.977  14.183  0.7482 -0.8974 -3.5825
  240MPD1    N1 3703   0.601   3.151  13.757 -0.0177  0.0431  0.1470
  240MPD1    H6 3704   0.541   3.213  13.703  1.6411  0.6360 -0.9945
  240MPD1    H7 3705   0.557   3.060  13.770 -0.0905  0.2125  1.1331
  241MPD1     C 3706   1.719   2.945  14.364  0.1964 -0.5886  0.0458
  241MPD1    C1 3707   1.639   3.015  14.281 -0.3318  0.3147 -0.5915
  241MPD1    C2 3708   1.499   2.995  14.290  0.2835  0.7402 -0.8327
  241MPD1    C3 3709   1.444   2.892  14.367  1.0910  0.3886 -0.7678
  241MPD1    C4 3710   1.532   2.814  14.439 -0.0367 -0.4152  0.2113
  241MPD1    C5 3711   1.666   2.843  14.447  0.0428  0.5537  0.2506
  241MPD1     H 3712   1.433   3.056  14.230 -2.0073 -1.3633 -0.4285
  241MPD1    H1 3713   1.493   2.735  14.502  0.1271 -0.6687 -0.0071
  241MPD1    H2 3714   1.826   2.962  14.365  0.0528  0.1752  1.6118
  241MPD1    H3 3715   1.730   2.788  14.515  1.0105 -0.6745 -1.6686
  241MPD1     N 3716   1.302   2.865  14.355  0.5782  0.0979 -0.0730
  241MPD1    H5 3717   1.251   2.923  14.288 -0.0287 -0.7499 -0.3364
  241MPD1    N1 3718   1.694   3.107  14.193 -0.0101 -0.4642  0.0349
  241MPD1    H6 3719   1.642   3.135  14.111 -0.8806 -0.7420  0.4947
  241MPD1    H7 3720   1.780   3.067  14.156  1.2184  3.2492 -1.1605
  242MPD1     C 3721   1.218   1.979  15.233 -0.4014 -0.0451  0.6152
  242MPD1    C1 3722   1.345   1.976  15.178 -0.0638 -0.4952 -0.1143
  242MPD1    C2 3723   1.381   1.880  15.087 -0.0051  0.8006  0.9303
  242MPD1    C3 3724   1.296   1.778  15.058  0.0263  0.4046  0.3653
  242MPD1    C4 3725   1.167   1.783  15.109 -0.8353  0.6083  0.2330
  242MPD1    C5 3726   1.129   1.878  15.198  0.0522  0.1715 -0.3599
  242MPD1     H 3727   1.472   1.888  15.028 -0.2981  0.0781  0.3890
  242MPD1    H1 3728   1.096   1.703  15.091 -0.2949  0.3307 -0.6247
  242MPD1    H2 3729   1.185   2.043  15.314 -0.1023  0.9047 -0.0161
  242MPD1    H3 3730   1.029   1.875  15.240 -0.1502  2.9410 -0.6125
  242MPD1     N 3731   1.325   1.673  14.973 -0.3723  0.0542  0.3523
  242MPD1    H5 3732   1.245   1.621  14.937 -0.4225  0.9390 -0.8255
  242MPD1    N1 3733   1.434   2.091  15.199 -0.2475  0.0922  0.1485
  242MPD1    H6 3734   1.423   2.140  15.288 -1.4826  0.6078 -0.2832
  242MPD1    H7 3735   1.533   2.076  15.188 -0.1220  1.2985 -0.3396
  243MPD1     C 3736   2.270   0.390  17.526 -0.1191 -0.4470  0.6584
  243MPD1    C1 3737   2.286   0.254  17.526  0.6501  0.2271  0.0540
  243MPD1    C2 3738   2.332   0.197  17.408 -0.5110  0.4602 -0.4061
  243MPD1    C3 3739   2.362   0.271  17.293 -1.0410  0.5324 -0.2442
  243MPD1    C4 3740   2.326   0.404  17.293 -0.6383 -0.1621  0.0349
  243MPD1    C5 3741   2.290   0.468  17.409  0.2287 -0.0246  0.0095
  243MPD1     H 3742   2.352   0.091  17.397  1.7771  0.8229  0.2226
  243MPD1    H1 3743   2.345   0.466  17.206  1.4126 -1.0979 -0.1783
  243MPD1    H2 3744   2.246   0.436  17.621 -0.7882 -1.2032  0.8541
  243MPD1    H3 3745   2.287   0.576  17.418  1.7380 -0.2747  3.7723
  243MPD1     N 3746   2.419   0.200  17.183  0.4646 -0.2451 -0.0397
  243MPD1    H5 3747   2.429   0.102  17.205 -0.4863 -0.7377 -1.7403
  243MPD1    N1 3748   2.254   0.166  17.637  0.0282  0.2391  0.6029
  243MPD1    H6 3749   2.315   0.085  17.645 -0.2150 -0.0506 -0.4504
  243MPD1    H7 3750   2.255   0.212  17.728 -0.9906  0.1039  0.6847
  244MPD1     C 3751   2.228   4.109  16.732 -0.3220 -0.5311  0.5058
  244MPD1    C1 3752   2.300   4.153  16.622 -0.5151  0.1200  0.0046
  244MPD1    C2 3753   2.381   4.264  16.644 -0.3730  0.1014 -0.0614
  244MPD1    C3 3754   2.382   4.324  16.769  0.3867 -0.4617 -0.2196
  244MPD1    C4 3755   2.302   4.275  16.867 -0.6408  1.0097 -0.1458
  244MPD1    C5 3756   2.222   4.165  16.850 -0.3397 -0.2377  0.6242
  244MPD1     H 3757   2.454   4.305  16.575 -0.4487 -1.7142 -1.1975
  244MPD1    H1 3758   2.306   4.299  16.972 -3.2362  0.1876  0.1523
  244MPD1    H2 3759   2.164   4.022  16.724 -0.7077 -0.1956 -0.0506
  244MPD1    H3 3760   2.165   4.127  16.934  0.3949 -1.4909  0.5447
  244MPD1     N 3761   2.464   4.442  16.790 -0.2215 -0.3976 -0.2086
  244MPD1    H5 3762   2.525   4.478  16.717  1.0057 -2.0886 -0.0215
  244MPD1    N1 3763   2.307   4.074  16.509  0.4189  0.3772 -0.4523
  244MPD1    H6 3764   2.215   4.031  16.497  0.0180  1.1742 -0.3024
  244MPD1    H7 3765   2.327   4.130  16.427 -2.1666 -0.5960 -1.7525
  245MPD1     C 3766   4.183   0.256  12.613  0.3037 -0.1873 -0.0993
  245MPD1    C1 3767   4.253   0.226  12.729  0.2894 -0.0539  0.1891
  245MPD1    C2 3768   4.320   0.325  12.800  0.1727 -0.7179  0.6270
  245MPD1    C3 3769   4.309   0.461  12.771 -0.3233  0.0095 -0.3683
  245MPD1    C4 3770   4.235   0.493  12.654 -0.0744  0.3686  0.4933
  245MPD1    C5 3771   4.178   0.390  12.578 -0.3959 -0.3465 -0.3086
  245MPD1     H 3772   4.386   0.292  12.880  1.6485 -0.8379 -0.6326
  245MPD1    H1 3773   4.227   0.590  12.606 -0.6985 -0.9535 -2.0956
  245MPD1    H2 3774   4.145   0.181  12.545 -0.6604  1.4709 -1.3606
  245MPD1    H3 3775   4.125   0.422  12.489 -0.3667 -1.9247 -0.8838
  245MPD1     N 3776   4.383   0.559  12.845 -0.5123  0.1756  0.1939
  245MPD1    H5 3777   4.439   0.520  12.920 -0.8293  0.0621  0.3725
  245MPD1    N1 3778   4.276   0.095  12.767 -0.1678 -0.3610 -0.6673
  245MPD1    H6 3779   4.320   0.094  12.858  0.2873  0.8326 -0.8738
  245MPD1    H7 3780   4.190   0.041  12.758  1.6704 -3.1242 -1.6275
  246MPD1     C 3781   2.055   1.739   8.807 -0.6265  0.0021 -0.2111
  246MPD1    C1 3782   2.063   1.868   8.861 -0.5031  0.2264  0.2197
  246MPD1    C2 3783   1.948   1.943   8.884 -0.3096 -0.7781 -0.8394
  246MPD1    C3 3784   1.823   1.893   8.869 -0.2984  0.0724 -0.7066
  246MPD1    C4 3785   1.819   1.764   8.826 -0.1490 -0.0405  0.3286
  246MPD1    C5 3786   1.928   1.683   8.804  0.5172 -0.0304  0.0056
  246MPD1     H 3787   1.950   2.042   8.927  1.2635 -1.0330 -0.3167
  246MPD1    H1 3788   1.724   1.712   8.825 -0.7868  1.0887  2.6737
  246MPD1    H2 3789   2.138   1.681   8.769 -0.3519  0.5759 -0.4775
  246MPD1    H3 3790   1.918   1.583   8.764  0.5409 -0.5072  1.1795
  246MPD1     N 3791   1.706   1.975   8.893 -0.8347  0.0814 -0.0371
  246MPD1    H5 3792   1.713   2.074   8.914  2.1830 -0.5315  1.7252
  246MPD1    N1 3793   2.191   1.932   8.852  0.4180  0.2077 -0.0936
  246MPD1    H6 3794   2.267   1.865   8.865  0.2598  0.5093  2.3682
  246MPD1    H7 3795   2.214   2.005   8.920  0.5349  0.7776 -0.7487
  247MPD1     C 3796   3.879   4.018  16.538  0.1019 -0.1506 -0.5020
  247MPD1    C1 3797   3.922   4.041  16.410  0.0709 -0.1102  0.4265
  247MPD1    C2 3798   3.934   4.169  16.368  0.1988  0.4241 -0.2923
  247MPD1    C3 3799   3.954   4.274  16.458 -0.7685  0.2242  0.6187
  247MPD1    C4 3800   3.948   4.241  16.588 -1.0253  0.0751 -0.4925
  247MPD1    C5 3801   3.914   4.113  16.627  0.3661 -0.5917 -0.6293
  247MPD1     H 3802   3.943   4.176  16.260  0.1473  0.8863 -0.2679
  247MPD1    H1 3803   3.952   4.322  16.661  1.4733 -1.6176  1.2675
  247MPD1    H2 3804   3.857   3.919  16.577 -1.5272  0.3633 -0.1229
  247MPD1    H3 3805   3.903   4.092  16.733  1.3537 -2.8501 -0.9629
  247MPD1     N 3806   3.962   4.405  16.410 -0.4996 -0.3741  0.4362
  247MPD1    H5 3807   3.977   4.476  16.481 -0.4115  0.6660 -0.6080
  247MPD1    N1 3808   3.893   3.940  16.316 -0.3433  0.2115  0.8802
  247MPD1    H6 3809   3.943   3.944  16.228 -0.1446  1.1184  1.0287
  247MPD1    H7 3810   3.908   3.849  16.359  0.4714  0.0505  0.2663
  248MPD1     C 3811   0.280   4.374  17.265  0.8508 -0.6426 -0.5624
  248MPD1    C1 3812   0.288   4.508  17.298 -0.9877 -0.6324  0.3465
  248MPD1    C2 3813   0.202   4.545  17.397  0.1254  0.1574  0.2608
  248MPD1    C3 3814   0.094   4.468  17.436  0.1900 -0.2999  0.2027
  248MPD1    C4 3815   0.086   4.334  17.395  0.2657  0.0356 -0.0183
  248MPD1    C5 3816   0.182   4.286  17.307  0.1049 -0.4096 -0.0845
  248MPD1     H 3817   0.226   4.641  17.443 -0.5542  0.8469 -0.8169
  248MPD1    H1 3818   0.007   4.267  17.427  0.3336 -0.2938 -0.5334
  248MPD1    H2 3819   0.350   4.315  17.207  0.8833 -1.6249  0.4829
  248MPD1    H3 3820   0.180   4.181  17.282  1.0154 -0.6385  0.8045
  248MPD1     N 3821   0.003   4.524  17.530 -0.6670 -0.3385 -0.1175
  248MPD1    H5 3822   0.027   4.619  17.557 -1.8081 -0.0482 -0.1486
  248MPD1    N1 3823   0.392   4.584  17.265 -0.2316 -0.1120 -0.0776
  248MPD1    H6 3824   0.368   4.683  17.272 -0.1575 -0.2556  2.3662
  248MPD1    H7 3825   0.423   4.565  17.170 -2.4980 -0.5312 -0.7339
  249MPD1     C 3826   1.694   3.539   9.885  0.9269 -0.3210 -0.5578
  249MPD1    C1 3827   1.687   3.648   9.966  0.2032  0.3568 -0.1971
  249MPD1    C2 3828   1.764   3.762   9.940 -0.4675  0.0392  0.0180
  249MPD1    C3 3829   1.836   3.770   9.825  0.5528  0.0842  0.4253
  249MPD1    C4 3830   1.838   3.661   9.741 -0.0529  0.2049 -0.4040
  249MPD1    C5 3831   1.764   3.551   9.765  0.3637  0.1544  0.3012
  249MPD1     H 3832   1.756   3.848  10.006  0.3316  1.9018 -2.2999
  249MPD1    H1 3833   1.909   3.656   9.659  0.7688 -0.1501  0.3291
  249MPD1    H2 3834   1.640   3.447   9.903  3.2582 -1.9017 -1.5343
  249MPD1    H3 3835   1.770   3.466   9.698  0.1349 -0.8896  1.6213
  249MPD1     N 3836   1.901   3.890   9.802 -0.1568  0.0613 -0.4308
  249MPD1    H5 3837   1.899   3.962   9.874 -0.1909 -0.5439  0.1749
  249MPD1    N1 3838   1.625   3.639  10.093  0.1030 -0.0776 -0.1422
  249MPD1    H6 3839   1.532   3.598  10.101 -1.0112  2.6192  0.5874
  249MPD1    H7 3840   1.624   3.733  10.132 -0.8887  0.4092 -1.3295
  250MPD2     C 3841   2.309   3.994  12.539  0.5695  0.1350 -0.7769
  250MPD2    C1 3842   2.441   3.976  12.501 -0.4060 -0.1557  0.1733
  250MPD2    C2 3843   2.464   3.864  12.425  0.3158  0.0055 -0.7299
  250MPD2    C3 3844   2.368   3.770  12.381 -0.2092 -0.9514  0.0927
  250MPD2    C4 3845   2.240   3.799  12.417  0.5262 -0.9098 -0.1328
  250MPD2    C5 3846   2.215   3.907  12.494  0.5973  0.2491  0.0963
  250MPD2     H 3847   2.565   3.850  12.390  0.1807 -1.2306 -0.5923
  250MPD2    H1 3848   2.160   3.735  12.381  1.7039 -1.1588 -2.2546
  250MPD2    H2 3849   2.271   4.072  12.604  0.6135 -2.0742  1.9106
  250MPD2    H3 3850   2.111   3.922  12.523  0.6449  3.2366 -1.2443
  250MPD2     N 3851   2.397   3.645  12.318  0.2484 -0.1355  0.0869
  250MPD2    H5 3852   2.318   3.583  12.304  0.1560  0.5483 -2.4012
  250MPD2    N1 3853   2.545   4.058  12.547 -0.2646 -0.2724  0.1845
  250MPD2    H7 3854   2.509   4.135  12.603  0.2128  0.1245 -0.0468
  251TMC3    C1 3855   2.757   4.160  12.582 -0.3440  0.1201 -1.0583
  251TMC3    C2 3856   2.713   4.238  12.687  0.0148  0.3616  0.6645
  251TMC3    C3 3857   2.810   4.317  12.743  0.2293 -0.1521  0.0849
  251TMC3    C4 3858   2.884   4.157  12.543  0.1027  0.1509 -0.5320
  251TMC3    C5 3859   2.976   4.234  12.609  0.0355  0.5841  0.9505
  251TMC3    C6 3860   2.939   4.318  12.704 -0.5612 -0.0937  0.1618
  251TMC3     C 3861   2.682   4.044  12.531  0.4658 -0.2897 -0.2680
  251TMC3     O 3862   2.744   3.956  12.476 -0.0050 -0.0673  0.5218
  251TMC3     H 3863   2.611   4.224  12.719 -0.5593  0.0922 -1.3025
  251TMC3    H1 3864   2.908   4.107  12.449  2.1711  1.4531 -0.6945
  251TMC3    H2 3865   3.019   4.363  12.763  0.6575 -0.4197 -1.2449
  251TMC3    C7 3866   3.115   4.199  12.593  0.1911 -0.0557  0.5553
  251TMC3    C8 3867   2.777   4.397  12.857  0.1837  0.4948  0.3576
  251TMC3    O1 3868   3.137   4.080  12.572  0.2928 -0.3361 -0.2975
  251TMC3    O2 3869   2.668   4.369  12.903 -0.2318  0.3135  0.1375
  252TMC3    C1 3870   4.223   0.413   9.652  0.1659  0.6417 -0.4901
  252TMC3    C2 3871   4.174   0.515   9.732  0.1912 -0.2402 -0.0139
  252TMC3    C3 3872   4.043   0.492   9.770  0.3310  0.5641  0.4879
  252TMC3    C4 3873   4.154   0.295   9.625 -0.0173  0.0919 -0.7207
  252TMC3    C5 3874   4.037   0.275   9.683  0.2614 -0.2767 -0.5871
  252TMC3    C6 3875   3.972   0.375   9.750 -0.1944 -0.3123  0.3336
  252TMC3     C 3876   4.324   0.439   9.545 -0.3646  0.4749  0.4903
  252TMC3     O 3877   4.351   0.355   9.458 -0.2016 -0.0972 -0.3012
  252TMC3     H 3878   4.224   0.611   9.740 -0.4586  0.1815 -1.0483
  252TMC3    H1 3879   4.200   0.220   9.561 -1.3372 -0.6013 -0.8614
  252TMC3    H2 3880   3.867   0.372   9.773 -0.5045  0.6115 -0.9793
  252TMC3    C7 3881   3.976   0.138   9.674  0.9423 -0.1664 -0.1038
  252TMC3    C8 3882   3.964   0.610   9.818 -0.4837  0.0186  0.3907
  252TMC3    O1 3883   4.014   0.075   9.578 -0.3238  0.2894 -0.5181
  252TMC3    O2 3884   3.877   0.580   9.901 -0.3973 -0.3633 -0.5201
  253MPD2     C 3885   3.882   3.551  14.783  0.2924 -0.8099 -0.4071
  253MPD2    C1 3886   3.753   3.551  14.834  0.0724  0.4243  0.3672
  253MPD2    C2 3887   3.735   3.557  14.972  0.8604 -0.4251 -0.9184
  253MPD2    C3 3888   3.837   3.554  15.064 -0.0529  1.1484 -0.4426
  253MPD2    C4 3889   3.965   3.550  15.005 -0.1432  0.2075  0.1202
  253MPD2    C5 3890   3.986   3.550  14.871 -0.1628  0.0561 -0.4996
  253MPD2     H 3891   3.631   3.557  15.001  1.0362 -1.7573 -0.2672
  253MPD2    H1 3892   4.054   3.556  15.067 -0.1760  2.4565 -0.0603
  253MPD2    H2 3893   3.915   3.565  14.680  1.5721  1.0828  0.2731
  253MPD2    H3 3894   4.085   3.555  14.829  0.8161  2.8460  2.1589
  253MPD2     N 3895   3.831   3.561  15.203  0.2600 -0.1961  0.0633
  253MPD2    H5 3896   3.913   3.535  15.256  0.7286  1.0612 -0.0547
  253MPD2    N1 3897   3.636   3.547  14.757 -0.3477 -0.3863 -0.1007
  253MPD2    H7 3898   3.546   3.556  14.802 -0.1963 -0.6268  0.2460
  254TMC3    C1 3899   3.708   3.550  15.410 -0.1589 -0.4793 -0.2148
  254TMC3    C2 3900   3.598   3.597  15.485  0.5517 -0.5178  1.0496
  254TMC3    C3 3901   3.578   3.539  15.609 -0.6080 -0.6751 -0.1561
  254TMC3    C4 3902   3.804   3.471  15.472  0.3026  0.1803  0.3413
  254TMC3    C5 3903   3.782   3.423  15.605  0.6717 -0.0519  0.7092
  254TMC3    C6 3904   3.669   3.456  15.669  0.1303  0.1441 -0.1416
  254TMC3     C 3905   3.710   3.577  15.267 -0.0126  0.8488  0.1499
  254TMC3     O 3906   3.610   3.627  15.221  0.2799  0.6866 -0.2150
  254TMC3     H 3907   3.524   3.659  15.437  0.5065 -1.7759 -0.5348
  254TMC3    H1 3908   3.893   3.439  15.419  0.2949  0.2120  0.3085
  254TMC3    H2 3909   3.655   3.434  15.775  0.2001 -0.1333 -0.1893
  254TMC3    C7 3910   3.895   3.380  15.682 -0.1802  0.2008  0.6175
  254TMC3    C8 3911   3.473   3.589  15.695  0.3572  0.0054  0.3551
  254TMC3    O1 3912   3.852   3.326  15.784  0.3371 -0.0846  0.4445
  254TMC3    O2 3913   3.470   3.549  15.810 -0.2548 -0.1657 -0.7825
  255MPD2     C 3914   2.256   1.213  10.698  0.4924  0.4499  0.6533
  255MPD2    C1 3915   2.327   1.323  10.667 -0.1369 -0.4777  0.1191
  255MPD2    C2 3916   2.468   1.334  10.683  0.3629  0.3102 -0.1601
  255MPD2    C3 3917   2.536   1.218  10.730 -0.1399 -0.7383  0.2396
  255MPD2    C4 3918   2.459   1.110  10.767  0.2749  0.4344  0.3072
  255MPD2    C5 3919   2.321   1.111  10.757  0.7876  0.3880  0.0998
  255MPD2     H 3920   2.529   1.412  10.639 -0.3270  0.0993 -1.5009
  255MPD2    H1 3921   2.507   1.022  10.808  0.1818  1.1184  1.8659
  255MPD2    H2 3922   2.149   1.211  10.682  0.5456  0.3444  0.3124
  255MPD2    H3 3923   2.268   1.019  10.779 -2.9617  2.5187 -0.2023
  255MPD2     N 3924   2.674   1.221  10.738 -0.0685  0.1715 -0.1856
  255MPD2    H5 3925   2.717   1.306  10.703 -0.7758  0.8230  0.5312
  255MPD2    N1 3926   2.245   1.429  10.620 -0.3623 -0.0668  0.4049
  255MPD2    H7 3927   2.149   1.405  10.600 -1.2099  1.1307  3.0911
  256TMC3    C1 3928   2.201   1.636  10.519  1.2999 -0.2657 -0.1367
  256TMC3    C2 3929   2.241   1.763  10.499  0.6734 -0.2271 -0.2115
  256TMC3    C3 3930   2.202   1.819  10.382  0.4513 -0.6404  0.2317
  256TMC3    C4 3931   2.136   1.557  10.423  0.3942 -0.0107  0.3029
  256TMC3    C5 3932   2.113   1.618  10.306 -0.7682 -0.1652 -0.4499
  256TMC3    C6 3933   2.140   1.747  10.285 -0.4976 -0.4908  0.0345
  256TMC3     C 3934   2.293   1.556  10.598  0.2988 -0.2784  0.3689
  256TMC3     O 3935   2.390   1.614  10.642  0.7904  0.3327 -0.6064
  256TMC3     H 3936   2.282   1.818  10.583 -2.0352 -0.0499  0.9896
  256TMC3    H1 3937   2.098   1.456  10.426 -3.6968  1.5785  1.4415
  256TMC3    H2 3938   2.134   1.782  10.183  2.3957  0.2355  0.0976
  256TMC3    C7 3939   2.125   1.528  10.194 -0.4639  0.0391  0.6937
  256TMC3    C8 3940   2.256   1.944  10.341 -0.2556 -0.0129  0.7098
  256TMC3    O1 3941   2.203   1.429  10.207 -0.2963  0.4280  0.5108
  256TMC3    O2 3942   2.371   1.972  10.368 -0.3164 -0.4143  0.1813
  257MPD2     C 3943   1.717   3.655  12.981  0.0774 -0.6051  0.0787
  257MPD2    C1 3944   1.610   3.615  12.906 -0.0998  0.9256 -0.0730
  257MPD2    C2 3945   1.548   3.499  12.939  0.1763  0.1431  0.3077
  257MPD2    C3 3946   1.591   3.423  13.050 -0.4238 -0.2521 -0.2055
  257MPD2    C4 3947   1.672   3.488  13.141  0.9076  0.6328  0.0071
  257MPD2    C5 3948   1.736   3.599  13.106 -0.4742 -0.0385  0.1748
  257MPD2     H 3949   1.461   3.466  12.883  0.3390  1.1224 -0.5267
  257MPD2    H1 3950   1.697   3.443  13.237  0.2624 -0.4285 -0.3212
  257MPD2    H2 3951   1.770   3.744  12.950 -0.6992 -0.0968  0.2105
  257MPD2    H3 3952   1.807   3.646  13.174  1.0523  0.2503 -1.6359
  257MPD2     N 3953   1.542   3.289  13.079 -1.0647  0.0081  0.4780
  257MPD2    H5 3954   1.456   3.259  13.035 -0.5896  0.1677 -0.5579
  257MPD2    N1 3955   1.587   3.695  12.794  0.5841 -0.6172  0.2074
  257MPD2    H7 3956   1.643   3.778  12.784  1.3833 -1.4817 -2.4112
  258TMC3    C1 3957   1.520   3.077  13.188 -0.3982  0.5681  0.7563
  258TMC3    C2 3958   1.444   3.029  13.087 -0.4838 -0.1696  0.9215
  258TMC3    C3 3959   1.401   2.900  13.104  0.6174 -0.3001  0.2527
  258TMC3    C4 3960   1.566   2.998  13.286 -0.2881  0.1273 -0.1812
  258TMC3    C5 3961   1.524   2.869  13.292 -0.3658  0.0345  0.0848
  258TMC3    C6 3962   1.427   2.819  13.211 -0.1738 -0.5268 -0.8227
  258TMC3     C 3963   1.606   3.199  13.165  0.0096 -0.5315 -0.2300
  258TMC3     O 3964   1.717   3.206  13.208 -0.3003  0.9858 -0.2764
  258TMC3     H 3965   1.417   3.096  13.006  2.7565  0.9922  0.8070
  258TMC3    H1 3966   1.641   3.036  13.356 -4.3968  3.7734  2.2456
  258TMC3    H2 3967   1.394   2.716  13.204  1.1119 -1.0184  0.3261
  258TMC3    C7 3968   1.571   2.784  13.399  0.3155 -0.2479  0.2621
  258TMC3    C8 3969   1.314   2.844  13.007 -0.0524 -0.2804 -0.3187
  258TMC3    O1 3970   1.502   2.687  13.428  0.2346  0.5368 -0.5131
  258TMC3    O2 3971   1.243   2.748  13.043  0.0064  0.4977 -0.0709
  259MPD2     C 3972   0.634   0.416   0.024  0.3529 -0.0756 -0.3247
  259MPD2    C1 3973   0.753   0.474   0.070 -0.1049  0.6118 -0.3333
  259MPD2    C2 3974   0.847   0.527  17.726  0.0430 -0.0968 -0.0087
  259MPD2    C3 3975   0.822   0.512  17.591  0.2129  1.2869 -0.1391
  259MPD2    C4 3976   0.710   0.442  17.548  0.3782  0.6577 -1.0345
  259MPD2    C5 3977   0.614   0.395  17.636  0.5247  0.1562 -0.1077
  259MPD2     H 3978   0.935   0.577   0.019  0.4999 -1.0732  0.2177
  259MPD2    H1 3979   0.687   0.421  17.444  0.1207 -0.3043 -0.7836
  259MPD2    H2 3980   0.559   0.377   0.092  0.8194 -0.2522  0.0907
  259MPD2    H3 3981   0.519   0.356  17.602  0.4895 -0.7736  1.0707
  259MPD2     N 3982   0.920   0.559  17.500  0.3278 -0.0294 -0.2061
  259MPD2    H5 3983   0.906   0.548  17.400 -1.7044 -0.0722  0.0785
  259MPD2    N1 3984   0.760   0.490   0.210  0.9066  0.0902  0.1416
  259MPD2    H7 3985   0.685   0.448   0.263  0.0703  0.1225 -1.0189
  260TMC3    C1 3986   1.136   0.622  17.421  0.5025  0.0255 -0.6923
  260TMC3    C2 3987   1.240   0.702  17.444 -0.8815 -0.3302  0.1910
  260TMC3    C3 3988   1.370   0.654  17.447 -0.2907  0.6683  0.0690
  260TMC3    C4 3989   1.161   0.494  17.375 -0.1481  0.4049  0.2296
  260TMC3    C5 3990   1.295   0.452  17.361  0.7699  0.1224 -0.1057
  260TMC3    C6 3991   1.400   0.534  17.392 -0.2120  0.6168 -0.4172
  260TMC3     C 3992   1.038   0.626  17.528  0.3216 -0.1044  0.1982
  260TMC3     O 3993   1.082   0.670  17.635  0.2082 -0.2068  0.0840
  260TMC3     H 3994   1.223   0.806  17.470  1.9082  0.3841 -0.9101
  260TMC3    H1 3995   1.082   0.421  17.386  1.4538 -1.5214 -1.0692
  260TMC3    H2 3996   1.504   0.507  17.377 -0.6255 -0.8406 -0.6999
  260TMC3    C7 3997   1.304   0.310  17.355 -0.2125 -0.1347  0.2988
  260TMC3    C8 3998   1.467   0.722  17.532  0.9569  0.5290 -0.2291
  260TMC3    O1 3999   1.219   0.246  17.294 -0.4124  0.1377 -0.7518
  260TMC3    O2 4000   1.447   0.838  17.568 -0.3118  0.1744 -0.3393
  261MPD2     C 4001   2.174   3.417  11.652  0.4602 -0.2351  0.5321
  261MPD2    C1 4002   2.221   3.509  11.744  0.7821  0.5014  0.1273
  261MPD2    C2 4003   2.215   3.642  11.718  0.1854 -0.0808  0.4545
  261MPD2    C3 4004   2.162   3.687  11.598  0.1393 -0.1160 -0.9954
  261MPD2    C4 4005   2.123   3.595  11.505 -0.6106  0.1271  0.1248
  261MPD2    C5 4006   2.128   3.462  11.530 -0.2994  0.8613  0.2606
  261MPD2     H 4007   2.237   3.715  11.796  1.8061  0.3759 -0.4199
  261MPD2    H1 4008   2.080   3.614  11.408  0.8780 -0.2861 -0.6184
  261MPD2    H2 4009   2.189   3.310  11.664  0.2389 -0.2826  0.3786
  261MPD2    H3 4010   2.107   3.391  11.450  2.5209  0.0798  0.2189
  261MPD2     N 4011   2.151   3.829  11.576  0.5815  0.2289 -0.4864
  261MPD2    H5 4012   2.165   3.887  11.658  1.1812 -0.3697 -0.1599
  261MPD2    N1 4013   2.292   3.472  11.866  0.6691 -0.5450 -0.0598
  261MPD2    H7 4014   2.332   3.551  11.914 -2.4449  1.0628 -0.1438
  262TMC3    C1 4015   2.100   4.021  11.438 -0.4229  0.3555  0.3873
  262TMC3    C2 4016   2.037   4.081  11.542  0.2727 -0.3340 -0.6494
  262TMC3    C3 4017   2.003   4.214  11.526 -0.3507 -0.1264  0.3895
  262TMC3    C4 4018   2.116   4.084  11.315  0.1089 -0.6548 -0.0547
  262TMC3    C5 4019   2.080   4.215  11.308  0.3254 -0.4588 -0.3202
  262TMC3    C6 4020   2.037   4.284  11.414  0.2420  0.8678  0.5160
  262TMC3     C 4021   2.124   3.880  11.447 -0.2118 -0.2774 -0.2723
  262TMC3     O 4022   2.123   3.833  11.337  0.2565  0.3991  0.3750
  262TMC3     H 4023   2.017   4.033  11.638 -1.5499 -0.0417 -0.8879
  262TMC3    H1 4024   2.159   4.036  11.228  0.4079  1.9296 -1.3154
  262TMC3    H2 4025   1.991   4.381  11.397  0.6045  0.3940 -3.1020
  262TMC3    C7 4026   2.119   4.290  11.195  0.1409 -0.0402  0.3704
  262TMC3    C8 4027   1.960   4.303  11.636  0.2731 -0.7851 -0.1832
  262TMC3    O1 4028   2.106   4.220  11.093 -0.6994  0.4379 -0.1569
  262TMC3    O2 4029   1.993   4.419  11.623  0.2341  0.1478 -0.1290
  263MPD2     C 4030   3.403   3.377  11.082 -0.4773  0.2889 -0.2021
  263MPD2    C1 4031   3.482   3.446  11.170  0.5081  0.0186 -0.3603
  263MPD2    C2 4032   3.579   3.532  11.121  1.0684  0.6834 -0.2190
  263MPD2    C3 4033   3.614   3.534  10.987 -0.9709  0.0622 -0.1032
  263MPD2    C4 4034   3.539   3.460  10.903  0.0643 -0.3286 -0.7310
  263MPD2    C5 4035   3.433   3.387  10.951  0.2959 -0.5432 -0.4237
  263MPD2     H 4036   3.636   3.605  11.179  1.7806 -1.5370  1.8686
  263MPD2    H1 4037   3.556   3.450  10.797  1.7403  0.0081 -0.4896
  263MPD2    H2 4038   3.327   3.312  11.122  0.4196 -0.5570  0.1268
  263MPD2    H3 4039   3.377   3.327  10.880  1.5721 -3.2462  0.8314
  263MPD2     N 4040   3.710   3.625  10.946 -0.1030 -0.2480 -0.1380
  263MPD2    H5 4041   3.728   3.696  11.016 -2.1946 -0.6758  0.8464
  263MPD2    N1 4042   3.453   3.431  11.306  0.0396  0.1104  0.9298
  263MPD2    H7 4043   3.380   3.367  11.333  0.2779 -0.6325 -0.2154
  264TMC3    C1 4044   3.838   3.755  10.801  0.8952  0.3987  0.5260
  264TMC3    C2 4045   3.794   3.865  10.874  0.3697  0.0909 -0.1290
  264TMC3    C3 4046   3.860   3.984  10.844  0.9845  0.2893  0.0588
  264TMC3    C4 4047   3.909   3.768  10.682  0.3722  0.6367 -0.7446
  264TMC3    C5 4048   3.968   3.890  10.657 -0.0815 -0.6079 -0.1087
  264TMC3    C6 4049   3.949   4.003  10.741 -0.1499  0.4168  0.4822
  264TMC3     C 4050   3.769   3.626  10.821  0.1820 -0.2691  0.2522
  264TMC3     O 4051   3.783   3.533  10.742  0.5115  0.1548  0.0047
  264TMC3     H 4052   3.702   3.868  10.931  0.9030  0.2959  0.7213
  264TMC3    H1 4053   3.922   3.685  10.615 -0.3706  1.5752 -2.0539
  264TMC3    H2 4054   3.993   4.100  10.722 -1.5602  0.9669  0.0378
  264TMC3    C7 4055   4.055   3.903  10.538  0.7789 -0.0720  0.3925
  264TMC3    C8 4056   3.829   4.103  10.918  0.0331 -0.0420  0.3722
  264TMC3    O1 4057   4.025   3.833  10.443 -0.1566  0.1459 -1.0690
  264TMC3    O2 4058   3.866   4.209  10.868  0.8307  0.2662  0.4176
  265MPD2     C 4059   0.480   3.135  15.571 -0.2271  0.0641 -0.2390
  265MPD2    C1 4060   0.469   3.258  15.509 -0.5120 -0.7366 -0.2000
  265MPD2    C2 4061   0.509   3.268  15.375  0.0962  0.5793 -0.3274
  265MPD2    C3 4062   0.554   3.159  15.302  0.6899 -0.0829  0.4713
  265MPD2    C4 4063   0.565   3.040  15.369 -0.9002 -0.1368  0.5423
  265MPD2    C5 4064   0.528   3.026  15.502 -0.3650 -0.1682  0.0109
  265MPD2     H 4065   0.482   3.363  15.332 -1.1244  0.2657 -0.2465
  265MPD2    H1 4066   0.625   2.959  15.330 -0.9652 -0.3859  0.9621
  265MPD2    H2 4067   0.474   3.140  15.679 -2.6896 -1.8252 -0.2673
  265MPD2    H3 4068   0.548   2.939  15.563  1.0277  1.5545  2.0243
  265MPD2     N 4069   0.603   3.165  15.171  0.0426  0.5509  0.3542
  265MPD2    H5 4070   0.652   3.086  15.132 -0.8053  0.8207 -1.2765
  265MPD2    N1 4071   0.416   3.374  15.565  0.4864  0.4057 -0.3406
  265MPD2    H7 4072   0.440   3.456  15.511 -1.6241  0.9297 -0.4584
  266TMC3    C1 4073   0.291   3.531  15.691 -0.2634 -0.1742 -0.0744
  266TMC3    C2 4074   0.297   3.576  15.817 -0.0288 -0.4667  0.2937
  266TMC3    C3 4075   0.293   3.713  15.830 -0.3522 -0.5814  0.3464
  266TMC3    C4 4076   0.267   3.604  15.582  0.0073  0.4874 -0.4746
  266TMC3    C5 4077   0.236   3.737  15.604  0.4388 -0.1439  0.0686
  266TMC3    C6 4078   0.237   3.788  15.728  0.3314  0.2585 -0.5510
  266TMC3     C 4079   0.351   3.394  15.683 -0.2318 -0.2428  0.0385
  266TMC3     O 4080   0.339   3.321  15.782 -0.1755 -0.0393  0.3336
  266TMC3     H 4081   0.313   3.512  15.903 -3.2355 -0.7175  0.7227
  266TMC3    H1 4082   0.278   3.566  15.481  1.0582  0.0053 -0.1841
  266TMC3    H2 4083   0.213   3.893  15.740 -0.2975  0.1611 -0.9732
  266TMC3    C7 4084   0.176   3.808  15.495 -0.0960 -0.2729 -0.5867
  266TMC3    C8 4085   0.359   3.771  15.949  0.0283 -0.2090 -0.5067
  266TMC3    O1 4086   0.110   3.739  15.422  0.6682  0.0120 -0.4608
  266TMC3    O2 4087   0.447   3.704  15.996 -0.1805 -0.3040  0.6282
  267MPD2     C 4088   2.466   0.826  17.667  0.3995 -0.0318 -0.6366
  267MPD2    C1 4089   2.526   0.741  17.587  0.3113 -0.5503  0.0723
  267MPD2    C2 4090   2.504   0.751  17.455 -0.3357 -0.9660 -0.0416
  267MPD2    C3 4091   2.412   0.844  17.405 -0.2086 -0.8830 -0.7237
  267MPD2    C4 4092   2.363   0.933  17.489 -1.1800 -0.1493 -0.5040
  267MPD2    C5 4093   2.385   0.921  17.620 -0.2979  0.1374  0.3938
  267MPD2     H 4094   2.565   0.690  17.390  1.2924 -0.9434  1.4793
  267MPD2    H1 4095   2.301   1.015  17.453  0.3101  1.2785  0.2257
  267MPD2    H2 4096   2.495   0.830   0.025  0.6459  1.4465 -0.7596
  267MPD2    H3 4097   2.336   0.987  17.692 -1.0044  0.5672 -0.4745
  267MPD2     N 4098   2.390   0.858  17.263  0.7536 -0.4015  0.2648
  267MPD2    H5 4099   2.338   0.939  17.231  1.9566 -0.3887 -1.6830
  267MPD2    N1 4100   2.630   0.659  17.634  0.6295  1.0195  0.4546
  267MPD2    H7 4101   2.620   0.639  17.734  1.9572  2.7356  0.9338
  268TMC3    C1 4102   2.819   0.510  17.649  0.7585 -0.5953 -0.2575
  268TMC3    C2 4103   2.930   0.469  17.587 -0.8248  0.9809  0.0891
  268TMC3    C3 4104   3.005   0.369  17.648  0.0479  0.3197  0.0709
  268TMC3    C4 4105   2.775   0.460   0.022 -0.0614 -0.3002 -0.2503
  268TMC3    C5 4106   2.850   0.364   0.083 -0.8386 -0.1460 -0.2851
  268TMC3    C6 4107   2.976   0.321   0.026  0.0764 -0.5784 -0.0471
  268TMC3     C 4108   2.734   0.603  17.567 -0.4647  0.5958  0.5378
  268TMC3     O 4109   2.769   0.616  17.452  0.1236 -0.2215  0.2119
  268TMC3     H 4110   2.975   0.512  17.498  0.4749 -1.8180 -0.6261
  268TMC3    H1 4111   2.678   0.493   0.057  0.1893 -0.7134  0.8379
  268TMC3    H2 4112   3.045   0.256   0.078  1.2670  1.1326  0.4758
  268TMC3    C7 4113   2.831   0.363   0.228  0.6338 -0.1992 -0.2610
  268TMC3    C8 4114   3.138   0.331  17.596 -0.2401 -0.3202  0.2219
  268TMC3    O1 4115   2.771   0.457   0.279 -0.0148  0.1914  0.2808
  268TMC3    O2 4116   3.216   0.270  17.670 -0.1616 -0.3037 -0.1841
  269MPD2     C 4117   2.658   3.980  15.821 -0.7093 -0.1958  0.4012
  269MPD2    C1 4118   2.571   4.013  15.722  0.2824 -0.6897 -0.5336
  269MPD2    C2 4119   2.560   4.146  15.681 -0.1419 -0.3386 -0.4810
  269MPD2    C3 4120   2.632   4.243  15.740  0.1766  0.0247 -0.5120
  269MPD2    C4 4121   2.711   4.209  15.851 -0.7419 -0.3714 -0.0420
  269MPD2    C5 4122   2.724   4.078  15.889 -0.5628 -0.0085 -0.2110
  269MPD2     H 4123   2.488   4.164  15.602 -1.2611  0.8195  0.7986
  269MPD2    H1 4124   2.731   4.274  15.936  1.8489 -3.0679  1.4369
  269MPD2    H2 4125   2.670   3.875  15.846 -0.2994 -0.6637 -1.7691
  269MPD2    H3 4126   2.774   4.064  15.983 -0.2334  0.5629 -0.3028
  269MPD2     N 4127   2.621   4.377  15.695  0.5707 -0.3062 -0.2468
  269MPD2    H5 4128   2.571   4.403  15.611  0.8987 -2.6981 -1.1718
  269MPD2    N1 4129   2.501   3.904  15.659 -0.2373  0.2814  0.0915
  269MPD2    H7 4130   2.504   3.816  15.710 -3.6652  0.5074  0.6524
  270TMC3    C1 4131   2.377   3.777  15.509  0.2107  0.0160 -0.2036
  270TMC3    C2 4132   2.281   3.761  15.405 -0.3693  0.3123  0.2936
  270TMC3    C3 4133   2.269   3.633  15.341  0.5505 -0.5534 -0.5723
  270TMC3    C4 4134   2.452   3.667  15.556  0.7302  0.3404  0.1266
  270TMC3    C5 4135   2.432   3.549  15.484 -0.0079 -0.6419  0.1278
  270TMC3    C6 4136   2.346   3.526  15.380 -0.3062 -0.8618  0.3013
  270TMC3     C 4137   2.400   3.907  15.559  0.5618 -0.9561 -0.0389
  270TMC3     O 4138   2.339   3.998  15.504  0.0079  0.3368 -0.2058
  270TMC3     H 4139   2.222   3.839  15.357 -0.7287 -0.6895 -0.8761
  270TMC3    H1 4140   2.530   3.664  15.631 -0.3304  1.3811  1.2558
  270TMC3    H2 4141   2.342   3.442  15.311  0.4988 -1.3073  0.7884
  270TMC3    C7 4142   2.530   3.443  15.520 -0.2575  0.0604 -0.4867
  270TMC3    C8 4143   2.225   3.628  15.207  0.2081 -0.4039 -0.1107
  270TMC3    O1 4144   2.634   3.473  15.571  0.5497 -0.3126 -0.7646
  270TMC3    O2 4145   2.105   3.657  15.187 -0.3512 -0.7532  0.0361
  271MPD2     C 4146   2.382   3.413  13.511 -0.0353  0.6680 -0.2940
  271MPD2    C1 4147   2.332   3.436  13.635  0.1939  0.0437  0.0243
  271MPD2    C2 4148   2.224   3.532  13.643  0.3392  0.2675 -0.7012
  271MPD2    C3 4149   2.162   3.579  13.529  0.4864  0.2398 -0.2092
  271MPD2    C4 4150   2.203   3.539  13.406  0.1665  0.3141 -0.3924
  271MPD2    C5 4151   2.318   3.469  13.403 -0.1916  0.5291 -0.6696
  271MPD2     H 4152   2.193   3.552  13.745 -1.1195  1.2101 -1.3415
  271MPD2    H1 4153   2.148   3.563  13.316 -1.9385  0.2005  0.8511
  271MPD2    H2 4154   2.470   3.353  13.489  1.0583  2.0129  0.4072
  271MPD2    H3 4155   2.353   3.428  13.309 -1.1764 -0.7435 -0.4788
  271MPD2     N 4156   2.040   3.651  13.539  0.2880  0.5260  0.7836
  271MPD2    H5 4157   1.992   3.669  13.451 -2.2558 -1.9018  1.6956
  271MPD2    N1 4158   2.385   3.373  13.753  0.7696 -0.0078 -0.5504
  271MPD2    H7 4159   2.354   3.401  13.846  0.8102 -1.8472  0.0230
  272TMC3    C1 4160   2.484   3.211  13.885 -0.2648  0.3580  0.0226
  272TMC3    C2 4161   2.607   3.169  13.924 -0.4283  0.0878 -0.3234
  272TMC3    C3 4162   2.624   3.141  14.054  0.2958 -0.6240  0.1999
  272TMC3    C4 4163   2.381   3.213  13.964  0.5489 -0.0461  0.2950
  272TMC3    C5 4164   2.405   3.176  14.096  0.1022 -0.2663  0.2008
  272TMC3    C6 4165   2.526   3.147  14.147  0.9404 -1.2472 -0.0540
  272TMC3     C 4166   2.474   3.268  13.757 -0.1522 -0.3751  0.2482
  272TMC3     O 4167   2.559   3.226  13.680  0.3052  0.4914  0.2211
  272TMC3     H 4168   2.685   3.161  13.849  1.3419 -0.9441  1.6213
  272TMC3    H1 4169   2.278   3.241  13.943 -0.4414 -4.6629 -0.9871
  272TMC3    H2 4170   2.524   3.112  14.250 -1.9253  0.6097  0.5293
  272TMC3    C7 4171   2.291   3.195  14.180 -0.3701  0.9862 -0.7540
  272TMC3    C8 4172   2.760   3.117  14.095  0.3393  0.6946  0.7686
  272TMC3    O1 4173   2.200   3.113  14.175  0.6690 -0.3448 -0.0883
  272TMC3    O2 4174   2.838   3.137  14.002 -0.2114  0.1390 -0.3703
  273MPD2     C 4175   3.672   1.848  12.252 -0.2825 -0.1529  0.3791
  273MPD2    C1 4176   3.753   1.896  12.151  1.1577 -0.0884 -0.8918
  273MPD2    C2 4177   3.689   1.965  12.050 -0.3628  0.2377 -0.0134
  273MPD2    C3 4178   3.555   1.991  12.057 -0.6232  0.0114  0.0227
  273MPD2    C4 4179   3.485   1.948  12.167  0.9355 -0.6650 -0.2700
  273MPD2    C5 4180   3.543   1.878  12.263 -0.9468  0.9179 -0.0095
  273MPD2     H 4181   3.750   2.000  11.967  1.6839 -0.7347  1.0688
  273MPD2    H1 4182   3.384   1.985  12.180  2.1563  2.3564  0.8457
  273MPD2    H2 4183   3.722   1.804  12.337 -3.9053 -2.4114  1.3216
  273MPD2    H3 4184   3.493   1.823  12.341 -0.3695 -1.5586 -1.3802
  273MPD2     N 4185   3.491   2.073  11.967 -0.3125  0.0838  0.0884
  273MPD2    H5 4186   3.397   2.102  11.991  0.3312  2.3247 -0.0497
  273MPD2    N1 4187   3.887   1.871  12.161  0.1277 -0.5364  0.0275
  273MPD2    H7 4188   3.912   1.830  12.250  2.6378  0.3779 -0.2544
  274TMC3    C1 4189   3.448   2.203  11.761  0.5850 -0.3082 -0.3668
  274TMC3    C2 4190   3.470   2.214  11.626  0.2818 -0.2671 -0.6839
  274TMC3    C3 4191   3.409   2.321  11.566 -0.4774 -0.6617  0.4790
  274TMC3    C4 4192   3.369   2.288  11.831 -0.9497  0.6181  0.1793
  274TMC3    C5 4193   3.315   2.395  11.761 -0.2275  0.2857  0.2011
  274TMC3    C6 4194   3.330   2.416  11.628  0.0936 -0.4402 -0.3831
  274TMC3     C 4195   3.542   2.115  11.840 -0.8221 -0.2243  0.7534
  274TMC3     O 4196   3.634   2.062  11.782 -1.0290  0.0397 -0.5494
  274TMC3     H 4197   3.517   2.131  11.575 -2.8640 -3.3871  1.4504
  274TMC3    H1 4198   3.362   2.270  11.938  1.0674  0.4196  0.2769
  274TMC3    H2 4199   3.252   2.465  11.571  1.5803  0.8187 -1.3227
  274TMC3    C7 4200   3.265   2.512  11.839  0.3151  0.5708  0.0207
  274TMC3    C8 4201   3.394   2.308  11.422 -0.0145  0.4362  0.4615
  274TMC3    O1 4202   3.238   2.487  11.955 -0.4611  0.0332  0.2761
  274TMC3    O2 4203   3.343   2.410  11.376  0.4535 -0.7694  0.2957
  275MPD2     C 4204   3.900   4.574  14.176  0.7794  0.7164 -0.0980
  275MPD2    C1 4205   3.914   4.452  14.243 -1.1466 -0.0173 -0.2821
  275MPD2    C2 4206   3.803   4.367  14.243  0.0790  0.2887  0.2111
  275MPD2    C3 4207   3.684   4.400  14.174 -0.2059 -0.8182  0.3320
  275MPD2    C4 4208   3.678   4.518  14.106 -0.0957  0.7291 -0.3724
  275MPD2    C5 4209   3.779   4.602  14.110 -0.4811 -0.4423 -0.1875
  275MPD2     H 4210   3.795   4.274  14.298  0.5606 -0.5509 -1.1673
  275MPD2    H1 4211   3.590   4.552  14.050 -0.8523  0.1289  0.4581
  275MPD2    H2 4212   3.972   4.655  14.168  0.6531  0.5872 -2.6756
  275MPD2    H3 4213   3.771   4.695  14.055 -1.5860 -0.0607  0.6257
  275MPD2     N 4214   3.565   4.324  14.167  0.3477 -0.0442 -0.1777
  275MPD2    H5 4215   3.484   4.370  14.128 -0.8269 -0.6009  1.6079
  275MPD2    N1 4216   4.028   4.413  14.316 -0.6984 -0.1890  0.0393
  275MPD2    H7 4217   4.023   4.324  14.364 -3.1773 -0.7829 -1.2689
  276TMC3    C1 4218   4.218   4.427  14.461 -0.0674 -0.4755  0.7966
  276TMC3    C2 4219   4.170   4.299  14.510 -1.6144  0.5387 -0.0365
  276TMC3    C3 4220   4.158   4.281  14.648  0.0330  0.4903 -0.1405
  276TMC3    C4 4221   4.280   4.511  14.552 -0.5632 -0.1409 -0.0880
  276TMC3    C5 4222   4.283   4.478  14.686  0.4326  0.2514 -0.3773
  276TMC3    C6 4223   4.221   4.364  14.736 -1.2717 -0.1443  0.4842
  276TMC3     C 4224   4.135   4.494  14.356  0.1546 -0.1758  0.2347
  276TMC3     O 4225   4.177   4.605  14.328 -0.0430  0.8219  0.2425
  276TMC3     H 4226   4.123   4.231  14.440 -0.6502  1.0162 -1.1361
  276TMC3    H1 4227   4.286   4.618  14.534  1.5979 -0.1633  0.4007
  276TMC3    H2 4228   4.220   4.345  14.843 -1.1193  2.1613  0.9068
  276TMC3    C7 4229   4.357   4.554  14.776 -0.6402 -0.8453 -0.0155
  276TMC3    C8 4230   4.024   4.254  14.692 -0.2766 -0.2100  0.5500
  276TMC3    O1 4231   4.319   4.543  14.889 -0.9906  0.3464 -0.6696
  276TMC3    O2 4232   3.995   4.295  14.804 -0.1575  0.4854  0.1595
  277MPD2     C 4233   0.616   3.795  12.981  0.8791  0.7597 -0.1681
  277MPD2    C1 4234   0.500   3.855  13.009  0.0480 -0.8354  0.0505
  277MPD2    C2 4235   0.450   3.851  13.143 -0.2576  0.2810  0.2018
  277MPD2    C3 4236   0.522   3.779  13.249 -0.4308 -0.3519  0.1536
  277MPD2    C4 4237   0.640   3.721  13.214  0.0216 -0.2664 -1.0195
  277MPD2    C5 4238   0.686   3.731  13.085  0.6579 -0.4425  0.4460
  277MPD2     H 4239   0.364   3.909  13.176 -0.3137  1.9269 -2.8907
  277MPD2    H1 4240   0.698   3.668  13.290 -2.3914  0.0134  1.0023
  277MPD2    H2 4241   0.656   3.796  12.880  2.3757 -0.5874  0.4067
  277MPD2    H3 4242   0.785   3.691  13.069  1.0633  0.5414  0.5263
  277MPD2     N 4243   0.464   3.781  13.377 -0.1153  0.0330 -0.1681
  277MPD2    H5 4244   0.382   3.838  13.396 -0.0330  0.5450 -1.3793
  277MPD2    N1 4245   0.446   3.940  12.912  0.4100  0.5156  0.2869
  277MPD2    H7 4246   0.506   3.962  12.833 -1.4348 -1.1939 -1.6227
  278TMC3    C1 4247   0.392   3.681  13.581  0.2851 -0.0848 -0.3351
  278TMC3    C2 4248   0.346   3.550  13.621  0.0604  0.0254  0.7287
  278TMC3    C3 4249   0.225   3.545  13.680  0.5186 -0.2809  0.4186
  278TMC3    C4 4250   0.313   3.791  13.597 -0.1493 -0.3056  0.4170
  278TMC3    C5 4251   0.187   3.783  13.659 -0.0418  0.0333 -0.7840
  278TMC3    C6 4252   0.145   3.657  13.699  0.2780 -0.4953 -0.7784
  278TMC3     C 4253   0.491   3.681  13.469 -0.2197  0.1113  0.0524
  278TMC3     O 4254   0.568   3.589  13.471 -0.2266  0.2692  0.0460
  278TMC3     H 4255   0.391   3.453  13.605  0.1401  0.3300 -0.9034
  278TMC3    H1 4256   0.351   3.887  13.565 -0.3985  0.1721  1.5491
  278TMC3    H2 4257   0.042   3.646  13.730  0.1260  0.5220 -0.9138
  278TMC3    C7 4258   0.097   3.890  13.628 -0.4954  0.0538 -0.2647
  278TMC3    C8 4259   0.148   3.425  13.652  0.2194  0.3579  0.4278
  278TMC3    O1 4260   0.141   4.001  13.599 -0.5525 -0.2368  0.0156
  278TMC3    O2 4261   0.168   3.326  13.719  0.3387 -0.3535 -0.6578
  279MPD2     C 4262   0.277   3.255  17.449  0.2374  1.1063  0.3392
  279MPD2    C1 4263   0.153   3.311  17.457  0.5779 -0.6477 -0.5481
  279MPD2    C2 4264   0.117   3.423  17.385  0.1611  0.1405 -0.9563
  279MPD2    C3 4265   0.222   3.490  17.325 -0.8715  0.3341 -0.6848
  279MPD2    C4 4266   0.348   3.443  17.323 -0.4765  0.1737 -0.6306
  279MPD2    C5 4267   0.378   3.323  17.389  0.0787 -0.1521  0.4156
  279MPD2     H 4268   0.017   3.464  17.384  0.8309  1.7269 -1.9426
  279MPD2    H1 4269   0.429   3.500  17.280 -0.8394  0.9005 -0.3507
  279MPD2    H2 4270   0.309   3.165  17.499 -1.1970  0.7178  0.5659
  279MPD2    H3 4271   0.482   3.291  17.394  0.6494  1.7950  0.9752
  279MPD2     N 4272   0.187   3.606  17.261  0.9096 -0.4027  0.7153
  279MPD2    H5 4273   0.090   3.637  17.265  1.8162  2.6752 -1.2821
  279MPD2    N1 4274   0.059   3.247  17.536 -0.5838 -0.0613 -0.0396
  279MPD2    H7 4275   0.104   3.177  17.594 -0.7035 -0.5521 -0.5484
  280TMC3    C1 4276   4.608   3.234  17.691 -0.1200  0.3053 -0.0518
  280TMC3    C2 4277   4.602   3.096  17.699  0.3834  0.3617 -0.2129
  280TMC3    C3 4278   4.493   3.040   0.018 -0.0031  0.2837 -0.0372
  280TMC3    C4 4279   4.514   3.319  17.737  0.0989  0.1564  0.1628
  280TMC3    C5 4280   4.407   3.257   0.051 -0.5710 -0.1201 -0.0400
  280TMC3    C6 4281   4.391   3.119   0.071  0.2650 -0.7797  0.8430
  280TMC3     C 4282   4.668   3.291  17.574 -0.0745  0.3381  0.5030
  280TMC3     O 4283   4.599   3.384  17.528 -0.0687 -0.3448 -0.0198
  280TMC3     H 4284   4.663   3.028  17.640 -0.8394 -1.6884  0.8675
  280TMC3    H1 4285   4.528   3.427  17.738  2.9310 -0.1804 -2.3465
  280TMC3    H2 4286   4.315   3.076   0.136 -0.4969  0.8107  0.9924
  280TMC3    C7 4287   4.308   3.355   0.092  0.0152 -0.4962  0.9436
  280TMC3    C8 4288   4.536   2.935   0.111  0.8107  0.2935  0.1554
  280TMC3    O1 4289   4.223   3.315   0.174  0.2336 -0.4237 -0.0417
  280TMC3    O2 4290   4.453   2.905   0.200 -0.1359 -0.1241 -0.1148
  281TMC3    C1 4291   3.485   3.757  13.072 -0.2969  0.4306  0.6195
  281TMC3    C2 4292   3.570   3.867  13.053  0.0261 -0.4852 -0.0543
  281TMC3    C3 4293   3.634   3.877  12.930  0.3051  0.0998 -0.3058
  281TMC3    C4 4294   3.470   3.660  12.976  0.4231 -0.1124 -0.0272
  281TMC3    C5 4295   3.530   3.681  12.854  0.0829  0.2460  0.1144
  281TMC3    C6 4296   3.606   3.786  12.829  0.4481  0.7232  0.5072
  281TMC3     C 4297   3.397   3.747  13.186  0.5786 -0.1453 -0.1246
  281TMC3     O 4298   3.355   3.636  13.220 -0.3551  0.2874 -0.4795
  281TMC3     H 4299   3.602   3.934  13.131 -2.4781 -0.0148  0.5649
  281TMC3    H1 4300   3.401   3.578  12.990  0.8347 -0.4736 -0.0920
  281TMC3    H2 4301   3.639   3.803  12.727 -0.0903 -0.0046  0.2122
  281TMC3    C7 4302   3.489   3.595  12.752  0.0425  0.5146  0.9372
  281TMC3    C8 4303   3.660   4.015  12.887 -0.1693  0.0919 -0.7480
  281TMC3    O1 4304   3.497   3.627  12.635  0.4622 -0.2760  0.4014
  281TMC3    O2 4305   3.691   4.096  12.971 -0.0127 -0.0848 -0.1988
  282MPD2     C 4306   0.267   0.335  14.721  0.1934 -0.0132 -0.0526
  282MPD2    C1 4307   0.217   0.436  14.797  0.0108 -0.6626  0.4670
  282MPD2    C2 4308   0.196   0.554  14.733  0.1489  0.4668  0.3561
  282MPD2    C3 4309   0.234   0.571  14.599  0.1267  0.2704  0.1740
  282MPD2    C4 4310   0.275   0.466  14.526  0.0846  0.6496  0.6421
  282MPD2    C5 4311   0.291   0.347  14.590 -0.2531 -0.0988  0.2041
  282MPD2     H 4312   0.159   0.636  14.795 -0.1937  0.7217 -0.1903
  282MPD2    H1 4313   0.296   0.469  14.419 -3.0206 -0.0348  0.0310
  282MPD2    H2 4314   0.292   0.237  14.761  2.5355  0.9766  0.8682
  282MPD2    H3 4315   0.326   0.260  14.536  1.5682  1.6223 -1.4100
  282MPD2     N 4316   0.221   0.701  14.547 -0.6080  0.3585 -0.2332
  282MPD2    H5 4317   0.165   0.763  14.605 -0.7838  0.6858 -0.7558
  282MPD2    N1 4318   0.212   0.432  14.939 -0.4589  0.1096  0.3059
  282MPD2    H7 4319   0.199   0.521  14.986 -1.7248 -0.0652  0.2897
  283TMC3    C1 4320   0.187   0.347  15.167  0.5030 -0.6826  0.1910
  283TMC3    C2 4321   0.231   0.463  15.213  0.3201  0.1346 -0.1464
  283TMC3    C3 4322   0.228   0.472  15.356  0.5514  0.6420 -0.5487
  283TMC3    C4 4323   0.139   0.248  15.243 -0.5749 -0.0430  0.5953
  283TMC3    C5 4324   0.125   0.264  15.376 -0.2906 -0.3932 -1.2724
  283TMC3    C6 4325   0.170   0.374  15.439 -0.1094  0.4468  0.5138
  283TMC3     C 4326   0.215   0.314  15.020 -0.1099  0.5103 -0.3756
  283TMC3     O 4327   0.222   0.195  14.982 -0.4783  0.5067 -0.3402
  283TMC3     H 4328   0.277   0.533  15.144 -2.3870  0.2609 -1.8318
  283TMC3    H1 4329   0.110   0.158  15.189 -0.6623 -0.1882  0.8885
  283TMC3    H2 4330   0.162   0.395  15.545  2.8155 -1.1206  1.0614
  283TMC3    C7 4331   0.070   0.159  15.466 -0.0521  0.1477 -0.1639
  283TMC3    C8 4332   0.262   0.597  15.421  0.1165 -0.5064  0.6413
  283TMC3    O1 4333   0.055   0.192  15.585  0.1182  0.0669  0.0481
  283TMC3    O2 4334   0.281   0.590  15.541 -0.1628  0.0165 -0.6970
  284MPD2     C 4335   3.420   4.513  12.138 -0.3862 -0.1743 -0.3962
  284MPD2    C1 4336   3.505   4.602  12.066 -0.7191  0.2058  0.2785
  284MPD2    C2 4337   3.606   4.548  11.990 -0.6399  0.0463 -0.1918
  284MPD2    C3 4338   3.622   4.408  11.980 -0.2433 -0.1446  0.2415
  284MPD2    C4 4339   3.536   4.325  12.045 -0.3173 -0.3058 -0.1804
  284MPD2    C5 4340   3.442   4.381  12.125 -0.3826  0.0840 -0.4315
  284MPD2     H 4341   3.667   4.616  11.932  0.6211 -0.0979  0.9428
  284MPD2    H1 4342   3.542   4.216  12.041  3.0892 -0.0586 -1.6006
  284MPD2    H2 4343   3.340   4.549  12.202 -0.4946 -1.1708  0.0278
  284MPD2    H3 4344   3.380   4.315  12.184 -0.9345  1.8332  0.9386
  284MPD2     N 4345   3.710   4.348  11.884 -0.4527 -1.0934  0.4611
  284MPD2    H5 4346   3.701   4.250  11.860  0.3053 -1.2571  0.8473
  284MPD2    N1 4347   3.490   0.009  12.062 -0.4748  0.0307  0.1487
  284MPD2    H7 4348   3.551   0.069  12.007  0.7308 -0.6605  0.7188
  285TMC3    C1 4349   3.375   0.211  12.092 -0.8159  0.1492  0.4021
  285TMC3    C2 4350   3.496   0.260  12.030 -0.1755  0.7124 -0.6480
  285TMC3    C3 4351   3.480   0.380  11.964 -0.4218 -0.6059  0.0943
  285TMC3    C4 4352   3.255   0.273  12.079 -0.8843 -0.5115  0.3692
  285TMC3    C5 4353   3.255   0.394  12.019 -0.0988  0.0726 -0.1586
  285TMC3    C6 4354   3.359   0.450  11.958 -0.2243  0.1038  0.2242
  285TMC3     C 4355   3.376   0.068  12.114  0.6641 -1.0018 -0.0887
  285TMC3     O 4356   3.271   0.026  12.155  0.4051  0.4166  0.0866
  285TMC3     H 4357   3.592   0.211  12.037 -1.8920 -2.7949 -1.5008
  285TMC3    H1 4358   3.166   0.230  12.123 -2.6251  2.7499  0.0971
  285TMC3    H2 4359   3.346   0.543  11.902  2.1811 -0.2541 -0.9068
  285TMC3    C7 4360   3.133   0.475  12.003  0.1625  0.4752 -0.2552
  285TMC3    C8 4361   3.574   0.388  11.856 -0.5341  0.8881  0.0277
  285TMC3    O1 4362   3.149   0.596  12.018 -0.3661 -0.1056 -0.5359
  285TMC3    O2 4363   3.623   0.283  11.820 -0.5029  0.5209  0.3993
  286MPD2     C 4364   3.911   3.131   0.621  0.2588  0.2238 -0.1961
  286MPD2    C1 4365   3.820   3.032   0.588  0.8761 -0.0132  0.0337
  286MPD2    C2 4366   3.834   2.905   0.643  0.5086 -0.2545  0.1918
  286MPD2    C3 4367   3.948   2.869   0.718 -0.1575  0.7897  0.3224
  286MPD2    C4 4368   4.043   2.971   0.746 -0.0802  0.3795  0.2351
  286MPD2    C5 4369   4.016   3.097   0.703  0.2132  0.5332  0.1036
  286MPD2     H 4370   3.749   2.837   0.644 -0.2189  0.6602  0.5117
  286MPD2    H1 4371   4.124   2.947   0.813  1.1936 -0.1617 -1.5140
  286MPD2    H2 4372   3.907   3.231   0.579  0.3363  0.3503  0.1063
  286MPD2    H3 4373   4.090   3.165   0.745 -0.0868  1.0097 -0.1465
  286MPD2     N 4374   3.977   2.738   0.771 -0.2827 -0.1609 -0.0379
  286MPD2    H5 4375   4.057   2.722   0.830 -0.9588 -0.8682  0.6866
  286MPD2    N1 4376   3.703   3.062   0.511  0.0590 -0.5846 -0.4677
  286MPD2    H7 4377   3.628   2.993   0.512 -0.5860  0.1291  1.4193
  287TMC3    C1 4378   3.949   2.509   0.811  0.4197  0.3570 -0.0520
  287TMC3    C2 4379   3.929   2.390   0.755  0.2157 -0.2928  0.0924
  287TMC3    C3 4380   3.990   2.283   0.807  0.6227 -0.2337  0.0039
  287TMC3    C4 4381   4.030   2.520   0.918  0.0090  0.0713 -0.4946
  287TMC3    C5 4382   4.069   2.405   0.990  0.5762  0.2575 -0.4219
  287TMC3    C6 4383   4.054   2.283   0.930  0.6060 -0.4212  0.2976
  287TMC3     C 4384   3.908   2.626   0.733  0.7609 -1.1228  0.4160
  287TMC3     O 4385   3.825   2.615   0.643  0.2786  0.4662  1.3274
  287TMC3     H 4386   3.861   2.385   0.671 -0.4228  0.1982  0.5807
  287TMC3    H1 4387   4.045   2.613   0.972 -1.7078  0.6216 -0.9607
  287TMC3    H2 4388   4.109   2.194   0.961  0.6267 -0.4439  0.1972
  287TMC3    C7 4389   4.144   2.427   1.120 -0.5909 -0.8984  0.0726
  287TMC3    C8 4390   3.954   2.153   0.745  0.5492 -0.2264  1.0727
  287TMC3    O1 4391   4.089   2.505   1.194 -0.0778 -0.2305 -0.0512
  287TMC3    O2 4392   3.889   2.160   0.641 -0.2627 -0.2841 -0.0593
  288TMC3    C1 4393   0.458   3.110  14.345  0.0971 -0.9622  0.1659
  288TMC3    C2 4394   0.413   3.090  14.470  0.6942  0.6027 -0.6261
  288TMC3    C3 4395   0.386   3.204  14.540  0.1848 -0.1236  0.3183
  288TMC3    C4 4396   0.457   3.241  14.290 -0.0027 -0.3221 -0.2962
  288TMC3    C5 4397   0.443   3.354  14.370  0.5113 -0.0236  0.0090
  288TMC3    C6 4398   0.402   3.335  14.496 -0.0977 -0.0943 -0.3878
  288TMC3     C 4399   0.465   2.997  14.258 -0.0242  0.2429  0.0573
  288TMC3     O 4400   0.511   2.895  14.303  0.2454 -0.1630 -0.0423
  288TMC3     H 4401   0.395   2.989  14.506  0.4478  0.0275 -2.3510
  288TMC3    H1 4402   0.505   3.249  14.194 -0.1582 -0.4967 -0.3891
  288TMC3    H2 4403   0.367   3.421  14.551  0.5300  0.5874 -1.0484
  288TMC3    C7 4404   0.395   3.480  14.311  0.0537 -0.2698  0.1181
  288TMC3    C8 4405   0.343   3.201  14.679 -0.0330  0.7461  0.0081
  288TMC3    O1 4406   0.310   3.543  14.374  0.1094  0.0866 -0.5945
  288TMC3    O2 4407   0.347   3.306  14.741 -0.4531 -0.5702  0.3255
  289MPD2     C 4408   0.865   2.255  14.306 -0.9694 -0.2160 -0.5530
  289MPD2    C1 4409   0.790   2.368  14.319 -0.4367 -0.5958 -0.6137
  289MPD2    C2 4410   0.658   2.354  14.283  0.7315 -0.2170  0.5251
  289MPD2    C3 4411   0.599   2.248  14.220  0.6063  0.7982 -0.0009
  289MPD2    C4 4412   0.681   2.136  14.214  0.0670  0.1490 -0.2485
  289MPD2    C5 4413   0.811   2.145  14.253  0.1791 -0.7707 -0.7669
  289MPD2     H 4414   0.595   2.439  14.306 -0.9774 -0.8485 -1.7986
  289MPD2    H1 4415   0.646   2.042  14.173 -1.3266  0.7650 -0.4639
  289MPD2    H2 4416   0.972   2.261  14.319 -1.2360  1.7171  0.8290
  289MPD2    H3 4417   0.882   2.065  14.232  1.2376  0.8263 -3.2842
  289MPD2     N 4418   0.465   2.249  14.175  0.3626  0.2846  0.2520
  289MPD2    H5 4419   0.431   2.161  14.138 -0.0858 -0.2751  2.0302
  289MPD2    N1 4420   0.859   2.488  14.354 -0.2271  0.3124  0.1682
  289MPD2    H7 4421   0.953   2.475  14.390 -1.0200  0.1677  2.1971
  290TMC3    C1 4422   0.259   2.347  14.102  0.7782 -0.0349  0.1720
  290TMC3    C2 4423   0.192   2.463  14.087  0.0516 -0.0132  1.5346
  290TMC3    C3 4424   0.067   2.461  14.037  0.3783  0.1250 -0.1752
  290TMC3    C4 4425   0.214   2.227  14.061 -0.0917 -0.2633  0.0863
  290TMC3    C5 4426   0.088   2.224  14.006  0.1234 -0.1111 -0.2109
  290TMC3    C6 4427   0.016   2.338  13.996 -0.1163 -0.3237 -0.0361
  290TMC3     C 4428   0.388   2.365  14.167  0.1831 -0.0427 -0.0301
  290TMC3     O 4429   0.422   2.481  14.195 -0.0553 -0.4586 -0.0601
  290TMC3     H 4430   0.236   2.553  14.128  0.9658 -0.0210  0.5711
  290TMC3    H1 4431   0.274   2.137  14.069  1.2056  0.6652  0.8224
  290TMC3    H2 4432   4.654   2.335  13.950  0.7821 -2.3219 -1.8168
  290TMC3    C7 4433   0.059   2.122  13.904  0.3128 -0.2282  0.8390
  290TMC3    C8 4434   4.734   2.580  13.982 -0.0198  0.1528 -0.2775
  290TMC3    O1 4435   4.703   2.158  13.832  0.0156 -0.1401  0.0768
  290TMC3    O2 4436   4.642   2.565  13.905  0.0523  0.0381  0.5639
  291MPD2     C 4437   4.496   2.224   0.199 -0.0380  0.3097  0.0423
  291MPD2    C1 4438   4.557   2.122   0.266 -0.4865  0.2010 -0.3381
  291MPD2    C2 4439   4.686   2.145   0.313 -0.1807 -0.2703 -0.2496
  291MPD2    C3 4440   0.025   2.257   0.296 -0.0945  0.1048  0.1580
  291MPD2    C4 4441   4.696   2.362   0.230  0.2448  0.5616  0.3190
  291MPD2    C5 4442   4.563   2.343   0.182 -0.2014 -0.3864 -0.2689
  291MPD2     H 4443   4.725   2.055   0.359 -1.8581 -1.8349 -1.8807
  291MPD2    H1 4444   0.018   2.448   0.199 -2.2186  1.8568 -0.7490
  291MPD2    H2 4445   4.402   2.203   0.150  0.2648 -0.2455 -0.3116
  291MPD2    H3 4446   4.516   2.422   0.125 -0.8241  0.9370  2.0766
  291MPD2     N 4447   0.163   2.268   0.314 -0.0576  0.2608  0.2744
  291MPD2    H5 4448   0.193   2.361   0.286 -0.3291  0.3722  0.3511
  291MPD2    N1 4449   4.515   1.992   0.283  0.9099 -0.7644 -0.3075
  291MPD2    H7 4450   4.579   1.935   0.336 -0.0711 -1.1475  0.4729
  292TMC3    C1 4451   4.402   1.793   0.247  0.1828 -0.8255  1.2447
  292TMC3    C2 4452   4.491   1.746   0.343 -0.3100 -0.9379  0.6246
  292TMC3    C3 4453   4.518   1.611   0.360  0.3265  0.5364 -1.0244
  292TMC3    C4 4454   4.355   1.720   0.149  0.3614 -0.2646 -0.3262
  292TMC3    C5 4455   4.373   1.582   0.165 -0.6288 -0.3312 -0.6377
  292TMC3    C6 4456   4.448   1.528   0.274 -0.2658 -0.1078  0.5164
  292TMC3     C 4457   4.406   1.936   0.219  0.5711 -0.7873 -0.1227
  292TMC3     O 4458   4.319   1.982   0.143  0.3973  0.7647  0.3675
  292TMC3     H 4459   4.509   1.808   0.430  3.7616 -1.8598  0.4743
  292TMC3    H1 4460   4.297   1.758   0.065  0.5352  0.5694 -0.0669
  292TMC3    H2 4461   4.475   1.423   0.275 -1.8347 -0.5277 -1.8718
  292TMC3    C7 4462   4.366   1.494   0.051  1.2558  0.3747  0.2223
  292TMC3    C8 4463   4.528   1.572   0.494 -0.5865  0.0167  1.0412
  292TMC3    O1 4464   4.460   1.419   0.031  0.4469 -0.3764 -0.3312
  292TMC3    O2 4465   4.600   1.642   0.561  0.0992 -0.4751  0.1038
  293MPD2     C 4466   1.869   3.486  12.644  0.1245  0.0154  0.0404
  293MPD2    C1 4467   1.770   3.407  12.692 -0.0181  0.3961  0.3521
  293MPD2    C2 4468   1.795   3.351  12.814 -0.2496 -0.1993  0.2006
  293MPD2    C3 4469   1.910   3.379  12.890 -0.0392  0.4051  0.4401
  293MPD2    C4 4470   1.998   3.473  12.846 -0.5083  0.6518 -0.5602
  293MPD2    C5 4471   1.978   3.525  12.719  0.0277  0.6964 -0.6189
  293MPD2     H 4472   1.712   3.294  12.854 -0.8031  1.2731  1.1764
  293MPD2    H1 4473   2.084   3.504  12.905  0.1467  0.0280 -1.1958
  293MPD2    H2 4474   1.859   3.528  12.545 -2.0907 -0.2366  0.1572
  293MPD2    H3 4475   2.040   3.602  12.675 -1.6579  1.1143 -2.2601
  293MPD2     N 4476   1.930   3.320  13.016  0.3419  0.2213 -0.0002
  293MPD2    H5 4477   1.851   3.275  13.060  0.4022 -1.3141 -1.4383
  293MPD2    N1 4478   1.655   3.386  12.616 -0.3436  0.1616  0.0813
  293MPD2    H7 4479   1.652   3.425  12.522  2.0491  2.8348  1.1200
  294TMC3    C1 4480   1.423   3.352  12.579 -0.3038  0.2305  0.5715
  294TMC3    C2 4481   1.305   3.350  12.645  0.0070  0.0178  0.5694
  294TMC3    C3 4482   1.204   3.391  12.566  0.3282  0.2022 -0.5093
  294TMC3    C4 4483   1.444   3.392  12.448  0.3384  0.4469  0.5016
  294TMC3    C5 4484   1.340   3.427  12.370 -0.2683  0.2059  0.7937
  294TMC3    C6 4485   1.226   3.432  12.433 -1.1988 -0.0095  0.1251
  294TMC3     C 4486   1.539   3.320  12.661  0.5227 -0.3996 -0.5539
  294TMC3     O 4487   1.519   3.260  12.762 -0.1967  1.1715  0.1251
  294TMC3     H 4488   1.287   3.319  12.748  0.4530  0.4627  0.7774
  294TMC3    H1 4489   1.540   3.391  12.398  0.8061  0.6531  1.4039
  294TMC3    H2 4490   1.137   3.448  12.374 -1.6359  2.3705  1.4307
  294TMC3    C7 4491   1.322   3.335  12.257  0.1736 -0.1552 -0.0625
  294TMC3    C8 4492   1.080   3.321  12.587  0.7120  0.3555 -0.0125
  294TMC3    O1 4493   1.231   3.253  12.283 -0.5756 -0.1944 -0.0969
  294TMC3    O2 4494   1.039   3.302  12.703  0.7902 -0.2673  0.0318
  295MPD2     C 4495   2.135   1.439   0.929  0.6748 -0.1207  0.4429
  295MPD2    C1 4496   2.063   1.553   0.902 -0.1624 -0.4216 -0.8241
  295MPD2    C2 4497   1.982   1.609   0.999  0.1817 -0.3805  0.2653
  295MPD2    C3 4498   1.974   1.552   1.123 -0.7070  0.4636  0.1928
  295MPD2    C4 4499   2.033   1.433   1.143  0.1195  0.5087 -0.3919
  295MPD2    C5 4500   2.120   1.380   1.051 -0.3877 -0.7705  0.9484
  295MPD2     H 4501   1.929   1.702   0.980  0.3163 -0.1149  1.1705
  295MPD2    H1 4502   2.032   1.384   1.239 -0.4810 -2.1745 -1.7632
  295MPD2    H2 4503   2.211   1.408   0.858  0.7049  1.7504 -0.3456
  295MPD2    H3 4504   2.176   1.291   1.076 -2.7268 -1.7865  2.5058
  295MPD2     N 4505   1.902   1.609   1.231  0.2925  0.4656  0.0484
  295MPD2    H5 4506   1.879   1.548   1.309 -1.4249 -1.4553 -1.9566
  295MPD2    N1 4507   2.069   1.624   0.774  0.3745 -0.1552 -0.0589
  295MPD2    H7 4508   1.999   1.696   0.767  0.4148  0.0274  1.4922
  296TMC3    C1 4509   1.798   1.767   1.366  0.1079 -1.0047 -0.3041
  296TMC3    C2 4510   1.721   1.881   1.349 -0.1914  0.3149  0.2244
  296TMC3    C3 4511   1.626   1.904   1.440 -0.4292  0.1503  0.3232
  296TMC3    C4 4512   1.769   1.676   1.465 -0.1584  0.0564 -0.7942
  296TMC3    C5 4513   1.661   1.701   1.545 -0.8193 -0.2410  0.0157
  296TMC3    C6 4514   1.588   1.815   1.529  0.5038  0.3823 -0.0037
  296TMC3     C 4515   1.881   1.739   1.251 -0.0976 -0.1913 -0.1905
  296TMC3     O 4516   1.911   1.830   1.173 -0.0564  0.1057 -0.1815
  296TMC3     H 4517   1.738   1.954   1.270  0.4523 -1.9122 -1.6961
  296TMC3    H1 4518   1.816   1.578   1.465  1.7470  0.9862  1.8491
  296TMC3    H2 4519   1.511   1.835   1.603 -0.0174 -0.0543 -0.4298
  296TMC3    C7 4520   1.662   1.657   1.685 -0.6315 -0.0206 -0.1911
  296TMC3    C8 4521   1.597   2.041   1.471 -0.2402 -0.1347  0.0534
  296TMC3    O1 4522   1.603   1.726   1.769  0.5678 -0.6027 -0.3097
  296TMC3    O2 4523   1.493   2.066   1.532  0.3430  0.3640  0.3064
  297MPD2     C 4524   4.319   3.890  16.317  0.0417 -0.1633  0.0646
  297MPD2    C1 4525   4.269   3.925  16.198  0.1307  0.1548 -0.3928
  297MPD2    C2 4526   4.326   4.039  16.136 -0.2138  0.2492  0.0840
  297MPD2    C3 4527   4.421   4.117  16.198  0.5449 -0.4403 -0.8199
  297MPD2    C4 4528   4.457   4.084  16.328 -0.0348 -0.2570 -0.2532
  297MPD2    C5 4529   4.419   3.961  16.379  0.4087  0.4749  0.7462
  297MPD2     H 4530   4.279   4.071  16.044 -0.7688  0.0067  0.2781
  297MPD2    H1 4531   4.536   4.136  16.381 -0.6211  1.1892 -0.7736
  297MPD2    H2 4532   4.300   3.789  16.354  0.4520 -0.4147 -0.4203
  297MPD2    H3 4533   4.459   3.928  16.474  0.9578 -0.2589  0.2629
  297MPD2     N 4534   4.462   4.235  16.131  0.4189 -0.0713  0.4811
  297MPD2    H5 4535   4.437   4.247  16.033 -0.2841 -3.6626  0.2003
  297MPD2    N1 4536   4.188   3.837  16.132  0.5605 -0.5465  0.0870
  297MPD2    H7 4537   4.152   3.886  16.051  2.8256  0.6328 -0.2112
  298TMC3    C1 4538   4.047   3.671  16.074 -0.4300  0.2713  0.9017
  298TMC3    C2 4539   4.094   3.698  15.950 -0.3103  0.5652  0.4206
  298TMC3    C3 4540   3.997   3.711  15.855  0.4000  0.5975 -0.0520
  298TMC3    C4 4541   3.916   3.664  16.112  0.0303 -0.2257  0.0716
  298TMC3    C5 4542   3.819   3.683  16.017  0.5219  0.1316  0.2078
  298TMC3    C6 4543   3.861   3.701  15.885 -0.5705  0.5119 -0.2770
  298TMC3     C 4544   4.133   3.723  16.180  0.1004  0.3194  0.4744
  298TMC3     O 4545   4.127   3.670  16.291 -0.2056 -0.3248 -1.1488
  298TMC3     H 4546   4.199   3.716  15.930 -0.3756 -0.1755 -0.5841
  298TMC3    H1 4547   3.893   3.665  16.218 -0.9685 -2.1016 -0.1292
  298TMC3    H2 4548   3.799   3.700  15.796 -0.7437  0.5225 -0.1574
  298TMC3    C7 4549   3.708   3.769  16.054 -0.2113 -0.8680 -0.1121
  298TMC3    C8 4550   4.032   3.733  15.713 -0.4089 -0.2898 -0.1397
  298TMC3    O1 4551   3.673   3.784  16.171  0.4484  0.0876 -0.3125
  298TMC3    O2 4552   3.944   3.717  15.628  0.2901 -0.1031  0.3715
  299MPD2     C 4553   4.326   4.408  10.171 -0.1097 -0.6950  0.0994
  299MPD2    C1 4554   4.419   4.477  10.108 -0.8996 -0.7358  0.2396
  299MPD2    C2 4555   4.427   4.615  10.114 -0.2086 -0.2375 -0.3332
  299MPD2    C3 4556   4.333   4.690  10.191  0.5549  0.0370  0.2217
  299MPD2    C4 4557   4.236   4.623  10.257  0.5298  0.0145  0.0584
  299MPD2    C5 4558   4.234   4.482  10.244  0.1524 -0.2537 -0.6008
  299MPD2     H 4559   4.513   4.667  10.074 -0.0923 -0.5723 -0.5183
  299MPD2    H1 4560   4.160   4.669  10.320 -0.4319 -0.8319 -0.4900
  299MPD2    H2 4561   4.310   4.301  10.163  0.1944 -0.6603 -0.9280
  299MPD2    H3 4562   4.154   4.441  10.304  0.2677  0.7975  0.2828
  299MPD2     N 4563   4.341   0.095  10.213  0.0234 -0.1178  0.1142
  299MPD2    H5 4564   4.292   0.137  10.292 -0.7263 -0.2257 -0.2911
  299MPD2    N1 4565   4.520   4.409  10.033  0.1467 -0.2385  0.0462
  299MPD2    H7 4566   4.524   4.309  10.053 -2.8734 -0.2194  0.6842
  300TMC3    C1 4567   4.435   0.314  10.193  0.3763 -0.2636 -0.3385
  300TMC3    C2 4568   4.540   0.392  10.157 -0.0613 -0.1524 -0.0513
  300TMC3    C3 4569   4.540   0.523  10.197  0.0638  1.0503  0.0195
  300TMC3    C4 4570   4.336   0.353  10.276 -0.7416 -0.5045 -0.0916
  300TMC3    C5 4571   4.337   0.489  10.311 -0.6429  0.6257 -0.2742
  300TMC3    C6 4572   4.448   0.569  10.288 -0.1214 -0.1920  0.0129
  300TMC3     C 4573   4.433   0.174  10.143  0.0897  0.2423  0.7808
  300TMC3     O 4574   4.501   0.155  10.046 -0.6096 -0.2153  0.0073
  300TMC3     H 4575   4.624   0.347  10.105 -0.6257 -0.3742 -0.7724
  300TMC3    H1 4576   4.239   0.304  10.277 -0.6575 -0.6972 -0.8537
  300TMC3    H2 4577   4.446   0.671  10.324  0.9520  0.6194 -2.2224
  300TMC3    C7 4578   4.232   0.549  10.390  0.0041  0.1417 -0.3298
  300TMC3    C8 4579   4.667   0.573  10.220 -0.0112 -0.6599 -0.6520
  300TMC3    O1 4580   4.235   0.672  10.399 -0.0954  0.2673  0.4210
  300TMC3    O2 4581   0.008   0.562  10.125 -0.0304 -0.0755 -0.1641
  301MPD2     C 4582   2.692   0.122   1.529  0.5772  0.1116  0.3955
  301MPD2    C1 4583   2.627   0.129   1.405  0.3542  0.1536 -0.1153
  301MPD2    C2 4584   2.622   0.010   1.334 -0.3787  1.1518  0.5366
  301MPD2    C3 4585   2.692   4.629   1.370 -0.3774  0.2655 -0.0992
  301MPD2    C4 4586   2.756   4.624   1.492 -0.8287  0.1419  0.1606
  301MPD2    C5 4587   2.758   0.004   1.565 -0.0880 -0.3408  0.5824
  301MPD2     H 4588   2.587   0.019   1.232 -0.5881  0.9654  0.5916
  301MPD2    H1 4589   2.803   4.536   1.534  0.5686  0.8070 -0.0137
  301MPD2    H2 4590   2.700   0.211   1.590 -1.0645  1.2278 -1.0145
  301MPD2    H3 4591   2.806   4.719   1.660 -0.8650  0.1584  1.0900
  301MPD2     N 4592   2.685   4.512   1.284  0.7145  0.0756 -0.6767
  301MPD2    H5 4593   2.724   4.430   1.329  1.9733  1.0234 -0.0573
  301MPD2    N1 4594   2.579   0.247   1.333 -0.6269  0.0592 -0.4754
  301MPD2    H7 4595   2.523   0.222   1.253  0.6755 -2.0133 -0.7281
  302TMC3    C1 4596   2.658   4.383   1.091 -0.1156 -0.3113  0.0333
  302TMC3    C2 4597   2.706   4.266   1.149  0.3168 -0.2548  0.4715
  302TMC3    C3 4598   2.686   4.147   1.088  0.2194  0.1283 -0.0115
  302TMC3    C4 4599   2.604   4.375   0.965 -0.4150  0.9464  0.1092
  302TMC3    C5 4600   2.601   4.258   0.898  0.4908  0.3906 -0.1985
  302TMC3    C6 4601   2.644   4.143   0.959 -0.0313 -0.5069 -0.0996
  302TMC3     C 4602   2.629   4.508   1.157 -0.3705  0.2760 -0.3066
  302TMC3     O 4603   2.571   4.586   1.089  0.6674 -0.4105  0.1667
  302TMC3     H 4604   2.751   4.270   1.247  1.5790  0.9795 -0.1595
  302TMC3    H1 4605   2.569   4.465   0.916 -1.9577 -0.5262 -1.4911
  302TMC3    H2 4606   2.642   4.051   0.901  1.5728 -0.7890  0.2963
  302TMC3    C7 4607   2.505   4.234   0.791  0.0138 -0.1312  1.4190
  302TMC3    C8 4608   2.741   4.025   1.136 -0.0851  0.0025  0.1147
  302TMC3    O1 4609   2.520   4.134   0.719 -0.5655  0.0893 -0.0539
  302TMC3    O2 4610   2.755   3.934   1.058  0.4093  0.9479 -0.0772
  303MPD2     C 4611   2.448   3.885  10.639 -0.1179  0.0424  0.0699
  303MPD2    C1 4612   2.403   3.764  10.592 -0.6148  0.1427  0.2274
  303MPD2    C2 4613   2.460   3.719  10.478  0.6717  0.8717  0.1019
  303MPD2    C3 4614   2.545   3.797  10.400 -0.4188 -0.3715  0.7831
  303MPD2    C4 4615   2.593   3.911  10.451 -0.2751  0.3544  0.6772
  303MPD2    C5 4616   2.548   3.952  10.571 -0.1206 -0.3438  0.1586
  303MPD2     H 4617   2.423   3.625  10.439  2.0964 -0.7967  2.7558
  303MPD2    H1 4618   2.665   3.975  10.400 -0.4229  1.4426  1.8493
  303MPD2    H2 4619   2.416   3.931  10.732  0.7997  1.4588 -0.3006
  303MPD2    H3 4620   2.587   4.042  10.617 -1.0912 -0.0383  0.3853
  303MPD2     N 4621   2.590   3.763  10.264  0.3656  0.3781  0.0755
  303MPD2    H5 4622   2.657   3.826  10.223 -1.3434  1.8174 -0.4893
  303MPD2    N1 4623   2.319   3.685  10.673  0.0881 -0.4119  0.2593
  303MPD2    H7 4624   2.256   3.730  10.739 -0.9624 -2.2741  0.5494
  304TMC3    C1 4625   2.197   3.486  10.735  0.6769 -0.3313  0.9298
  304TMC3    C2 4626   2.072   3.531  10.716  0.1416 -0.3324  0.2253
  304TMC3    C3 4627   1.964   3.443  10.739 -0.1948  0.0727 -0.8100
  304TMC3    C4 4628   2.215   3.357  10.782 -0.5266  0.6498  0.2017
  304TMC3    C5 4629   2.112   3.274  10.825  0.1619  0.4689 -0.2175
  304TMC3    C6 4630   1.987   3.322  10.803 -0.0373 -0.8936  0.3777
  304TMC3     C 4631   2.316   3.547  10.669 -0.7489 -0.4636 -0.3875
  304TMC3     O 4632   2.409   3.475  10.640  0.7090 -0.1694  0.5689
  304TMC3     H 4633   2.052   3.625  10.665  2.9125 -0.4205 -1.0549
  304TMC3    H1 4634   2.317   3.320  10.788 -0.0318  1.8919 -0.6641
  304TMC3    H2 4635   1.902   3.261  10.832 -1.3017  0.1103 -1.2736
  304TMC3    C7 4636   2.121   3.142  10.764 -0.9560  0.1518 -1.2972
  304TMC3    C8 4637   1.868   3.443  10.629  0.1523  0.3816 -0.3282
  304TMC3    O1 4638   2.022   3.126  10.689 -0.7428  0.5622 -0.1417
  304TMC3    O2 4639   1.834   3.553  10.583 -0.2090 -0.3731 -0.4782
  305MPD2     C 4640   0.512   1.097  13.591 -0.7708  0.4329  0.4922
  305MPD2    C1 4641   0.562   0.977  13.628  0.0732  0.8473  0.1405
  305MPD2    C2 4642   0.540   0.872  13.542 -0.1227 -0.3368  0.2667
  305MPD2    C3 4643   0.477   0.892  13.414  0.4659  0.0175 -0.1407
  305MPD2    C4 4644   0.429   1.019  13.385  0.1686 -0.1877  0.6322
  305MPD2    C5 4645   0.445   1.123  13.475  0.1176 -0.3837 -0.0972
  305MPD2     H 4646   0.590   0.779  13.566  1.9377  0.3672 -1.2696
  305MPD2    H1 4647   0.392   1.039  13.285 -0.6228  0.1453  0.9869
  305MPD2    H2 4648   0.530   1.180  13.659 -2.0571  1.0137  0.1273
  305MPD2    H3 4649   0.391   1.216  13.461  1.4429  0.4931  0.5950
  305MPD2     N 4650   0.460   0.790  13.313  0.3985 -0.0106 -0.7808
  305MPD2    H5 4651   0.387   0.808  13.245 -2.6135 -2.5200  1.8157
  305MPD2    N1 4652   0.634   0.972  13.749 -0.6902  0.1190 -0.4889
  305MPD2    H7 4653   0.650   1.064  13.790  0.6278 -0.0251 -0.7020
  306TMC3    C1 4654   0.784   0.897  13.911 -0.3968 -0.4382  0.2791
  306TMC3    C2 4655   0.875   0.803  13.950 -0.7976  0.0196  0.4893
  306TMC3    C3 4656   0.934   0.815  14.072  0.2864  0.1712  0.3719
  306TMC3    C4 4657   0.754   1.004  13.987  0.5298 -0.1548  0.1595
  306TMC3    C5 4658   0.821   1.021  14.106  0.1716 -0.4742  0.6261
  306TMC3    C6 4659   0.905   0.924  14.149  0.6034 -0.4643 -0.8843
  306TMC3     C 4660   0.684   0.863  13.817 -0.1515 -0.2217 -0.9261
  306TMC3     O 4661   0.671   0.745  13.797 -0.3632 -0.0194 -0.1806
  306TMC3     H 4662   0.899   0.726  13.878 -2.3443  0.3451 -0.3885
  306TMC3    H1 4663   0.664   1.063  13.978  1.1181  0.3375 -2.5528
  306TMC3    H2 4664   0.943   0.937  14.250 -1.2529  1.1385 -0.3804
  306TMC3    C7 4665   0.783   1.140  14.193  0.3528  0.0319 -0.1654
  306TMC3    C8 4666   1.028   0.711  14.116  0.1544 -0.3816  0.0872
  306TMC3    O1 4667   0.710   1.220  14.139 -0.3308  0.2108 -0.2284
  306TMC3    O2 4668   1.074   0.641  14.025 -0.3007  0.3800 -0.1527
  307MPD2     C 4669   3.069   3.453   0.010 -0.5433  0.9919 -0.0379
  307MPD2    C1 4670   3.107   3.575   0.070  0.5604  0.2211  0.2304
  307MPD2    C2 4671   3.073   3.589   0.203 -1.0694  0.4653  0.1511
  307MPD2    C3 4672   3.012   3.488   0.276  0.2889 -0.1589  0.7111
  307MPD2    C4 4673   2.973   3.370   0.214 -0.6505  0.0996  0.0357
  307MPD2    C5 4674   3.000   3.357   0.077 -0.2860  0.0016 -0.0654
  307MPD2     H 4675   3.105   3.679   0.255 -1.9733  0.4653  0.7068
  307MPD2    H1 4676   2.923   3.289   0.265 -1.0032 -0.3506 -1.0182
  307MPD2    H2 4677   3.091   3.434  17.651 -0.7241  0.8968 -0.0573
  307MPD2    H3 4678   2.976   3.266   0.024 -1.8597  0.2670  0.2130
  307MPD2     N 4679   2.992   3.524   0.410 -0.5138 -0.2052 -0.5671
  307MPD2    H5 4680   3.014   3.620   0.436  0.8240 -0.6006 -0.2235
  307MPD2    N1 4681   3.168   3.682   0.003 -0.2759  0.7418 -0.2394
  307MPD2    H7 4682   3.180   3.762   0.065  1.0129 -0.7493  1.4480
  308TMC3    C1 4683   2.855   3.462   0.871  0.7358 -0.3218  0.3276
  308TMC3    C2 4684   2.934   3.564   0.916 -0.2064 -0.0577  0.3086
  308TMC3    C3 4685   2.997   3.637   0.821 -0.7263  0.4362 -0.0158
  308TMC3    C4 4686   2.854   3.422   0.737 -0.0562 -0.3692 -0.8260
  308TMC3    C5 4687   2.921   3.500   0.646  0.4874 -0.0075 -0.4209
  308TMC3    C6 4688   2.993   3.612   0.689  0.2250 -0.5046  0.4613
  308TMC3     C 4689   2.744   3.414   0.951 -0.0890 -0.4423  0.3071
  308TMC3     O 4690   2.762   3.391   1.070  0.5941  0.2152 -0.0256
  308TMC3     H 4691   2.925   3.602   1.017 -2.1642  0.4047 -0.0278
  308TMC3    H1 4692   2.803   3.332   0.706 -0.6423 -0.9712  1.8513
  308TMC3    H2 4693   3.053   3.673   0.623 -1.4234  0.3360 -0.2475
  308TMC3    C7 4694   2.933   3.444   0.506 -0.1641 -0.1528 -0.4558
  308TMC3    C8 4695   3.039   3.773   0.860  0.1499 -0.2437 -0.1404
  308TMC3    O1 4696   2.898   3.329   0.491 -0.6345  0.1635 -0.7035
  308TMC3    O2 4697   3.089   3.795   0.967 -0.4243 -0.0273 -0.7737
  309MPD2     C 4698   2.672   3.967  17.107 -0.2626  0.1622 -0.1704
  309MPD2    C1 4699   2.572   3.948  17.005  0.2990 -0.6321  0.1847
  309MPD2    C2 4700   2.444   3.932  17.040  0.2779  0.9063  0.0093
  309MPD2    C3 4701   2.408   3.908  17.172 -0.3109 -0.1193  0.5678
  309MPD2    C4 4702   2.504   3.930  17.270 -0.6555  0.2109 -0.6507
  309MPD2    C5 4703   2.633   3.953  17.238  0.6182  0.4910  0.3431
  309MPD2     H 4704   2.369   3.945  16.962  0.4546 -0.5239 -0.4003
  309MPD2    H1 4705   2.499   3.909  17.376  0.7318  0.4723 -0.5319
  309MPD2    H2 4706   2.773   3.999  17.085  1.1315 -2.2088  2.7261
  309MPD2    H3 4707   2.710   3.990  17.305  3.9595 -3.8537 -1.1047
  309MPD2     N 4708   2.270   3.886  17.209  0.3498  0.1434 -0.2533
  309MPD2    H5 4709   2.249   3.882  17.308  2.1728 -0.6030  0.1082
  309MPD2    N1 4710   2.615   3.961  16.869 -0.5557  0.5675  0.4359
  309MPD2    H7 4711   2.536   3.964  16.805 -0.0028 -2.9832 -0.4113
  310TMC3    C1 4712   2.767   3.960  16.679  0.2331  0.2401  0.1620
  310TMC3    C2 4713   2.688   4.049  16.610  0.0988  0.2570 -0.1725
  310TMC3    C3 4714   2.681   4.024  16.476  0.2587  0.2008 -0.0346
  310TMC3    C4 4715   2.831   3.852  16.630  1.0459  0.3481  0.2249
  310TMC3    C5 4716   2.814   3.827  16.501  0.1547 -0.1247  0.8257
  310TMC3    C6 4717   2.741   3.913  16.419  0.2661 -0.1731 -0.6903
  310TMC3     C 4718   2.747   3.949  16.824  0.3381  0.5654 -0.0472
  310TMC3     O 4719   2.840   3.911  16.888  0.1827  0.5189 -0.1853
  310TMC3     H 4720   2.636   4.141  16.636 -0.1311  0.2348 -0.5665
  310TMC3    H1 4721   2.886   3.788  16.698  0.8233  0.8073  0.8413
  310TMC3    H2 4722   2.732   3.909  16.311 -0.5618  1.9528 -0.7127
  310TMC3    C7 4723   2.885   3.727  16.430  0.5120  0.0209 -0.4501
  310TMC3    C8 4724   2.623   4.127  16.391  0.5694  0.1836 -0.7022
  310TMC3    O1 4725   2.856   3.710  16.314  0.0303  0.6687 -0.5489
  310TMC3    O2 4726   2.641   4.245  16.423  0.3417 -0.0334 -0.2869
  311MPD2     C 4727   4.130   1.072  12.663 -0.3480 -0.1065  0.2899
  311MPD2    C1 4728   4.088   1.048  12.530  0.3718  0.4372  0.3503
  311MPD2    C2 4729   3.986   0.948  12.515  0.5359  0.3401 -0.0031
  311MPD2    C3 4730   3.949   0.861  12.616  0.7319  0.7575  0.3924
  311MPD2    C4 4731   4.002   0.886  12.741 -0.9742  0.6043  0.9228
  311MPD2    C5 4732   4.089   0.987  12.763  0.9461  0.1363  0.4095
  311MPD2     H 4733   3.949   0.925  12.415  2.5882 -2.9404 -0.0547
  311MPD2    H1 4734   3.973   0.828  12.828  0.6495  0.2420  1.2283
  311MPD2    H2 4735   4.208   1.143  12.690  0.2039 -0.6131  0.0086
  311MPD2    H3 4736   4.126   1.001  12.864 -0.3229  0.5963  0.8154
  311MPD2     N 4737   3.859   0.755  12.592 -0.7233 -0.1563  0.1975
  311MPD2    H5 4738   3.820   0.739  12.500 -1.1740  1.1066  0.1598
  311MPD2    N1 4739   4.140   1.107  12.414 -0.3366 -0.2995  0.4408
  311MPD2    H7 4740   4.114   1.065  12.326 -2.3199  1.7045  0.0856
  312TMC3    C1 4741   3.740   0.566  12.622  0.0214 -0.3311  0.3628
  312TMC3    C2 4742   3.602   0.560  12.630 -0.2374  1.5365 -0.8115
  312TMC3    C3 4743   3.544   0.441  12.665  0.3003  0.1738  0.0139
  312TMC3    C4 4744   3.815   0.457  12.651 -0.4489  0.2866  0.1576
  312TMC3    C5 4745   3.758   0.340  12.689  0.5515 -0.4146  0.3168
  312TMC3    C6 4746   3.621   0.332  12.698 -0.5954  1.0831 -0.3382
  312TMC3     C 4747   3.807   0.674  12.688 -0.1737 -0.2935  0.0768
  312TMC3     O 4748   3.849   0.643  12.797  0.0772 -0.3655  0.3625
  312TMC3     H 4749   3.542   0.646  12.602 -3.8095 -0.2939  1.3829
  312TMC3    H1 4750   3.921   0.477  12.643 -0.6476  1.6383  1.1154
  312TMC3    H2 4751   3.571   0.252  12.751 -0.0073  0.6819 -0.3790
  312TMC3    C7 4752   3.833   0.265  12.776 -0.1461  0.4411  0.3904
  312TMC3    C8 4753   3.403   0.419  12.670 -0.0973 -0.1713  0.2657
  312TMC3    O1 4754   3.828   0.144  12.782 -0.2508  0.7569  0.4919
  312TMC3    O2 4755   3.369   0.304  12.657  0.0807  0.0905  0.3581
  313MPD2     C 4756   3.300   0.609  11.571 -0.2064 -0.8274  0.5374
  313MPD2    C1 4757   3.315   0.662  11.444  0.0661 -0.1489 -0.5588
  313MPD2    C2 4758   3.311   0.578  11.336 -0.3914  0.6442 -0.0137
  313MPD2    C3 4759   3.294   0.442  11.357 -0.4951  0.0491 -0.3391
  313MPD2    C4 4760   3.269   0.397  11.483 -0.5495 -0.0184 -0.3573
  313MPD2    C5 4761   3.272   0.482  11.585  0.2959 -0.2239 -0.5354
  313MPD2     H 4762   3.319   0.627  11.240 -0.5813 -0.8643 -0.8076
  313MPD2    H1 4763   3.256   0.290  11.497 -1.1295 -0.3108 -3.0521
  313MPD2    H2 4764   3.280   0.670  11.659  2.6835  1.7723 -0.6208
  313MPD2    H3 4765   3.252   0.446  11.686 -3.9539  0.5786 -1.0818
  313MPD2     N 4766   3.291   0.354  11.245  0.1675 -0.1606  0.2601
  313MPD2    H5 4767   3.311   0.397  11.156  0.2545 -0.3726  0.1779
  313MPD2    N1 4768   3.329   0.804  11.416  0.1772  0.6163  0.2368
  313MPD2    H7 4769   3.338   0.846  11.324 -0.4242  1.9209  0.7811
  314TMC3    C1 4770   3.384   1.026  11.449  0.1615 -0.1505 -0.5024
  314TMC3    C2 4771   3.491   1.091  11.501 -0.4364 -0.6312  0.0944
  314TMC3    C3 4772   3.507   1.214  11.446 -0.1563  0.0199  0.2643
  314TMC3    C4 4773   3.286   1.078  11.370 -0.4095  0.0830  0.5664
  314TMC3    C5 4774   3.301   1.209  11.333 -0.0518 -0.0268  0.2508
  314TMC3    C6 4775   3.420   1.269  11.358  0.5589 -0.2040 -0.5802
  314TMC3     C 4776   3.361   0.895  11.513 -0.1863  0.0176 -0.0377
  314TMC3     O 4777   3.389   0.876  11.634 -0.0137  0.1008 -0.2480
  314TMC3     H 4778   3.557   1.029  11.561 -1.0695  0.1960  1.6499
  314TMC3    H1 4779   3.196   1.021  11.347 -0.0039 -0.4155  0.1849
  314TMC3    H2 4780   3.436   1.372  11.329 -2.9355  0.5890  0.4047
  314TMC3    C7 4781   3.238   1.255  11.209 -0.8323  0.1358 -0.1021
  314TMC3    C8 4782   3.635   1.274  11.452 -0.0676  0.3014  0.1266
  314TMC3    O1 4783   3.118   1.220  11.189  0.0986  0.1365 -0.2882
  314TMC3    O2 4784   3.658   1.371  11.377  0.1857 -0.0360  0.2595
  315MPD2     C 4785   3.362   3.204  17.095  0.0989 -0.2934 -0.0085
  315MPD2    C1 4786   3.453   3.187  17.194  0.1630 -0.2593 -0.1705
  315MPD2    C2 4787   3.555   3.285  17.214 -0.3036 -0.2216  0.3303
  315MPD2    C3 4788   3.551   3.406  17.138  1.0832 -0.6455  0.7533
  315MPD2    C4 4789   3.450   3.420  17.043 -0.2088  0.2202  0.1192
  315MPD2    C5 4790   3.362   3.322  17.027  0.4295  0.4095 -0.1289
  315MPD2     H 4791   3.620   3.270  17.299 -1.4648 -1.2467  1.0334
  315MPD2    H1 4792   3.431   3.501  16.973  1.4137 -0.3904 -1.0295
  315MPD2    H2 4793   3.290   3.128  17.067  0.9276 -1.8798  2.2032
  315MPD2    H3 4794   3.288   3.331  16.948  0.2286 -0.2780 -0.0248
  315MPD2     N 4795   3.653   3.499  17.155 -0.2695 -0.2117  0.2494
  315MPD2    H5 4796   3.710   3.475  17.236  0.6265 -1.7975 -0.8523
  315MPD2    N1 4797   3.480   3.055  17.248 -0.2731  0.1606 -0.0377
  315MPD2    H7 4798   3.532   3.049  17.335  1.0610  1.1915 -0.7659
  316TMC3    C1 4799   3.769   3.703  17.122 -0.3889  0.5088  0.1695
  316TMC3    C2 4800   3.854   3.660  17.220  0.3382  0.2111 -0.9382
  316TMC3    C3 4801   3.946   3.747  17.275 -1.6576  0.6329  0.9023
  316TMC3    C4 4802   3.769   3.833  17.080  0.3479  0.3147 -0.5088
  316TMC3    C5 4803   3.843   3.921  17.154  0.8488  0.2568  0.1035
  316TMC3    C6 4804   3.934   3.880  17.245  0.2271 -0.2994 -0.9113
  316TMC3     C 4805   3.662   3.623  17.083 -0.0311 -0.6784  0.5074
  316TMC3     O 4806   3.579   3.664  17.010 -0.2565 -0.1647  0.1044
  316TMC3     H 4807   3.879   3.554  17.218  1.1221  0.3579  1.4384
  316TMC3    H1 4808   3.685   3.874  17.025 -0.6831  0.0254  0.8474
  316TMC3    H2 4809   4.006   3.943  17.296  0.1710 -0.1929 -0.9635
  316TMC3    C7 4810   3.853   4.061  17.114 -0.4904 -0.3129 -0.0467
  316TMC3    C8 4811   4.032   3.697  17.381 -0.5204 -0.2750  0.0243
  316TMC3    O1 4812   3.903   4.137  17.196 -0.3435 -0.4193 -0.2557
  316TMC3    O2 4813   4.070   3.580  17.359  0.1396 -0.3857  0.2581
  317MPD2     C 4814   1.168   2.127  12.538 -0.4272 -0.3846  0.1904
  317MPD2    C1 4815   1.165   2.243  12.608 -0.0798  0.4141  0.6219
  317MPD2    C2 4816   1.119   2.237  12.740  0.2492 -0.0142 -0.1720
  317MPD2    C3 4817   1.071   2.120  12.795  0.4538 -0.2479  0.9354
  317MPD2    C4 4818   1.066   2.000  12.719  0.2014 -0.0300 -0.1274
  317MPD2    C5 4819   1.108   2.008  12.591 -0.4651 -0.2114  0.9388
  317MPD2     H 4820   1.113   2.328  12.799 -0.5105 -0.6197  0.6664
  317MPD2    H1 4821   1.023   1.905  12.749 -0.0675  0.4634  1.0733
  317MPD2    H2 4822   1.200   2.109  12.436 -0.0686 -1.4376  0.4852
  317MPD2    H3 4823   1.103   1.920  12.529  1.7267 -0.2444  0.8025
  317MPD2     N 4824   1.011   2.126  12.923  0.7935  0.1713  0.4146
  317MPD2    H5 4825   1.024   2.209  12.979 -2.4349 -0.1788  1.6622
  317MPD2    N1 4826   1.228   2.359  12.552  0.0401 -0.0158 -0.0879
  317MPD2    H7 4827   1.244   2.438  12.614  0.6937 -0.4453  0.2948
  318TMC3    C1 4828   0.883   2.060  13.111 -0.2094 -0.7817  0.4155
  318TMC3    C2 4829   0.747   2.073  13.119  0.0853 -0.4595  0.7567
  318TMC3    C3 4830   0.694   2.121  13.233 -0.0725  0.1814 -0.2057
  318TMC3    C4 4831   0.969   2.074  13.216 -0.5679 -0.1284 -0.0297
  318TMC3    C5 4832   0.908   2.114  13.335 -0.1052 -0.0789  0.3591
  318TMC3    C6 4833   0.772   2.142  13.342  0.1557 -0.3136 -0.5693
  318TMC3     C 4834   0.937   2.023  12.985 -0.0457  0.5881 -0.3596
  318TMC3     O 4835   0.921   1.907  12.949  1.3182 -0.1965  0.2650
  318TMC3     H 4836   0.700   2.057  13.023  1.7300 -1.6115  0.1587
  318TMC3    H1 4837   1.075   2.078  13.195 -0.7594 -1.9179 -1.3323
  318TMC3    H2 4838   0.737   2.189  13.433  0.6246  0.3635 -0.7415
  318TMC3    C7 4839   0.985   2.135  13.453 -0.3427  0.1363 -0.0864
  318TMC3    C8 4840   0.548   2.144  13.242  0.9070  0.4342  0.2706
  318TMC3    O1 4841   0.979   2.244  13.512 -0.1259 -0.0260 -0.0443
  318TMC3    O2 4842   0.510   2.178  13.354 -0.0313  0.3394  0.0370
  319MPD2     C 4843   1.734   3.396  16.703 -0.2489 -0.7779  0.8117
  319MPD2    C1 4844   1.696   3.261  16.716 -0.0304 -0.1041 -0.6535
  319MPD2    C2 4845   1.595   3.201  16.645 -0.9011  0.5459 -0.0219
  319MPD2    C3 4846   1.522   3.280  16.558 -0.5532  0.1795  0.2348
  319MPD2    C4 4847   1.557   3.413  16.551  0.2786 -0.4135  0.3018
  319MPD2    C5 4848   1.671   3.468  16.612 -0.1371  0.3920  0.1443
  319MPD2     H 4849   1.579   3.094  16.656  1.2844  0.2096  0.0337
  319MPD2    H1 4850   1.497   3.475  16.485  0.0309 -0.8921  0.0782
  319MPD2    H2 4851   1.811   3.445  16.761 -1.7872  1.0748  1.3218
  319MPD2    H3 4852   1.670   3.576  16.610 -0.4878  0.3720 -0.6902
  319MPD2     N 4853   1.409   3.233  16.485 -0.2423  0.2263 -0.0201
  319MPD2    H5 4854   1.377   3.280  16.401 -0.2655  0.0658 -0.1007
  319MPD2    N1 4855   1.770   3.176  16.793 -0.1280  0.0389  0.1649
  319MPD2    H7 4856   1.729   3.083  16.794 -0.7263  0.2503 -2.4811
  320TMC3    C1 4857   1.219   3.108  16.424 -0.3832 -0.2033 -0.0561
  320TMC3    C2 4858   1.160   3.209  16.348 -0.0669  0.0874 -0.2238
  320TMC3    C3 4859   1.071   3.164  16.256 -0.8414  0.4049 -0.0641
  320TMC3    C4 4860   1.178   2.973  16.420 -0.2439 -1.2144  0.5764
  320TMC3    C5 4861   1.097   2.937  16.321 -0.2479  0.1289  0.1113
  320TMC3    C6 4862   1.049   3.032  16.231  1.0741  0.0685  0.1598
  320TMC3     C 4863   1.323   3.137  16.520  0.0132  1.5686 -0.0904
  320TMC3     O 4864   1.326   3.055  16.614 -0.0019 -0.3479 -0.5251
  320TMC3     H 4865   1.187   3.313  16.360 -0.9381  0.5722 -2.5807
  320TMC3    H1 4866   1.207   2.897  16.491 -0.4312 -0.4791  1.4529
  320TMC3    H2 4867   0.964   2.999  16.172 -0.5566  1.2836  1.8219
  320TMC3    C7 4868   1.121   2.809  16.249 -0.2266 -0.4696  0.1292
  320TMC3    C8 4869   1.014   3.270  16.170 -1.2490  0.2041  0.4309
  320TMC3    O1 4870   1.086   2.806  16.136  0.0422  0.4388  0.4306
  320TMC3    O2 4871   1.018   3.387  16.208 -0.2267 -0.4337  0.3708
  321TMC3    C1 4872   1.965   3.097  16.906  0.5596 -0.1494 -0.3191
  321TMC3    C2 4873   1.947   2.976  16.846 -0.7779  0.4215  0.1804
  321TMC3    C3 4874   2.025   2.877  16.880  0.1401 -0.4762  0.0166
  321TMC3    C4 4875   2.061   3.122  17.000  0.1349  0.2823  0.0511
  321TMC3    C5 4876   2.138   3.015  17.038  0.0279 -0.5981 -0.3390
  321TMC3    C6 4877   2.122   2.896  16.971 -0.0612  0.7641 -0.0405
  321TMC3     C 4878   1.880   3.211  16.876  0.2863  0.3797  0.3367
  321TMC3     O 4879   1.922   3.321  16.904  0.2280 -0.0513  0.2733
  321TMC3     H 4880   1.872   2.967  16.768  1.2607 -1.1708 -1.5933
  321TMC3    H1 4881   2.078   3.222  17.040  2.8687 -1.0973  2.3835
  321TMC3    H2 4882   2.188   2.816  17.003 -0.3779  0.5870  0.1697
  321TMC3    C7 4883   2.145   2.996  17.177  0.5134 -0.4973  0.2926
  321TMC3    C8 4884   1.946   2.753  16.894  0.1129 -0.5157 -0.2495
  321TMC3    O1 4885   2.133   2.881  17.213 -0.0593  0.2831  0.7823
  321TMC3    O2 4886   1.864   2.736  16.808  0.3525  0.0693  0.4645
  322MPD2     C 4887   0.621   0.068  13.147 -0.4335  0.4286 -0.1732
  322MPD2    C1 4888   0.629   4.737  13.263 -0.5112 -0.2249  0.4815
  322MPD2    C2 4889   0.609   4.596  13.261  0.9372  1.0686 -0.2097
  322MPD2    C3 4890   0.588   4.528  13.139  0.2739 -0.1182 -0.2383
  322MPD2    C4 4891   0.585   4.605  13.025 -0.2984 -0.0029  0.2067
  322MPD2    C5 4892   0.596   0.005  13.031  0.1415  0.1905  0.0545
  322MPD2     H 4893   0.601   4.540  13.353  1.5253  3.1738  1.1169
  322MPD2    H1 4894   0.594   4.555  12.929  0.1246  0.0929  0.1952
  322MPD2    H2 4895   0.630   0.176  13.136  0.9190  0.3792  0.4816
  322MPD2    H3 4896   0.577   0.062  12.941 -0.8606  0.1612  0.2540
  322MPD2     N 4897   0.589   4.385  13.137 -0.0936 -0.0324 -0.1043
  322MPD2    H5 4898   0.599   4.352  13.233  0.7755  2.1809  0.5858
  322MPD2    N1 4899   0.657   0.066  13.385  0.2004 -0.0953  0.0509
  322MPD2    H7 4900   0.674   0.165  13.372  0.5633 -0.1450  0.1572
  323TMC3    C1 4901   0.693   0.116  13.613 -0.1426 -0.3197  0.7508
  323TMC3    C2 4902   0.796   0.196  13.586  0.4085 -0.4135  0.0311
  323TMC3    C3 4903   0.865   0.238  13.693  0.2962  0.5977  0.2781
  323TMC3    C4 4904   0.644   0.090  13.737  0.5524  0.3956  0.2431
  323TMC3    C5 4905   0.716   0.132  13.845 -0.5383  0.3716 -0.4143
  323TMC3    C6 4906   0.832   0.206  13.822  0.1482 -0.3985 -0.0145
  323TMC3     C 4907   0.649   0.018  13.514  0.9979  0.4510 -0.8347
  323TMC3     O 4908   0.622   4.640  13.544 -0.3490 -0.1515 -0.0927
  323TMC3     H 4909   0.825   0.217  13.483 -0.8601  0.7477 -0.0941
  323TMC3    H1 4910   0.561   0.020  13.741  0.2330  0.8989  2.7518
  323TMC3    H2 4911   0.899   0.245  13.897  0.1686 -0.7945  0.1744
  323TMC3    C7 4912   0.704   0.060  13.976 -0.5057  0.0567  0.6493
  323TMC3    C8 4913   0.979   0.320  13.678 -0.0709  0.2716 -0.2047
  323TMC3    O1 4914   0.616   4.713  13.978 -0.0249  0.2735 -0.3527
  323TMC3    O2 4915   1.035   0.359  13.779  0.1316 -0.2962  0.2717
  324MPD2     C 4916   2.105   0.583  14.429  0.1279  0.1825  0.3438
  324MPD2    C1 4917   2.146   0.698  14.366 -0.5042  0.2739 -0.3824
  324MPD2    C2 4918   2.064   0.761  14.277  0.0440 -0.1871 -0.1112
  324MPD2    C3 4919   1.932   0.718  14.265 -0.1435 -0.3466 -0.3603
  324MPD2    C4 4920   1.891   0.605  14.319  0.3493  0.1653  0.2485
  324MPD2    C5 4921   1.981   0.536  14.398 -0.5217 -0.0953  0.4007
  324MPD2     H 4922   2.098   0.855  14.234 -0.1475 -1.5788 -3.2607
  324MPD2    H1 4923   1.787   0.575  14.325  0.5729 -0.5005  0.9694
  324MPD2    H2 4924   2.163   0.529  14.503  0.7828  1.7960  1.0076
  324MPD2    H3 4925   1.946   0.444  14.443  0.2893 -0.4361  0.3245
  324MPD2     N 4926   1.828   0.796  14.214  0.2792 -0.1713  0.3546
  324MPD2    H5 4927   1.733   0.766  14.234  0.4782 -0.1986  1.2649
  324MPD2    N1 4928   2.266   0.760  14.391 -0.5667 -0.3986  0.0330
  324MPD2    H7 4929   2.295   0.831  14.325 -1.3995 -1.2061 -1.2111
  325TMC3    C1 4930   1.724   1.004  14.180 -0.7028 -0.4364  0.6446
  325TMC3    C2 4931   1.609   0.955  14.120  0.2871  0.1015 -0.2802
  325TMC3    C3 4932   1.530   1.045  14.048 -1.2973 -0.6706  0.4412
  325TMC3    C4 4933   1.744   1.138  14.183 -0.2641 -0.1758 -0.3118
  325TMC3    C5 4934   1.664   1.227  14.126 -0.1883 -0.7005 -0.4315
  325TMC3    C6 4935   1.553   1.182  14.060  0.5451  0.8104 -0.4168
  325TMC3     C 4936   1.847   0.927  14.170  0.8132 -0.4758 -0.2371
  325TMC3     O 4937   1.948   0.999  14.160  0.2521 -0.0432  0.2493
  325TMC3     H 4938   1.596   0.848  14.108  0.6707  0.2820 -2.3742
  325TMC3    H1 4939   1.823   1.182  14.242  0.2354 -1.4925 -0.0129
  325TMC3    H2 4940   1.479   1.252  14.025 -1.1284 -0.9500 -0.4012
  325TMC3    C7 4941   1.655   1.355  14.180 -0.1627 -0.1715 -0.1394
  325TMC3    C8 4942   1.407   0.996  13.989 -0.1920 -0.1332 -0.0915
  325TMC3    O1 4943   1.757   1.420  14.160 -0.0313 -0.6427 -0.0518
  325TMC3    O2 4944   1.405   0.888  13.933  0.2309  0.0780 -0.0181
  326MPD2     C 4945   3.501   2.757  10.880 -0.2669  0.0393 -0.2052
  326MPD2    C1 4946   3.513   2.715  10.747  0.5660  0.4180 -0.3255
  326MPD2    C2 4947   3.593   2.787  10.660 -1.1631  0.0787 -0.0939
  326MPD2    C3 4948   3.663   2.905  10.696  0.4979 -0.3440 -0.8489
  326MPD2    C4 4949   3.643   2.953  10.827 -0.4058  0.0387 -0.3397
  326MPD2    C5 4950   3.560   2.877  10.913 -0.1842 -0.5388  0.5820
  326MPD2     H 4951   3.609   2.748  10.560 -1.2816 -0.7311  0.2041
  326MPD2    H1 4952   3.688   3.046  10.861 -0.6673  0.2412 -0.5434
  326MPD2    H2 4953   3.433   2.712  10.951  1.1167 -0.2015  0.9456
  326MPD2    H3 4954   3.543   2.921  11.011  1.2237  0.1109  0.5500
  326MPD2     N 4955   3.747   2.979  10.615  0.4058 -0.0662 -0.3322
  326MPD2    H5 4956   3.768   3.072  10.648  1.2042  0.2858 -1.8248
  326MPD2    N1 4957   3.437   2.601  10.720  0.6170 -0.7594  0.5838
  326MPD2    H7 4958   3.400   2.543  10.794 -0.6264 -1.4230 -0.5478
  327TMC3    C1 4959   3.336   2.437  10.590  0.7541  0.1609 -0.0088
  327TMC3    C2 4960   3.244   2.452  10.493 -0.3527  0.6224  0.5207
  327TMC3    C3 4961   3.134   2.373  10.504  0.1400 -0.1619  0.2809
  327TMC3    C4 4962   3.335   2.349  10.692 -0.1372  0.5196 -0.2338
  327TMC3    C5 4963   3.218   2.278  10.704  0.2741  0.1588  0.1007
  327TMC3    C6 4964   3.118   2.290  10.615 -0.4009  0.4100 -0.2421
  327TMC3     C 4965   3.431   2.546  10.596  0.2185  0.5690 -0.0476
  327TMC3     O 4966   3.466   2.593  10.486 -0.2813  0.0260  0.0418
  327TMC3     H 4967   3.254   2.514  10.405 -1.7816  0.2274  0.0952
  327TMC3    H1 4968   3.420   2.325  10.755 -1.1381 -1.5192  0.3740
  327TMC3    H2 4969   3.026   2.237  10.636  0.3273 -1.2679 -1.3532
  327TMC3    C7 4970   3.190   2.189  10.811  0.2259 -0.3121 -0.1026
  327TMC3    C8 4971   3.019   2.407  10.420 -0.5696  0.0601 -0.1959
  327TMC3    O1 4972   3.111   2.097  10.783 -0.6538 -0.0809 -0.1671
  327TMC3    O2 4973   3.028   2.520  10.372  0.1141  0.0089 -0.0324
  328MPD2     C 4974   1.329   2.205  17.230  0.0627  1.3474 -0.8858
  328MPD2    C1 4975   1.238   2.159  17.140  0.6266 -0.3619 -0.5321
  328MPD2    C2 4976   1.212   2.259  17.041 -0.0220 -0.3154  0.1546
  328MPD2    C3 4977   1.277   2.379  17.020 -0.1659 -0.3701  0.3985
  328MPD2    C4 4978   1.379   2.408  17.105 -0.3259 -0.1271 -0.0238
  328MPD2    C5 4979   1.402   2.318  17.207 -1.1253 -0.3470  0.8154
  328MPD2     H 4980   1.124   2.235  16.982  0.0210 -0.2915  0.0797
  328MPD2    H1 4981   1.432   2.502  17.095 -0.8234  0.0217 -1.1866
  328MPD2    H2 4982   1.343   2.149  17.322  2.2821  0.1889 -1.9217
  328MPD2    H3 4983   1.471   2.350  17.284 -1.1166  0.1763  0.5873
  328MPD2     N 4984   1.234   2.468  16.917  0.1488 -0.6955 -0.0970
  328MPD2    H5 4985   1.268   2.563  16.911  1.8879 -1.2507  0.9385
  328MPD2    N1 4986   1.168   2.042  17.152  0.0531  0.3567  0.3179
  328MPD2    H7 4987   1.194   1.979  17.228 -1.2584 -1.3645 -0.6507
  329TMC3    C1 4988   1.032   1.865  17.112 -0.4404  1.1472 -0.0532
  329TMC3    C2 4989   0.999   1.853  17.242  0.3899  0.5921 -0.4185
  329TMC3    C3 4990   0.918   1.742  17.275  0.1728 -0.6118  0.4117
  329TMC3    C4 4991   0.997   1.773  17.015 -0.3052 -0.2276 -0.6539
  329TMC3    C5 4992   0.923   1.670  17.054  0.1112 -0.6139  0.1230
  329TMC3    C6 4993   0.885   1.649  17.184 -0.0009 -0.6465 -1.3557
  329TMC3     C 4994   1.089   1.985  17.059  0.1552  0.0268  0.1804
  329TMC3     O 4995   1.049   2.032  16.955  0.4650 -0.3431 -0.7705
  329TMC3     H 4996   1.020   1.926  17.319 -1.7630 -0.3565  1.0928
  329TMC3    H1 4997   1.029   1.796  16.914  1.7933 -0.2147  0.0045
  329TMC3    H2 4998   0.828   1.562  17.214 -0.3909  0.2117  0.4102
  329TMC3    C7 4999   0.888   1.563  16.958 -0.4332 -0.2719  0.1452
  329TMC3    C8 5000   0.914   1.717  17.412 -0.6368  0.3335 -0.3891
  329TMC3    O1 5001   0.841   1.460  17.001 -0.5885 -0.4988  0.3976
  329TMC3    O2 5002   0.928   1.599  17.441 -0.3102 -0.1702 -0.0138
  330TMC3    C1 5003   3.536   2.212   9.655  0.2193  0.1509  0.0453
  330TMC3    C2 5004   3.486   2.100   9.595  0.1904 -0.4436 -0.0600
  330TMC3    C3 5005   3.563   1.984   9.579 -0.2404 -0.2475 -0.5318
  330TMC3    C4 5006   3.661   2.203   9.715 -0.6102 -0.1978  0.3181
  330TMC3    C5 5007   3.727   2.084   9.718  0.3065 -1.2142 -0.3065
  330TMC3    C6 5008   3.678   1.973   9.654  1.2223 -0.2920  0.4665
  330TMC3     C 5009   3.447   2.328   9.680  0.6037 -0.3134 -0.4380
  330TMC3     O 5010   3.492   2.406   9.762  0.6215 -0.1974  0.3828
  330TMC3     H 5011   3.380   2.089   9.574 -0.0745 -2.7215  2.4409
  330TMC3    H1 5012   3.701   2.289   9.766  0.2762 -0.0215 -0.6899
  330TMC3    H2 5013   3.737   1.883   9.640  0.6510 -0.6642  0.4144
  330TMC3    C7 5014   3.831   2.069   9.823 -0.4315 -0.4817  0.3789
  330TMC3    C8 5015   3.506   1.885   9.494 -0.3311  0.3906 -0.1349
  330TMC3    O1 5016   3.894   2.170   9.850  0.0606  0.0292  0.6267
  330TMC3    O2 5017   3.418   1.928   9.424  0.3948  0.0752  0.1872
  331MPD2     C 5018   2.035   0.883  13.074 -0.3247  0.1099 -0.1903
  331MPD2    C1 5019   1.928   0.919  12.993 -0.5053 -0.4899  0.2627
  331MPD2    C2 5020   1.817   0.837  13.000  0.5256  0.7946  0.9508
  331MPD2    C3 5021   1.814   0.726  13.076 -0.4087 -0.8757  0.3747
  331MPD2    C4 5022   1.912   0.691  13.163  0.1306 -0.0147 -0.3755
  331MPD2    C5 5023   2.022   0.777  13.163  0.2377 -0.3527 -0.3641
  331MPD2     H 5024   1.734   0.857  12.934  1.0549  1.7851  0.5886
  331MPD2    H1 5025   1.921   0.605  13.229 -1.0905  0.8653  0.9583
  331MPD2    H2 5026   2.131   0.932  13.082 -0.5168  0.3005  0.9516
  331MPD2    H3 5027   2.098   0.752  13.236 -1.1132 -2.4947  0.3245
  331MPD2     N 5028   1.709   0.638  13.046  0.0771 -0.2774 -0.2326
  331MPD2    H5 5029   1.649   0.646  12.965  0.8395 -0.6494 -0.8284
  331MPD2    N1 5030   1.931   1.020  12.899  0.4451  0.7053  0.3881
  331MPD2    H7 5031   1.845   1.050  12.855  1.0636  1.7280 -0.1172
  332TMC3    C1 5032   1.612   0.438  13.023 -0.5836 -0.5282 -0.3516
  332TMC3    C2 5033   1.507   0.488  12.956  0.6459  1.1083 -0.6418
  332TMC3    C3 5034   1.442   0.410  12.866  0.5148 -0.8270  0.2991
  332TMC3    C4 5035   1.676   0.325  12.983  0.1781 -0.5613  0.0328
  332TMC3    C5 5036   1.620   0.258  12.877 -0.3724 -0.1771 -1.0470
  332TMC3    C6 5037   1.498   0.292  12.823  0.5133  0.4864  0.5780
  332TMC3     C 5038   1.688   0.522  13.113 -0.2479  0.0539 -0.4200
  332TMC3     O 5039   1.750   0.465  13.202 -0.3572 -0.6883 -0.2797
  332TMC3     H 5040   1.449   0.573  12.990 -0.1070  0.2519  0.2186
  332TMC3    H1 5041   1.773   0.308  13.028 -0.0955  1.1283  1.2602
  332TMC3    H2 5042   1.456   0.236  12.740  0.8057 -1.8843  2.0274
  332TMC3    C7 5043   1.683   0.138  12.823  0.4995 -0.0892 -0.4773
  332TMC3    C8 5044   1.386   0.483  12.752  0.1171  0.2550 -0.9902
  332TMC3    O1 5045   1.621   0.039  12.795  0.0854 -0.2069 -0.9281
  332TMC3    O2 5046   1.435   0.444  12.645 -0.2504  0.1254 -0.3642
  333MPD2     C 5047   2.389   1.151  11.497  0.6603  0.1369  0.5930
  333MPD2    C1 5048   2.281   1.144  11.412  0.2160  0.6829 -0.0366
  333MPD2    C2 5049   2.171   1.074  11.447  0.5476  0.2205 -0.3966
  333MPD2    C3 5050   2.172   1.005  11.568  0.2312  0.3769  0.0488
  333MPD2    C4 5051   2.277   1.022  11.663  0.2400 -0.9317  0.3229
  333MPD2    C5 5052   2.380   1.092  11.620  0.0526  1.0149 -0.0654
  333MPD2     H 5053   2.090   1.065  11.375  0.1470  1.0453 -0.0377
  333MPD2    H1 5054   2.280   0.981  11.763  1.6255  0.3308  0.8000
  333MPD2    H2 5055   2.468   1.224  11.484 -0.9435  1.8991  0.5735
  333MPD2    H3 5056   2.458   1.125  11.687  0.6016 -1.8837  0.7031
  333MPD2     N 5057   2.066   0.915  11.598  0.2239 -0.3506 -0.2567
  333MPD2    H5 5058   1.988   0.911  11.533  1.0896 -1.0139 -1.2413
  333MPD2    N1 5059   2.295   1.218  11.295  0.5458 -0.0380  0.2068
  333MPD2    H7 5060   2.391   1.248  11.277  0.6735 -0.4760  0.1658
  334TMC3    C1 5061   2.247   1.319  11.090  0.9132  0.6708  0.3748
  334TMC3    C2 5062   2.386   1.328  11.088 -0.0970  0.4596  0.8549
  334TMC3    C3 5063   2.448   1.445  11.047 -0.0492  0.2609  0.3660
  334TMC3    C4 5064   2.170   1.415  11.029 -0.2197 -0.3019  0.3827
  334TMC3    C5 5065   2.238   1.529  10.999  0.4357 -0.6608  0.0310
  334TMC3    C6 5066   2.369   1.550  11.019 -0.2509 -0.0809  0.0659
  334TMC3     C 5067   2.196   1.239  11.201  0.3196 -0.1273 -0.5826
  334TMC3     O 5068   2.075   1.235  11.226 -0.2856 -0.1150  0.3996
  334TMC3     H 5069   2.454   1.246  11.109  2.3826  2.0680 -0.8631
  334TMC3    H1 5070   2.062   1.412  11.028 -0.1869 -0.9246 -0.8996
  334TMC3    H2 5071   2.414   1.641  10.981 -3.6722  0.9596 -1.5204
  334TMC3    C7 5072   2.153   1.649  10.975 -0.9045  0.3875  0.0407
  334TMC3    C8 5073   2.562   1.470  11.131 -0.8889  0.3105 -0.1329
  334TMC3    O1 5074   2.206   1.753  11.004  0.0293 -0.3409  0.2569
  334TMC3    O2 5075   2.572   1.400  11.230 -0.8838 -0.1145 -0.5810
  335TMC3    C1 5076   1.676   1.977  17.508 -0.0936  0.5707 -0.1482
  335TMC3    C2 5077   1.607   1.982  17.393  0.1926  0.1824 -0.1376
  335TMC3    C3 5078   1.673   2.016  17.279 -0.1719  0.9834 -0.1764
  335TMC3    C4 5079   1.811   1.993  17.512  0.7762 -0.1761 -0.3982
  335TMC3    C5 5080   1.878   2.031  17.398 -0.0171  0.0393 -0.1847
  335TMC3    C6 5081   1.811   2.044  17.280 -0.7298 -0.0321 -0.6209
  335TMC3     C 5082   1.603   1.928  17.625  0.1753 -0.0453  0.0982
  335TMC3     O 5083   1.513   1.858  17.601  0.3022  0.0775 -0.3114
  335TMC3     H 5084   1.500   1.966  17.388 -0.1844  2.3850  1.2818
  335TMC3    H1 5085   1.868   1.956  17.596 -1.8539 -0.7527  1.1274
  335TMC3    H2 5086   1.867   2.059  17.189 -0.8221 -2.3128 -1.0419
  335TMC3    C7 5087   2.021   2.019  17.387  0.3851  0.2229  0.2442
  335TMC3    C8 5088   1.604   1.983  17.155  0.3748 -0.2103  0.2123
  335TMC3    O1 5089   2.073   1.981  17.282 -0.0732 -0.8166  0.1709
  335TMC3    O2 5090   1.651   2.042  17.059 -0.1529  0.3683 -0.0631
  336MPD2     C 5091   1.550   4.342  15.995  0.4274 -0.1018 -0.0701
  336MPD2    C1 5092   1.479   4.294  15.887 -0.8314 -0.1920 -0.0127
  336MPD2    C2 5093   1.449   4.153  15.880  0.1741  0.4923 -1.2102
  336MPD2    C3 5094   1.510   4.077  15.976 -0.4674  0.0970 -0.4451
  336MPD2    C4 5095   1.595   4.119  16.075 -0.9892  0.1071  0.3477
  336MPD2    C5 5096   1.608   4.256  16.091 -0.2948 -0.8345  0.0898
  336MPD2     H 5097   1.375   4.117  15.809 -0.0741 -0.8542 -0.2836
  336MPD2    H1 5098   1.641   4.046  16.140  2.0892  2.3314  0.6368
  336MPD2    H2 5099   1.562   4.445  16.025  0.6499 -0.7024  1.9422
  336MPD2    H3 5100   1.683   4.294  16.160 -1.0225 -2.3382  1.7094
  336MPD2     N 5101   1.471   3.942  15.992 -0.1903 -0.1618 -0.3965
  336MPD2    H5 5102   1.497   3.895  16.078 -0.2208 -2.1334 -1.4542
  336MPD2    N1 5103   1.414   4.377  15.793  0.3503  0.3335  0.2787
  336MPD2    H7 5104   1.359   4.328  15.724 -0.0733 -0.6748  1.3216
  337TMC3    C1 5105   1.359   4.573  15.674 -0.3464 -0.1710  0.1489
  337TMC3    C2 5106   1.235   4.528  15.649 -0.3731 -0.0722 -0.6519
  337TMC3    C3 5107   1.150   4.597  15.562  0.1575 -0.6442  1.0324
  337TMC3    C4 5108   1.397   4.694  15.623  0.1676 -0.2888  0.3546
  337TMC3    C5 5109   1.311   0.027  15.548 -0.3423  0.5911  0.0577
  337TMC3    C6 5110   1.192   4.710  15.503  0.1295 -0.6042 -0.2217
  337TMC3     C 5111   1.446   4.514  15.777 -0.1557  0.8471  0.0039
  337TMC3     O 5112   1.515   4.581  15.848 -0.6531 -0.3190  0.5959
  337TMC3     H 5113   1.198   4.443  15.705 -1.3413  1.7437  1.4484
  337TMC3    H1 5114   1.495   4.733  15.650 -0.2002  0.3189  0.8166
  337TMC3    H2 5115   1.137   0.042  15.440 -0.7561  0.6945  1.9864
  337TMC3    C7 5116   1.338   0.166  15.526 -0.4335 -0.2244 -0.3236
  337TMC3    C8 5117   1.024   4.531  15.522  0.0238 -0.9282 -0.3087
  337TMC3    O1 5118   1.282   0.220  15.434 -0.1667 -0.1099 -0.4706
  337TMC3    O2 5119   1.000   4.426  15.577  0.2738 -0.2395 -0.2675
  338MPD2     C 5120   1.348   3.522   0.498  0.3701  0.3127  0.3044
  338MPD2    C1 5121   1.440   3.621   0.469  0.7583  0.1611  0.3064
  338MPD2    C2 5122   1.401   3.747   0.423  0.0687 -0.0125  0.5720
  338MPD2    C3 5123   1.265   3.766   0.403  0.2194  0.6407 -0.1910
  338MPD2    C4 5124   1.173   3.671   0.430 -1.0454 -0.2610  0.5908
  338MPD2    C5 5125   1.215   3.548   0.473 -0.3145 -0.1177 -0.9459
  338MPD2     H 5126   1.470   3.826   0.399 -0.3937  0.9435  2.3797
  338MPD2    H1 5127   1.066   3.679   0.420 -0.7570  2.2867 -0.4638
  338MPD2    H2 5128   1.379   3.425   0.534  1.8084  0.2923 -1.0126
  338MPD2    H3 5129   1.144   3.471   0.500 -2.2555  2.6150  1.7531
  338MPD2     N 5130   1.233   3.901   0.371  0.0051 -0.0560 -0.3542
  338MPD2    H5 5131   1.310   3.966   0.363 -0.5985  0.7458  0.3902
  338MPD2    N1 5132   1.575   3.610   0.494 -0.2733  0.3954 -0.0989
  338MPD2    H7 5133   1.637   3.687   0.472 -0.6591  1.4261  2.4312
  339TMC3    C1 5134   1.104   4.092   0.344 -0.0922 -0.1589  0.1760
  339TMC3    C2 5135   0.998   4.165   0.397 -0.3591 -0.4382  0.0421
  339TMC3    C3 5136   1.005   4.299   0.372 -0.1817  0.6854 -0.7330
  339TMC3    C4 5137   1.196   4.146   0.260  0.7505 -0.8079  0.2363
  339TMC3    C5 5138   1.194   4.279   0.235  0.2218 -0.1623  0.3043
  339TMC3    C6 5139   1.103   4.354   0.301  0.5187  0.1856 -0.3229
  339TMC3     C 5140   1.099   3.951   0.368  0.0388 -0.8212 -0.6135
  339TMC3     O 5141   0.992   3.902   0.402 -0.2107 -0.0892 -0.3322
  339TMC3     H 5142   0.930   4.120   0.468  1.0993 -1.3631  0.8709
  339TMC3    H1 5143   1.262   4.079   0.205  0.4240 -1.9014  1.1693
  339TMC3    H2 5144   1.112   4.461   0.290 -1.3834  0.2667 -1.1949
  339TMC3    C7 5145   1.325   4.346   0.195 -0.5154 -0.0408  0.0427
  339TMC3    C8 5146   0.931   4.386   0.462 -0.4666  0.1461 -0.9923
  339TMC3    O1 5147   1.346   4.456   0.243  0.2877  0.6566  0.2481
  339TMC3    O2 5148   0.975   4.503   0.466  0.2029  0.1892 -0.2201
  340MPD2     C 5149   2.028   1.405   9.695  0.2330  0.4062 -0.3498
  340MPD2    C1 5150   2.116   1.353   9.789 -0.1470  0.8595 -0.0700
  340MPD2    C2 5151   2.124   1.394   9.926  0.0107 -0.1423 -0.4568
  340MPD2    C3 5152   2.038   1.501   9.964 -0.5764 -0.4975  0.3371
  340MPD2    C4 5153   1.954   1.550   9.864  0.4963 -0.1057 -0.6769
  340MPD2    C5 5154   1.948   1.509   9.734  0.1409  0.1402  0.3193
  340MPD2     H 5155   2.200   1.358   9.995 -1.8162  0.2338  1.7250
  340MPD2    H1 5156   1.899   1.640   9.889 -1.1978 -1.8099  1.7566
  340MPD2    H2 5157   2.021   1.364   9.595  1.3522  1.2299 -0.7611
  340MPD2    H3 5158   1.904   1.572   9.658  3.3697  0.7806 -1.0453
  340MPD2     N 5159   2.029   1.556  10.094 -0.3395  0.3776  0.4856
  340MPD2    H5 5160   1.961   1.631  10.104 -2.2283 -1.2679 -0.2712
  340MPD2    N1 5161   2.201   1.251   9.743  0.4875 -0.3200 -0.0448
  340MPD2    H7 5162   2.177   1.209   9.653  2.1822 -0.3270 -0.4876
  341TMC3    C1 5163   2.381   1.092   9.745 -0.9328  1.2821 -0.1862
  341TMC3    C2 5164   2.297   0.991   9.712  0.0224  0.3812  0.7910
  341TMC3    C3 5165   2.357   0.872   9.669  0.3862  0.4391  0.4866
  341TMC3    C4 5166   2.517   1.077   9.746  0.3190  0.5179 -0.0340
  341TMC3    C5 5167   2.572   0.961   9.708  0.5102 -0.1748 -0.5108
  341TMC3    C6 5168   2.494   0.862   9.663  0.3828  0.0898 -0.7106
  341TMC3     C 5169   2.326   1.215   9.803 -0.7375  0.8245  0.4210
  341TMC3     O 5170   2.381   1.270   9.894  0.3579  0.0015 -0.7650
  341TMC3     H 5171   2.190   1.006   9.726 -0.2232 -1.2599  0.6983
  341TMC3    H1 5172   2.582   1.156   9.783  0.5019  0.2909  0.1286
  341TMC3    H2 5173   2.546   0.768   9.649  1.3067  0.2459  1.7338
  341TMC3    C7 5174   2.713   0.972   9.672 -0.6315  0.9584 -0.8466
  341TMC3    C8 5175   2.259   0.764   9.654 -0.2217  0.0757 -0.4340
  341TMC3    O1 5176   2.751   1.085   9.658  0.3588 -0.0931  0.4517
  341TMC3    O2 5177   2.151   0.787   9.701 -0.5796 -0.1215  0.7155
  342MPD2     C 5178   4.339   0.089  17.464  0.1763 -0.5763 -0.1305
  342MPD2    C1 5179   4.436   0.124  17.373  0.5944  0.1888 -0.0643
  342MPD2    C2 5180   4.453   0.258  17.343 -0.0715  0.1331  0.2791
  342MPD2    C3 5181   4.383   0.358  17.407  0.7547 -0.1206  0.1946
  342MPD2    C4 5182   4.285   0.316  17.496 -0.4048  0.2473 -0.1824
  342MPD2    C5 5183   4.258   0.184  17.527 -0.8098  0.1400 -0.2620
  342MPD2     H 5184   4.534   0.282  17.276 -0.7170  2.3662  0.3032
  342MPD2    H1 5185   4.221   0.388  17.545 -0.2966  0.8695 -0.9622
  342MPD2    H2 5186   4.318   4.721  17.484 -0.6777 -0.3519  0.1287
  342MPD2    H3 5187   4.181   0.147  17.593 -1.4751  1.0911 -0.5154
  342MPD2     N 5188   4.390   0.500  17.385 -0.8108  0.1540  0.1404
  342MPD2    H5 5189   4.319   0.556  17.431 -0.5219 -0.6548  1.5851
  342MPD2    N1 5190   4.504   0.026  17.293 -0.7377 -0.6565  0.2209
  342MPD2    H7 5191   4.581   0.058  17.235 -0.7011  1.1010  1.2095
  343TMC3    C1 5192   4.569   4.550  17.202  0.0788 -0.3917 -0.6684
  343TMC3    C2 5193   4.623   4.600  17.087  0.0014 -0.2307 -0.0865
  343TMC3    C3 5194   4.663   4.516  16.987  0.2728  0.5086  0.5092
  343TMC3    C4 5195   4.556   4.421  17.221 -0.5264  0.1705  0.3384
  343TMC3    C5 5196   4.589   4.337  17.113  0.1597  0.4158 -0.0995
  343TMC3    C6 5197   4.642   4.381  16.998 -0.8073 -0.5652  1.0916
  343TMC3     C 5198   4.482   4.630  17.293 -0.6206 -0.0771 -0.0750
  343TMC3     O 5199   4.407   4.562  17.357 -0.7943  0.0872  0.2055
  343TMC3     H 5200   4.641   4.707  17.083  1.3516 -0.4702 -0.5776
  343TMC3    H1 5201   4.514   4.382  17.314 -0.9481  1.3787  0.6553
  343TMC3    H2 5202   4.659   4.300  16.928  0.7819  1.0231 -0.3707
  343TMC3    C7 5203   4.571   4.189  17.119  0.2799  0.1426  0.3260
  343TMC3    C8 5204   0.021   4.572  16.899 -0.4469  0.1693  0.1836
  343TMC3    O1 5205   4.552   4.122  17.018 -0.7554 -0.3622 -0.3556
  343TMC3    O2 5206   0.027   4.693  16.897 -0.3799  0.6558 -0.7799
  344MPD2     C 5207   0.424   4.416   9.441  0.4743 -0.0528 -0.3346
  344MPD2    C1 5208   0.454   4.400   9.575 -0.2117  0.1992 -0.5939
  344MPD2    C2 5209   0.590   4.423   9.611 -0.0330 -0.2388  0.8643
  344MPD2    C3 5210   0.680   4.478   9.524 -0.3695 -0.3513  0.1535
  344MPD2    C4 5211   0.644   4.509   9.391 -1.1216  0.4031 -0.3268
  344MPD2    C5 5212   0.521   4.468   9.353  0.2756  0.3811 -0.4830
  344MPD2     H 5213   0.615   4.386   9.710  0.2473 -0.1707  0.8188
  344MPD2    H1 5214   0.706   4.568   9.324  1.3997 -2.2358 -0.2795
  344MPD2    H2 5215   0.326   4.397   9.400  0.6690 -0.1630 -0.7402
  344MPD2    H3 5216   0.498   4.487   9.248 -1.9593 -1.4025 -0.3247
  344MPD2     N 5217   0.815   4.513   9.562 -0.2312  0.4431  0.3019
  344MPD2    H5 5218   0.848   4.594   9.511  2.4156 -0.6463  0.2692
  344MPD2    N1 5219   0.366   4.348   9.674 -0.2927 -0.1951  0.5378
  344MPD2    H7 5220   0.395   4.343   9.771 -2.7421 -1.8287  1.1716
  345TMC3    C1 5221   0.995   4.547   9.717  0.0469 -0.3142  0.3140
  345TMC3    C2 5222   0.997   4.571   9.851 -0.1925 -0.3024  0.2473
  345TMC3    C3 5223   1.055   4.688   9.897 -0.0759 -0.7353 -0.4440
  345TMC3    C4 5224   1.034   4.647   9.631 -0.2045  0.1464  0.0509
  345TMC3    C5 5225   1.102   0.025   9.680  0.7150 -0.1095 -0.2640
  345TMC3    C6 5226   1.115   0.042   9.817 -0.1420 -0.1380  0.6841
  345TMC3     C 5227   0.880   4.467   9.672 -0.4124 -0.5100 -0.1936
  345TMC3     O 5228   0.839   4.378   9.751  0.3625  0.3731 -0.4407
  345TMC3     H 5229   0.925   4.526   9.919  1.2797  0.6556  2.4475
  345TMC3    H1 5230   1.042   4.622   9.526  0.2635  1.5963 -0.2622
  345TMC3    H2 5231   1.157   0.133   9.859 -1.1785  1.0499 -0.8652
  345TMC3    C7 5232   1.156   0.133   9.602 -0.5236 -0.5593  0.3977
  345TMC3    C8 5233   1.015   0.004  10.027 -0.5413  0.4491 -0.1012
  345TMC3    O1 5234   1.149   0.242   9.657 -0.7497 -0.1020 -0.0948
  345TMC3    O2 5235   1.050   0.121  10.054  0.5904 -0.3530  0.4447
  346MPD2     C 5236   0.515   1.509  13.527 -0.3423 -0.2137 -0.3830
  346MPD2    C1 5237   0.641   1.459  13.550 -0.4384  0.5051 -0.0397
  346MPD2    C2 5238   0.705   1.497  13.666 -0.1881  0.4517  0.3298
  346MPD2    C3 5239   0.629   1.559  13.769  0.3605 -0.1218 -0.1293
  346MPD2    C4 5240   0.507   1.613  13.741  0.0046  0.1509  0.0775
  346MPD2    C5 5241   0.452   1.586  13.622  0.0362 -0.0837 -0.1525
  346MPD2     H 5242   0.800   1.450  13.689 -0.3818  0.8898  2.0005
  346MPD2    H1 5243   0.440   1.657  13.814 -0.7472 -1.6078  0.4540
  346MPD2    H2 5244   0.447   1.489  13.445 -0.6763 -1.0125  0.0874
  346MPD2    H3 5245   0.354   1.626  13.597  0.5734 -0.1171 -2.3648
  346MPD2     N 5246   0.695   1.595  13.888 -0.0582  0.4994 -0.1056
  346MPD2    H5 5247   0.794   1.577  13.889  0.1097  1.2507 -2.6279
  346MPD2    N1 5248   0.709   1.367  13.465 -0.8624  0.3289 -0.6259
  346MPD2    H7 5249   0.807   1.346  13.482 -0.8212  0.4128 -0.7559
  347TMC3    C1 5250   0.721   1.666  14.113  0.0436  0.7315  0.6522
  347TMC3    C2 5251   0.841   1.602  14.111 -0.3850 -0.3964  0.1673
  347TMC3    C3 5252   0.934   1.643  14.209 -0.6284 -0.1696 -0.6723
  347TMC3    C4 5253   0.681   1.765  14.204  0.4125  0.3164  0.5261
  347TMC3    C5 5254   0.768   1.782  14.308 -0.1883 -0.1273 -1.3618
  347TMC3    C6 5255   0.896   1.733  14.308  0.2994  0.5688  0.3681
  347TMC3     C 5256   0.635   1.657  13.996  0.5067  0.2492  0.4727
  347TMC3     O 5257   0.519   1.694  14.010 -0.3690  0.3938  0.4121
  347TMC3     H 5258   0.869   1.522  14.044 -0.8311 -0.1249 -0.3490
  347TMC3    H1 5259   0.580   1.803  14.204  0.8939  1.6369  1.5787
  347TMC3    H2 5260   0.965   1.768  14.384 -1.0714  1.6319  1.1255
  347TMC3    C7 5261   0.732   1.847  14.428  0.0350 -0.0177 -0.2189
  347TMC3    C8 5262   1.065   1.590  14.218  0.0417  0.3951 -0.0545
  347TMC3    O1 5263   0.809   1.921  14.489 -0.3827 -0.0308 -0.2618
  347TMC3    O2 5264   1.082   1.475  14.175  0.1005  0.1402 -0.2469
  348MPD2     C 5265   4.225   1.556  11.916 -0.4899 -0.1504  0.2925
  348MPD2    C1 5266   4.092   1.599  11.895 -0.3600 -0.5321  0.5104
  348MPD2    C2 5267   4.081   1.701  11.811 -0.0365  1.1305 -0.4340
  348MPD2    C3 5268   4.180   1.788  11.770  0.3348 -0.0996 -0.3258
  348MPD2    C4 5269   4.306   1.752  11.811  0.1584 -0.7894  1.1082
  348MPD2    C5 5270   4.330   1.635  11.874  0.6335 -1.2399 -0.0144
  348MPD2     H 5271   3.981   1.722  11.775 -0.0452  2.4310  0.3541
  348MPD2    H1 5272   4.393   1.799  11.767 -1.8284  2.1663  0.2950
  348MPD2    H2 5273   4.256   1.456  11.943  1.4915  0.6729  1.0483
  348MPD2    H3 5274   4.431   1.599  11.889  1.1811  0.8921  1.5240
  348MPD2     N 5275   4.148   1.894  11.688  0.4435  0.0039 -0.1407
  348MPD2    H5 5276   4.056   1.890  11.644  0.3045  0.1882  0.1352
  348MPD2    N1 5277   3.977   1.520  11.933  0.5977 -0.2484  0.0419
  348MPD2    H7 5278   3.892   1.535  11.879  1.0283  0.4501 -0.4542
  349TMC3    C1 5279   3.882   1.334  12.052  0.0930 -0.1014  0.2838
  349TMC3    C2 5280   3.917   1.216  12.118  0.3894 -0.2006 -0.4489
  349TMC3    C3 5281   3.858   1.098  12.097 -0.2981  0.1727  0.3436
  349TMC3    C4 5282   3.764   1.327  11.973  0.1904  0.4124  0.1224
  349TMC3    C5 5283   3.694   1.210  11.964  0.1513  0.2480 -0.6008
  349TMC3    C6 5284   3.735   1.099  12.031  0.0931 -0.1748  0.3302
  349TMC3     C 5285   3.994   1.430  12.031  0.0303 -0.4622 -0.2763
  349TMC3     O 5286   4.089   1.414  12.103 -0.0920  0.0561 -0.3982
  349TMC3     H 5287   4.007   1.220  12.178  0.5160  0.5273 -0.6994
  349TMC3    H1 5288   3.748   1.410  11.905  1.5161  0.5509 -0.0194
  349TMC3    H2 5289   3.683   1.005  12.016 -1.1913  0.5740  0.1128
  349TMC3    C7 5290   3.568   1.203  11.892 -0.1236  0.3225 -0.3255
  349TMC3    C8 5291   3.939   0.972  12.108 -0.1060 -0.5371 -0.0242
  349TMC3    O1 5292   3.510   1.096  11.899  0.1738 -0.6170  0.4398
  349TMC3    O2 5293   4.034   0.984  12.184  0.4968  0.1265 -0.2627
  350MPD2     C 5294   3.835   0.230  10.424  0.1036 -0.4079  0.0707
  350MPD2    C1 5295   3.782   0.101  10.431  0.0625  0.3358 -0.0465
  350MPD2    C2 5296   3.709   0.071  10.551 -0.7526  0.2922  0.0747
  350MPD2    C3 5297   3.679   0.162  10.651 -0.5381 -0.0621  1.2541
  350MPD2    C4 5298   3.713   0.290  10.628  0.3566 -0.3211  0.2271
  350MPD2    C5 5299   3.791   0.322  10.518 -1.0769  0.1552 -0.3499
  350MPD2     H 5300   3.673   4.706  10.561  1.8738 -0.7825 -1.1797
  350MPD2    H1 5301   3.703   0.362  10.709 -1.0823  1.9489 -1.9672
  350MPD2    H2 5302   3.904   0.272  10.351 -0.6886  0.7863  0.0174
  350MPD2    H3 5303   3.845   0.415  10.522 -0.1724 -0.4032  0.3826
  350MPD2     N 5304   3.604   0.120  10.765 -0.2002 -0.1926 -0.1861
  350MPD2    H5 5305   3.585   0.020  10.776  0.4683 -0.3881 -0.8324
  350MPD2    N1 5306   3.791   0.005  10.326 -0.8152 -0.0225  0.1263
  350MPD2    H7 5307   3.750   4.650  10.339  0.0622 -0.8180 -2.7631
  351TMC3    C1 5308   3.882   4.628  10.141  0.0142 -0.3928  0.6269
  351TMC3    C2 5309   3.807   4.520  10.158  0.1232 -0.2460 -0.9420
  351TMC3    C3 5310   3.826   4.418  10.069  0.1917  0.7156  0.8047
  351TMC3    C4 5311   3.990   4.630  10.051 -0.0661  0.0892 -0.2013
  351TMC3    C5 5312   4.026   4.522   9.982  0.1969  0.1288 -0.3334
  351TMC3    C6 5313   3.940   4.411   9.989 -0.3652 -0.1255 -0.0637
  351TMC3     C 5314   3.879   0.016  10.216  0.1355  0.5352 -0.4915
  351TMC3     O 5315   3.959   0.105  10.194  0.8036 -0.1364 -0.7945
  351TMC3     H 5316   3.711   4.536  10.206  2.0376  1.0723  2.4662
  351TMC3    H1 5317   4.056   4.715  10.039 -0.4443  0.4033 -0.0669
  351TMC3    H2 5318   3.954   4.333   9.914 -3.3178 -0.6305 -0.1161
  351TMC3    C7 5319   4.122   4.543   9.879 -0.0740 -0.0436  0.0880
  351TMC3    C8 5320   3.725   4.307  10.057  0.1320 -0.3756  0.3313
  351TMC3    O1 5321   4.166   4.654   9.862 -0.0929 -0.0716  0.2759
  351TMC3    O2 5322   3.749   4.229   9.968 -0.0989  0.2607  0.4076
  352MPD2     C 5323   2.071   1.125   1.439  0.2938  1.0316 -0.4809
  352MPD2    C1 5324   2.057   1.067   1.315 -0.8385 -0.1397  0.9115
  352MPD2    C2 5325   2.149   0.977   1.270  0.2574  0.0166 -0.1960
  352MPD2    C3 5326   2.254   0.944   1.353 -0.7062 -0.1861 -0.4439
  352MPD2    C4 5327   2.258   1.005   1.475 -0.3669 -0.3703 -0.3326
  352MPD2    C5 5328   2.174   1.096   1.522  0.3697  0.1135 -0.3811
  352MPD2     H 5329   2.136   0.926   1.176  0.9581  1.6623 -1.1865
  352MPD2    H1 5330   2.338   0.976   1.543 -0.5710  4.1116  1.7968
  352MPD2    H2 5331   2.002   1.202   1.469 -0.5852 -0.1050  0.4458
  352MPD2    H3 5332   2.178   1.145   1.618 -2.6024  1.0659 -0.7497
  352MPD2     N 5333   2.356   0.850   1.316  0.3105  0.1481  0.0632
  352MPD2    H5 5334   2.415   0.811   1.388  0.7681  0.7353  0.0060
  352MPD2    N1 5335   1.950   1.114   1.235  0.3226 -0.0124 -0.7000
  352MPD2    H7 5336   1.893   1.187   1.277  3.5731  1.5595  0.9960
  353TMC3    C1 5337   2.473   0.682   1.182 -0.7969 -0.4101 -0.0752
  353TMC3    C2 5338   2.501   0.598   1.289  0.3901 -0.4818  0.3261
  353TMC3    C3 5339   2.530   0.468   1.265 -0.4101  0.3635 -0.3167
  353TMC3    C4 5340   2.482   0.632   1.059  0.3104 -0.8870  0.3918
  353TMC3    C5 5341   2.512   0.501   1.033 -0.7244  0.4762 -0.1708
  353TMC3    C6 5342   2.533   0.418   1.139 -0.2835 -0.0369 -0.5105
  353TMC3     C 5343   2.369   0.794   1.194  0.5117  0.5750  0.0185
  353TMC3     O 5344   2.301   0.809   1.091 -0.7098 -0.0968  0.2604
  353TMC3     H 5345   2.494   0.623   1.395 -0.7693 -0.2304  0.1848
  353TMC3    H1 5346   2.477   0.697   0.972 -0.0578 -2.6383 -0.9106
  353TMC3    H2 5347   2.568   0.319   1.113 -1.2753 -0.2396 -1.0948
  353TMC3    C7 5348   2.478   0.437   0.911 -0.1687  0.1040  0.3745
  353TMC3    C8 5349   2.594   0.380   1.368  0.0019  0.2407 -0.8441
  353TMC3    O1 5350   2.432   0.323   0.912  0.1526  0.5722  0.1757
  353TMC3    O2 5351   2.648   0.424   1.468  0.7604  0.0621 -0.3239
  354TMC3    C1 5352   3.532   2.295  12.927  0.2619  0.4417  1.2213
  354TMC3    C2 5353   3.555   2.429  12.954  0.3488 -0.8760  0.0860
  354TMC3    C3 5354   3.530   2.521  12.855 -0.0799 -0.3832 -0.0334
  354TMC3    C4 5355   3.478   2.265  12.809  0.2779  0.2300  0.5044
  354TMC3    C5 5356   3.460   2.354  12.708 -0.0366 -0.5951  0.5883
  354TMC3    C6 5357   3.476   2.480  12.732  1.0751  0.3685 -0.3110
  354TMC3     C 5358   3.509   2.198  13.032 -0.0289 -0.2610 -0.4665
  354TMC3     O 5359   3.429   2.109  13.012 -0.3095 -0.1666 -0.0804
  354TMC3     H 5360   3.608   2.460  13.043 -0.5273 -2.5750  1.2100
  354TMC3    H1 5361   3.486   2.158  12.794  0.2726  0.1839  0.8299
  354TMC3    H2 5362   3.464   2.549  12.648 -2.3965  0.0714 -0.0409
  354TMC3    C7 5363   3.497   2.311  12.574  0.5846 -0.1024  1.4938
  354TMC3    C8 5364   3.583   2.656  12.856  0.3999 -0.0141  0.1636
  354TMC3    O1 5365   3.471   2.200  12.531  0.2221  0.5985  0.2774
  354TMC3    O2 5366   3.626   2.701  12.753 -0.0523  0.3635 -0.7334
  355MPD2     C 5367   3.766   3.272  11.184  0.1818  0.0238  0.5160
  355MPD2    C1 5368   3.834   3.318  11.299 -0.0023 -0.4633 -0.5767
  355MPD2    C2 5369   3.821   3.256  11.419  0.6846  0.4777  0.5904
  355MPD2    C3 5370   3.754   3.136  11.420 -0.2096 -0.3859  0.5579
  355MPD2    C4 5371   3.694   3.085  11.301  0.4612 -0.2895  0.2261
  355MPD2    C5 5372   3.710   3.151  11.186 -0.4321 -0.1263  0.0236
  355MPD2     H 5373   3.861   3.303  11.509 -0.4299 -0.7534  1.7235
  355MPD2    H1 5374   3.625   3.001  11.289 -0.7812  0.8237 -0.4152
  355MPD2    H2 5375   3.760   3.329  11.092 -0.4089  0.3330  0.7459
  355MPD2    H3 5376   3.661   3.119  11.095 -0.1238 -1.7771  0.4406
  355MPD2     N 5377   3.746   3.056  11.536  0.4432 -0.0038  0.6183
  355MPD2    H5 5378   3.688   2.973  11.537  0.7037 -0.1936 -0.8110
  355MPD2    N1 5379   3.900   3.444  11.282 -0.0943  0.2914 -0.0778
  355MPD2    H7 5380   3.901   3.468  11.184  1.1991  1.5565  0.2539
  356TMC3    C1 5381   3.948   3.101  11.665 -0.2777  0.0074 -0.7830
  356TMC3    C2 5382   4.030   3.095  11.548 -0.7274  0.0361  0.1988
  356TMC3    C3 5383   4.152   3.158  11.552  0.0751 -0.6794  0.1670
  356TMC3    C4 5384   4.002   3.151  11.780  0.2173 -0.7134  0.3298
  356TMC3    C5 5385   4.129   3.207  11.784 -0.6226  0.1161  0.7658
  356TMC3    C6 5386   4.208   3.204  11.669 -0.2453  0.0355 -0.2643
  356TMC3     C 5387   3.799   3.085  11.663 -0.5381 -0.3467  0.1833
  356TMC3     O 5388   3.762   3.054  11.774  0.3882 -0.5003  0.3767
  356TMC3     H 5389   3.996   3.048  11.456  0.5157  0.0913 -0.2891
  356TMC3    H1 5390   3.939   3.173  11.865 -1.3086  0.2089 -1.0239
  356TMC3    H2 5391   4.310   3.241  11.669  0.1491 -1.0984  1.6011
  356TMC3    C7 5392   4.190   3.217  11.909  0.3252 -0.2122 -0.2196
  356TMC3    C8 5393   4.181   3.217  11.425 -0.2918 -0.6202  0.2322
  356TMC3    O1 5394   4.158   3.131  11.995 -0.1371 -0.2405 -0.2892
  356TMC3    O2 5395   4.144   3.150  11.331  1.0536 -0.0817  0.7741
  357MPD2     C 5396   3.274   2.614   0.871  0.2249 -0.0061  0.9133
  357MPD2    C1 5397   3.276   2.489   0.922  0.6179  0.1283 -0.2632
  357MPD2    C2 5398   3.158   2.437   0.968  0.9983 -0.2597  0.4278
  357MPD2    C3 5399   3.052   2.516   0.986  0.6599 -0.2341 -0.3222
  357MPD2    C4 5400   3.045   2.646   0.933 -0.8049 -0.7917 -0.2719
  357MPD2    C5 5401   3.164   2.693   0.879 -0.4123 -0.0556  0.9640
  357MPD2     H 5402   3.145   2.330   0.975 -1.1772  0.1507  2.6525
  357MPD2    H1 5403   2.954   2.705   0.929 -0.4886 -0.1523  2.1225
  357MPD2    H2 5404   3.368   2.654   0.836  0.2425  0.1797  1.1720
  357MPD2    H3 5405   3.174   2.792   0.836 -0.0127 -0.6148 -0.2093
  357MPD2     N 5406   2.929   2.471   1.047  0.1076  0.4428  0.2450
  357MPD2    H5 5407   2.853   2.538   1.045 -1.1183 -0.8855  2.1569
  357MPD2    N1 5408   3.394   2.402   0.917 -0.0692 -0.0686  0.9652
  357MPD2    H7 5409   3.471   2.432   0.859 -1.7412 -0.1791 -1.2825
  358TMC3    C1 5410   3.514   2.195   0.951 -0.3316 -0.9013  0.4110
  358TMC3    C2 5411   3.543   2.189   0.816  0.6438 -0.1267 -0.0531
  358TMC3    C3 5412   3.578   2.063   0.773  0.7381 -0.9288  0.6508
  358TMC3    C4 5413   3.539   2.093   1.039  0.1498 -0.5760  0.2439
  358TMC3    C5 5414   3.574   1.974   0.984 -0.5165  0.0454 -0.0204
  358TMC3    C6 5415   3.591   1.954   0.855 -0.5092 -0.6415 -0.5100
  358TMC3     C 5416   3.415   2.295   1.001  0.5949 -0.0752  0.3050
  358TMC3     O 5417   3.339   2.260   1.092  0.3907 -0.0359  0.1294
  358TMC3     H 5418   3.514   2.262   0.741 -1.8715 -1.4325 -0.3891
  358TMC3    H1 5419   3.508   2.103   1.143  0.0257 -0.2337  0.1726
  358TMC3    H2 5420   3.649   1.871   0.818  0.2287 -0.1346 -0.5002
  358TMC3    C7 5421   3.588   1.867   1.081 -0.3299 -0.3048 -0.2904
  358TMC3    C8 5422   3.557   2.044   0.632  0.4489 -0.8027 -0.7375
  358TMC3    O1 5423   3.614   1.885   1.199  1.1233 -0.1588 -0.5650
  358TMC3    O2 5424   3.544   2.145   0.563 -0.2662 -0.2859 -0.7591
  359MPD2     C 5425   4.076   1.492  12.620 -0.0450 -0.4677 -0.1601
  359MPD2    C1 5426   4.012   1.591  12.550  0.2441 -0.0062  0.1379
  359MPD2    C2 5427   3.872   1.606  12.565  0.5854  0.8210  0.4064
  359MPD2    C3 5428   3.803   1.526  12.653  0.3621 -0.0587  1.1558
  359MPD2    C4 5429   3.873   1.448  12.741 -0.4852 -0.7409  0.5387
  359MPD2    C5 5430   4.008   1.433  12.724  0.8289 -0.4592  0.3189
  359MPD2     H 5431   3.825   1.678  12.499 -0.4521 -1.7470 -1.6595
  359MPD2    H1 5432   3.828   1.402  12.828 -2.2052  2.4055  1.3275
  359MPD2    H2 5433   4.183   1.478  12.610  0.0222 -2.2644  3.4268
  359MPD2    H3 5434   4.069   1.365  12.781  2.4382  2.5684  2.2461
  359MPD2     N 5435   3.665   1.536  12.674  0.2522 -0.6565 -1.1271
  359MPD2    H5 5436   3.629   1.475  12.748  0.6040 -1.1826 -1.3879
  359MPD2    N1 5437   4.074   1.675  12.451  0.7384 -0.6321 -0.5154
  359MPD2    H7 5438   4.028   1.757  12.412  0.9504 -0.2117  0.1230
  360TMC3    C1 5439   4.213   1.736  12.282 -0.1102 -0.1622  1.0913
  360TMC3    C2 5440   4.328   1.812  12.270 -1.1271 -0.4163 -0.1260
  360TMC3    C3 5441   4.331   1.901  12.164  0.9558 -0.1946  0.6123
  360TMC3    C4 5442   4.104   1.743  12.199 -0.0529 -0.3207 -0.4258
  360TMC3    C5 5443   4.109   1.841  12.103 -0.1200  0.1468  0.3376
  360TMC3    C6 5444   4.224   1.915  12.079  0.1958  0.3939 -0.3361
  360TMC3     C 5445   4.201   1.658  12.405 -0.3562  0.1605 -0.0152
  360TMC3     O 5446   4.303   1.624  12.465  0.8534 -0.5379 -0.3943
  360TMC3     H 5447   4.412   1.796  12.336 -0.5173  1.4911 -0.4221
  360TMC3    H1 5448   4.022   1.673  12.211 -2.1951  2.3621  0.5620
  360TMC3    H2 5449   4.229   1.992  12.004  0.9692 -0.0449 -0.7483
  360TMC3    C7 5450   3.980   1.890  12.062 -0.3208 -0.3214  1.3170
  360TMC3    C8 5451   4.453   1.967  12.150  0.0984 -0.5646 -0.6460
  360TMC3    O1 5452   3.967   1.952  11.958 -0.6881 -0.1039  0.6065
  360TMC3    O2 5453   4.518   1.995  12.253  0.2520 -0.3302  0.1276
  361MPD2     C 5454   0.844   0.471  16.647 -0.1473  0.4246  0.3416
  361MPD2    C1 5455   0.918   0.572  16.709  0.0460  0.0727 -0.7626
  361MPD2    C2 5456   1.024   0.531  16.792 -0.0623  0.1483 -0.8988
  361MPD2    C3 5457   1.049   0.396  16.821 -0.7712  0.0330  0.8436
  361MPD2    C4 5458   0.958   0.305  16.774 -0.0105 -0.2011  0.5367
  361MPD2    C5 5459   0.869   0.340  16.676 -0.2322  0.0003 -0.5047
  361MPD2     H 5460   1.093   0.611  16.816 -0.4781  0.4104 -0.5746
  361MPD2    H1 5461   0.972   0.204  16.811  1.7397 -0.4022 -0.6465
  361MPD2    H2 5462   0.773   0.486  16.567  1.0750  0.9506 -0.6558
  361MPD2    H3 5463   0.817   0.254  16.636 -2.3550  0.5922  1.0219
  361MPD2     N 5464   1.159   0.343  16.892 -0.5814  0.6718  0.3748
  361MPD2    H5 5465   1.161   0.246  16.921 -1.0825  0.4601 -0.3178
  361MPD2    N1 5466   0.894   0.708  16.687 -0.6719 -0.2062  0.5153
  361MPD2    H7 5467   0.946   0.778  16.738 -0.4476  1.3969 -1.9215
  362TMC3    C1 5468   0.763   0.892  16.638  0.1871  0.9385  0.4282
  362TMC3    C2 5469   0.742   0.934  16.761  0.4683  0.0200 -0.4919
  362TMC3    C3 5470   0.653   1.033  16.781 -0.0159 -0.6555 -0.0280
  362TMC3    C4 5471   0.703   0.959  16.534 -0.2388 -1.1580 -0.1186
  362TMC3    C5 5472   0.615   1.062  16.557  0.3587  0.3434  0.7421
  362TMC3    C6 5473   0.594   1.104  16.687  0.3648 -0.3948  0.5260
  362TMC3     C 5474   0.793   0.759  16.607  0.5805  0.1204 -0.6811
  362TMC3     O 5475   0.734   0.703  16.519  0.4307 -0.2819  0.1892
  362TMC3     H 5476   0.795   0.892  16.846  0.0402 -1.4921 -0.9841
  362TMC3    H1 5477   0.735   0.933  16.434  0.6690 -1.8541  0.3568
  362TMC3    H2 5478   0.552   1.201  16.711  1.8157  0.5878 -0.8412
  362TMC3    C7 5479   0.580   1.151  16.451  0.5711 -0.2711 -0.3395
  362TMC3    C8 5480   0.638   1.094  16.916 -0.1054 -0.1305  0.6370
  362TMC3    O1 5481   0.578   1.272  16.476  0.1020 -0.4757  0.2161
  362TMC3    O2 5482   0.727   1.066  16.995 -0.1798  0.0740  0.2612
  363TMC3    C1 5483   3.515   3.183   9.608 -0.7794 -0.0135  0.1620
  363TMC3    C2 5484   3.554   3.055   9.651  0.2301 -0.1322  0.8425
  363TMC3    C3 5485   3.613   3.038   9.771  0.0583 -0.0938 -0.0188
  363TMC3    C4 5486   3.518   3.292   9.698 -0.4074 -0.2875 -0.2139
  363TMC3    C5 5487   3.559   3.263   9.827 -0.4276  0.3551 -0.5762
  363TMC3    C6 5488   3.616   3.140   9.857  0.5663 -0.7418  0.1784
  363TMC3     C 5489   3.428   3.200   9.489  0.1644  0.5414 -0.3404
  363TMC3     O 5490   3.343   3.291   9.487 -0.0382 -0.3936 -0.3199
  363TMC3     H 5491   3.531   2.969   9.590 -0.4659  0.0445  0.8474
  363TMC3    H1 5492   3.468   3.383   9.669 -1.3082 -0.5386  0.5754
  363TMC3    H2 5493   3.663   3.129   9.954 -1.1258 -0.0584  1.0863
  363TMC3    C7 5494   3.551   3.374   9.927 -0.4573  0.0318 -0.2411
  363TMC3    C8 5495   3.671   2.913   9.800 -0.6225  0.1356 -0.5477
  363TMC3    O1 5496   3.540   3.490   9.883 -0.5418 -0.1390 -0.4160
  363TMC3    O2 5497   3.657   2.835   9.708  0.5825 -0.1478  0.6298
  364MPD2     C 5498   2.509   2.378  10.363 -0.2531 -0.1070  0.3066
  364MPD2    C1 5499   2.598   2.479  10.332  0.3021  0.1124 -0.0509
  364MPD2    C2 5500   2.731   2.455  10.357 -0.0510 -0.8510 -0.4070
  364MPD2    C3 5501   2.776   2.341  10.421 -0.3567  0.3298  0.0678
  364MPD2    C4 5502   2.693   2.242  10.456  0.2839 -0.1430  0.5126
  364MPD2    C5 5503   2.558   2.264  10.421  0.1241  0.6043  0.3285
  364MPD2     H 5504   2.804   2.525  10.319  0.3282 -0.4541  1.0619
  364MPD2    H1 5505   2.716   2.155  10.516  0.1244  0.9881  2.2148
  364MPD2    H2 5506   2.403   2.398  10.350  0.1992  1.4518 -1.0278
  364MPD2    H3 5507   2.490   2.183  10.446 -0.6335  1.3400  0.6753
  364MPD2     N 5508   2.911   2.324  10.447  0.5558  0.5904  0.0759
  364MPD2    H5 5509   2.929   2.228  10.476  1.4865  1.0077  0.8743
  364MPD2    N1 5510   2.544   2.591  10.258 -0.1248 -0.1549  0.3099
  364MPD2    H7 5511   2.443   2.595  10.251  0.2192  3.2600 -2.4129
  365TMC3    C1 5512   2.542   2.784  10.129 -1.0964 -0.2990 -0.1921
  365TMC3    C2 5513   2.464   2.716  10.041  0.0506 -0.1368  0.4426
  365TMC3    C3 5514   2.455   2.772   9.913  0.4583  0.4643 -0.2568
  365TMC3    C4 5515   2.605   2.898  10.095 -0.1966  0.9864  1.0010
  365TMC3    C5 5516   2.584   2.952   9.977 -0.6074  0.2991 -0.0851
  365TMC3    C6 5517   2.509   2.894   9.877 -0.3487  0.1014  0.6587
  365TMC3     C 5518   2.611   2.705  10.230 -0.0921  0.5915 -0.7820
  365TMC3     O 5519   2.723   2.741  10.263  0.9388 -0.0764 -0.0419
  365TMC3     H 5520   2.399   2.634  10.070  0.2534 -1.4053 -2.6597
  365TMC3    H1 5521   2.680   2.941  10.160  1.3430 -0.3642  0.1088
  365TMC3    H2 5522   2.493   2.944   9.782 -0.2385 -1.2734 -0.0877
  365TMC3    C7 5523   2.616   3.093   9.960 -0.4762 -0.4448  0.0994
  365TMC3    C8 5524   2.412   2.678   9.808 -0.1918 -0.1741  0.0920
  365TMC3    O1 5525   2.640   3.126   9.841 -0.1743 -0.0441  0.1002
  365TMC3    O2 5526   2.368   2.736   9.711  0.1667 -0.0967  0.5855
  366MPD2     C 5527   0.824   3.628  15.361 -0.6254 -0.8568  0.1791
  366MPD2    C1 5528   0.908   3.675  15.269  0.3659 -0.0681 -0.8783
  366MPD2    C2 5529   0.975   3.597  15.176 -0.4457 -0.0148 -0.0806
  366MPD2    C3 5530   0.950   3.459  15.188  0.1476 -0.0491 -0.2395
  366MPD2    C4 5531   0.859   3.410  15.277  0.8431  0.3169  0.0944
  366MPD2    C5 5532   0.805   3.491  15.372  0.4074 -0.1714 -0.0578
  366MPD2     H 5533   1.040   3.633  15.097  0.9073 -1.4813  0.3703
  366MPD2    H1 5534   0.825   3.307  15.266  1.2780  0.3981 -1.9483
  366MPD2    H2 5535   0.756   3.685  15.423 -1.2566 -0.5271 -0.8044
  366MPD2    H3 5536   0.744   3.440  15.445  0.0717  1.0047  0.4765
  366MPD2     N 5537   1.022   3.370  15.108  0.1579  0.3765 -0.4791
  366MPD2    H5 5538   1.082   3.412  15.039  1.2344 -2.0788 -1.0244
  366MPD2    N1 5539   0.940   3.807  15.258  0.6767  0.5239  0.4754
  366MPD2    H7 5540   1.005   3.829  15.183 -1.4952 -1.4159 -1.9667
  367TMC3    C1 5541   0.948   4.041  15.258 -0.3965 -0.7549  0.8595
  367TMC3    C2 5542   1.026   4.118  15.337 -0.9442  0.1856  0.3715
  367TMC3    C3 5543   1.114   4.205  15.275  0.4203 -0.4170 -0.0043
  367TMC3    C4 5544   0.950   4.050  15.122  0.4453 -0.7386  0.1449
  367TMC3    C5 5545   1.023   4.153  15.058 -0.4479  0.0124 -0.0848
  367TMC3    C6 5546   1.104   4.229  15.135 -0.2680  0.6012  0.6052
  367TMC3     C 5547   0.889   3.921  15.317 -0.0296 -0.3379  0.3137
  367TMC3     O 5548   0.810   3.929  15.410  0.3649 -0.1040 -0.1661
  367TMC3     H 5549   1.030   4.106  15.445  3.8206 -1.0171  0.0267
  367TMC3    H1 5550   0.881   3.984  15.071  1.8738 -2.4471  0.4395
  367TMC3    H2 5551   1.169   4.305  15.091 -1.7894  1.6470  0.1742
  367TMC3    C7 5552   0.957   4.224  14.950  0.9017 -0.1804 -0.2051
  367TMC3    C8 5553   1.230   4.235  15.355 -0.6731 -0.3670  0.4432
  367TMC3    O1 5554   0.994   4.341  14.928 -0.4268  0.3071  0.6974
  367TMC3    O2 5555   1.248   4.157  15.446 -0.0838 -0.2096  0.4646
  368MPD2     C 5556   2.046   1.108  13.451  0.8734  0.4493  0.3903
  368MPD2    C1 5557   2.032   1.174  13.333 -0.1881 -0.3644 -0.5948
  368MPD2    C2 5558   2.134   1.164  13.239 -1.1853  0.7305  0.8954
  368MPD2    C3 5559   2.250   1.097  13.269  0.3611  0.0514 -0.0344
  368MPD2    C4 5560   2.261   1.024  13.384 -0.4605  0.5308  0.0184
  368MPD2    C5 5561   2.162   1.038  13.476  0.3230  0.4259 -0.3402
  368MPD2     H 5562   2.117   1.208  13.142 -0.7926  1.2488  1.0642
  368MPD2    H1 5563   2.354   0.973  13.408  0.3515  1.3604 -1.3344
  368MPD2    H2 5564   1.972   1.094  13.529 -0.2027  2.2818 -0.3078
  368MPD2    H3 5565   2.177   0.985  13.569  1.8649  1.9108  0.2475
  368MPD2     N 5566   2.348   1.084  13.166  0.4052 -0.2195 -0.2289
  368MPD2    H5 5567   2.402   0.999  13.177  0.2563 -0.0560  1.6669
  368MPD2    N1 5568   1.906   1.235  13.299 -0.0482 -0.0375  0.2070
  368MPD2    H7 5569   1.826   1.222  13.361  0.5748  1.7243  1.3576
  369TMC3    C1 5570   1.755   1.355  13.162  0.0482  0.2485 -0.0911
  369TMC3    C2 5571   1.765   1.477  13.108 -0.1247 -0.1844  0.3399
  369TMC3    C3 5572   1.685   1.508  12.997  0.1289  0.6729 -0.1478
  369TMC3    C4 5573   1.672   1.256  13.106 -0.5390 -0.3710 -0.4484
  369TMC3    C5 5574   1.585   1.298  13.012 -0.2202  0.4182 -0.3421
  369TMC3    C6 5575   1.586   1.420  12.957  0.1539 -0.1390  0.3470
  369TMC3     C 5576   1.888   1.313  13.186  0.2462  0.4622  0.1676
  369TMC3     O 5577   1.960   1.350  13.095 -0.4608  0.6603  0.1664
  369TMC3     H 5578   1.832   1.551  13.150  2.0192 -0.8127 -1.9728
  369TMC3    H1 5579   1.679   1.155  13.145  1.6139  0.1434  0.5095
  369TMC3    H2 5580   1.531   1.436  12.865  1.1063 -0.0221 -0.2033
  369TMC3    C7 5581   1.464   1.225  12.995  0.3497  0.0367  0.6782
  369TMC3    C8 5582   1.757   1.566  12.882 -0.1471 -0.0655 -0.0259
  369TMC3    O1 5583   1.462   1.116  13.056  0.2753  0.0352 -0.5772
  369TMC3    O2 5584   1.686   1.587  12.784  0.1327  0.5318 -0.3288
  370TMC3    C1 5585   1.894   1.749  16.184 -0.1023  0.2167  0.2724
  370TMC3    C2 5586   1.821   1.688  16.288  0.4406 -0.4958  0.3347
  370TMC3    C3 5587   1.709   1.618  16.251 -0.4060  0.9783 -1.0958
  370TMC3    C4 5588   1.858   1.720  16.050 -0.4191  0.1914  1.1624
  370TMC3    C5 5589   1.745   1.649  16.026  0.5241  0.5044 -0.5010
  370TMC3    C6 5590   1.667   1.592  16.123 -0.2179  0.2360 -0.1904
  370TMC3     C 5591   2.008   1.831  16.229  0.4876  0.1864  0.2455
  370TMC3     O 5592   2.038   1.829  16.346 -0.1077 -0.0487 -0.2326
  370TMC3     H 5593   1.849   1.697  16.392  1.4762  1.3190 -0.1019
  370TMC3    H1 5594   1.910   1.765  15.966  0.2169 -0.6055  1.1358
  370TMC3    H2 5595   1.576   1.534  16.111 -2.2234  3.2319  0.4989
  370TMC3    C7 5596   1.752   1.597  15.895 -0.3540  0.8903  0.0481
  370TMC3    C8 5597   1.646   1.540  16.355 -0.2813 -0.5323  0.0102
  370TMC3    O1 5598   1.851   1.603  15.830 -1.0955  0.6090  0.1149
  370TMC3    O2 5599   1.570   1.452  16.316 -0.1268 -0.1259  0.0428
  371TMC3    C1 5600   2.665   4.601  15.669 -0.5162  0.0144 -0.5712
  371TMC3    C2 5601   2.540   4.621  15.609  0.4348 -0.1436 -0.0265
  371TMC3    C3 5602   2.533   0.006  15.541  0.2146  0.3972 -0.1874
  371TMC3    C4 5603   2.765   4.693  15.677 -0.2262  0.0349  0.6207
  371TMC3    C5 5604   2.748   0.072  15.616  0.6040 -0.2251 -0.3645
  371TMC3    C6 5605   2.638   0.097  15.548  0.3921  0.0991 -1.1670
  371TMC3     C 5606   2.688   4.480  15.753 -0.5180  0.6053 -0.4513
  371TMC3     O 5607   2.763   4.480  15.852  0.1823  0.4078  0.2371
  371TMC3     H 5608   2.453   4.558  15.623 -0.4821  1.1617  0.2363
  371TMC3    H1 5609   2.848   4.681  15.744 -0.2288  1.7220  0.9175
  371TMC3    H2 5610   2.647   0.183  15.482 -1.7761  1.4288  0.2506
  371TMC3    C7 5611   2.864   0.162  15.601  0.2023  0.0270 -0.7814
  371TMC3    C8 5612   2.409   0.051  15.489  0.3965  1.0289  0.6371
  371TMC3    O1 5613   2.855   0.232  15.506 -0.0925  0.2225  0.2472
  371TMC3    O2 5614   2.326   4.706  15.452  0.7468 -0.4440 -0.0804
  372MPD2     C 5615   3.049   1.111  13.384 -0.4257  0.4504 -0.3525
  372MPD2    C1 5616   3.112   1.085  13.512 -0.3437 -0.6091 -0.0380
  372MPD2    C2 5617   3.041   1.008  13.600  0.2704  0.1093 -0.7260
  372MPD2    C3 5618   2.914   0.954  13.573 -0.0995 -0.1951  0.0248
  372MPD2    C4 5619   2.848   0.995  13.456  0.4675 -0.1029 -0.0472
  372MPD2    C5 5620   2.924   1.067  13.367 -0.2888 -0.0890  0.0519
  372MPD2     H 5621   3.092   0.987  13.694  2.1004  1.4279 -1.4031
  372MPD2    H1 5622   2.756   0.953  13.418 -0.3216  0.0879  1.6704
  372MPD2    H2 5623   3.090   1.168  13.301  3.2918 -3.5443 -1.2412
  372MPD2    H3 5624   2.878   1.104  13.277  1.5842 -0.2207 -0.9702
  372MPD2     N 5625   2.851   0.872  13.664  0.4106  0.5496 -0.7298
  372MPD2    H5 5626   2.912   0.851  13.742 -0.6049  0.7043  0.1120
  372MPD2    N1 5627   3.246   1.132  13.535  0.7064 -0.0794 -0.4869
  372MPD2    H7 5628   3.278   1.121  13.631  0.3145 -1.7672 -0.5463
  373TMC3    C1 5629   2.686   0.726  13.758 -0.3524  0.3264 -0.2403
  373TMC3    C2 5630   2.734   0.751  13.881  0.0871  0.2202  0.4177
  373TMC3    C3 5631   2.716   0.642  13.970  0.7109 -0.3041 -0.2904
  373TMC3    C4 5632   2.619   0.612  13.714 -0.8593  0.6239 -0.4117
  373TMC3    C5 5633   2.603   0.515  13.805  0.4104 -0.1053 -0.3375
  373TMC3    C6 5634   2.655   0.524  13.930 -0.1404  0.4372 -0.4461
  373TMC3     C 5635   2.721   0.813  13.653  0.0720  0.2147  0.1376
  373TMC3     O 5636   2.633   0.827  13.573 -0.3564 -0.3399 -0.4109
  373TMC3     H 5637   2.756   0.852  13.912 -0.3988 -0.1700  1.9849
  373TMC3    H1 5638   2.588   0.598  13.611 -0.4606  1.6608 -0.6697
  373TMC3    H2 5639   2.659   0.440  13.999 -0.5482  1.1869  0.4809
  373TMC3    C7 5640   2.544   0.391  13.759 -0.2194 -0.2224 -0.3205
  373TMC3    C8 5641   2.776   0.652  14.101 -0.4668  0.3001 -0.2020
  373TMC3    O1 5642   2.527   0.380  13.636 -0.2558  0.2477 -1.0182
  373TMC3    O2 5643   2.860   0.736  14.122 -0.4991  0.1769 -0.4806
  374TMC3    C1 5644   3.190   1.370   9.827 -0.8015 -0.1279 -0.1195
  374TMC3    C2 5645   3.241   1.495   9.863  0.8261 -0.2794 -0.0157
  374TMC3    C3 5646   3.237   1.584   9.766 -0.0793 -0.3185  0.3659
  374TMC3    C4 5647   3.136   1.335   9.711  0.1866 -0.2508  0.1841
  374TMC3    C5 5648   3.142   1.427   9.612  0.4052 -0.4523 -0.4604
  374TMC3    C6 5649   3.188   1.559   9.644 -0.1294  0.1936 -0.8369
  374TMC3     C 5650   3.182   1.277   9.939 -0.6520 -0.5215 -0.0764
  374TMC3     O 5651   3.286   1.242   9.993 -0.0932  0.3030 -0.3460
  374TMC3     H 5652   3.272   1.510   9.966 -1.7596  0.4891  0.6503
  374TMC3    H1 5653   3.098   1.234   9.702  0.2405 -0.1856 -0.8068
  374TMC3    H2 5654   3.221   1.623   9.562  0.3732  0.3807 -0.4824
  374TMC3    C7 5655   3.078   1.392   9.489  0.2614  0.7586  0.2820
  374TMC3    C8 5656   3.276   1.724   9.788 -0.4690 -0.2199  0.7978
  374TMC3    O1 5657   3.031   1.282   9.479 -0.1893 -0.1623  0.1086
  374TMC3    O2 5658   3.243   1.806   9.706 -1.0279  0.6183 -0.0953
  375MPD2     C 5659   3.260   1.865  17.136 -0.0924  0.2062 -0.3370
  375MPD2    C1 5660   3.175   1.865  17.028 -0.6123  0.1955  0.5900
  375MPD2    C2 5661   3.207   1.796  16.909 -0.0835  0.4080  0.4230
  375MPD2    C3 5662   3.321   1.712  16.911 -0.3827 -0.2330 -0.3207
  375MPD2    C4 5663   3.402   1.709  17.019  0.2207  0.1500  0.4570
  375MPD2    C5 5664   3.372   1.793  17.124 -0.3770 -0.2603 -0.7775
  375MPD2     H 5665   3.137   1.801  16.827  0.8121  0.5773 -0.3313
  375MPD2    H1 5666   3.490   1.647  17.034  0.5980  0.8646  1.1950
  375MPD2    H2 5667   3.238   1.922  17.225 -0.0999 -2.3664  1.2878
  375MPD2    H3 5668   3.441   1.798  17.208  1.2521  3.9001 -2.3664
  375MPD2     N 5669   3.353   1.617  16.810 -0.4529 -0.5555  0.9749
  375MPD2    H5 5670   3.443   1.571  16.819  0.6045  1.1785 -0.5577
  375MPD2    N1 5671   3.054   1.939  17.034 -0.3919 -0.8407  0.3205
  375MPD2    H7 5672   3.009   1.965  16.947  0.8312 -0.1497 -0.0941
  376TMC3    C1 5673   3.330   1.491  16.615  0.0170 -0.6230 -0.6376
  376TMC3    C2 5674   3.451   1.434  16.647  0.2398 -0.5736 -0.2923
  376TMC3    C3 5675   3.508   1.360  16.547  0.4686  0.0552  0.7298
  376TMC3    C4 5676   3.275   1.482  16.492 -0.2479  0.1753 -0.3687
  376TMC3    C5 5677   3.335   1.403  16.401 -0.0306  0.5563  0.1235
  376TMC3    C6 5678   3.459   1.344  16.418 -0.1092  0.3959 -0.5666
  376TMC3     C 5679   3.285   1.604  16.694  0.3021 -0.2827  0.7500
  376TMC3     O 5680   3.212   1.685  16.636 -0.1801 -1.0304 -0.1954
  376TMC3     H 5681   3.505   1.442  16.741  2.7979 -1.8838 -1.6507
  376TMC3    H1 5682   3.183   1.531  16.462 -0.5399  0.1342  0.4845
  376TMC3    H2 5683   3.516   1.298  16.338 -0.4910 -0.0493 -0.5821
  376TMC3    C7 5684   3.297   1.424  16.264  0.3648 -0.0158  0.8619
  376TMC3    C8 5685   3.656   1.380  16.541  0.1534  0.3596 -0.6024
  376TMC3    O1 5686   3.257   1.537  16.241  0.0363  0.2436 -0.1797
  376TMC3    O2 5687   3.691   1.436  16.436 -0.3809 -0.5995  0.3296
  377MPD2     C 5688   1.229   1.668  12.699 -0.1474  0.2825  0.3246
  377MPD2    C1 5689   1.250   1.660  12.565  0.0190  0.6320  0.9846
  377MPD2    C2 5690   1.155   1.597  12.482 -0.2601  0.2576 -0.3042
  377MPD2    C3 5691   1.030   1.557  12.531  0.0393  0.1526 -0.1689
  377MPD2    C4 5692   1.006   1.578  12.670  0.4443  0.0249 -0.3921
  377MPD2    C5 5693   1.110   1.628  12.752  0.0265  0.0597 -0.4489
  377MPD2     H 5694   1.171   1.589  12.375 -1.5697  1.4577 -0.5950
  377MPD2    H1 5695   0.912   1.562  12.722 -0.3697  1.3554 -1.4593
  377MPD2    H2 5696   1.299   1.721  12.764  0.7166 -1.2382  0.6417
  377MPD2    H3 5697   1.095   1.645  12.858 -2.9256 -0.1371 -0.8463
  377MPD2     N 5698   0.941   1.489  12.444  0.3492 -0.1713 -0.0072
  377MPD2    H5 5699   0.976   1.473  12.350  0.6448  1.5096 -0.1708
  377MPD2    N1 5700   1.368   1.720  12.508 -0.6491  0.3154 -0.8431
  377MPD2    H7 5701   1.439   1.753  12.573 -0.2205  0.7795 -1.5509
  378TMC3    C1 5702   1.599   1.844  12.121 -0.2695 -0.3170 -0.0606
  378TMC3    C2 5703   1.487   1.845  12.190 -0.3719  0.4921  1.1196
  378TMC3    C3 5704   1.493   1.795  12.322 -0.0287 -0.1471 -0.6438
  378TMC3    C4 5705   1.712   1.783  12.172  0.5295 -0.9624  0.3578
  378TMC3    C5 5706   1.711   1.706  12.286 -0.3788  0.0159  0.0263
  378TMC3    C6 5707   1.597   1.709  12.362 -0.5512  0.2230  0.6909
  378TMC3     C 5708   1.623   1.947  12.021  0.0886 -0.1208  0.2927
  378TMC3     O 5709   1.726   1.940  11.955  0.2880  0.0364  0.1217
  378TMC3     H 5710   1.398   1.895  12.153  0.0058 -0.4573 -1.0268
  378TMC3    H1 5711   1.795   1.793  12.103 -1.1663  0.5279 -1.4707
  378TMC3    H2 5712   1.593   1.637  12.443 -0.9030 -0.8429 -0.2649
  378TMC3    C7 5713   1.807   1.600  12.301  0.7403  0.0707  0.1898
  378TMC3    C8 5714   1.365   1.757  12.373 -0.1963  0.4302 -0.0732
  378TMC3    O1 5715   1.803   1.530  12.401 -0.0844 -0.3027  0.2948
  378TMC3    O2 5716   1.270   1.779  12.300  0.3456  0.0627  0.4342
  379MPD2     C 5717   2.392   4.330  15.986 -0.4367  0.5751  0.3229
  379MPD2    C1 5718   2.345   4.202  16.003  0.1425 -0.4001 -0.3843
  379MPD2    C2 5719   2.404   4.115  16.097  0.3229  0.8859 -0.2750
  379MPD2    C3 5720   2.496   4.166  16.183  0.1556 -0.1742  0.1678
  379MPD2    C4 5721   2.548   4.294  16.159  0.9893  0.2191 -0.1495
  379MPD2    C5 5722   2.496   4.373  16.062  0.5310  0.6619  0.8844
  379MPD2     H 5723   2.387   4.008  16.092  1.9390  0.5824  0.5549
  379MPD2    H1 5724   2.633   4.334  16.213  1.0346 -0.1846  0.0754
  379MPD2    H2 5725   2.356   4.386  15.900 -1.7457 -0.1006  0.4281
  379MPD2    H3 5726   2.541   4.471  16.051  0.4745  0.5818 -0.0849
  379MPD2     N 5727   2.553   4.081  16.284  0.5962  0.0800  0.4916
  379MPD2    H5 5728   2.517   3.986  16.289 -1.2852  0.8131  1.1564
  379MPD2    N1 5729   2.232   4.171  15.918  0.1347  0.5250 -0.1474
  379MPD2    H7 5730   2.202   4.243  15.853 -2.4600  0.0987  0.5784
  380TMC3    C1 5731   2.032   4.059  15.843 -0.4284  0.0042  0.7964
  380TMC3    C2 5732   1.972   3.939  15.830 -1.6522 -0.4475 -0.1625
  380TMC3    C3 5733   1.844   3.935  15.788  0.0172 -0.1435 -0.7569
  380TMC3    C4 5734   1.964   4.181  15.823 -0.5089  0.2422 -0.3064
  380TMC3    C5 5735   1.836   4.179  15.782 -0.5471  0.6243 -0.4700
  380TMC3    C6 5736   1.778   4.054  15.758  0.0363 -0.1265  0.0520
  380TMC3     C 5737   2.152   4.057  15.928  0.2496  0.4360  1.0683
  380TMC3     O 5738   2.174   3.954  15.985  0.3371 -0.0255 -0.1082
  380TMC3     H 5739   2.032   3.849  15.842 -2.3192 -0.8352  0.2554
  380TMC3    H1 5740   2.005   4.281  15.832 -0.2170 -0.0372  1.4036
  380TMC3    H2 5741   1.676   4.040  15.725 -0.4083  1.9072  0.5977
  380TMC3    C7 5742   1.795   4.295  15.693 -0.5788 -0.3469  0.4691
  380TMC3    C8 5743   1.796   3.802  15.749 -0.2292 -0.1953  0.0496
  380TMC3    O1 5744   1.865   4.397  15.691  0.0819 -0.8171  0.2480
  380TMC3    O2 5745   1.813   3.705  15.823 -0.2179  0.5170  0.4139
  381TMC3    C1 5746   1.479   0.918  15.772 -0.0305 -0.5077  0.6496
  381TMC3    C2 5747   1.577   1.007  15.782 -0.2620  0.1587  0.6077
  381TMC3    C3 5748   1.615   1.043  15.912  0.7071  0.7044  0.1069
  381TMC3    C4 5749   1.421   0.851  15.881 -0.3458  0.3303 -0.2148
  381TMC3    C5 5750   1.463   0.880  16.001  0.2775 -0.3093  0.1527
  381TMC3    C6 5751   1.567   0.974  16.019  0.2159 -0.0963  0.1312
  381TMC3     C 5752   1.417   0.910  15.638 -0.3146  1.2399  0.8951
  381TMC3     O 5753   1.480   0.950  15.543  0.3404 -0.7164 -0.2513
  381TMC3     H 5754   1.624   1.054  15.696  0.4255 -0.4721  0.6441
  381TMC3    H1 5755   1.373   0.755  15.867  1.4735 -0.3946 -1.5998
  381TMC3    H2 5756   1.603   0.994  16.120 -3.3514 -0.1639  1.4304
  381TMC3    C7 5757   1.425   0.800  16.117 -0.1972  0.1654  0.1899
  381TMC3    C8 5758   1.727   1.132  15.925 -0.0904  0.9203  0.5015
  381TMC3    O1 5759   1.403   0.681  16.096 -0.0442 -0.5126 -0.4961
  381TMC3    O2 5760   1.817   1.106  15.851 -0.0168 -0.4642 -0.4687
  382MPD2     C 5761   1.055   3.298  17.142 -0.2125  0.1269 -0.8314
  382MPD2    C1 5762   1.161   3.208  17.131  0.1047 -0.1560 -0.8804
  382MPD2    C2 5763   1.135   3.076  17.170  1.0253  0.2685 -0.3962
  382MPD2    C3 5764   1.013   3.032  17.202 -0.1217 -0.4598 -0.2710
  382MPD2    C4 5765   0.904   3.117  17.208  1.0106 -0.4216  0.1453
  382MPD2    C5 5766   0.926   3.251  17.180 -0.6286  0.4388  0.4245
  382MPD2     H 5767   1.219   3.008  17.180  0.9407 -0.0490 -1.7782
  382MPD2    H1 5768   0.803   3.087  17.233  0.9210 -0.0554  0.2344
  382MPD2    H2 5769   1.060   3.405  17.127 -0.0530 -0.1887 -3.0652
  382MPD2    H3 5770   0.842   3.319  17.186  0.1575  1.3387  1.1570
  382MPD2     N 5771   1.002   2.894  17.218 -0.3161 -0.0040 -0.7261
  382MPD2    H5 5772   1.081   2.834  17.199 -0.2183 -0.0525 -0.1484
  382MPD2    N1 5773   1.297   3.236  17.096 -0.8155 -0.2091 -0.0472
  382MPD2    H7 5774   1.363   3.159  17.095  1.4636  1.7223  0.6669
  383TMC3    C1 5775   0.909   2.677  17.220 -0.0780  0.8266  0.6981
  383TMC3    C2 5776   0.819   2.597  17.149  0.2168  0.6192 -0.3811
  383TMC3    C3 5777   0.841   2.462  17.161 -0.5427 -0.3716  0.1761
  383TMC3    C4 5778   1.011   2.629  17.295 -0.3286 -0.3924 -0.6086
  383TMC3    C5 5779   1.032   2.497  17.301  0.0838 -0.4712 -0.0016
  383TMC3    C6 5780   0.949   2.411  17.239 -0.6780  0.2965  0.6866
  383TMC3     C 5781   0.885   2.817  17.220  0.0074 -0.5526 -0.4014
  383TMC3     O 5782   0.770   2.852  17.211  0.0965 -0.2026  0.4070
  383TMC3     H 5783   0.749   2.641  17.079 -0.1110  1.5193  0.5130
  383TMC3    H1 5784   1.073   2.695  17.355 -0.0862 -0.4578 -0.7842
  383TMC3    H2 5785   0.979   2.310  17.213 -2.3120  0.0449 -0.1887
  383TMC3    C7 5786   1.127   2.444  17.398  0.3114 -0.0658  0.4698
  383TMC3    C8 5787   0.751   2.376  17.085  0.6927 -0.2210 -0.3996
  383TMC3    O1 5788   1.224   2.513  17.440 -0.1476  0.6487 -0.0987
  383TMC3    O2 5789   0.670   2.436  17.018  0.0500 -0.3134 -0.4995
  384MPD2     C 5790   2.500   3.746  11.625  0.1819 -0.6191  0.4131
  384MPD2    C1 5791   2.515   3.875  11.665 -0.0989 -0.0410  0.8265
  384MPD2    C2 5792   2.517   3.981  11.578  0.3868  0.3420 -0.3179
  384MPD2    C3 5793   2.490   3.965  11.441  0.6913 -0.8513  0.0120
  384MPD2    C4 5794   2.473   3.833  11.400  0.8360  0.8658 -0.5590
  384MPD2    C5 5795   2.472   3.730  11.488  0.0857  0.5387  0.0836
  384MPD2     H 5796   2.532   4.080  11.619  2.1824 -0.4751  0.9704
  384MPD2    H1 5797   2.456   3.812  11.295  0.1014 -0.7585 -0.1198
  384MPD2    H2 5798   2.511   3.658  11.687  4.2067  1.0362  2.0653
  384MPD2    H3 5799   2.455   3.632  11.445  1.1513  0.6077 -0.4871
  384MPD2     N 5800   2.490   4.074  11.350 -1.0091 -0.2153  0.5342
  384MPD2    H5 5801   2.501   4.066  11.249  2.1293  4.2202  0.5207
  384MPD2    N1 5802   2.535   3.903  11.801 -0.7560  0.4509 -0.3421
  384MPD2    H7 5803   2.558   4.001  11.816 -0.3811  0.4017 -0.6158
  385TMC3    C1 5804   2.522   4.299  11.286 -0.9466  0.5588 -0.2499
  385TMC3    C2 5805   2.634   4.253  11.220  0.1474  0.0852  0.4066
  385TMC3    C3 5806   2.746   4.335  11.200 -0.0503  0.1386 -0.3162
  385TMC3    C4 5807   2.544   4.427  11.334  0.3650  0.0083 -0.3708
  385TMC3    C5 5808   2.662   4.503  11.327 -0.3102 -0.1666 -0.5711
  385TMC3    C6 5809   2.771   4.453  11.265 -0.0565 -0.3852  0.6509
  385TMC3     C 5810   2.477   4.207  11.391  0.3103  0.2656 -0.2343
  385TMC3     O 5811   2.453   4.262  11.500 -0.1620  0.0509 -0.5113
  385TMC3     H 5812   2.628   4.151  11.182 -0.6767  1.4149 -3.0362
  385TMC3    H1 5813   2.457   4.472  11.379 -1.2728 -1.8713 -1.6399
  385TMC3    H2 5814   2.860   4.514  11.248  0.2227 -1.5020 -1.9841
  385TMC3    C7 5815   2.685   4.568  11.460 -0.5854  0.1133  0.1785
  385TMC3    C8 5816   2.860   4.303  11.119  0.1996  0.4010 -0.0763
  385TMC3    O1 5817   2.752   4.671  11.455 -0.3480 -0.1600  0.4915
  385TMC3    O2 5818   2.971   4.350  11.140 -0.3141 -0.4410 -0.1410
  386TMC3    C1 5819   2.811   1.875  11.527  0.4617 -0.5736  0.1118
  386TMC3    C2 5820   2.796   1.890  11.387  0.4169  0.5197  0.0549
  386TMC3    C3 5821   2.669   1.934  11.352 -0.0342  0.2527 -0.2240
  386TMC3    C4 5822   2.713   1.897  11.619 -0.5981  0.0565  0.2095
  386TMC3    C5 5823   2.598   1.953  11.572  0.0110  0.3048 -0.1775
  386TMC3    C6 5824   2.571   1.963  11.438 -0.5990 -0.2520 -0.1701
  386TMC3     C 5825   2.947   1.874  11.572 -0.4080 -0.5255  0.0743
  386TMC3     O 5826   3.020   1.952  11.514 -0.4760  0.7679 -0.2225
  386TMC3     H 5827   2.876   1.872  11.317  2.0671 -0.5244  2.1958
  386TMC3    H1 5828   2.724   1.889  11.726 -2.1640  1.7458  0.4958
  386TMC3    H2 5829   2.482   2.013  11.401  0.1018  0.9567 -0.2233
  386TMC3    C7 5830   2.483   1.925  11.655  0.1741  0.8168 -0.3058
  386TMC3    C8 5831   2.643   1.965  11.215  0.1331  0.8421 -0.1575
  386TMC3    O1 5832   2.492   1.941  11.775 -0.3156 -0.6750 -0.5679
  386TMC3    O2 5833   2.526   1.967  11.184  0.0548 -0.3956  0.4790
  387MPD2     C 5834   0.736   1.359   9.281  0.1686  0.8184 -0.5983
  387MPD2    C1 5835   0.829   1.367   9.386  0.7267  0.0053 -0.1898
  387MPD2    C2 5836   0.918   1.260   9.404 -0.1806  0.2914 -1.0886
  387MPD2    C3 5837   0.926   1.146   9.324 -0.1620 -0.2869 -0.6669
  387MPD2    C4 5838   0.834   1.147   9.215  0.2496 -0.3607  0.4797
  387MPD2    C5 5839   0.743   1.250   9.198  0.2317 -0.4503  0.7036
  387MPD2     H 5840   0.985   1.280   9.487 -0.8138 -0.6017 -0.3676
  387MPD2    H1 5841   0.831   1.057   9.154  1.7720  1.1014 -1.7164
  387MPD2    H2 5842   0.659   1.435   9.269  1.7832  2.5940  0.2842
  387MPD2    H3 5843   0.670   1.240   9.118  1.2580  3.4700 -0.7296
  387MPD2     N 5844   1.032   1.057   9.341  0.0854  0.1813 -0.0976
  387MPD2    H5 5845   1.105   1.081   9.407 -0.0084 -0.5433  0.2692
  387MPD2    N1 5846   0.846   1.477   9.472  0.3176 -0.0580 -0.3357
  387MPD2    H7 5847   0.913   1.468   9.547 -0.7009 -0.4409  0.5252
  388TMC3    C1 5848   0.865   1.706   9.509  0.3065 -0.0525 -0.0557
  388TMC3    C2 5849   0.808   1.822   9.561  0.2966 -0.0322  0.2694
  388TMC3    C3 5850   0.887   1.913   9.619  0.2132 -0.0982  0.5402
  388TMC3    C4 5851   1.001   1.688   9.515  0.0489  0.4316 -0.8025
  388TMC3    C5 5852   1.083   1.789   9.563 -0.0755 -0.3372 -0.1435
  388TMC3    C6 5853   1.029   1.913   9.606 -0.0332  0.2093  0.1252
  388TMC3     C 5854   0.784   1.595   9.459  0.5079  0.3364 -0.5277
  388TMC3     O 5855   0.682   1.631   9.403 -0.4614 -0.3126 -0.0263
  388TMC3     H 5856   0.700   1.835   9.564  0.6002  1.8118  3.4186
  388TMC3    H1 5857   1.049   1.606   9.463  1.4019 -0.0796  1.2364
  388TMC3    H2 5858   1.095   1.995   9.630  0.9656 -0.6649  0.3874
  388TMC3    C7 5859   1.230   1.773   9.561 -0.0046  0.2303  0.7012
  388TMC3    C8 5860   0.823   2.038   9.657 -0.1722 -0.0537 -0.6476
  388TMC3    O1 5861   1.306   1.868   9.555  0.4791 -0.0499  0.8045
  388TMC3    O2 5862   0.708   2.046   9.605 -0.1714  0.1167 -0.0208
  389MPD2     C 5863   0.094   4.528  10.300  0.5635  0.5291  0.1904
  389MPD2    C1 5864   0.166   4.601  10.391 -0.4251  0.0065 -0.3298
  389MPD2    C2 5865   0.121   4.614  10.519  0.3493 -0.2708 -0.2070
  389MPD2    C3 5866   0.010   4.550  10.565 -0.0267 -0.4232 -0.5034
  389MPD2    C4 5867   4.687   4.467  10.477  0.2417 -0.0165 -0.2655
  389MPD2    C5 5868   4.727   4.456  10.350  0.2272 -0.4967 -0.4846
  389MPD2     H 5869   0.183   4.682  10.578  0.8862 -2.1599  1.3944
  389MPD2    H1 5870   4.601   4.413  10.516 -1.1644  0.1947 -3.0876
  389MPD2    H2 5871   0.110   4.537  10.193 -2.6388  0.4001 -0.3159
  389MPD2    H3 5872   4.664   4.394  10.288 -0.4867  0.5708 -0.8152
  389MPD2     N 5873   4.712   4.547  10.706  0.4097 -0.3510 -0.4501
  389MPD2    H5 5874   4.639   4.482  10.732  0.0903  0.1094 -0.1837
  389MPD2    N1 5875   0.278   4.679  10.365  0.0802 -0.2020  0.1027
  389MPD2    H7 5876   0.284   0.017  10.433 -1.9671  1.0690 -1.1025
  390TMC3    C1 5877   4.692   4.629  10.926 -0.5980 -0.3452  0.6729
  390TMC3    C2 5878   4.696   4.510  10.999  0.0438  0.4358 -0.5104
  390TMC3    C3 5879   4.662   4.523  11.134  0.0977 -0.2929  0.1562
  390TMC3    C4 5880   4.675   0.017  10.992  0.9760  0.4180 -0.0137
  390TMC3    C5 5881   4.642   0.019  11.125 -0.2555 -0.0879 -0.2801
  390TMC3    C6 5882   4.635   4.644  11.195 -0.3591  0.3923 -0.0783
  390TMC3     C 5883   0.029   4.634  10.804 -0.0124 -0.1957  1.0563
  390TMC3     O 5884   0.102   4.732  10.793 -0.0589 -0.1050 -0.3159
  390TMC3     H 5885   4.724   4.413  10.961  0.9652 -0.2307  1.8235
  390TMC3    H1 5886   4.688   0.110  10.938  1.5550  1.5552  2.0969
  390TMC3    H2 5887   4.624   4.649  11.302 -0.4716  0.5590 -0.0962
  390TMC3    C7 5888   4.516   0.087  11.140  0.3926 -0.4578 -0.4691
  390TMC3    C8 5889   4.615   4.400  11.188 -0.3517  0.8050 -0.0864
  390TMC3    O1 5890   4.495   0.195  11.085  0.2486  0.4738  0.5943
  390TMC3    O2 5891   4.618   4.293  11.124  0.2585 -0.1375  0.0391
  391MPD2     C 5892   3.665   2.029  11.239 -0.1483 -0.3056  0.5365
  391MPD2    C1 5893   3.791   2.070  11.205 -0.2575 -1.3034 -0.3109
  391MPD2    C2 5894   3.832   2.071  11.068 -0.7941  0.3654 -0.0293
  391MPD2    C3 5895   3.744   2.028  10.973  0.2183 -0.0840 -0.0708
  391MPD2    C4 5896   3.620   1.988  11.005 -0.8540  0.0713  0.4900
  391MPD2    C5 5897   3.586   1.991  11.135 -0.8362 -0.3385  0.0047
  391MPD2     H 5898   3.922   2.119  11.031 -0.9986 -1.1031 -2.4021
  391MPD2    H1 5899   3.543   1.956  10.936  1.4404  0.2006 -2.1062
  391MPD2    H2 5900   3.631   2.040  11.342  1.2211 -1.8050  1.1573
  391MPD2    H3 5901   3.492   1.944  11.159  0.2829 -2.6771 -0.1581
  391MPD2     N 5902   3.790   2.034  10.835 -0.4801 -0.4361 -0.2178
  391MPD2    H5 5903   3.888   2.048  10.816 -0.2808  0.6648  1.7140
  391MPD2    N1 5904   3.885   2.096  11.306  0.0088 -0.3243  0.1516
  391MPD2    H7 5905   3.853   2.091  11.402  0.3156 -0.2454  0.2568
  392TMC3    C1 5906   3.788   1.996  10.608 -0.4974  0.3982 -0.0425
  392TMC3    C2 5907   3.710   1.939  10.512  0.3186  0.7087  0.1693
  392TMC3    C3 5908   3.762   1.960  10.385  0.0646 -0.7501 -0.0416
  392TMC3    C4 5909   3.893   2.075  10.587 -0.0640 -0.4919  0.5423
  392TMC3    C5 5910   3.935   2.097  10.457 -0.0204 -0.9228 -0.5609
  392TMC3    C6 5911   3.865   2.038  10.360  0.5498  0.2137 -0.2714
  392TMC3     C 5912   3.705   2.023  10.725  0.9223  0.0486  0.1830
  392TMC3     O 5913   3.581   2.014  10.715 -0.2690 -0.1325  0.4174
  392TMC3     H 5914   3.625   1.875  10.531  0.5303  0.4861  0.3829
  392TMC3    H1 5915   3.946   2.122  10.669  0.0755 -1.0367  0.7653
  392TMC3    H2 5916   3.899   2.038  10.257  2.6887 -3.5468  0.4183
  392TMC3    C7 5917   4.057   2.175  10.433 -0.0908 -0.1770  0.0149
  392TMC3    C8 5918   3.677   1.907  10.279  0.6574 -0.0485  0.9929
  392TMC3    O1 5919   4.114   2.224  10.527  0.8743  0.6376  0.2312
  392TMC3    O2 5920   3.617   1.804  10.303  0.2802 -0.1967 -0.2443
  393TMC3    C1 5921   2.767   4.461  10.196  0.3823  0.1998 -0.3603
  393TMC3    C2 5922   2.687   4.374  10.124 -0.0735 -0.3796 -0.3008
  393TMC3    C3 5923   2.617   4.284  10.193 -0.7508  0.2162  0.0234
  393TMC3    C4 5924   2.795   4.450  10.332 -0.4034 -0.1174 -0.5738
  393TMC3    C5 5925   2.716   4.362  10.396 -0.2309  0.4580  0.6493
  393TMC3    C6 5926   2.624   4.280  10.332  0.0589  0.5195  0.3369
  393TMC3     C 5927   2.823   4.570  10.118 -0.0054  0.0208 -0.5969
  393TMC3     O 5928   2.834   4.552  10.000 -0.4928  0.5450  0.3650
  393TMC3     H 5929   2.668   4.392  10.018 -1.0240  2.2087  0.3102
  393TMC3    H1 5930   2.868   4.511  10.385  0.1291 -1.2406 -0.0158
  393TMC3    H2 5931   2.561   4.212  10.387  0.2462  0.0146 -0.0752
  393TMC3    C7 5932   2.696   4.373  10.539 -0.4468 -0.4632  0.2403
  393TMC3    C8 5933   2.527   4.185  10.136  0.1092 -0.6061  0.3239
  393TMC3    O1 5934   2.593   4.328  10.586  0.6393 -0.2173  0.5915
  393TMC3    O2 5935   2.463   4.117  10.219  0.2040 -0.1619  0.8401
  394TMC3    C1 5936   0.430   0.070  10.249  0.1977 -0.3569  0.2159
  394TMC3    C2 5937   0.436   0.148  10.361  0.4962 -0.3185  0.3392
  394TMC3    C3 5938   0.532   0.241  10.366 -0.4294 -0.0116  0.2473
  394TMC3    C4 5939   0.526   0.081  10.153  0.2935 -0.0713 -0.3425
  394TMC3    C5 5940   0.612   0.192  10.154 -0.6600 -0.2612  0.3191
  394TMC3    C6 5941   0.620   0.267  10.267  0.1317 -0.3379 -0.3299
  394TMC3     C 5942   0.346   4.691  10.252  0.2865  0.0712 -0.4118
  394TMC3     O 5943   0.355   4.618  10.159 -0.5743  0.4786 -0.2532
  394TMC3     H 5944   0.362   0.156  10.440  2.4052  1.8617  1.9070
  394TMC3    H1 5945   0.515   0.015  10.068  0.5126 -1.7687  0.9504
  394TMC3    H2 5946   0.685   0.353  10.280 -0.7853  0.1305  1.1981
  394TMC3    C7 5947   0.673   0.249  10.036 -0.1835  0.4526 -0.6789
  394TMC3    C8 5948   0.496   0.358  10.433  0.1452 -1.2543 -0.0825
  394TMC3    O1 5949   0.729   0.354  10.058  0.4431  0.2542 -0.5744
  394TMC3    O2 5950   0.545   0.379  10.543 -0.3297  0.0365 -0.3275
  395TMC3    C1 5951   3.827   1.761  14.808  0.2740 -0.2110 -0.1799
  395TMC3    C2 5952   3.795   1.698  14.920  0.7599  0.0317  0.8834
  395TMC3    C3 5953   3.830   1.750  15.040  0.1512 -1.2158  0.6951
  395TMC3    C4 5954   3.908   1.871  14.816  0.0380  0.4728 -0.7631
  395TMC3    C5 5955   3.940   1.933  14.940 -0.2129 -0.2674 -0.0256
  395TMC3    C6 5956   3.898   1.876  15.055  0.0326 -0.6803 -0.2888
  395TMC3     C 5957   3.782   1.720  14.673  0.1085  0.3448 -0.2856
  395TMC3     O 5958   3.747   1.815  14.610 -0.2871 -0.1303  0.0900
  395TMC3     H 5959   3.734   1.609  14.911 -0.5199  0.4593  5.5458
  395TMC3    H1 5960   3.956   1.913  14.729 -1.1190  0.1484 -1.5466
  395TMC3    H2 5961   3.923   1.919  15.151 -0.3071 -0.0565 -0.4847
  395TMC3    C7 5962   4.055   2.022  14.952  0.2078  0.5220 -0.2201
  395TMC3    C8 5963   3.806   1.675  15.161  0.5964  0.1710  0.5727
  395TMC3    O1 5964   4.128   2.006  15.047 -0.2211  0.7778 -0.2188
  395TMC3    O2 5965   3.811   1.743  15.262 -0.1434  0.2838 -0.6552
  396MPD2     C 5966   3.900   2.779  16.898  0.2425  0.0859  0.1005
  396MPD2    C1 5967   4.036   2.796  16.933 -0.2754  0.3892 -0.1742
  396MPD2    C2 5968   4.112   2.877  16.849 -0.2649 -0.2234 -0.6410
  396MPD2    C3 5969   4.063   2.921  16.727 -0.4857 -0.2097  0.0508
  396MPD2    C4 5970   3.936   2.883  16.688 -0.1453  0.3063  0.5104
  396MPD2    C5 5971   3.862   2.812  16.775  0.4410  0.0829  0.6704
  396MPD2     H 5972   4.214   2.900  16.878  0.3431 -2.6423 -0.8233
  396MPD2    H1 5973   3.895   2.919  16.594 -3.0085 -0.6664  1.3893
  396MPD2    H2 5974   3.831   2.724  16.962 -1.5657  3.9239  1.4875
  396MPD2    H3 5975   3.762   2.780  16.749  0.3124 -0.2637  1.5593
  396MPD2     N 5976   4.139   3.013  16.644  0.0576 -0.8008  0.1678
  396MPD2    H5 5977   4.228   3.039  16.686 -0.0375  1.8410 -1.2123
  396MPD2    N1 5978   4.085   2.758  17.059 -0.2116  0.2740 -0.1202
  396MPD2    H7 5979   4.024   2.719  17.131 -0.8231  2.6144  0.6405
  397TMC3    C1 5980   4.228   2.694  17.227 -0.5805 -0.3016 -0.0380
  397TMC3    C2 5981   4.351   2.631  17.250 -0.2821  0.0541 -0.5141
  397TMC3    C3 5982   4.345   2.508  17.314 -0.6018  0.4616  0.1208
  397TMC3    C4 5983   4.116   2.639  17.289  0.4369  0.4954  0.0969
  397TMC3    C5 5984   4.120   2.527  17.370  0.1971 -0.1020 -0.6794
  397TMC3    C6 5985   4.239   2.458  17.374  0.0465 -0.0188 -0.4496
  397TMC3     C 5986   4.216   2.747  17.093  0.0136  0.5309 -0.3831
  397TMC3     O 5987   4.314   2.765  17.023 -0.3332 -0.1988 -0.1627
  397TMC3     H 5988   4.432   2.659  17.183  0.6324  2.0290  1.4169
  397TMC3    H1 5989   4.030   2.703  17.306  2.2226  2.2414  2.4619
  397TMC3    H2 5990   4.251   2.361  17.421 -0.1920  0.2674  0.2007
  397TMC3    C7 5991   4.000   2.449  17.357  0.1248 -0.0367 -0.2030
  397TMC3    C8 5992   4.416   2.408  17.247 -0.0505 -0.5914  1.0173
  397TMC3    O1 5993   3.921   2.500  17.275  0.1140 -0.3581  0.0206
  397TMC3    O2 5994   4.351   2.306  17.234 -0.2966 -0.1714  0.2747
  398MPD2     C 5995   2.359   4.053  17.561 -0.9270 -0.2180  0.1890
  398MPD2    C1 5996   2.411   3.988  17.671  0.2166 -0.3959 -0.6328
  398MPD2    C2 5997   2.447   4.055   0.040  0.2564  0.3060 -0.1636
  398MPD2    C3 5998   2.434   4.194   0.047 -0.4647 -0.1911  0.6817
  398MPD2    C4 5999   2.370   4.256  17.687  0.1733  0.3368 -0.0583
  398MPD2    C5 6000   2.338   4.185  17.574 -0.1955  0.3878 -0.6056
  398MPD2     H 6001   2.499   3.999   0.117 -0.3088  0.5891  0.4221
  398MPD2    H1 6002   2.367   4.362  17.668 -0.6845  0.3718  0.2699
  398MPD2    H2 6003   2.331   4.011  17.464 -3.1628 -1.7429  1.4825
  398MPD2    H3 6004   2.295   4.244  17.493 -0.7072 -0.3763 -0.8955
  398MPD2     N 6005   2.495   4.263   0.156 -0.4648  0.6017  0.0181
  398MPD2    H5 6006   2.535   4.207   0.230 -1.1297  0.1204  0.0144
  398MPD2    N1 6007   2.424   3.851  17.677 -0.3069 -0.2570  0.2340
  398MPD2    H7 6008   2.471   3.812   0.012 -0.3326 -0.2115  0.2712
  399TMC3    C1 6009   2.398   3.619  17.627 -0.0921  0.3696  0.3906
  399TMC3    C2 6010   2.380   3.526  17.529  0.0742  0.5049 -0.0519
  399TMC3    C3 6011   2.337   3.400  17.563  0.0111  0.5196  0.9297
  399TMC3    C4 6012   2.375   3.601   0.016  0.1918 -0.4528 -0.2211
  399TMC3    C5 6013   2.329   3.471   0.039  0.0914 -0.2467  1.0363
  399TMC3    C6 6014   2.320   3.365  17.699 -0.2695  0.2595  1.2999
  399TMC3     C 6015   2.374   3.761  17.579 -0.8027  0.0234 -0.7390
  399TMC3     O 6016   2.321   3.769  17.469 -0.1630  0.2928  0.4566
  399TMC3     H 6017   2.384   3.556  17.425  0.7737  0.8569  0.0705
  399TMC3    H1 6018   2.377   3.676   0.094 -0.6081  0.7209 -1.3259
  399TMC3    H2 6019   2.291   3.270  17.741  3.2392 -0.3797  2.3097
  399TMC3    C7 6020   2.316   3.433   0.177 -0.0915  0.1049 -0.2950
  399TMC3    C8 6021   2.377   3.280  17.495  0.2219  0.0163 -0.9395
  399TMC3    O1 6022   2.395   3.475   0.262  0.4102 -0.1330  0.4210
  399TMC3    O2 6023   2.345   3.172  17.542  0.2038 -0.0418  0.8181
  400TMC3    C1 6024   1.117   2.550  16.726  0.2263  0.0655  0.6924
  400TMC3    C2 6025   1.030   2.504  16.634 -0.0394  0.2848 -0.0098
  400TMC3    C3 6026   0.913   2.575  16.607 -0.3191  0.3091  0.5406
  400TMC3    C4 6027   1.092   2.672  16.789 -0.0772 -0.5517  0.6189
  400TMC3    C5 6028   0.974   2.739  16.755  0.2394 -0.3219  0.1437
  400TMC3    C6 6029   0.889   2.696  16.659 -0.5208 -0.4338 -0.1355
  400TMC3     C 6030   1.147   2.440  16.815  1.3453 -0.3032  0.0826
  400TMC3     O 6031   1.091   2.333  16.795  0.2219 -0.4843  0.1955
  400TMC3     H 6032   1.055   2.422  16.567  0.7958  0.2635  0.3265
  400TMC3    H1 6033   1.138   2.710  16.880 -0.8002 -0.3408  0.8960
  400TMC3    H2 6034   0.787   2.730  16.650 -0.1217  0.9305  0.5152
  400TMC3    C7 6035   0.972   2.877  16.787 -0.2744 -0.4120 -0.3775
  400TMC3    C8 6036   0.801   2.490  16.613 -1.1186 -0.6255  0.4252
  400TMC3    O1 6037   1.083   2.930  16.797  0.1231  0.4516 -0.2321
  400TMC3    O2 6038   0.718   2.508  16.705 -0.5168  0.1720 -0.4235
  401MPD2     C 6039   3.483   0.705   0.561 -0.3572 -0.6695 -0.5645
  401MPD2    C1 6040   3.595   0.625   0.585 -0.0743 -0.0117 -0.3773
  401MPD2    C2 6041   3.579   0.490   0.552 -0.6275 -0.3393  0.0950
  401MPD2    C3 6042   3.469   0.448   0.493 -0.5410 -0.4873  0.0450
  401MPD2    C4 6043   3.361   0.526   0.468 -0.1072  0.5895 -0.5351
  401MPD2    C5 6044   3.366   0.656   0.509  0.2957  0.5768  0.0623
  401MPD2     H 6045   3.660   0.420   0.569 -0.4319 -1.0008 -3.4981
  401MPD2    H1 6046   3.268   0.486   0.430  1.0266  0.0243 -2.7427
  401MPD2    H2 6047   3.481   0.810   0.591  1.7354 -0.5792 -0.7263
  401MPD2    H3 6048   3.274   0.713   0.507 -1.3435 -2.1238 -2.8036
  401MPD2     N 6049   3.469   0.311   0.493 -0.0061  0.2028 -0.2752
  401MPD2    H5 6050   3.561   0.272   0.514  1.1266  2.0385 -1.7769
  401MPD2    N1 6051   3.722   0.661   0.647  0.2994 -0.0115 -0.2835
  401MPD2    H7 6052   3.793   0.590   0.663 -0.1103 -0.7297 -1.6209
  402TMC3    C1 6053   3.415   0.095   0.436 -0.3632  0.7044 -0.9357
  402TMC3    C2 6054   3.483   0.073   0.557 -0.7107 -0.0778  0.7074
  402TMC3    C3 6055   3.585   4.718   0.554  0.2143  0.1325 -0.6381
  402TMC3    C4 6056   3.433   0.038   0.315  0.0741 -0.0895  0.6139
  402TMC3    C5 6057   3.533   4.679   0.320  0.0910 -0.6680  0.2274
  402TMC3    C6 6058   3.616   4.655   0.433 -0.0632  0.0045 -0.3030
  402TMC3     C 6059   3.375   0.236   0.423  0.3393  0.2426  0.2334
  402TMC3     O 6060   3.294   0.275   0.343  0.1362 -0.1784 -0.0002
  402TMC3     H 6061   3.451   0.124   0.647 -0.8074 -0.3342  0.8214
  402TMC3    H1 6062   3.388   0.060   0.219  0.0518 -2.1192  0.1456
  402TMC3    H2 6063   3.698   4.585   0.423 -0.8225 -0.8969 -0.2151
  402TMC3    C7 6064   3.587   4.608   0.197 -0.3635  0.4214  0.1202
  402TMC3    C8 6065   3.697   4.732   0.645  0.9054 -0.6371  0.2279
  402TMC3    O1 6066   3.501   4.575   0.113  0.0426  0.1869 -1.0816
  402TMC3    O2 6067   3.799   4.671   0.615  0.2374 -0.4395  0.6170
  403MPD2     C 6068   2.474   2.839  13.259  0.5894  1.0034 -0.6878
  403MPD2    C1 6069   2.421   2.934  13.351 -0.0348  0.1893 -0.1505
  403MPD2    C2 6070   2.511   2.990  13.445 -0.2004  0.1874 -1.0425
  403MPD2    C3 6071   2.644   2.951  13.435 -0.1564  0.1299 -0.5812
  403MPD2    C4 6072   2.695   2.878  13.329 -0.4707 -0.7410  0.0097
  403MPD2    C5 6073   2.609   2.830  13.237  0.6188 -0.9046 -0.6250
  403MPD2     H 6074   2.480   3.047  13.532  2.9362 -0.3360  0.4356
  403MPD2    H1 6075   2.799   2.856  13.311  0.2499  2.0994  0.6357
  403MPD2    H2 6076   2.402   2.791  13.193 -0.9116  0.8412  1.0536
  403MPD2    H3 6077   2.653   2.773  13.156  0.2193  0.3594 -1.7325
  403MPD2     N 6078   2.733   3.013  13.526 -0.7428  0.0566  0.6057
  403MPD2    H5 6079   2.684   3.070  13.594 -2.2284 -0.5617  0.0704
  403MPD2    N1 6080   2.288   2.977  13.336 -0.5177  0.2745  0.5147
  403MPD2    H7 6081   2.236   2.954  13.252 -1.4587 -0.4538  1.3023
  404TMC3    C1 6082   2.120   3.119  13.371 -0.0080 -0.4109 -0.1361
  404TMC3    C2 6083   2.059   3.192  13.470  0.6152  0.2232 -0.1353
  404TMC3    C3 6084   1.990   3.298  13.425  0.0290 -0.1845  0.2852
  404TMC3    C4 6085   2.130   3.155  13.240 -0.0414 -0.1231 -0.0235
  404TMC3    C5 6086   2.038   3.248  13.203 -0.0737  0.0448  0.3378
  404TMC3    C6 6087   1.968   3.323  13.293  0.1273 -0.7440  0.1513
  404TMC3     C 6088   2.225   3.046  13.431 -0.5488  0.8274 -0.0475
  404TMC3     O 6089   2.245   3.056  13.552 -0.3090 -0.4808  0.0838
  404TMC3     H 6090   2.047   3.148  13.568  0.2968  2.4797  0.8369
  404TMC3    H1 6091   2.186   3.106  13.161 -2.9036 -1.9301 -0.9236
  404TMC3    H2 6092   1.907   3.408  13.264  0.8284 -0.8925 -1.7265
  404TMC3    C7 6093   2.050   3.308  13.076  0.1095  0.2060  0.1114
  404TMC3    C8 6094   1.906   3.367  13.517  0.1102 -0.1135  0.0788
  404TMC3    O1 6095   2.159   3.304  13.024 -0.4478  0.0944  0.3284
  404TMC3    O2 6096   1.798   3.402  13.468 -0.1138  0.3504 -0.4568
  405MPD2     C 6097   1.947   3.912  14.975  0.4160  0.8024 -0.0658
  405MPD2    C1 6098   1.839   3.930  14.890 -0.3368  0.1443  0.3233
  405MPD2    C2 6099   1.838   4.045  14.818  0.5332 -0.5898 -0.1779
  405MPD2    C3 6100   1.947   4.141  14.814 -0.1424  0.6284  0.0932
  405MPD2    C4 6101   2.062   4.113  14.887  0.6114  0.1870 -0.0823
  405MPD2    C5 6102   2.051   3.999  14.958 -0.6593 -0.2538  1.3121
  405MPD2     H 6103   1.749   4.057  14.758  0.1801 -2.2510  0.0269
  405MPD2    H1 6104   2.151   4.175  14.887  0.8167 -0.1223  1.2898
  405MPD2    H2 6105   1.954   3.829  15.045 -0.4181  0.4199 -0.4342
  405MPD2    H3 6106   2.138   3.970  15.017  1.9348  2.0840 -1.3608
  405MPD2     N 6107   1.925   4.257  14.733  0.5250  0.0182 -0.3742
  405MPD2    H5 6108   1.838   4.251  14.682 -0.2027  0.7478  0.8095
  405MPD2    N1 6109   1.720   3.847  14.892  0.3396  0.7485  0.3872
  405MPD2    H7 6110   1.645   3.868  14.827  0.5316 -1.9848 -0.6997
  406TMC3    C1 6111   1.936   4.583  14.438  0.1560  0.5814 -0.2921
  406TMC3    C2 6112   1.797   4.586  14.454 -0.3063  0.0566  0.5104
  406TMC3    C3 6113   1.741   4.534  14.566  0.2004  1.0022  0.0235
  406TMC3    C4 6114   2.005   4.519  14.534 -0.3475  0.1635 -0.4195
  406TMC3    C5 6115   1.945   4.462  14.642  0.1042  0.5101 -0.0112
  406TMC3    C6 6116   1.812   4.466  14.655  0.4631  0.2976  0.4471
  406TMC3     C 6117   1.989   4.583  14.304 -0.5836 -0.2234 -0.8582
  406TMC3     O 6118   2.090   4.516  14.282 -0.2497 -0.2383  0.1794
  406TMC3     H 6119   1.730   4.644  14.391 -0.8189  0.7653  1.7036
  406TMC3    H1 6120   2.108   4.502  14.508  0.0234 -2.2229  2.7412
  406TMC3    H2 6121   1.764   4.443  14.749  1.0599 -4.7038 -0.4996
  406TMC3    C7 6122   2.017   4.357  14.709  0.3643  0.3687 -0.3244
  406TMC3    C8 6123   1.601   4.522  14.564 -0.1288 -0.3322 -0.0238
  406TMC3    O1 6124   2.139   4.363  14.723  0.2614 -0.3429  0.1755
  406TMC3    O2 6125   1.528   4.613  14.529  0.2991  0.0494 -0.2870
  407MPD2     C 6126   0.058   1.642   9.202 -0.1255  0.2673  0.8329
  407MPD2    C1 6127   0.190   1.674   9.207  0.0935  0.4808  0.3046
  407MPD2    C2 6128   0.238   1.745   9.314  0.1250 -0.0881  0.4139
  407MPD2    C3 6129   0.163   1.759   9.427  0.5172 -0.3289  0.5779
  407MPD2    C4 6130   0.030   1.714   9.426 -0.4017  0.1041 -0.1094
  407MPD2    C5 6131   4.717   1.646   9.317 -0.1698 -0.1168  0.7356
  407MPD2     H 6132   0.342   1.775   9.318  0.7725 -2.4951  1.4515
  407MPD2    H1 6133   4.713   1.718   9.521  0.6552 -0.4789  0.5173
  407MPD2    H2 6134   0.012   1.587   9.121  1.4837 -0.3745  0.3538
  407MPD2    H3 6135   4.619   1.598   9.317 -0.7636  1.0714  1.7172
  407MPD2     N 6136   0.210   1.822   9.546  0.1495  0.8612  0.3574
  407MPD2    H5 6137   0.143   1.855   9.615 -2.4579 -1.8940 -0.8510
  407MPD2    N1 6138   0.275   1.646   9.098  0.4554  0.7434 -0.6202
  407MPD2    H7 6139   0.364   1.692   9.111 -0.3128  2.5790 -1.8377
  408TMC3    C1 6140   0.386   1.564   8.915 -0.4963 -0.0097  0.3413
  408TMC3    C2 6141   0.433   1.445   8.864  0.6883 -0.2138  0.0863
  408TMC3    C3 6142   0.544   1.454   8.782 -0.4861 -0.5033  0.1112
  408TMC3    C4 6143   0.443   1.689   8.897 -0.3066 -0.2624 -0.3393
  408TMC3    C5 6144   0.549   1.698   8.807 -0.1587 -0.6806 -0.4627
  408TMC3    C6 6145   0.600   1.576   8.754 -0.7012 -0.0198  0.0203
  408TMC3     C 6146   0.269   1.551   9.005  0.3472 -0.1395  0.1869
  408TMC3     O 6147   0.189   1.462   8.991 -0.1132  0.3300  0.3121
  408TMC3     H 6148   0.384   1.351   8.888 -1.1520  0.9694  0.9418
  408TMC3    H1 6149   0.398   1.778   8.941  0.0659 -0.2339 -0.0100
  408TMC3    H2 6150   0.682   1.571   8.682 -1.8876  1.3535 -1.4129
  408TMC3    C7 6151   0.642   1.806   8.816 -0.2154 -0.1403  0.0955
  408TMC3    C8 6152   0.629   1.341   8.807 -0.3039 -0.4404  0.6297
  408TMC3    O1 6153   0.756   1.778   8.785  0.2431 -0.4015  0.0642
  408TMC3    O2 6154   0.573   1.236   8.847 -0.3923 -0.0118 -0.2616
  409MPD2     C 6155   4.223   1.675  16.916 -0.6671 -0.0449 -0.3117
  409MPD2    C1 6156   4.357   1.640  16.917 -0.1303 -0.2019  0.8406
  409MPD2    C2 6157   4.451   1.728  16.869  0.2384  0.4962 -0.3158
  409MPD2    C3 6158   4.415   1.852  16.821 -0.0002 -0.0881  0.0289
  409MPD2    C4 6159   4.280   1.886  16.813 -0.0638  0.0991  0.7716
  409MPD2    C5 6160   4.189   1.796  16.863  0.0768 -1.5838 -0.4413
  409MPD2     H 6161   4.554   1.694  16.867  0.1154 -0.0337  2.3703
  409MPD2    H1 6162   4.254   1.980  16.767 -1.3326  0.7725  2.8354
  409MPD2    H2 6163   4.141   1.621  16.962 -0.1974 -0.4314  0.0776
  409MPD2    H3 6164   4.085   1.828  16.865  1.0381  1.6048 -1.0070
  409MPD2     N 6165   4.504   1.943  16.771 -0.2603  0.3098  0.7361
  409MPD2    H5 6166   4.468   2.019  16.715 -3.5014 -1.3935  0.5547
  409MPD2    N1 6167   4.397   1.510  16.973 -0.0662  0.5889  0.0517
  409MPD2    H7 6168   4.493   1.477  16.964 -0.2894 -0.0692  0.1446
  410TMC3    C1 6169   4.715   2.055  16.764  0.3357  0.4948  0.1857
  410TMC3    C2 6170   0.069   2.099  16.846  0.4469  0.1766  0.3970
  410TMC3    C3 6171   0.171   2.179  16.793 -0.2805 -0.4864  0.0701
  410TMC3    C4 6172   4.708   2.107  16.639  0.1640  0.2617  0.6221
  410TMC3    C5 6173   0.056   2.203  16.593 -0.2398  0.0604 -0.5255
  410TMC3    C6 6174   0.163   2.244  16.671 -0.5741  0.6873  0.5813
  410TMC3     C 6175   4.637   1.942  16.805  0.4588 -0.1040 -0.5590
  410TMC3     O 6176   4.684   1.888  16.904 -0.1740 -0.8055  0.0975
  410TMC3     H 6177   0.060   2.074  16.951  1.3404  0.4259  0.5309
  410TMC3    H1 6178   4.623   2.076  16.578 -0.8446  0.9447  1.6741
  410TMC3    H2 6179   0.230   2.322  16.639  1.1763 -1.6239 -1.3681
  410TMC3    C7 6180   0.066   2.214  16.446  0.1995  0.1700 -0.2618
  410TMC3    C8 6181   0.298   2.201  16.873  0.2837  0.3815  0.2359
  410TMC3    O1 6182   0.041   2.116  16.382 -0.2199 -0.3533  0.6546
  410TMC3    O2 6183   0.361   2.305  16.857  0.6891 -0.1250  0.0513
  411MPD2     C 6184   0.116   2.438  14.517  0.8877  0.7299  0.0972
  411MPD2    C1 6185   4.718   2.480  14.504 -0.4848  0.0606 -0.2892
  411MPD2    C2 6186   4.629   2.400  14.430 -0.0403  0.2567 -0.6385
  411MPD2    C3 6187   4.674   2.281  14.362  1.3355  1.3936 -0.1591
  411MPD2    C4 6188   0.072   2.249  14.380  0.1050 -0.1169 -0.9185
  411MPD2    C5 6189   0.155   2.326  14.458 -0.6984 -0.6831 -0.1311
  411MPD2     H 6190   4.523   2.424  14.433  0.0347  0.5109 -0.1037
  411MPD2    H1 6191   0.122   2.183  14.310  0.6746  2.2700 -2.7712
  411MPD2    H2 6192   0.183   2.492  14.583  1.3793 -0.3208  0.4490
  411MPD2    H3 6193   0.260   2.301  14.472 -1.1881 -2.0434  1.1218
  411MPD2     N 6194   4.592   2.201  14.271  0.4270 -0.4378 -0.1791
  411MPD2    H5 6195   4.626   2.117  14.225  2.3808  0.1456  0.2167
  411MPD2    N1 6196   4.673   2.601  14.576  0.0101 -0.3771  0.1035
  411MPD2    H7 6197   4.579   2.630  14.550 -0.7473 -1.8230  1.2423
  412TMC3    C1 6198   4.397   2.125  14.160  0.0994 -0.1367 -0.7489
  412TMC3    C2 6199   4.274   2.074  14.181  0.3999 -0.5630 -0.3866
  412TMC3    C3 6200   4.208   2.027  14.069 -0.0022  1.0865 -0.2421
  412TMC3    C4 6201   4.442   2.142  14.031  0.4863  0.6604  0.2467
  412TMC3    C5 6202   4.371   2.098  13.931  0.8896 -0.0329 -0.0527
  412TMC3    C6 6203   4.260   2.025  13.946  0.0498  0.2475  0.6289
  412TMC3     C 6204   4.456   2.215  14.256 -0.4002  0.5307  0.1936
  412TMC3     O 6205   4.378   2.269  14.330  0.0901 -0.2637  0.2158
  412TMC3     H 6206   4.223   2.087  14.276 -0.9337  1.5952 -1.3980
  412TMC3    H1 6207   4.522   2.213  14.016  0.5541  0.5861  0.2569
  412TMC3    H2 6208   4.211   1.974  13.864  1.8923  1.1635 -1.0405
  412TMC3    C7 6209   4.352   2.174  13.806  0.0267 -0.0057 -0.0259
  412TMC3    C8 6210   4.071   2.071  14.060 -0.5884 -0.3503  0.1315
  412TMC3    O1 6211   4.239   2.185  13.759  0.3579 -0.0048 -0.2918
  412TMC3    O2 6212   3.988   2.040  14.150 -0.2676 -0.5906  0.7305
  413MPD2     C 6213   1.909   1.113  15.019  0.7062  0.4790  0.3826
  413MPD2    C1 6214   1.784   1.078  14.969  0.3938  0.1634 -0.9870
  413MPD2    C2 6215   1.755   0.941  14.962  0.5596  0.5209  0.6150
  413MPD2    C3 6216   1.852   0.844  14.969 -0.1428 -0.1450  0.8340
  413MPD2    C4 6217   1.974   0.881  15.026  0.4634  0.5149 -0.9004
  413MPD2    C5 6218   1.997   1.014  15.047  0.5211  0.4694  0.1647
  413MPD2     H 6219   1.656   0.907  14.933  1.6228 -0.8235 -1.4641
  413MPD2    H1 6220   2.052   0.810  15.048  0.7177  0.2961 -2.4731
  413MPD2    H2 6221   1.933   1.218  15.024  0.5497  0.4237  2.5572
  413MPD2    H3 6222   2.088   1.051  15.094 -0.9535  0.8946  2.6856
  413MPD2     N 6223   1.809   0.711  14.937 -0.4638  0.3880  0.1745
  413MPD2    H5 6224   1.710   0.694  14.923 -0.9106  0.8415  2.8786
  413MPD2    N1 6225   1.693   1.183  14.937  0.7585  0.2595  0.5872
  413MPD2    H7 6226   1.728   1.277  14.921 -1.9205  1.1716  0.0348
  414TMC3    C1 6227   1.821   0.476  14.881  0.5646 -0.0617 -0.1661
  414TMC3    C2 6228   1.718   0.455  14.966  0.3495 -0.6152  0.0053
  414TMC3    C3 6229   1.664   0.325  14.954  1.1204  0.2229  0.9628
  414TMC3    C4 6230   1.884   0.385  14.804 -0.5320  0.4227 -0.6829
  414TMC3    C5 6231   1.824   0.261  14.794 -0.4481 -0.3278  0.3145
  414TMC3    C6 6232   1.709   0.232  14.862  0.2595  0.5471 -0.6335
  414TMC3     C 6233   1.890   0.602  14.911 -0.3203 -0.6459  0.1028
  414TMC3     O 6234   2.008   0.604  14.872 -0.2318 -1.0655 -0.5442
  414TMC3     H 6235   1.681   0.535  15.029 -0.1020 -0.5982 -0.2762
  414TMC3    H1 6236   1.965   0.410  14.736  0.3834 -0.7571 -0.0083
  414TMC3    H2 6237   1.679   0.129  14.874  1.2896  0.2419 -0.6838
  414TMC3    C7 6238   1.914   0.159  14.797  0.4159  0.3803  0.2743
  414TMC3    C8 6239   1.627   0.263  15.082  0.1438  0.4241  0.5426
  414TMC3    O1 6240   1.881   0.059  14.743  0.2499  0.0627  0.3614
  414TMC3    O2 6241   1.577   0.151  15.080  0.5809  0.5911  0.5295
  415TMC3    C1 6242   2.546   3.671  10.048 -0.4713 -0.0241  0.5999
  415TMC3    C2 6243   2.641   3.753   9.999 -0.6914  0.0008  0.0213
  415TMC3    C3 6244   2.672   3.736   9.864  0.2748 -0.3953  0.2762
  415TMC3    C4 6245   2.490   3.568   9.979  0.0819  0.8134  0.4925
  415TMC3    C5 6246   2.538   3.546   9.856 -0.2252  0.3416  0.4046
  415TMC3    C6 6247   2.627   3.624   9.797 -0.5837 -0.3665 -1.0213
  415TMC3     C 6248   2.522   3.671  10.191  0.2898 -0.0600  0.6698
  415TMC3     O 6249   2.447   3.581  10.227  0.2623 -0.0194  0.4912
  415TMC3     H 6250   2.673   3.842  10.053  1.8811 -0.3035 -0.9848
  415TMC3    H1 6251   2.401   3.514  10.008 -0.1816  0.5841 -0.7267
  415TMC3    H2 6252   2.652   3.609   9.693  0.0224  0.0620 -0.9428
  415TMC3    C7 6253   2.452   3.462   9.766 -0.2396 -0.5340  0.0946
  415TMC3    C8 6254   2.755   3.821   9.784  0.2663  0.8963 -0.4740
  415TMC3    O1 6255   2.444   3.490   9.647  0.8072 -0.5191  0.3973
  415TMC3    O2 6256   2.745   3.809   9.663 -0.6451  0.0934 -0.2228
  416MPD2     C 6257   3.118   2.984  11.931 -0.0621  0.1158 -0.0706
  416MPD2    C1 6258   3.196   2.982  11.818  0.0323  0.1411 -0.1717
  416MPD2    C2 6259   3.231   2.863  11.754 -0.1594 -0.0669 -0.4445
  416MPD2    C3 6260   3.185   2.741  11.808  0.2452 -0.1263 -0.3370
  416MPD2    C4 6261   3.102   2.743  11.912  0.4192 -0.1786 -0.2378
  416MPD2    C5 6262   3.062   2.864  11.969 -0.2169 -0.2966 -0.0765
  416MPD2     H 6263   3.300   2.861  11.671 -0.0187  2.0538 -0.3600
  416MPD2    H1 6264   3.055   2.650  11.943  0.4715 -0.3722 -0.7277
  416MPD2    H2 6265   3.089   3.074  11.984  1.8521  1.6007 -1.5494
  416MPD2    H3 6266   3.000   2.858  12.058 -0.5199 -3.8168 -0.5161
  416MPD2     N 6267   3.249   2.628  11.764 -0.0325 -0.0728 -0.6786
  416MPD2    H5 6268   3.301   2.637  11.677 -0.5423 -2.7235 -1.2370
  416MPD2    N1 6269   3.246   3.108  11.785 -0.5752 -0.3322  0.0650
  416MPD2    H7 6270   3.220   3.193  11.835 -0.4783 -0.6393  0.6375
  417TMC3    C1 6271   3.385   3.252  11.666  0.1373  0.3711 -0.5405
  417TMC3    C2 6272   3.418   3.309  11.785 -0.1173  0.7082  0.3056
  417TMC3    C3 6273   3.486   3.427  11.773 -0.2126  0.0161 -0.7458
  417TMC3    C4 6274   3.429   3.303  11.543  0.0489 -0.0895 -0.7437
  417TMC3    C5 6275   3.487   3.422  11.543 -0.4885 -0.1158  0.2312
  417TMC3    C6 6276   3.517   3.489  11.655  0.4177  0.7409 -0.2979
  417TMC3     C 6277   3.310   3.124  11.663  0.4114  0.2357  0.3093
  417TMC3     O 6278   3.302   3.061  11.559 -0.0589  0.8202  0.7031
  417TMC3     H 6279   3.388   3.266  11.880 -1.2045  0.0451 -0.3355
  417TMC3    H1 6280   3.425   3.251  11.448 -0.8538 -1.0344 -0.1900
  417TMC3    H2 6281   3.569   3.584  11.651  1.5520  0.2760  3.3388
  417TMC3    C7 6282   3.522   3.483  11.418 -0.0664  0.3538  0.1244
  417TMC3    C8 6283   3.524   3.489  11.897  0.9550 -0.1024 -0.3647
  417TMC3    O1 6284   3.604   3.569  11.421 -0.2503 -0.0880  0.1945
  417TMC3    O2 6285   3.518   3.414  11.992 -0.5077  0.5523 -0.2051
  418TMC3    C1 6286   2.775   4.566   0.310 -1.3272  0.1944 -0.3926
  418TMC3    C2 6287   2.651   4.556   0.254 -0.8511  0.4399  0.0058
  418TMC3    C3 6288   2.584   4.442   0.266  0.2669  1.2430 -0.3715
  418TMC3    C4 6289   2.819   4.467   0.401 -0.4167  0.0397 -0.0972
  418TMC3    C5 6290   2.729   4.371   0.428 -0.0177 -0.3834  0.2010
  418TMC3    C6 6291   2.614   4.353   0.360 -0.0608 -0.4647 -0.0389
  418TMC3     C 6292   2.871   4.612   0.213 -0.1939 -0.1997  0.0093
  418TMC3     O 6293   2.904   4.729   0.211 -0.5289 -0.5271 -0.9221
  418TMC3     H 6294   2.633   4.634   0.181  0.7831  3.1849  2.5851
  418TMC3    H1 6295   2.921   4.464   0.437 -0.3669 -2.4693 -0.4734
  418TMC3    H2 6296   2.553   4.266   0.380  0.9181 -0.8791  1.1553
  418TMC3    C7 6297   2.773   4.261   0.510 -0.5277 -0.8291 -0.4252
  418TMC3    C8 6298   2.504   4.402   0.158  0.2788 -0.0851 -0.4601
  418TMC3    O1 6299   2.743   4.147   0.476  0.2784 -0.7696 -0.4323
  418TMC3    O2 6300   2.474   4.487   0.077  0.3668  0.1793  0.1648
  419MPD2     C 6301   0.639   2.216  12.315  0.5421 -0.4192  0.0938
  419MPD2    C1 6302   0.643   2.350  12.305 -0.9570  0.2227 -0.0218
  419MPD2    C2 6303   0.565   2.423  12.393  0.3942  0.1598 -0.1232
  419MPD2    C3 6304   0.489   2.359  12.487 -0.4816  0.5700 -0.2383
  419MPD2    C4 6305   0.480   2.221  12.486  0.1119 -0.8912  0.1076
  419MPD2    C5 6306   0.565   2.150  12.414  0.3612  0.0843 -0.8728
  419MPD2     H 6307   0.572   2.531  12.391 -0.8438  0.2491  0.0596
  419MPD2    H1 6308   0.415   2.169  12.556  1.9035 -2.3685  0.6761
  419MPD2    H2 6309   0.702   2.156  12.251 -1.5207  0.5223 -2.7861
  419MPD2    H3 6310   0.557   2.042  12.408  0.6646  0.0713 -1.0576
  419MPD2     N 6311   0.421   2.437  12.583  0.0860 -0.2482 -0.0447
  419MPD2    H5 6312   0.419   2.536  12.564  1.7848 -0.4522 -1.2486
  419MPD2    N1 6313   0.738   2.425  12.224  0.7567 -0.4349 -0.4203
  419MPD2    H7 6314   0.724   2.525  12.226  1.5953 -0.2768 -2.3128
  420TMC3    C1 6315   0.310   2.488  12.789  0.7310 -0.3790  0.1435
  420TMC3    C2 6316   0.269   2.616  12.744  0.1991  0.1036 -0.1091
  420TMC3    C3 6317   0.223   2.709  12.842 -0.6047 -0.3015 -0.0351
  420TMC3    C4 6318   0.318   2.455  12.918 -0.2012 -0.3080 -0.1115
  420TMC3    C5 6319   0.270   2.539  13.011 -0.1454 -0.7044  1.0870
  420TMC3    C6 6320   0.227   2.667  12.979  0.7158 -0.0279  0.0088
  420TMC3     C 6321   0.371   2.391  12.699  0.0316  0.3354 -0.1940
  420TMC3     O 6322   0.391   2.285  12.753  0.0848  0.3220 -0.2629
  420TMC3     H 6323   0.266   2.648  12.641  0.1344  3.5970  0.9783
  420TMC3    H1 6324   0.364   2.362  12.950  0.6197 -0.2923 -1.2690
  420TMC3    H2 6325   0.189   2.726  13.061 -0.8275  1.1794 -1.5510
  420TMC3    C7 6326   0.314   2.520  13.152 -0.1424  0.3170 -0.9527
  420TMC3    C8 6327   0.221   2.847  12.800 -0.2008 -0.2513  0.2173
  420TMC3    O1 6328   0.425   2.470  13.169 -0.6840  0.7742  0.1386
  420TMC3    O2 6329   0.216   2.876  12.685  0.0760  0.0049 -0.3114
  421TMC3    C1 6330   2.923   3.107  13.621  0.0369 -0.1399  1.0562
  421TMC3    C2 6331   2.869   3.233  13.635  0.1620  0.1374  0.2270
  421TMC3    C3 6332   2.926   3.314  13.732  0.4345  0.0134  0.3056
  421TMC3    C4 6333   3.022   3.061  13.696 -0.0525  0.0406  0.3276
  421TMC3    C5 6334   3.085   3.144  13.786 -0.0902 -0.6576  0.4285
  421TMC3    C6 6335   3.035   3.272  13.805  0.5461  0.0149  0.4977
  421TMC3     C 6336   2.870   3.018  13.520 -0.8689  0.6374 -0.3679
  421TMC3     O 6337   2.947   2.962  13.439 -0.0603 -0.1399  0.1883
  421TMC3     H 6338   2.790   3.260  13.567 -0.2499 -0.0023  0.6474
  421TMC3    H1 6339   3.065   2.962  13.686 -1.3773 -0.5495  0.5605
  421TMC3    H2 6340   3.075   3.346  13.874 -0.7107  0.6290  0.5657
  421TMC3    C7 6341   3.209   3.120  13.855  0.0158 -0.1735 -0.1700
  421TMC3    C8 6342   2.927   3.453  13.701 -0.1439 -0.1411  0.3364
  421TMC3    O1 6343   3.250   3.214  13.922  0.0127 -0.1701  0.0965
  421TMC3    O2 6344   3.028   3.517  13.717 -0.0300  0.1424 -0.3922
  422TMC3    C1 6345   4.368   1.204  12.071  0.4943  0.7608  0.3113
  422TMC3    C2 6346   4.449   1.311  12.075  0.0380 -0.3615 -0.9907
  422TMC3    C3 6347   4.451   1.380  12.184  0.2248 -0.3467  0.1783
  422TMC3    C4 6348   4.288   1.168  12.172 -0.3635  0.2179  0.3693
  422TMC3    C5 6349   4.286   1.245  12.285  0.0364  0.4706 -0.8158
  422TMC3    C6 6350   4.368   1.355  12.287 -0.8426 -1.1533 -0.6995
  422TMC3     C 6351   4.338   1.160  11.940  0.0991  0.4444  0.1529
  422TMC3     O 6352   4.365   1.235  11.848 -0.2590  0.6552  0.0719
  422TMC3     H 6353   4.512   1.344  11.993 -0.7504  0.4673 -1.2604
  422TMC3    H1 6354   4.233   1.074  12.170 -0.7326  0.4751 -2.1367
  422TMC3    H2 6355   4.357   1.421  12.372  0.7345  0.1836 -1.5280
  422TMC3    C7 6356   4.240   1.198  12.416 -0.1198  0.1631 -0.1027
  422TMC3    C8 6357   4.542   1.488  12.209 -0.1131 -0.7318 -0.5866
  422TMC3    O1 6358   4.291   1.252  12.514  0.1629  0.1914 -0.0346
  422TMC3    O2 6359   4.553   1.510  12.327 -0.1889  0.2182 -0.0909
  423MPD2     C 6360   1.422   1.146   0.486  0.2294 -0.1692 -0.0690
  423MPD2    C1 6361   1.560   1.159   0.512  0.0046  0.0901 -0.3871
  423MPD2    C2 6362   1.638   1.174   0.400 -0.2328  0.2270 -0.5920
  423MPD2    C3 6363   1.586   1.156   0.274  0.2481  0.7313  0.3992
  423MPD2    C4 6364   1.453   1.151   0.252 -0.3297  0.0750  0.5455
  423MPD2    C5 6365   1.372   1.156   0.364  0.5623  0.0813 -0.2979
  423MPD2     H 6366   1.745   1.192   0.405  0.2075 -2.2429 -0.9015
  423MPD2    H1 6367   1.403   1.147   0.156  1.7588 -4.2242 -0.3696
  423MPD2    H2 6368   1.351   1.138   0.567  0.0290  2.7315  0.0208
  423MPD2    H3 6369   1.264   1.158   0.367  0.5568  2.5301 -2.9540
  423MPD2     N 6370   1.665   1.143   0.158 -0.2978  0.0319 -0.1288
  423MPD2    H5 6371   1.614   1.148   0.071  0.4012  1.2176 -0.4785
  423MPD2    N1 6372   1.605   1.157   0.647 -0.2952  0.2339  0.2034
  423MPD2    H7 6373   1.535   1.151   0.721  0.7678 -0.0066  1.1999
  424TMC3    C1 6374   1.737   1.222   0.835 -0.5363 -0.2762  0.1397
  424TMC3    C2 6375   1.849   1.182   0.901 -0.2720 -0.2921  0.1258
  424TMC3    C3 6376   1.841   1.168   1.035  0.4897  0.0337 -0.0162
  424TMC3    C4 6377   1.614   1.250   0.895  0.8287 -0.0575 -0.4767
  424TMC3    C5 6378   1.612   1.246   1.027  0.0198 -0.3812  0.1490
  424TMC3    C6 6379   1.724   1.194   1.100 -0.0036 -0.2798 -0.7635
  424TMC3     C 6380   1.735   1.188   0.689 -0.7482  0.2092 -0.0568
  424TMC3     O 6381   1.844   1.184   0.636  0.2721  0.4495  0.3577
  424TMC3     H 6382   1.938   1.148   0.850 -1.1685 -2.1412 -0.2000
  424TMC3    H1 6383   1.530   1.282   0.833  1.0912  0.5108 -0.5458
  424TMC3    H2 6384   1.723   1.199   1.208  0.2920 -0.2774 -0.7598
  424TMC3    C7 6385   1.497   1.294   1.105  0.2277  0.9693  0.2462
  424TMC3    C8 6386   1.940   1.088   1.100  0.7743  0.6410  0.4973
  424TMC3    O1 6387   1.518   1.354   1.209  0.0736 -0.2595 -0.3757
  424TMC3    O2 6388   1.983   0.998   1.031 -0.1403 -0.6118  0.5777
  425MPD2     C 6389   0.272   0.897  16.775 -0.2996  0.8309 -0.8036
  425MPD2    C1 6390   0.323   0.849  16.894 -0.0605  0.2895  0.0502
  425MPD2    C2 6391   0.238   0.855  17.004  0.1831  0.5770 -0.1911
  425MPD2    C3 6392   0.111   0.911  16.995  0.0701  1.4396  0.0271
  425MPD2    C4 6393   0.068   0.973  16.879  0.3916 -0.4777  0.0137
  425MPD2    C5 6394   0.143   0.955  16.766  0.1978  0.2674  0.2376
  425MPD2     H 6395   0.266   0.811  17.099 -1.9649 -0.2627  0.0467
  425MPD2    H1 6396   4.713   1.030  16.875  0.7463  0.2016  1.3530
  425MPD2    H2 6397   0.328   0.888  16.682 -1.0871 -1.6931 -1.0233
  425MPD2    H3 6398   0.106   0.987  16.669  1.0524  1.7654  0.3994
  425MPD2     N 6399   0.035   0.902  17.114 -0.2236 -0.4101 -0.4729
  425MPD2    H5 6400   0.075   0.857  17.196 -2.9584 -1.3064  0.3598
  425MPD2    N1 6401   0.446   0.784  16.882  0.3023  0.3893  0.3460
  425MPD2    H7 6402   0.478   0.751  16.792  2.5028  1.8252  0.5874
  426TMC3    C1 6403   0.592   0.624  16.936 -0.4906 -0.0259 -0.0847
  426TMC3    C2 6404   0.516   0.540  16.863 -0.2369 -0.1633 -0.1351
  426TMC3    C3 6405   0.531   0.407  16.883  0.6842  0.3388  0.6885
  426TMC3    C4 6406   0.683   0.582  17.029  0.4355 -0.3326  0.1582
  426TMC3    C5 6407   0.698   0.447  17.053  0.4783  0.6914 -0.0942
  426TMC3    C6 6408   0.625   0.359  16.973 -0.3536  0.1260 -0.3273
  426TMC3     C 6409   0.517   0.734  16.987  0.1230  0.7251  0.5237
  426TMC3     O 6410   0.505   0.748  17.112  0.3555  0.4143  0.1370
  426TMC3     H 6411   0.441   0.572  16.792  0.3347  0.8460 -0.2835
  426TMC3    H1 6412   0.734   0.665  17.075 -0.1581  0.5476 -0.7664
  426TMC3    H2 6413   0.634   0.252  16.983 -0.8755 -0.0500 -1.7738
  426TMC3    C7 6414   0.777   0.396  17.160  0.0413  0.4168  0.1180
  426TMC3    C8 6415   0.490   0.309  16.789  0.2685  0.7565 -0.4769
  426TMC3    O1 6416   0.851   0.474  17.218  0.3558  1.0621  0.1910
  426TMC3    O2 6417   0.560   0.209  16.761 -0.1475 -0.2505 -0.1952
  427MPD2     C 6418   3.798   2.477  14.771 -0.9406 -0.0707 -0.1665
  427MPD2    C1 6419   3.752   2.501  14.901  0.5196  0.2688  0.0353
  427MPD2    C2 6420   3.616   2.533  14.918  0.0641  1.2000  0.4610
  427MPD2    C3 6421   3.539   2.567  14.807 -0.3911 -0.4671 -0.1553
  427MPD2    C4 6422   3.592   2.549  14.683  0.4116 -0.2904  0.4431
  427MPD2    C5 6423   3.720   2.505  14.667 -0.4265 -0.4816 -0.5916
  427MPD2     H 6424   3.574   2.540  15.018 -0.2827  2.3209  0.2355
  427MPD2    H1 6425   3.529   2.574  14.599 -1.1324  0.6317  1.8705
  427MPD2    H2 6426   3.896   2.433  14.761 -0.0919  1.6093  0.7224
  427MPD2    H3 6427   3.755   2.478  14.568  0.7069  1.2133 -0.6596
  427MPD2     N 6428   3.408   2.614  14.824 -0.4264  0.3310 -0.4476
  427MPD2    H5 6429   3.356   2.615  14.737 -0.3721 -2.4836 -0.4946
  427MPD2    N1 6430   3.827   2.489  15.019  0.2197  0.0277  1.0527
  427MPD2    H7 6431   3.773   2.493  15.105 -2.1716  1.7381 -0.5484
  428TMC3    C1 6432   4.007   2.436  15.155  0.2599  0.4264  0.1168
  428TMC3    C2 6433   3.942   2.333  15.223 -0.5135 -0.0457  0.5870
  428TMC3    C3 6434   4.020   2.248  15.301  0.2970 -0.1516  0.2913
  428TMC3    C4 6435   4.144   2.450  15.170  0.1879 -0.4023 -0.1356
  428TMC3    C5 6436   4.210   2.361  15.247  0.6225  0.0350  0.6349
  428TMC3    C6 6437   4.152   2.260  15.319 -0.5114  0.0382 -0.7528
  428TMC3     C 6438   3.962   2.479  15.027  0.1170 -0.1372  0.3445
  428TMC3     O 6439   4.042   2.513  14.941 -0.3135 -0.6988  0.3268
  428TMC3     H 6440   3.837   2.310  15.207 -0.3657  1.2795 -2.0824
  428TMC3    H1 6441   4.182   2.543  15.130 -0.7336  0.5619  1.2304
  428TMC3    H2 6442   4.211   2.179  15.362  0.1433  0.4815 -0.8215
  428TMC3    C7 6443   4.313   2.421  15.323  0.5679  0.0371 -0.0701
  428TMC3    C8 6444   3.952   2.150  15.382 -0.0021  0.2943  0.0001
  428TMC3    O1 6445   4.324   2.372  15.439  0.5563  0.0012 -0.4748
  428TMC3    O2 6446   3.831   2.164  15.399 -0.7181 -0.5819  0.0952
  429MPD2     C 6447   4.496   2.807  17.513  0.8730  0.4340  0.1603
  429MPD2    C1 6448   4.624   2.763  17.487  0.2234  0.1923  0.2385
  429MPD2    C2 6449   4.703   2.854  17.416  0.1218  1.1657  0.3672
  429MPD2    C3 6450   4.652   2.966  17.352  0.2064 -0.4592 -0.7692
  429MPD2    C4 6451   4.520   2.998  17.369 -0.5735  0.4234  0.1038
  429MPD2    C5 6452   4.443   2.919  17.451  0.4357 -0.1884  0.2283
  429MPD2     H 6453   0.069   2.829  17.394 -0.4611 -0.0135 -1.0052
  429MPD2    H1 6454   4.482   3.096  17.342  0.8875  0.1094 -3.0801
  429MPD2    H2 6455   4.426   2.754  17.577 -0.7149  2.7111  0.2969
  429MPD2    H3 6456   4.338   2.944  17.459  0.3951 -0.4299  0.4387
  429MPD2     N 6457   0.005   3.035  17.270  0.2749  0.2800  0.1129
  429MPD2    H5 6458   0.102   3.005  17.278  0.2075  0.5306  1.8277
  429MPD2    N1 6459   4.681   2.635  17.523 -0.3493 -0.5892  0.4759
  429MPD2    H7 6460   0.043   2.620  17.509  0.0555  0.4256  2.1680
  430TMC3    C1 6461   0.077   3.203  17.113 -1.1808  0.1197  0.7236
  430TMC3    C2 6462   0.031   3.306  17.028  0.5031 -0.0871  0.3542
  430TMC3    C3 6463   0.126   3.361  16.945 -0.4385 -0.0003  0.6805
  430TMC3    C4 6464   0.213   3.166  17.115 -0.2998 -0.3734 -0.0576
  430TMC3    C5 6465   0.289   3.214  17.018 -0.3010 -0.3407  0.0046
  430TMC3    C6 6466   0.252   3.316  16.937  0.2551 -0.8194 -0.5948
  430TMC3     C 6467   4.711   3.159  17.206  0.0554 -0.3467  0.2655
  430TMC3     O 6468   4.598   3.205  17.193 -0.1086  0.4915  0.0347
  430TMC3     H 6469   4.665   3.338  17.016  0.0306 -1.9418 -0.5675
  430TMC3    H1 6470   0.242   3.089  17.185 -0.5890 -0.6427 -0.2319
  430TMC3    H2 6471   0.316   3.340  16.852  1.0238 -0.6092  0.0422
  430TMC3    C7 6472   0.422   3.157  16.998 -1.1271  0.5292 -0.7261
  430TMC3    C8 6473   0.078   3.444  16.837  0.2708 -0.1776  0.0639
  430TMC3    O1 6474   0.446   3.044  17.044  0.9556 -0.6545 -0.0197
  430TMC3    O2 6475   0.141   3.542  16.810  0.7201  0.0678  0.8933
  431MPD2     C 6476   0.830   3.162  12.539  0.3235 -0.1461  0.6118
  431MPD2    C1 6477   0.936   3.174  12.450  0.4532  0.4366  0.4995
  431MPD2    C2 6478   0.942   3.092  12.338 -0.0527 -0.1518 -0.5464
  431MPD2    C3 6479   0.846   2.994  12.311  0.3317 -0.0727  0.1420
  431MPD2    C4 6480   0.731   3.008  12.389  0.5340 -0.1499  0.7344
  431MPD2    C5 6481   0.719   3.090  12.496 -0.1465  0.3793 -0.0191
  431MPD2     H 6482   1.028   3.095  12.272  1.1416 -0.2768  0.9790
  431MPD2    H1 6483   0.650   2.937  12.372  1.8140 -1.6347  0.8017
  431MPD2    H2 6484   0.828   3.217  12.633  2.1501  0.4359  0.3112
  431MPD2    H3 6485   0.627   3.093  12.554  0.0858  0.4276  0.3408
  431MPD2     N 6486   0.855   2.884  12.222  0.2499 -0.1811  0.4287
  431MPD2    H5 6487   0.770   2.829  12.214 -0.8263  1.8502 -2.2058
  431MPD2    N1 6488   1.040   3.267  12.470  0.2556 -1.1961  0.3374
  431MPD2    H7 6489   1.110   3.268  12.397 -0.6442 -1.8144 -0.5386
  432TMC3    C1 6490   0.976   2.722  12.091  0.7794  0.1145  0.3363
  432TMC3    C2 6491   1.067   2.701  11.992 -0.5191  0.8403 -0.7085
  432TMC3    C3 6492   1.079   2.571  11.951 -0.7058 -1.4538  0.2639
  432TMC3    C4 6493   0.906   2.622  12.160  0.5509  0.1952 -0.4404
  432TMC3    C5 6494   0.924   2.497  12.106  0.1983  0.5980 -0.3738
  432TMC3    C6 6495   1.006   2.468  12.001 -0.2214  0.2305 -0.8596
  432TMC3     C 6496   0.963   2.854  12.150 -0.0672 -0.2258 -0.5414
  432TMC3     O 6497   1.059   2.928  12.133 -0.1865  0.3536  0.1899
  432TMC3     H 6498   1.109   2.789  11.946 -0.2616  0.9837 -0.1993
  432TMC3    H1 6499   0.853   2.624  12.255 -0.4668  2.3416 -1.0621
  432TMC3    H2 6500   1.024   2.363  11.981 -1.8535 -0.5010  1.3951
  432TMC3    C7 6501   0.840   2.381  12.142  0.2663  0.3895  0.1010
  432TMC3    C8 6502   1.128   2.554  11.813 -0.4287 -0.2800  0.3404
  432TMC3    O1 6503   0.884   2.271  12.121 -0.3248  0.0981 -0.2946
  432TMC3    O2 6504   1.096   2.453  11.754 -0.0084 -0.4485  0.4059
  433MPD2     C 6505   4.525   1.915  10.595 -0.0513  0.4767 -0.6836
  433MPD2    C1 6506   4.662   1.936  10.604  0.4670  1.0003  0.1829
  433MPD2    C2 6507   4.716   1.949  10.730 -0.0684  1.3367 -0.3554
  433MPD2    C3 6508   4.631   1.944  10.843 -0.1991 -0.6272  0.6847
  433MPD2    C4 6509   4.497   1.926  10.825 -0.1684  0.1471  0.4343
  433MPD2    C5 6510   4.443   1.909  10.704 -0.7388 -0.2483 -0.0111
  433MPD2     H 6511   0.085   1.963  10.749  0.1495 -0.3838 -0.2326
  433MPD2    H1 6512   4.426   1.938  10.907 -0.6517  0.7367 -0.0660
  433MPD2    H2 6513   4.479   1.886  10.501 -0.0755 -1.7169 -0.0042
  433MPD2    H3 6514   4.341   1.873  10.688 -0.5733 -0.6500 -0.1651
  433MPD2     N 6515   4.696   1.964  10.966 -0.4866  0.0738  0.0164
  433MPD2    H5 6516   0.060   1.975  10.959 -0.8840  2.3961 -2.2787
  433MPD2    N1 6517   0.008   1.926  10.488 -0.4701 -0.3702 -0.6420
  433MPD2    H7 6518   4.697   1.905  10.401 -0.5888  0.0766 -0.6850
  434TMC3    C1 6519   0.176   1.789  10.405  0.2335  0.0983 -0.2137
  434TMC3    C2 6520   0.296   1.736  10.448 -0.2151 -0.3921 -0.2722
  434TMC3    C3 6521   0.319   1.601  10.472  0.1678  0.4417  0.6779
  434TMC3    C4 6522   0.079   1.700  10.372 -0.4059  0.3606 -0.2071
  434TMC3    C5 6523   0.104   1.563  10.386 -0.6174  0.1645 -0.6444
  434TMC3    C6 6524   0.217   1.516  10.444  0.0368  0.8865 -0.4638
  434TMC3     C 6525   0.139   1.896  10.499 -0.1889 -0.1553 -0.4755
  434TMC3     O 6526   0.221   1.932  10.582 -0.2986 -0.2570 -0.3120
  434TMC3     H 6527   0.384   1.799  10.457 -1.6621  1.9262 -2.2531
  434TMC3    H1 6528   4.718   1.736  10.344  0.2133  1.7244 -0.6108
  434TMC3    H2 6529   0.238   1.409  10.448  0.4665  0.9591 -0.8410
  434TMC3    C7 6530   4.735   1.472  10.365 -0.0830  0.4405 -0.2673
  434TMC3    C8 6531   0.423   1.547  10.555 -0.8801 -0.0497 -0.8848
  434TMC3    O1 6532   4.646   1.519  10.300 -0.0744 -0.3919 -0.0987
  434TMC3    O2 6533   0.395   1.465  10.641 -0.3844  0.1437 -0.5139
  435MPD2     C 6534   2.051   1.375  15.272 -0.3237  0.0341  0.1774
  435MPD2    C1 6535   2.034   1.459  15.379 -0.1666  0.2475 -0.4147
  435MPD2    C2 6536   2.116   1.446  15.490 -0.3910 -0.1650 -0.4235
  435MPD2    C3 6537   2.221   1.361  15.492  0.0514  0.0980  0.7444
  435MPD2    C4 6538   2.247   1.286  15.376  1.0137  0.0103  0.0081
  435MPD2    C5 6539   2.163   1.290  15.269 -0.9099  0.6927  0.0772
  435MPD2     H 6540   2.099   1.510  15.576  0.9391  0.1879 -0.4209
  435MPD2    H1 6541   2.331   1.220  15.361  2.1116  1.5366 -0.5308
  435MPD2    H2 6542   2.000   1.372  15.176 -1.3230 -1.1410  0.7531
  435MPD2    H3 6543   2.183   1.233  15.179 -0.1577  1.8351 -0.4697
  435MPD2     N 6544   2.294   1.343  15.607  0.1116  0.0144  0.0614
  435MPD2    H5 6545   2.255   1.394  15.686  0.7557  1.5812 -0.6193
  435MPD2    N1 6546   1.936   1.558  15.385 -0.8169 -0.0730 -0.1221
  435MPD2    H7 6547   1.944   1.631  15.455 -1.3767  1.0434 -1.2227
  436TMC3    C1 6548   1.729   1.883  15.464 -0.7615 -0.1969 -0.0595
  436TMC3    C2 6549   1.758   1.751  15.449  0.9878  0.4105 -0.5830
  436TMC3    C3 6550   1.769   1.703  15.318 -0.4185  0.5011  0.6128
  436TMC3    C4 6551   1.732   1.971  15.359  0.0625 -0.0502  0.3243
  436TMC3    C5 6552   1.758   1.919  15.235  0.1124  0.1114 -0.2465
  436TMC3    C6 6553   1.768   1.787  15.212  0.1832  0.1558  0.3435
  436TMC3     C 6554   1.786   1.942  15.583  0.2973  0.4263 -1.0670
  436TMC3     O 6555   1.907   1.954  15.589 -0.2456  0.5248  0.1319
  436TMC3     H 6556   1.789   1.698  15.538 -1.0222 -1.4968 -0.9965
  436TMC3    H1 6557   1.732   2.077  15.381  1.3047 -0.2278  1.1795
  436TMC3    H2 6558   1.763   1.751  15.110 -0.9814  2.3973 -0.3881
  436TMC3    C7 6559   1.784   2.011  15.125  0.2819 -0.8492  0.1349
  436TMC3    C8 6560   1.836   1.575  15.298 -0.5598 -0.2046 -0.6618
  436TMC3    O1 6561   1.703   2.108  15.130  0.6325  0.0650  0.8148
  436TMC3    O2 6562   1.797   1.509  15.202 -0.0795 -0.1737 -0.3455
  437TMC3    C1 6563   0.459   4.099  12.310  0.4572  0.9601 -0.6758
  437TMC3    C2 6564   0.361   4.191  12.294  0.2605  0.5429 -0.0676
  437TMC3    C3 6565   0.380   4.305  12.226 -0.4585 -0.4271  0.5569
  437TMC3    C4 6566   0.587   4.125  12.257  0.2762  1.2685  0.2728
  437TMC3    C5 6567   0.605   4.239  12.190 -0.0078 -0.8170 -0.5061
  437TMC3    C6 6568   0.501   4.329  12.173 -0.4263 -0.2958 -0.0805
  437TMC3     C 6569   0.433   3.997  12.408 -0.4457  0.8747  0.0669
  437TMC3     O 6570   0.328   3.990  12.467 -0.2908  0.7071  0.5925
  437TMC3     H 6571   0.261   4.186  12.336  0.2749  1.4208  0.0554
  437TMC3    H1 6572   0.674   4.070  12.291  2.1483  2.7612 -2.1714
  437TMC3    H2 6573   0.515   4.416  12.110 -1.5411 -0.8159 -1.0449
  437TMC3    C7 6574   0.738   4.273  12.140  0.1425  0.5478 -0.2006
  437TMC3    C8 6575   0.270   4.389  12.207 -0.4294 -0.0128 -0.2551
  437TMC3    O1 6576   0.741   4.335  12.037 -0.0056  0.2571  0.8077
  437TMC3    O2 6577   0.160   4.338  12.210 -0.2617  0.8310  0.3073
  438MPD2     C 6578   2.938   4.255  16.626 -0.5294  0.0497  1.1623
  438MPD2    C1 6579   3.029   4.173  16.687 -0.9835  0.4273 -0.3591
  438MPD2    C2 6580   3.034   4.170  16.821  0.1554 -0.2167 -0.5075
  438MPD2    C3 6581   2.941   4.235  16.902 -0.1711 -0.0015 -0.0946
  438MPD2    C4 6582   2.851   4.315  16.842 -0.8651  0.4542  0.7978
  438MPD2    C5 6583   2.850   4.329  16.703 -0.0241 -0.0155 -0.2272
  438MPD2     H 6584   3.110   4.103  16.862 -0.8453 -1.0609 -0.0313
  438MPD2    H1 6585   2.770   4.357  16.901 -0.4306  3.0500 -0.4802
  438MPD2    H2 6586   2.924   4.275  16.521  2.0819 -1.7917  0.4684
  438MPD2    H3 6587   2.775   4.390  16.655  0.0118 -2.3756 -3.2324
  438MPD2     N 6588   2.934   4.229  17.044  0.6236 -0.3369  0.3943
  438MPD2    H5 6589   2.865   4.284  17.093  0.1927  1.3674 -2.1105
  438MPD2    N1 6590   3.102   4.082  16.615  0.2930  0.4869  0.2844
  438MPD2    H7 6591   3.175   4.033  16.667 -0.3135 -0.1105  0.5795
  439TMC3    C1 6592   3.184   3.967  16.425  0.1370  0.2609 -0.5376
  439TMC3    C2 6593   3.161   3.927  16.295 -0.1224 -0.3161  0.3286
  439TMC3    C3 6594   3.245   3.834  16.234 -0.6757  0.5965 -0.1681
  439TMC3    C4 6595   3.299   3.921  16.487  0.4451  0.7871 -0.6471
  439TMC3    C5 6596   3.387   3.839  16.417 -0.0878  0.3600 -0.0686
  439TMC3    C6 6597   3.355   3.786  16.294  0.9046  0.3295 -0.5439
  439TMC3     C 6598   3.091   4.062  16.483  0.1324 -0.7810 -0.3013
  439TMC3     O 6599   3.020   4.116  16.398 -0.1739  0.2886 -0.0016
  439TMC3     H 6600   3.072   3.946  16.237 -3.2470 -2.4452  4.4435
  439TMC3    H1 6601   3.320   3.942  16.591  3.6751 -0.8944 -0.9710
  439TMC3    H2 6602   3.411   3.717  16.232  1.6545 -0.2372  0.7492
  439TMC3    C7 6603   3.494   3.777  16.499 -0.0900  0.0397  0.2190
  439TMC3    C8 6604   3.204   3.764  16.119 -0.2058 -1.1768 -0.0900
  439TMC3    O1 6605   3.510   3.818  16.611  0.5074  0.0999 -0.6200
  439TMC3    O2 6606   3.244   3.649  16.101 -0.5494  0.4218 -0.0597
  440MPD2     C 6607   1.426   4.373  14.987 -0.9020 -0.6311 -0.1285
  440MPD2    C1 6608   1.486   4.495  15.003  0.4564  0.6928 -0.1600
  440MPD2    C2 6609   1.626   4.499  15.006 -0.3919 -0.2894 -0.4439
  440MPD2    C3 6610   1.699   4.381  14.999  0.1496  0.1457 -0.2564
  440MPD2    C4 6611   1.635   4.260  14.994 -0.4317  0.4637  0.0096
  440MPD2    C5 6612   1.493   4.259  14.972  0.2550 -0.2615  0.5609
  440MPD2     H 6613   1.674   4.592  15.036  1.7422 -0.7986 -2.2823
  440MPD2    H1 6614   1.693   4.169  15.006 -0.5665  0.2248 -1.1976
  440MPD2    H2 6615   1.318   4.369  14.987 -0.8444 -1.9737 -0.6211
  440MPD2    H3 6616   1.437   4.169  14.950  2.3903 -1.1941 -1.0945
  440MPD2     N 6617   1.837   4.374  15.021  0.3669  0.0701 -0.2461
  440MPD2    H5 6618   1.875   4.280  15.022 -1.9782 -0.8949 -2.0673
  440MPD2    N1 6619   1.426   4.613  15.024 -0.3798  0.3083 -0.1495
  440MPD2    H7 6620   1.480   4.699  15.019 -1.3805  1.0918  2.2548
  441TMC3    C1 6621   2.027   4.429  15.134 -0.5096  0.3304  0.7638
  441TMC3    C2 6622   2.065   4.532  15.217 -1.4170 -0.3376  1.3542
  441TMC3    C3 6623   2.074   4.516  15.348  0.4675 -0.8289  0.2006
  441TMC3    C4 6624   2.008   4.306  15.188  0.2600 -0.2868  0.0530
  441TMC3    C5 6625   2.025   4.293  15.325 -0.1608 -0.0976 -0.3634
  441TMC3    C6 6626   2.059   4.397  15.411 -0.1326  0.1541  0.2404
  441TMC3     C 6627   1.913   4.477  15.065  0.2662 -0.0992 -0.4379
  441TMC3     O 6628   1.892   4.599  15.079  0.1253 -0.0756 -0.2645
  441TMC3     H 6629   2.078   4.631  15.175  2.6246 -1.3613  0.2900
  441TMC3    H1 6630   1.981   4.218  15.132  0.7003  0.3931 -1.2099
  441TMC3    H2 6631   2.041   4.392  15.517  2.4244 -1.5563  0.6052
  441TMC3    C7 6632   1.959   4.185  15.397  0.3010 -0.6738  0.2285
  441TMC3    C8 6633   2.026   4.631  15.433 -0.2985 -0.7681  0.0352
  441TMC3    O1 6634   2.012   4.135  15.495  0.0221  0.2930 -0.0773
  441TMC3    O2 6635   2.035   4.626  15.552 -0.2592 -0.7186  0.0445
  442MPD2     C 6636   0.289   0.434  16.208  0.4107  0.5296 -0.2186
  442MPD2    C1 6637   0.156   0.412  16.253  0.1667  0.3354 -0.5433
  442MPD2    C2 6638   0.082   0.303  16.208 -0.0219  0.2124 -0.1984
  442MPD2    C3 6639   0.136   0.223  16.109 -0.6442  0.2313  0.5154
  442MPD2    C4 6640   0.263   0.250  16.062 -0.6614 -0.6118  0.6112
  442MPD2    C5 6641   0.340   0.353  16.111 -0.4427 -0.0987  0.5904
  442MPD2     H 6642   4.717   0.289  16.244  0.0821 -1.1674 -0.4528
  442MPD2    H1 6643   0.308   0.190  15.984 -0.6276  2.3638 -1.6717
  442MPD2    H2 6644   0.351   0.512  16.249 -1.1042  1.0251  1.1330
  442MPD2    H3 6645   0.440   0.370  16.074 -0.1764 -4.3666 -0.6947
  442MPD2     N 6646   0.073   0.107  16.056  1.0067  0.2105  0.3699
  442MPD2    H5 6647   0.112   0.063  15.973 -1.7490 -1.9956  0.2470
  442MPD2    N1 6648   0.095   0.497  16.351  0.2134  0.4051 -0.0914
  442MPD2    H7 6649   0.001   0.469  16.375  0.4185 -0.2479 -0.0500
  443TMC3    C1 6650   0.056   0.672  16.503 -0.2041  0.4878 -0.2304
  443TMC3    C2 6651   4.710   0.760  16.438 -0.3700  0.1785 -0.5814
  443TMC3    C3 6652   4.595   0.804  16.497 -0.7806 -0.8563  0.0835
  443TMC3    C4 6653   0.016   0.633  16.636 -0.1087 -0.4069  0.4265
  443TMC3    C5 6654   4.640   0.687  16.695 -0.2560 -0.4505  0.5880
  443TMC3    C6 6655   4.568   0.785  16.632 -0.9142 -0.1062  0.0779
  443TMC3     C 6656   0.150   0.602  16.423 -0.1906  0.1027  0.1801
  443TMC3     O 6657   0.256   0.667  16.411  0.5894 -0.2483 -0.6900
  443TMC3     H 6658   4.725   0.769  16.331 -0.7251  0.7735 -0.5807
  443TMC3    H1 6659   0.072   0.557  16.689 -1.4677 -0.7304  1.3666
  443TMC3    H2 6660   4.471   0.812  16.673 -0.7497  2.9317 -1.5207
  443TMC3    C7 6661   4.584   0.610  16.804 -0.9877  0.9800  0.3208
  443TMC3    C8 6662   4.488   0.759  16.411  0.7527 -0.1267 -0.3656
  443TMC3    O1 6663   4.623   0.495  16.825 -0.5674  0.0278 -0.2898
  443TMC3    O2 6664   4.428   0.663  16.457  0.4202  0.4567  0.0051
  444MPD2     C 6665   0.263   4.606  16.744 -0.4466  0.5502 -0.5987
  444MPD2    C1 6666   0.182   4.493  16.738 -0.1722 -0.4168 -0.3233
  444MPD2    C2 6667   0.217   4.388  16.667  0.1401  0.2496 -0.1287
  444MPD2    C3 6668   0.336   4.382  16.597 -0.0621 -0.2868 -0.0761
  444MPD2    C4 6669   0.412   4.498  16.589  0.4282 -0.3355 -0.1415
  444MPD2    C5 6670   0.376   4.608  16.660 -0.1969  0.0989 -0.1886
  444MPD2     H 6671   0.149   4.304  16.665  0.9910 -0.4402 -0.2546
  444MPD2    H1 6672   0.493   4.511  16.519  1.2434 -0.8024  0.7060
  444MPD2    H2 6673   0.247   4.691  16.810 -0.8142  0.2759 -0.3319
  444MPD2    H3 6674   0.442   4.693  16.649  0.4483 -0.0404  2.6070
  444MPD2     N 6675   0.369   4.257  16.538  0.1550 -0.3718 -0.1685
  444MPD2    H5 6676   0.310   4.179  16.564 -1.1693 -0.1040 -2.3853
  444MPD2    N1 6677   0.079   4.472  16.825  0.2449  0.0752 -0.1578
  444MPD2    H7 6678   0.047   4.377  16.840  0.4017 -0.0616 -0.7067
  445TMC3    C1 6679   0.517   4.085  16.470 -0.3562 -0.1634  0.6870
  445TMC3    C2 6680   0.409   4.014  16.422 -0.3001  0.0149 -0.4543
  445TMC3    C3 6681   0.433   3.881  16.397 -0.1187  0.2817 -0.9355
  445TMC3    C4 6682   0.640   4.030  16.496  1.2235 -0.5206  0.2489
  445TMC3    C5 6683   0.646   3.895  16.483  0.1343 -0.0314 -0.3456
  445TMC3    C6 6684   0.542   3.820  16.446  0.6518 -0.1242  0.7685
  445TMC3     C 6685   0.498   4.226  16.500 -0.2131 -0.4132 -0.1204
  445TMC3     O 6686   0.593   4.297  16.496 -0.4518  0.1388  0.2484
  445TMC3     H 6687   0.321   4.060  16.379  0.3294  0.4205 -1.3151
  445TMC3    H1 6688   0.726   4.089  16.523  0.8983  0.2927 -0.4619
  445TMC3    H2 6689   0.568   3.718  16.421  2.3093  0.4466  0.1350
  445TMC3    C7 6690   0.774   3.848  16.443  0.1691 -0.1415  0.0405
  445TMC3    C8 6691   0.323   3.814  16.326  0.7908 -0.9732 -0.0886
  445TMC3    O1 6692   0.807   3.887  16.332  0.1966 -0.4918  0.2088
  445TMC3    O2 6693   0.232   3.879  16.289  0.0217  0.2550 -0.4211
  446MPD2     C 6694   0.122   1.477  11.241  0.7825 -0.0260 -0.2627
  446MPD2    C1 6695   0.072   1.553  11.140 -0.1228 -1.2361 -0.8196
  446MPD2    C2 6696   0.160   1.613  11.051 -0.6581 -0.3672 -0.4852
  446MPD2    C3 6697   0.300   1.591  11.058  0.5714 -0.2047  0.3207
  446MPD2    C4 6698   0.342   1.516  11.169  0.1612  0.1133  0.3226
  446MPD2    C5 6699   0.261   1.464  11.258  0.1971  0.2662  0.0606
  446MPD2     H 6700   0.126   1.692  10.984  0.2299  0.2727 -0.1847
  446MPD2    H1 6701   0.446   1.504  11.196  0.2290  0.0679  0.0393
  446MPD2    H2 6702   0.067   1.416  11.311 -1.6252  0.5779 -1.6255
  446MPD2    H3 6703   0.302   1.398  11.334 -0.9604 -1.0156 -0.4230
  446MPD2     N 6704   0.397   1.666  10.985  0.1604 -0.4465 -0.2067
  446MPD2    H5 6705   0.360   1.750  10.941 -1.9810 -1.7391 -0.8741
  446MPD2    N1 6706   4.671   1.570  11.115 -0.2951 -0.2585 -0.0271
  446MPD2    H7 6707   4.648   1.618  11.029 -2.1101 -1.0326  0.0208
  447TMC3    C1 6708   0.603   1.782  10.956 -0.2379 -0.4843 -0.0552
  447TMC3    C2 6709   0.592   1.816  10.829 -0.7197 -0.4282 -0.0968
  447TMC3    C3 6710   0.700   1.856  10.751  0.6085  0.0033  0.5039
  447TMC3    C4 6711   0.722   1.798  11.016  0.2380 -0.5620  0.4432
  447TMC3    C5 6712   0.832   1.845  10.945  0.5123 -0.5984 -1.1488
  447TMC3    C6 6713   0.823   1.882  10.808  0.1048 -0.0488  0.0719
  447TMC3     C 6714   0.536   1.652  10.990 -0.2140  0.3276  0.2007
  447TMC3     O 6715   0.609   1.555  11.022 -0.4178  0.1898  0.3385
  447TMC3     H 6716   0.498   1.798  10.778 -0.9857  0.4047  0.1011
  447TMC3    H1 6717   0.734   1.745  11.110 -1.1100 -0.9200  0.4131
  447TMC3    H2 6718   0.913   1.912  10.755  0.7438  1.6167  2.0798
  447TMC3    C7 6719   0.961   1.817  10.998 -0.3296  0.0413 -0.0817
  447TMC3    C8 6720   0.685   1.865  10.603  0.0684  0.3681  0.1197
  447TMC3    O1 6721   1.052   1.783  10.925  0.0875 -0.3083 -0.1615
  447TMC3    O2 6722   0.574   1.876  10.559 -0.3061 -0.0211  0.2912
  448TMC3    C1 6723   3.282   0.679  16.669 -0.3224  0.8264  0.2458
  448TMC3    C2 6724   3.174   0.609  16.621  0.4734 -0.0964 -0.3498
  448TMC3    C3 6725   3.138   0.492  16.678  0.1673  0.0035  0.1575
  448TMC3    C4 6726   3.362   0.632  16.771 -0.6914  0.1077 -0.0901
  448TMC3    C5 6727   3.325   0.507  16.815 -0.1032 -0.2797 -0.0860
  448TMC3    C6 6728   3.212   0.436  16.774  0.0726 -0.6509  0.3868
  448TMC3     C 6729   3.308   0.798  16.587  0.8229 -0.1346 -1.2173
  448TMC3     O 6730   3.254   0.804  16.474  0.5225  0.2754 -0.2831
  448TMC3     H 6731   3.113   0.663  16.549 -1.5116 -2.2795 -0.3150
  448TMC3    H1 6732   3.436   0.698  16.813 -0.9944 -0.2358  0.9887
  448TMC3    H2 6733   3.176   0.345  16.821 -0.3185 -0.5574  0.2651
  448TMC3    C7 6734   3.395   0.450  16.926 -0.3944 -0.1625 -0.9396
  448TMC3    C8 6735   3.054   0.397  16.600  0.5097 -0.2432  0.0531
  448TMC3    O1 6736   3.517   0.457  16.931 -0.2858 -0.7595 -0.5025
  448TMC3    O2 6737   3.019   0.293  16.653 -0.3000 -0.0312  0.0242
  449MPD2     C 6738   4.639   4.401  13.664 -0.2249  0.0828  0.5498
  449MPD2    C1 6739   4.506   4.367  13.660  0.1235  0.4723  0.1118
  449MPD2    C2 6740   4.455   4.269  13.737  0.6064  0.8249  0.5511
  449MPD2    C3 6741   4.544   4.190  13.806  0.0348 -0.7327 -0.0308
  449MPD2    C4 6742   4.681   4.205  13.802 -0.1172 -0.4798  0.3669
  449MPD2    C5 6743   4.725   4.313  13.728 -0.1078 -0.7049  0.3321
  449MPD2     H 6744   4.350   4.245  13.743  0.2558  2.2294 -0.2118
  449MPD2    H1 6745   0.008   4.126  13.839 -0.9787 -0.7469  1.2824
  449MPD2    H2 6746   4.675   4.476  13.594 -2.1851 -0.6694 -1.2553
  449MPD2    H3 6747   0.096   4.317  13.716 -0.3590  2.1867 -0.9537
  449MPD2     N 6748   4.486   4.077  13.874  0.4897  0.6080 -0.0011
  449MPD2    H5 6749   4.388   4.069  13.849  0.4577 -0.9173  0.5781
  449MPD2    N1 6750   4.412   4.440  13.579 -0.0622  0.3762 -0.1059
  449MPD2    H7 6751   4.316   4.408  13.590 -1.0231  3.2685 -0.0980
  450TMC3    C1 6752   4.299   4.577  13.433 -1.1663  0.2798 -0.4349
  450TMC3    C2 6753   4.303   4.577  13.300 -0.0787 -0.1197  0.4724
  450TMC3    C3 6754   4.196   4.515  13.238  0.1178  0.4899 -1.0796
  450TMC3    C4 6755   4.187   4.530  13.505  0.2816 -0.2704 -0.5959
  450TMC3    C5 6756   4.082   4.472  13.437 -0.1646 -0.5482 -0.4812
  450TMC3    C6 6757   4.089   4.471  13.301 -0.1990  0.4994 -0.3972
  450TMC3     C 6758   4.430   4.540  13.486  0.9364  0.4427  0.6469
  450TMC3     O 6759   4.529   4.591  13.442 -0.3513  0.2478 -0.0485
  450TMC3     H 6760   4.388   4.616  13.245  0.9300 -0.9745  1.4285
  450TMC3    H1 6761   4.197   4.552  13.611  2.2114 -2.3183 -0.3555
  450TMC3    H2 6762   4.015   4.423  13.238  0.5349 -0.1465 -0.7761
  450TMC3    C7 6763   4.079   4.337  13.499 -0.4662 -0.1438  0.6259
  450TMC3    C8 6764   4.197   4.482  13.097  0.1545  0.5057 -0.1312
  450TMC3    O1 6765   4.167   4.320  13.585 -0.3082  0.4862 -0.0563
  450TMC3    O2 6766   4.084   4.492  13.042 -0.6817 -0.4523 -0.0701
  451MPD2     C 6767   1.093   2.310   1.174 -0.0948 -0.0779 -0.7692
  451MPD2    C1 6768   1.120   2.195   1.110 -0.4606 -0.5964 -0.7865
  451MPD2    C2 6769   1.246   2.140   1.107  0.3140 -0.2749 -0.2558
  451MPD2    C3 6770   1.352   2.223   1.160  0.6791  0.2102  0.1432
  451MPD2    C4 6771   1.322   2.347   1.214 -0.3345 -0.0890  0.6132
  451MPD2    C5 6772   1.191   2.385   1.222 -0.1566  0.6501  0.0361
  451MPD2     H 6773   1.264   2.045   1.057  0.9150 -0.4190  0.2268
  451MPD2    H1 6774   1.396   2.418   1.247 -0.4429  0.8358 -1.1351
  451MPD2    H2 6775   0.992   2.348   1.183  0.6497  1.8129 -0.3223
  451MPD2    H3 6776   1.159   2.482   1.259 -3.7776  0.3270 -2.3276
  451MPD2     N 6777   1.482   2.179   1.143 -0.4096 -0.4012 -0.2087
  451MPD2    H5 6778   1.489   2.078   1.137  1.8289 -0.1683 -1.4652
  451MPD2    N1 6779   1.011   2.146   1.031  0.0105 -0.0010  0.1137
  451MPD2    H7 6780   0.927   2.203   1.032  0.0139  0.0014  0.6990
  452TMC3    C1 6781   1.715   2.179   1.079  0.1267  0.5184  0.2019
  452TMC3    C2 6782   1.686   2.079   0.991 -0.0157 -0.7777  0.4803
  452TMC3    C3 6783   1.799   2.024   0.935 -0.2634 -0.5482 -0.2466
  452TMC3    C4 6784   1.833   2.235   1.103  0.3506 -0.8803 -0.7293
  452TMC3    C5 6785   1.938   2.190   1.028 -0.2139 -0.2303  0.1749
  452TMC3    C6 6786   1.928   2.075   0.945  0.1207  0.5012  0.6406
  452TMC3     C 6787   1.593   2.257   1.126  0.1846  0.7746 -0.1879
  452TMC3     O 6788   1.607   2.374   1.146 -0.5791  0.3461  0.0641
  452TMC3     H 6789   1.588   2.035   0.976 -0.8177  1.6417 -1.4219
  452TMC3    H1 6790   1.849   2.301   1.188 -0.9407 -1.9828  0.3716
  452TMC3    H2 6791   2.011   2.043   0.883 -0.8801 -1.0060  0.0943
  452TMC3    C7 6792   2.052   2.280   1.022  0.2093 -0.7165 -0.1877
  452TMC3    C8 6793   1.779   1.909   0.842 -0.1328  0.4583 -0.1878
  452TMC3    O1 6794   2.030   2.395   1.057 -0.3193 -0.1124 -0.0245
  452TMC3    O2 6795   1.851   1.905   0.741 -0.0702  0.7815  0.4120
  453TMC3    C1 6796   2.115   0.139  12.198  0.3143  0.1670 -0.6527
  453TMC3    C2 6797   2.009   0.055  12.231  0.4251  0.5247 -0.3474
  453TMC3    C3 6798   1.893   0.072  12.154 -0.1579  0.1102 -0.7742
  453TMC3    C4 6799   2.111   0.217  12.088  0.1063 -0.3858  0.1629
  453TMC3    C5 6800   1.986   0.238  12.021 -0.9227  0.1249 -0.4797
  453TMC3    C6 6801   1.875   0.167  12.056 -0.0948  0.1258  0.1750
  453TMC3     C 6802   2.244   0.090  12.232 -0.2671 -0.3873  0.4781
  453TMC3     O 6803   2.257   4.711  12.268 -0.4709 -0.1149 -0.7754
  453TMC3     H 6804   2.018   4.717  12.308  0.5501  1.9901  1.0496
  453TMC3    H1 6805   2.203   0.273  12.072 -1.3486  1.7570 -0.5929
  453TMC3    H2 6806   1.781   0.169  12.001  0.4163 -0.7630 -0.7367
  453TMC3    C7 6807   1.988   0.266  11.881 -0.1543  0.5201 -0.3427
  453TMC3    C8 6808   1.815   4.691  12.133  0.3663  0.4635  0.1936
  453TMC3    O1 6809   1.904   0.207  11.813  0.3092 -0.1609 -0.3523
  453TMC3    O2 6810   1.755   4.650  12.232 -0.0912 -0.0553 -0.7567
  454MPD2     C 6811   1.017   4.251  16.031 -0.4354 -0.3205  0.1387
  454MPD2    C1 6812   0.920   4.267  15.935  0.5979  0.2353  0.0311
  454MPD2    C2 6813   0.837   4.378  15.946 -0.3880  0.1520  0.4270
  454MPD2    C3 6814   0.852   4.473  16.045 -0.5081  0.5727 -0.8376
  454MPD2    C4 6815   0.942   4.447  16.150  0.2397 -0.5777  0.3695
  454MPD2    C5 6816   1.024   4.335  16.142 -0.0550 -0.1384 -0.7834
  454MPD2     H 6817   0.741   4.386  15.895 -0.5137 -0.6605  0.5370
  454MPD2    H1 6818   0.952   4.525  16.225  0.1111 -2.0032  1.8792
  454MPD2    H2 6819   1.080   4.163  16.034 -1.9954 -1.4132  0.9813
  454MPD2    H3 6820   1.094   4.314  16.222  0.6911 -0.5244 -1.5283
  454MPD2     N 6821   0.766   4.587  16.059 -0.1641 -0.0612  0.4819
  454MPD2    H5 6822   0.771   4.640  16.145  2.7758 -1.3657  1.1165
  454MPD2    N1 6823   0.878   4.174  15.845  0.1649 -0.0632 -0.0272
  454MPD2    H7 6824   0.795   4.201  15.793 -1.4399 -0.7970  2.1515
  455TMC3    C1 6825   0.551   4.673  16.006 -0.2366  0.4084 -0.0390
  455TMC3    C2 6826   0.542   0.008  16.123  0.0331 -0.0016  0.3870
  455TMC3    C3 6827   0.433   4.727  16.194 -0.3570 -0.2546  0.2511
  455TMC3    C4 6828   0.448   4.591  15.963 -0.4041 -0.2337 -0.1802
  455TMC3    C5 6829   0.340   4.570  16.050  0.3025  0.0427 -1.0648
  455TMC3    C6 6830   0.327   4.641  16.167  0.3984 -0.4288 -0.6209
  455TMC3     C 6831   0.678   4.625  15.955  0.4533 -0.4740  1.1019
  455TMC3     O 6832   0.692   4.611  15.836  0.0758  0.0490  0.0068
  455TMC3     H 6833   0.628   0.061  16.162  0.4445 -0.1096 -0.3637
  455TMC3    H1 6834   0.452   4.526  15.876  1.5808 -3.5698  2.3763
  455TMC3    H2 6835   0.237   4.623  16.225 -0.7698  1.3334 -1.8810
  455TMC3    C7 6836   0.324   4.431  16.056  0.1831 -0.5181 -0.7494
  455TMC3    C8 6837   0.423   0.067  16.316  0.4315 -0.3049  0.3057
  455TMC3    O1 6838   0.215   4.382  16.059  0.7121 -0.0609  0.0516
  455TMC3    O2 6839   0.527   0.120  16.351  0.2856 -0.7694 -0.0665
  456MPD2     C 6840   3.514   3.971  15.817 -0.3728  0.0698  0.5583
  456MPD2    C1 6841   3.558   3.929  15.939  0.1477  0.1032  0.5807
  456MPD2    C2 6842   3.502   3.987  16.054  0.0563  0.6010  0.5760
  456MPD2    C3 6843   3.409   4.088  16.044 -0.5409  0.2163  0.5058
  456MPD2    C4 6844   3.352   4.123  15.921 -0.7356  0.2468  0.0038
  456MPD2    C5 6845   3.405   4.056  15.811  0.4415 -0.2952  0.1753
  456MPD2     H 6846   3.544   3.975  16.153  0.5463 -2.3422 -0.0007
  456MPD2    H1 6847   3.282   4.203  15.903  0.0692  1.3234  1.6095
  456MPD2    H2 6848   3.561   3.938  15.726  0.2993  0.7859  0.6443
  456MPD2    H3 6849   3.370   4.068  15.709 -0.9883  1.0533  0.8087
  456MPD2     N 6850   3.385   4.165  16.158 -0.4721  0.6633 -0.3153
  456MPD2    H5 6851   3.447   4.149  16.237 -2.1139  1.3859  1.1215
  456MPD2    N1 6852   3.661   3.829  15.944 -0.3017  0.4027 -0.2087
  456MPD2    H7 6853   3.710   3.816  15.856  0.2279  2.5218 -0.2139
  457TMC3    C1 6854   3.286   4.335  16.300 -0.6050 -0.2471 -0.3356
  457TMC3    C2 6855   3.249   4.472  16.297  0.5133 -0.1879 -0.1541
  457TMC3    C3 6856   3.297   4.544  16.400  0.3053 -0.1401  0.4863
  457TMC3    C4 6857   3.364   4.281  16.401 -0.6223 -0.1879  0.5499
  457TMC3    C5 6858   3.402   4.356  16.506  0.1434 -0.6123 -0.0400
  457TMC3    C6 6859   3.362   4.486  16.504  1.0696 -0.1482  0.0255
  457TMC3     C 6860   3.289   4.267  16.173 -0.5175 -0.7601 -0.3356
  457TMC3     O 6861   3.211   4.309  16.088  0.7750 -0.8077 -0.0079
  457TMC3     H 6862   3.190   4.516  16.217  1.2281 -1.1893 -1.2406
  457TMC3    H1 6863   3.384   4.174  16.402 -2.2306 -0.4771  1.3626
  457TMC3    H2 6864   3.394   4.557  16.579  1.7641 -0.7161  0.2661
  457TMC3    C7 6865   3.484   4.296  16.609 -0.3040  0.0058  0.2221
  457TMC3    C8 6866   3.259   4.678  16.416  0.5608 -0.0622 -0.2814
  457TMC3    O1 6867   3.509   4.178  16.604 -0.1139 -0.1420  0.0280
  457TMC3    O2 6868   3.241   4.709  16.537  0.1826  0.5742  0.1099
  458MPD2     C 6869   1.247   4.235  12.135 -0.7634  0.0476 -1.0746
  458MPD2    C1 6870   1.198   4.173  12.250  0.0044  0.1564 -0.2985
  458MPD2    C2 6871   1.064   4.187  12.280  0.0572  0.5403 -0.4752
  458MPD2    C3 6872   0.975   4.257  12.202 -0.5440 -0.4743  0.1407
  458MPD2    C4 6873   1.033   4.331  12.102  0.0854  0.3428  0.9071
  458MPD2    C5 6874   1.166   4.320  12.071 -0.4275 -0.0737  0.4110
  458MPD2     H 6875   1.031   4.134  12.368  1.1135  1.4099  0.4347
  458MPD2    H1 6876   0.975   4.395  12.037 -1.6879 -1.1408  1.0585
  458MPD2    H2 6877   1.352   4.233  12.107 -0.2411  0.4509  0.8462
  458MPD2    H3 6878   1.206   4.377  11.988 -2.6828 -0.9196 -1.2735
  458MPD2     N 6879   0.836   4.240  12.229 -0.0494  0.4857 -0.0789
  458MPD2    H5 6880   0.814   4.190  12.315  1.7870  0.0100  0.0978
  458MPD2    N1 6881   1.285   4.090  12.321  0.3826  0.2383  0.1223
  458MPD2    H7 6882   1.367   4.064  12.268 -0.3116 -0.9763 -0.3590
  459TMC3    C1 6883   1.379   3.948  12.475 -0.2515  1.0614  0.5651
  459TMC3    C2 6884   1.503   3.987  12.433  0.3755 -0.7792 -0.2118
  459TMC3    C3 6885   1.616   3.915  12.465 -1.0157 -0.4214  0.2749
  459TMC3    C4 6886   1.367   3.841  12.555 -0.2338  0.2659 -0.0504
  459TMC3    C5 6887   1.481   3.775  12.593 -0.2583 -0.2653 -0.3973
  459TMC3    C6 6888   1.602   3.806  12.543 -0.4226 -1.0468  0.2812
  459TMC3     C 6889   1.261   4.025  12.438  0.4173  0.4931 -0.3513
  459TMC3     O 6890   1.163   4.017  12.504  0.1699 -0.6177 -0.0888
  459TMC3     H 6891   1.518   4.056  12.350 -0.7328 -0.0979  0.1547
  459TMC3    H1 6892   1.272   3.805  12.593 -1.3374  1.6349 -1.4815
  459TMC3    H2 6893   1.688   3.745  12.565  0.0224 -0.2224  0.8434
  459TMC3    C7 6894   1.477   3.684  12.709  0.1613  0.1791  0.1232
  459TMC3    C8 6895   1.755   3.966  12.445 -0.4531  0.5689 -0.0250
  459TMC3    O1 6896   1.370   3.626  12.727  0.1386  0.0557 -0.1548
  459TMC3    O2 6897   1.844   3.884  12.434 -0.3953 -0.3751 -0.4611
  460MPD2     C 6898   0.955   1.826  10.354  0.0992  0.0444  0.2273
  460MPD2    C1 6899   0.825   1.863  10.398  0.4272 -0.3033 -0.3329
  460MPD2    C2 6900   0.736   1.915  10.309  0.1150  0.4683  0.6296
  460MPD2    C3 6901   0.761   1.917  10.172 -0.3932 -0.3545  0.2017
  460MPD2    C4 6902   0.891   1.896  10.133 -0.4292 -1.1636 -0.7693
  460MPD2    C5 6903   0.988   1.845  10.219  0.0351 -0.3682  0.3571
  460MPD2     H 6904   0.638   1.947  10.343 -0.5342  1.1994 -1.9207
  460MPD2    H1 6905   0.919   1.896  10.029 -2.2344 -2.6099 -1.2476
  460MPD2    H2 6906   1.033   1.794  10.421 -0.1603 -0.7108  0.1659
  460MPD2    H3 6907   1.091   1.835  10.188  0.5227  1.0829  1.5007
  460MPD2     N 6908   0.656   1.938  10.084 -0.0722  0.3001  0.0229
  460MPD2    H5 6909   0.567   1.964  10.126 -1.0158 -2.0993 -0.4979
  460MPD2    N1 6910   0.809   1.853  10.540  0.3642  0.1002  0.3607
  460MPD2    H7 6911   0.894   1.838  10.593  0.0676 -0.0763  0.7887
  461TMC3    C1 6912   0.533   1.942   9.883 -0.0363  0.0983 -0.1847
  461TMC3    C2 6913   0.484   1.866   9.779  0.4470  0.0653 -0.2125
  461TMC3    C3 6914   0.379   1.905   9.705  0.0093 -0.1509  0.2054
  461TMC3    C4 6915   0.466   2.053   9.926  0.3085  0.1158 -1.0491
  461TMC3    C5 6916   0.363   2.095   9.841 -0.5710  0.1968 -0.3946
  461TMC3    C6 6917   0.320   2.020   9.730  0.0090  1.0613 -0.7270
  461TMC3     C 6918   0.654   1.900   9.950 -0.4750  0.6484  0.4160
  461TMC3     O 6919   0.740   1.845   9.881  0.1378  0.0327  0.1668
  461TMC3     H 6920   0.521   1.768   9.752 -1.0475 -0.5286 -0.1298
  461TMC3    H1 6921   0.504   2.124   9.999 -1.3703  1.9948 -2.0093
  461TMC3    H2 6922   0.249   2.046   9.652 -0.0832  1.2275 -0.5877
  461TMC3    C7 6923   0.305   2.233   9.855 -0.7885  0.4662  0.2604
  461TMC3    C8 6924   0.344   1.832   9.579  0.1075  0.2609 -0.1750
  461TMC3    O1 6925   0.257   2.258   9.964  0.4637 -0.7724  0.1800
  461TMC3    O2 6926   0.439   1.779   9.522 -0.6219 -0.2818 -0.3367
  462TMC3    C1 6927   0.552   2.358   0.277  0.0171 -0.1666 -0.7092
  462TMC3    C2 6928   0.649   2.254   0.280 -0.1064  0.2420  0.5499
  462TMC3    C3 6929   0.609   2.131   0.329 -0.4225 -0.5363 -0.0123
  462TMC3    C4 6930   0.418   2.332   0.297  0.0112 -0.3788  0.1057
  462TMC3    C5 6931   0.389   2.212   0.351 -0.6201  0.2523  0.3521
  462TMC3    C6 6932   0.481   2.117   0.383 -0.1062 -0.3153  0.4254
  462TMC3     C 6933   0.602   2.497   0.276  0.0369 -0.5167 -0.2465
  462TMC3     O 6934   0.529   2.588   0.238 -0.4850 -0.2325  0.5075
  462TMC3     H 6935   0.752   2.270   0.252 -0.4161  1.9009  0.3189
  462TMC3    H1 6936   0.345   2.403   0.260  1.4131  0.6175 -0.7151
  462TMC3    H2 6937   0.463   2.015   0.415 -0.2638 -0.1740  0.7806
  462TMC3    C7 6938   0.249   2.169   0.345  0.3431 -0.0553  0.4306
  462TMC3    C8 6939   0.678   2.007   0.292 -0.4247  1.0560 -0.4053
  462TMC3    O1 6940   0.221   2.058   0.384 -0.1504 -0.1851  0.6835
  462TMC3    O2 6941   0.672   1.911   0.371  0.7893  0.1307  0.3581
  463MPD2     C 6942   2.235   0.483   1.509  0.2153 -0.1311  0.0690
  463MPD2    C1 6943   2.153   0.595   1.502 -0.4555 -0.4916 -0.3603
  463MPD2    C2 6944   2.185   0.699   1.593 -0.0041 -0.1483  0.0168
  463MPD2    C3 6945   2.284   0.687   1.690  0.0930  0.2245  0.4721
  463MPD2    C4 6946   2.367   0.586   1.684  0.6987  0.3669  0.1525
  463MPD2    C5 6947   2.346   0.484   1.594  0.1033 -0.5495  0.1081
  463MPD2     H 6948   2.114   0.781   1.598 -0.5386 -0.5578 -0.8305
  463MPD2    H1 6949   2.444   0.568   1.759  2.2059  0.4052 -1.3890
  463MPD2    H2 6950   2.230   0.408   1.431 -0.1793 -2.2159  2.1001
  463MPD2    H3 6951   2.404   0.393   1.601 -0.2133 -0.4849  3.7924
  463MPD2     N 6952   2.309   0.776   1.796  0.4797 -0.1571 -0.6887
  463MPD2    H5 6953   2.399   0.764   1.842  0.4210  1.1668 -0.2331
  463MPD2    N1 6954   2.038   0.612   1.414 -0.1161 -0.1917 -0.4335
  463MPD2    H7 6955   1.982   0.695   1.431  0.3244  0.0411 -0.1022
  464TMC3    C1 6956   1.891   0.565   1.246 -0.5457 -0.3097  0.2822
  464TMC3    C2 6957   1.853   0.702   1.233  0.0443  0.2680  0.4276
  464TMC3    C3 6958   1.761   0.737   1.140 -0.2574 -0.2753 -0.0517
  464TMC3    C4 6959   1.824   0.472   1.166  0.1304 -0.3771 -0.5888
  464TMC3    C5 6960   1.725   0.506   1.084  0.0465 -0.4327  0.6332
  464TMC3    C6 6961   1.686   0.638   1.077 -0.8339  0.3666  0.3975
  464TMC3     C 6962   2.001   0.522   1.323 -0.2004 -0.6151 -0.4662
  464TMC3     O 6963   2.050   0.414   1.296 -0.0275 -0.2130  0.0184
  464TMC3     H 6964   1.906   0.781   1.284 -1.2456 -0.1112  2.3329
  464TMC3    H1 6965   1.848   0.369   1.190  0.7134  0.3210  1.7792
  464TMC3    H2 6966   1.623   0.675   0.997 -0.6199 -0.0428  0.0383
  464TMC3    C7 6967   1.631   0.397   1.051 -0.1869  0.2001 -0.7616
  464TMC3    C8 6968   1.671   0.845   1.166  0.2916  0.6836 -0.1498
  464TMC3    O1 6969   1.645   0.295   1.117 -0.5780  0.0125  0.1290
  464TMC3    O2 6970   1.595   0.885   1.073  0.4351  0.1882 -0.3797
  465MPD2     C 6971   2.722   0.226  16.367  0.1934  0.3298  0.9367
  465MPD2    C1 6972   2.650   0.119  16.406  0.4711  0.6100  0.5877
  465MPD2    C2 6973   2.572   0.065  16.306  0.3167  0.0488 -0.0671
  465MPD2    C3 6974   2.571   0.105  16.176 -0.6045 -0.3188 -0.2940
  465MPD2    C4 6975   2.657   0.206  16.142  0.5242  0.9176  0.5936
  465MPD2    C5 6976   2.735   0.268  16.241 -0.2458  0.3811 -0.0136
  465MPD2     H 6977   2.494   4.734  16.339  0.9581 -0.6399  0.0295
  465MPD2    H1 6978   2.669   0.253  16.044  0.1252  0.8327  0.5066
  465MPD2    H2 6979   2.788   0.276  16.437  1.6532  1.8542 -1.5570
  465MPD2    H3 6980   2.792   0.355  16.210 -0.2409 -0.5598 -2.6117
  465MPD2     N 6981   2.474   0.049  16.089 -0.4451 -0.6270  0.0002
  465MPD2    H5 6982   2.410   4.713  16.120 -1.0867  0.1883  0.5910
  465MPD2    N1 6983   2.637   0.068  16.537  0.3060 -0.5756 -1.0117
  465MPD2    H7 6984   2.569   4.729  16.542  0.4042 -0.6270 -0.5232
  466TMC3    C1 6985   2.135   4.698  15.997  0.4616 -0.5254  0.0113
  466TMC3    C2 6986   2.067   0.074  15.952  0.6087  0.9724 -0.4099
  466TMC3    C3 6987   2.137   0.163  15.871 -0.3671  0.9724 -0.0858
  466TMC3    C4 6988   2.270   4.673  15.970 -0.3011  0.5375 -0.0912
  466TMC3    C5 6989   2.329   0.037  15.896 -0.5242  0.7272 -0.1688
  466TMC3    C6 6990   2.265   0.139  15.835  0.2265  0.2109 -0.3651
  466TMC3     C 6991   2.085   4.630  16.111 -0.8926 -0.3449  0.9757
  466TMC3     O 6992   2.157   4.607  16.208 -0.0439 -0.3599  0.6357
  466TMC3     H 6993   1.961   0.096  15.960 -0.1014 -3.5991  2.9290
  466TMC3    H1 6994   2.313   4.577  15.995 -2.5072  0.3999  3.1627
  466TMC3    H2 6995   2.320   0.226  15.800 -1.1672 -0.0868 -3.2408
  466TMC3    C7 6996   2.457   0.091  15.957  0.2536 -0.3970 -0.2821
  466TMC3    C8 6997   2.081   0.294  15.838 -0.3324 -0.6198 -0.5402
  466TMC3    O1 6998   2.533   0.166  15.893 -0.2329  0.5023  0.3889
  466TMC3    O2 6999   2.127   0.358  15.746  0.5781 -0.3363 -0.1742
  467TMC3    C1 7000   3.320   2.863  13.265  0.0963  0.2139 -0.3166
  467TMC3    C2 7001   3.355   2.944  13.164  0.4112 -0.2037  0.2161
  467TMC3    C3 7002   3.323   2.912  13.034  0.0864  0.0344  0.0531
  467TMC3    C4 7003   3.244   2.750  13.239 -0.6781  0.1325 -0.3556
  467TMC3    C5 7004   3.222   2.714  13.113  0.5495 -0.2250 -0.0725
  467TMC3    C6 7005   3.254   2.795  13.004 -0.6883 -0.0145  0.0088
  467TMC3     C 7006   3.407   2.862  13.385  0.4420 -0.5160  0.2947
  467TMC3     O 7007   3.450   2.754  13.417  0.3714 -0.5662  0.0034
  467TMC3     H 7008   3.416   3.030  13.190  2.1194 -0.9515 -1.3321
  467TMC3    H1 7009   3.233   2.676  13.317 -2.1917  2.1613  1.3328
  467TMC3    H2 7010   3.193   2.790  12.915  0.5275  0.1780 -0.8243
  467TMC3    C7 7011   3.121   2.618  13.076 -0.3598  0.3182 -0.3403
  467TMC3    C8 7012   3.308   3.031  12.961 -0.7525 -0.1847 -0.4630
  467TMC3    O1 7013   3.146   2.559  12.975 -0.2110 -0.0327 -0.1018
  467TMC3    O2 7014   3.297   3.125  13.039  0.4960 -0.6163  0.2702
  468MPD2     C 7015   1.933   1.873  10.576  0.1379  0.3397  0.2792
  468MPD2    C1 7016   2.023   1.923  10.669 -1.0374 -1.1899 -0.7830
  468MPD2    C2 7017   2.056   1.846  10.782 -0.0762 -0.7441 -0.2159
  468MPD2    C3 7018   2.005   1.719  10.792  0.8624  0.3039  0.6063
  468MPD2    C4 7019   1.920   1.664  10.695 -0.0253  0.4293 -0.4276
  468MPD2    C5 7020   1.881   1.747  10.589  0.6102  0.1113  0.1573
  468MPD2     H 7021   2.137   1.881  10.845 -2.5889  2.6055  1.1471
  468MPD2    H1 7022   1.874   1.566  10.702  0.9767  0.0089  0.2760
  468MPD2    H2 7023   1.914   1.927  10.484  0.8505 -1.6264 -1.0168
  468MPD2    H3 7024   1.814   1.703  10.515  2.2020  1.7966 -2.3105
  468MPD2     N 7025   2.051   1.625  10.893  0.0552  0.1969  0.1387
  468MPD2    H5 7026   2.019   1.529  10.900  0.7975 -0.0276  0.3676
  468MPD2    N1 7027   2.090   2.046  10.652 -0.0262  0.6013  0.0167
  468MPD2    H7 7028   2.147   2.079  10.729  1.3070  0.1929 -0.7921
  469TMC3    C1 7029   2.139   2.259  10.582 -0.0650  0.1677 -0.0272
  469TMC3    C2 7030   2.256   2.254  10.654 -0.4560 -0.6330  0.0556
  469TMC3    C3 7031   2.312   2.369  10.704 -0.4876  0.6775  0.6952
  469TMC3    C4 7032   2.073   2.379  10.567  0.0231 -0.3973 -0.3589
  469TMC3    C5 7033   2.120   2.486  10.636  0.7377  0.2706  0.2406
  469TMC3    C6 7034   2.244   2.486  10.700 -0.2479  0.4280  0.0144
  469TMC3     C 7035   2.065   2.139  10.554 -0.2634  0.3934 -0.4739
  469TMC3     O 7036   1.975   2.147  10.473  0.1980  0.0799 -0.0486
  469TMC3     H 7037   2.312   2.162  10.648 -0.3345 -0.6772  2.0535
  469TMC3    H1 7038   1.971   2.374  10.530 -0.7140 -2.3651  1.9451
  469TMC3    H2 7039   2.285   2.579  10.737  0.5426  0.0500  0.0905
  469TMC3    C7 7040   2.022   2.553  10.712 -0.2148 -0.6255 -0.7452
  469TMC3    C8 7041   2.454   2.368  10.746 -0.4065 -0.0910 -0.2107
  469TMC3    O1 7042   1.909   2.565  10.664 -1.0327 -0.0628  0.0387
  469TMC3    O2 7043   2.522   2.464  10.725  0.3295  0.0136  0.9869
  470TMC3    C1 7044   4.089   1.536   0.544  0.2070 -0.5947  0.0834
  470TMC3    C2 7045   4.163   1.653   0.527  0.0310 -0.0644 -0.2897
  470TMC3    C3 7046   4.226   1.704   0.642 -0.0986  0.0368 -0.3923
  470TMC3    C4 7047   4.082   1.468   0.662  0.1486 -0.2091 -0.0020
  470TMC3    C5 7048   4.145   1.519   0.769  0.2652  0.3189 -0.0571
  470TMC3    C6 7049   4.220   1.637   0.763 -0.2316 -0.5984  0.4621
  470TMC3     C 7050   4.024   1.481   0.419  0.3805  0.3567  0.2871
  470TMC3     O 7051   4.031   1.544   0.313  0.1814 -0.3540  0.2468
  470TMC3     H 7052   4.167   1.715   0.438  4.1279  1.5554  0.9786
  470TMC3    H1 7053   4.030   1.372   0.665 -1.0010  0.4468  0.8220
  470TMC3    H2 7054   4.261   1.692   0.847  0.3658  0.6450 -0.6478
  470TMC3    C7 7055   4.128   1.464   0.903 -0.3240 -0.0083 -0.4074
  470TMC3    C8 7056   4.262   1.847   0.652 -0.3495 -0.0834  0.1595
  470TMC3    O1 7057   4.169   1.538   0.994 -0.0402 -0.2226 -0.2329
  470TMC3    O2 7058   4.347   1.874   0.736 -0.5228 -0.2981  0.2431
  471MPD2     C 7059   4.587   3.466  16.395  0.1879 -0.2086 -0.0872
  471MPD2    C1 7060   4.609   3.335  16.424  0.3817 -0.1741  0.2318
  471MPD2    C2 7061   4.640   3.305  16.556 -0.4270  0.2077 -0.8812
  471MPD2    C3 7062   4.677   3.409  16.637  0.7835 -0.2302 -0.1346
  471MPD2    C4 7063   4.678   3.540  16.595  0.0684 -0.2882  0.5153
  471MPD2    C5 7064   4.628   3.568  16.474 -0.5700 -0.1373 -0.0865
  471MPD2     H 7065   4.654   3.207  16.598 -0.2688 -0.4735 -2.5100
  471MPD2    H1 7066   4.706   3.624  16.657 -0.0897  0.9085 -1.0471
  471MPD2    H2 7067   4.549   3.501  16.300 -0.5737  1.6168  0.8918
  471MPD2    H3 7068   4.619   3.670  16.437  2.5070  0.4480  0.7319
  471MPD2     N 7069   4.723   3.374  16.767 -0.3059  0.1153 -0.7342
  471MPD2    H5 7070   4.699   3.280  16.798  1.7496 -0.8858 -2.1356
  471MPD2    N1 7071   4.588   3.228  16.334 -0.0610 -0.7170 -0.1521
  471MPD2    H7 7072   4.596   3.135  16.373  1.0913 -1.0321 -1.1306
  472TMC3    C1 7073   4.554   3.108  16.134 -0.1380  0.8385  0.5501
  472TMC3    C2 7074   4.466   3.077  16.038  0.2064  0.2299 -0.6976
  472TMC3    C3 7075   4.462   2.949  15.984  0.5605 -0.7332 -0.3801
  472TMC3    C4 7076   4.661   3.022  16.164  0.1882  0.5955 -0.4527
  472TMC3    C5 7077   4.661   2.904  16.102 -0.2068  0.0352 -0.0357
  472TMC3    C6 7078   4.571   2.871  16.006  0.4521 -1.0572  0.3345
  472TMC3     C 7079   4.555   3.240  16.200  0.0829 -0.8338  0.2213
  472TMC3     O 7080   4.524   3.338  16.131  0.3842 -0.2715 -0.2766
  472TMC3     H 7081   4.397   3.160  16.023  0.7703  0.5802 -1.3633
  472TMC3    H1 7082   4.736   3.050  16.236  1.4964 -0.4617 -1.4075
  472TMC3    H2 7083   4.568   2.768  15.972  1.7260 -0.7210 -0.7837
  472TMC3    C7 7084   0.013   2.798  16.168  0.0064 -0.0369  0.1896
  472TMC3    C8 7085   4.348   2.872  16.014  0.4341 -0.0459 -0.3635
  472TMC3    O1 7086   0.056   2.809  16.280  0.2048  0.0112  0.4143
  472TMC3    O2 7087   4.368   2.767  16.077 -0.7222 -0.0364  0.3157
  473MPD2     C 7088   0.096   0.651  13.419 -0.1025 -0.0901 -0.3783
  473MPD2    C1 7089   0.064   0.778  13.392  0.4920 -0.5637 -0.6541
  473MPD2    C2 7090   0.113   0.869  13.487  0.0136  0.1411  0.3808
  473MPD2    C3 7091   0.193   0.835  13.593 -0.0254 -0.2998 -0.1182
  473MPD2    C4 7092   0.213   0.699  13.616  0.2847 -0.2507  0.6178
  473MPD2    C5 7093   0.156   0.608  13.528  0.1183  0.2482 -0.3868
  473MPD2     H 7094   0.084   0.974  13.484 -1.5928 -0.3099  0.2020
  473MPD2    H1 7095   0.264   0.663  13.704  1.6248 -0.1023 -0.1094
  473MPD2    H2 7096   0.057   0.570  13.358  0.1383 -0.5828  0.1257
  473MPD2    H3 7097   0.175   0.504  13.554 -2.6413  0.0510  0.7966
  473MPD2     N 7098   0.234   0.923  13.693 -0.0942  0.0656 -1.0771
  473MPD2    H5 7099   0.291   0.880  13.766 -1.6283 -0.6264 -0.2844
  473MPD2    N1 7100   4.726   0.825  13.280 -0.1451 -0.0365  1.0544
  473MPD2    H7 7101   4.708   0.925  13.274  2.2382  0.3532  0.7557
  474TMC3    C1 7102   0.244   1.128  13.821 -0.0704  0.3505  0.3228
  474TMC3    C2 7103   0.250   1.266  13.807  0.6706  0.0410  0.3564
  474TMC3    C3 7104   0.284   1.339  13.918  0.8393  0.3007 -0.3516
  474TMC3    C4 7105   0.287   1.061  13.936 -0.2967  0.3898 -0.4340
  474TMC3    C5 7106   0.318   1.143  14.044  0.7881  1.0912  0.7424
  474TMC3    C6 7107   0.314   1.281  14.037  0.3366 -0.3798 -0.1794
  474TMC3     C 7108   0.206   1.055  13.701  0.5431  0.4616  0.0688
  474TMC3     O 7109   0.170   1.130  13.613  0.2352 -0.6199  0.1830
  474TMC3     H 7110   0.239   1.319  13.712  2.1249  1.4897  0.9879
  474TMC3    H1 7111   0.289   0.953  13.939  1.2564  0.4527  1.0698
  474TMC3    H2 7112   0.336   1.340  14.126  0.2736 -0.8745  0.1658
  474TMC3    C7 7113   0.380   1.078  14.164 -0.6164  0.3629 -0.5887
  474TMC3    C8 7114   0.233   1.473  13.935 -0.4784  0.9079  0.4752
  474TMC3    O1 7115   0.408   0.958  14.140 -0.3046 -0.5765 -0.4528
  474TMC3    O2 7116   0.253   1.523  14.041  0.2623 -0.1680 -0.0166
  475MPD2     C 7117   2.805   4.596  10.976  0.5662  0.3755  0.2863
  475MPD2    C1 7118   2.924   4.588  10.905  0.3544  0.1730  0.2408
  475MPD2    C2 7119   2.925   4.513  10.786 -0.2317  0.0779  0.4591
  475MPD2    C3 7120   2.802   4.464  10.736 -0.3606 -0.0526 -0.5886
  475MPD2    C4 7121   2.686   4.482  10.809  1.1426  0.1641  0.4007
  475MPD2    C5 7122   2.691   4.543  10.929  0.0102 -0.6724  0.0883
  475MPD2     H 7123   3.016   4.521  10.728 -0.5256 -1.2019 -0.1795
  475MPD2    H1 7124   2.587   4.464  10.768  1.2774  1.6330 -0.5389
  475MPD2    H2 7125   2.795   4.657  11.066  0.6770 -1.8177  1.7865
  475MPD2    H3 7126   2.600   4.556  10.986  0.0909  1.3082 -0.2648
  475MPD2     N 7127   2.794   4.434  10.599 -0.2208  0.4554  0.2188
  475MPD2    H5 7128   2.879   4.448  10.546 -0.2588 -1.1722 -0.2938
  475MPD2    N1 7129   3.036   4.660  10.949  0.0840 -0.4890 -0.0091
  475MPD2    H7 7130   3.019   4.725  11.025  0.5346 -0.3063 -0.0645
  476TMC3    C1 7131   3.262   4.733  10.964 -0.6391  0.7068 -0.5778
  476TMC3    C2 7132   3.369   0.038  10.886  0.0518 -0.0085  1.0335
  476TMC3    C3 7133   3.442   0.145  10.931 -0.4491  0.4958 -0.9177
  476TMC3    C4 7134   3.223   0.065  11.075 -0.1703  0.6728  0.5292
  476TMC3    C5 7135   3.292   0.171  11.112  1.2082  0.0867  0.1140
  476TMC3    C6 7136   3.407   0.207  11.044  0.5072  0.0955 -0.0112
  476TMC3     C 7137   3.168   4.641  10.908  0.0344 -0.3601 -0.1267
  476TMC3     O 7138   3.225   4.563  10.830 -0.4252 -0.2830 -0.7195
  476TMC3     H 7139   3.396   4.714  10.800  2.5495  1.5671  0.7236
  476TMC3    H1 7140   3.144   0.022  11.135  0.0426 -0.7228 -0.2049
  476TMC3    H2 7141   3.462   0.292  11.083  0.4275 -0.3322  1.0395
  476TMC3    C7 7142   3.266   0.221  11.246  0.4780 -0.2918 -0.1332
  476TMC3    C8 7143   3.544   0.206  10.853  0.6384 -0.9113  0.5045
  476TMC3    O1 7144   3.207   0.143  11.324  0.4230  0.4664  0.0714
  476TMC3    O2 7145   3.562   0.324  10.876  0.6581  0.1281  0.3735
  477MPD2     C 7146   1.150   0.761  11.134 -0.0091  0.7868 -0.2510
  477MPD2    C1 7147   1.071   0.816  11.237 -0.3145 -0.1929 -0.0001
  477MPD2    C2 7148   1.032   0.737  11.344 -0.5618  0.4373  0.1779
  477MPD2    C3 7149   1.071   0.609  11.344 -0.7900 -0.1559  0.2350
  477MPD2    C4 7150   1.149   0.555  11.241  0.2304 -0.1409  0.1607
  477MPD2    C5 7151   1.190   0.629  11.136  0.3096  0.4195 -0.0907
  477MPD2     H 7152   0.970   0.782  11.421  0.2553  0.6580  0.7022
  477MPD2    H1 7153   1.163   0.448  11.233 -0.3595 -0.2305  0.2844
  477MPD2    H2 7154   1.185   0.821  11.051  2.6570 -1.7238 -0.9124
  477MPD2    H3 7155   1.264   0.586  11.069 -1.0859 -1.8623 -0.1752
  477MPD2     N 7156   1.027   0.531  11.453  0.4150 -0.6049 -0.3452
  477MPD2    H5 7157   0.951   0.577  11.502  1.0559  1.6198 -1.4644
  477MPD2    N1 7158   1.040   0.956  11.217  0.0308  0.3358  0.3491
  477MPD2    H7 7159   1.066   0.994  11.126 -0.1493  2.6001  1.2434
  478TMC3    C1 7160   0.957   1.173  11.250  0.1562  0.4073  0.2682
  478TMC3    C2 7161   0.908   1.266  11.339  0.2029  0.3451 -0.3350
  478TMC3    C3 7162   0.861   1.383  11.280 -0.6045  0.4162  0.6593
  478TMC3    C4 7163   0.968   1.201  11.119 -0.0444 -0.8889 -0.2134
  478TMC3    C5 7164   0.914   1.320  11.069 -0.0228  0.3583  0.2199
  478TMC3    C6 7165   0.866   1.416  11.153  1.7014 -0.3754 -0.6693
  478TMC3     C 7166   0.976   1.038  11.305  0.3256  0.7082 -0.0276
  478TMC3     O 7167   0.958   1.033  11.427  0.0360 -0.6930 -0.5720
  478TMC3     H 7168   0.889   1.248  11.444  1.5507  0.9235  0.0074
  478TMC3    H1 7169   0.986   1.124  11.046  2.0943  1.0265 -1.7177
  478TMC3    H2 7170   0.858   1.518  11.119  1.5674 -0.9331 -2.3263
  478TMC3    C7 7171   0.927   1.352  10.931  0.3472 -0.2885 -0.0866
  478TMC3    C8 7172   0.820   1.485  11.379 -0.7504 -0.1831 -0.0392
  478TMC3    O1 7173   1.013   1.290  10.869  0.6617  0.0742 -0.9068
  478TMC3    O2 7174   0.856   1.466  11.491 -0.1246  0.2226  0.4196
  479MPD2     C 7175   4.552   2.663  15.174  0.0194 -0.4335  0.3098
  479MPD2    C1 7176   4.494   2.600  15.279  0.6434 -0.2437  0.6936
  479MPD2    C2 7177   4.529   2.616  15.413 -0.9020  0.1099  0.6711
  479MPD2    C3 7178   4.636   2.692  15.438 -0.5543 -0.7357 -0.6174
  479MPD2    C4 7179   4.701   2.753  15.339 -1.2990  0.0351 -0.2211
  479MPD2    C5 7180   4.665   2.738  15.207  0.0087 -0.0502 -0.0126
  479MPD2     H 7181   4.492   2.548  15.490 -0.5001 -0.0422  0.7303
  479MPD2    H1 7182   0.045   2.818  15.369 -2.1665  0.5248  1.0594
  479MPD2    H2 7183   4.509   2.657  15.075 -1.8583 -3.0558  1.2999
  479MPD2    H3 7184   4.715   2.794  15.129  0.6962  1.1254  1.2777
  479MPD2     N 7185   4.684   2.716  15.571 -0.3192  0.7134 -0.4362
  479MPD2    H5 7186   0.029   2.774  15.561  1.3420 -1.4934  0.3338
  479MPD2    N1 7187   4.381   2.513  15.248 -0.7771 -0.2278  0.5880
  479MPD2    H7 7188   4.369   2.505  15.148  1.9500  0.3323  0.2205
  480TMC3    C1 7189   4.329   2.568  15.810  0.0002  0.1383 -0.3811
  480TMC3    C2 7190   4.242   2.647  15.743  0.0845 -0.3170  0.3589
  480TMC3    C3 7191   4.281   2.752  15.664  0.4069  0.3362  0.5321
  480TMC3    C4 7192   4.462   2.587  15.797 -0.7352  0.4959  0.0038
  480TMC3    C5 7193   4.497   2.691  15.714 -0.0214  0.6353  0.5421
  480TMC3    C6 7194   4.411   2.778  15.654 -0.6021 -0.0028 -0.3833
  480TMC3     C 7195   4.289   2.459  15.905 -0.3546 -0.5527 -0.3031
  480TMC3     O 7196   4.385   2.411  15.965  0.3264  0.2279  0.0052
  480TMC3     H 7197   4.135   2.632  15.752  0.2725 -1.2872  0.9732
  480TMC3    H1 7198   4.538   2.521  15.837 -1.8889 -0.8014  0.0580
  480TMC3    H2 7199   4.446   2.864  15.597 -0.5678 -0.3038 -0.8131
  480TMC3    C7 7200   4.641   2.696  15.699 -0.2942  0.3101 -0.0699
  480TMC3    C8 7201   4.193   2.794  15.549 -0.4989  0.1612 -0.3944
  480TMC3    O1 7202   4.712   2.705  15.798 -0.6008 -0.2010  0.3705
  480TMC3    O2 7203   4.079   2.762  15.567 -0.1011 -0.3189  0.3729
  481MPD2     C 7204   1.037   2.352  13.930  0.1828 -0.1702 -0.1278
  481MPD2    C1 7205   0.997   2.223  13.955  0.4109 -0.8372 -0.0612
  481MPD2    C2 7206   1.061   2.150  14.054  0.9382 -0.0079  0.6046
  481MPD2    C3 7207   1.165   2.210  14.121 -0.2189  0.3593 -0.5398
  481MPD2    C4 7208   1.216   2.339  14.092  0.1516 -0.4178 -0.0839
  481MPD2    C5 7209   1.148   2.408  13.996 -0.4610 -0.8517 -0.2995
  481MPD2     H 7210   1.028   2.050  14.081 -0.8999  0.8756  1.5301
  481MPD2    H1 7211   1.289   2.394  14.150  0.2168  0.7804 -1.2844
  481MPD2    H2 7212   0.989   2.425  13.865  0.5550  0.1693 -0.0220
  481MPD2    H3 7213   1.175   2.512  13.985 -4.2672  0.4673  2.7055
  481MPD2     N 7214   1.227   2.148  14.230 -0.8142  0.3478 -0.7587
  481MPD2    H5 7215   1.298   2.207  14.272  0.8045 -0.6601 -2.0747
  481MPD2    N1 7216   0.888   2.163  13.884 -0.5747  0.3513  0.0994
  481MPD2    H7 7217   0.841   2.225  13.820 -3.7132  0.0190  2.0939
  482TMC3    C1 7218   0.708   2.039  13.824  0.2552 -0.2425 -0.1848
  482TMC3    C2 7219   0.711   1.939  13.728  0.0203  0.0322  0.0619
  482TMC3    C3 7220   0.603   1.937  13.641 -0.2683 -0.1607 -0.4864
  482TMC3    C4 7221   0.615   2.139  13.840  0.7387 -0.0095 -0.5052
  482TMC3    C5 7222   0.518   2.141  13.739 -0.6876  0.8106  0.1744
  482TMC3    C6 7223   0.512   2.041  13.634  0.1541  0.8903  0.2411
  482TMC3     C 7224   0.823   2.043  13.903 -0.2291 -0.0155 -0.1870
  482TMC3     O 7225   0.862   1.935  13.946 -0.0326  0.1785  0.3028
  482TMC3     H 7226   0.770   1.849  13.743 -0.6719 -0.4262 -0.0046
  482TMC3    H1 7227   0.613   2.211  13.921 -1.5615  1.0335 -1.4759
  482TMC3    H2 7228   0.428   2.035  13.566 -0.2612  0.6430  0.7812
  482TMC3    C7 7229   0.436   2.258  13.731 -0.3725 -0.0834 -0.5262
  482TMC3    C8 7230   0.637   1.857  13.524  0.8783  0.3140 -0.2080
  482TMC3    O1 7231   0.418   2.322  13.837 -0.0387 -0.6185 -0.5939
  482TMC3    O2 7232   0.758   1.850  13.495  0.0892 -0.1810 -0.0354
  483TMC3    C1 7233   3.894   0.810   0.715 -0.4713  0.2936 -0.6010
  483TMC3    C2 7234   3.950   0.936   0.709  0.0782 -0.3780 -0.3096
  483TMC3    C3 7235   4.083   0.949   0.736 -0.8402  0.0826 -0.0838
  483TMC3    C4 7236   3.977   0.694   0.718 -0.5985 -0.3130 -0.8926
  483TMC3    C5 7237   4.110   0.717   0.747  0.0468 -0.0551 -0.3972
  483TMC3    C6 7238   4.162   0.838   0.765 -0.2032  0.1942  0.3354
  483TMC3     C 7239   3.760   0.791   0.659 -0.1014  0.9584 -0.1364
  483TMC3     O 7240   3.711   0.887   0.606 -0.1953 -0.0360 -0.6817
  483TMC3     H 7241   3.893   1.021   0.674  2.4441  0.9638 -0.9000
  483TMC3    H1 7242   3.937   0.595   0.732 -1.7176  0.1768 -0.6677
  483TMC3    H2 7243   4.266   0.862   0.785 -0.5529 -0.1235  2.5694
  483TMC3    C7 7244   4.215   0.630   0.686  1.3914 -0.5334  0.3938
  483TMC3    C8 7245   4.149   1.078   0.713 -0.8171 -0.0391 -0.6167
  483TMC3    O1 7246   4.334   0.656   0.700  0.4191  0.8596 -0.5626
  483TMC3    O2 7247   4.096   1.159   0.638 -0.8233 -0.0466 -0.2598
  484MPD2     C 7248   1.842   4.329  12.399 -0.7600  0.3464  0.6056
  484MPD2    C1 7249   1.861   4.190  12.389  0.2670 -0.1459  0.4417
  484MPD2    C2 7250   1.976   4.142  12.335 -0.1600 -0.0447 -0.4503
  484MPD2    C3 7251   2.080   4.229  12.299 -0.2831  0.1433 -0.1167
  484MPD2    C4 7252   2.062   4.363  12.308  0.1515  0.4515 -0.2704
  484MPD2    C5 7253   1.947   4.410  12.361  0.1947  0.1518 -0.2812
  484MPD2     H 7254   1.998   4.036  12.331 -1.0841 -0.2236 -0.7699
  484MPD2    H1 7255   2.126   4.439  12.265 -2.1960  2.4440 -0.2443
  484MPD2    H2 7256   1.748   4.376  12.428 -1.5888 -1.5179  0.9629
  484MPD2    H3 7257   1.941   4.518  12.364  2.3376  0.2414  0.4133
  484MPD2     N 7258   2.208   4.183  12.245 -0.3610 -0.1892  0.0495
  484MPD2    H5 7259   2.277   4.251  12.215  0.6122 -1.9963 -1.7684
  484MPD2    N1 7260   1.753   4.103  12.428  0.2099 -0.3807 -0.5348
  484MPD2    H7 7261   1.669   4.147  12.463  1.0704  1.0469 -0.2846
  485TMC3    C1 7262   2.370   4.031  12.156  0.4626 -0.2783 -0.3570
  485TMC3    C2 7263   2.459   4.139  12.140 -1.0095  0.6000  0.6494
  485TMC3    C3 7264   2.581   4.114  12.079  0.3609  0.1391 -0.9149
  485TMC3    C4 7265   2.387   3.913  12.086  0.5837 -0.0370  0.4218
  485TMC3    C5 7266   2.512   3.895  12.034  0.1599  0.2545 -0.3108
  485TMC3    C6 7267   2.608   3.988  12.031 -0.8181 -0.4051 -0.4713
  485TMC3     C 7268   2.236   4.054  12.208 -0.1317 -0.0080 -0.4502
  485TMC3     O 7269   2.161   3.965  12.181 -0.2654  0.0459 -0.6572
  485TMC3     H 7270   2.441   4.238  12.178 -0.8287  0.9436 -0.1542
  485TMC3    H1 7271   2.309   3.839  12.074  1.7716 -1.0612 -1.0011
  485TMC3    H2 7272   2.707   3.967  11.995  0.3390  1.7687  1.4177
  485TMC3    C7 7273   2.512   3.825  11.914  0.0811  0.6542 -1.0086
  485TMC3    C8 7274   2.612   4.212  11.975  0.5502  0.7973 -0.0964
  485TMC3    O1 7275   2.453   3.714  11.917 -0.0865 -0.1319  0.0113
  485TMC3    O2 7276   2.646   4.169  11.867  0.3684 -0.3605 -0.6507
  486MPD2     C 7277   4.244   2.955  12.683  0.1713 -0.0231 -0.1106
  486MPD2    C1 7278   4.257   2.968  12.549  0.8815  0.1769 -0.5129
  486MPD2    C2 7279   4.235   3.085  12.489 -0.1718  0.3352  0.6319
  486MPD2    C3 7280   4.213   3.197  12.567  0.0101 -0.1261 -0.4899
  486MPD2    C4 7281   4.203   3.187  12.706 -0.5304 -0.4386 -0.0853
  486MPD2    C5 7282   4.218   3.062  12.760 -0.1872 -0.7050  0.0020
  486MPD2     H 7283   4.258   3.099  12.384 -2.1083 -0.5411  0.1022
  486MPD2    H1 7284   4.187   3.278  12.763 -0.2774 -0.2032 -0.3906
  486MPD2    H2 7285   4.239   2.857  12.728  0.1253 -0.0762 -0.2304
  486MPD2    H3 7286   4.215   3.047  12.867  1.8340 -2.7480 -0.2295
  486MPD2     N 7287   4.194   3.320  12.499  0.1845  0.4556 -1.0083
  486MPD2    H5 7288   4.198   3.321  12.398  0.9635  0.5837 -0.9762
  486MPD2    N1 7289   4.292   2.849  12.487  0.0321 -0.5112  0.2238
  486MPD2    H7 7290   4.298   2.765  12.544 -0.0924 -0.2165  0.6684
  487TMC3    C1 7291   4.340   2.702  12.313 -0.4341  0.3073  0.8572
  487TMC3    C2 7292   4.264   2.655  12.213 -0.5625  0.8798 -0.6066
  487TMC3    C3 7293   4.211   2.531  12.225 -0.1576 -1.0829 -0.5687
  487TMC3    C4 7294   4.383   2.619  12.416  0.0380 -0.4476 -0.3346
  487TMC3    C5 7295   4.317   2.505  12.436  0.1510 -0.1545  0.0125
  487TMC3    C6 7296   4.232   2.458  12.344  0.4099  0.0788  0.3507
  487TMC3     C 7297   4.303   2.834  12.353 -0.8164  0.1296  0.2370
  487TMC3     O 7298   4.254   2.910  12.268 -0.1357  0.0965  0.0139
  487TMC3     H 7299   4.245   2.712  12.123 -1.4058  0.5159 -0.6669
  487TMC3    H1 7300   4.433   2.666  12.500 -2.2738  0.1293  0.7308
  487TMC3    H2 7301   4.197   2.356  12.339 -0.4948  0.4210 -0.2905
  487TMC3    C7 7302   4.258   2.486  12.571  0.3873 -0.2912  0.4143
  487TMC3    C8 7303   4.078   2.507  12.179  0.1933  0.4715  1.0644
  487TMC3    O1 7304   4.276   2.581  12.647  0.6216  0.3440 -0.2594
  487TMC3    O2 7305   4.060   2.500  12.060  0.2349 -0.0388  0.0909
  488MPD2     C 7306   4.275   4.361  16.425 -0.0307  0.1532 -0.7657
  488MPD2    C1 7307   4.285   4.499  16.442 -1.0518  0.0449 -0.6185
  488MPD2    C2 7308   4.284   4.543  16.573  0.3629 -0.2023 -0.1652
  488MPD2    C3 7309   4.254   4.463  16.679  0.2375  0.2032 -0.2197
  488MPD2    C4 7310   4.241   4.322  16.659  0.1078  0.2200  1.0448
  488MPD2    C5 7311   4.263   4.273  16.534 -0.4610 -0.4200 -0.1731
  488MPD2     H 7312   4.285   4.650  16.589 -3.9857  0.1578 -2.3018
  488MPD2    H1 7313   4.235   4.254  16.743 -0.8206 -0.9960  0.0037
  488MPD2    H2 7314   4.267   4.319  16.325 -2.5115 -0.7578 -0.1762
  488MPD2    H3 7315   4.253   4.167  16.516 -2.9482 -0.2676  0.3172
  488MPD2     N 7316   4.248   4.526  16.806 -0.0356  0.1866  0.1413
  488MPD2    H5 7317   4.260   4.626  16.811  2.1521 -0.1048  0.6450
  488MPD2    N1 7318   4.297   4.595  16.337 -0.1983 -0.2043  0.1974
  488MPD2    H7 7319   4.315   4.691  16.364 -1.2979 -0.5955  2.3322
  489TMC3    C1 7320   4.233   4.557  17.034  0.3002  0.2142  0.2300
  489TMC3    C2 7321   4.290   4.680  17.006  0.5633 -0.4366  0.0403
  489TMC3    C3 7322   4.246   0.051  17.081  0.3460  0.2398 -0.3078
  489TMC3    C4 7323   4.131   4.544  17.128  0.4882 -0.1163  0.5996
  489TMC3    C5 7324   4.083   4.658  17.197 -0.7531  0.4136 -0.4285
  489TMC3    C6 7325   4.145   0.044  17.174 -0.0055  0.7574 -0.4365
  489TMC3     C 7326   4.232   4.463  16.923 -0.3209 -0.0827  0.0634
  489TMC3     O 7327   4.221   4.344  16.950  0.2212  0.3062 -0.3469
  489TMC3     H 7328   4.378   4.685  16.943 -0.8553  0.2656 -1.8939
  489TMC3    H1 7329   4.078   4.453  17.153  0.7285 -1.0405 -2.2631
  489TMC3    H2 7330   4.132   0.135  17.232 -0.5030  0.7467 -0.5321
  489TMC3    C7 7331   3.981   4.645  17.296  0.5805 -0.4115 -0.9552
  489TMC3    C8 7332   4.319   0.178  17.056 -0.4198  0.6263  0.5284
  489TMC3    O1 7333   3.928   4.536  17.286  0.2551  0.9081  0.1270
  489TMC3    O2 7334   4.437   0.165  17.022  0.1600  0.2971 -0.3107
  490MPD2     C 7335   0.391   4.364  16.962 -0.5865  0.1722  0.1016
  490MPD2    C1 7336   0.445   4.238  16.974 -0.5485  0.2459 -0.0648
  490MPD2    C2 7337   0.568   4.224  17.024 -0.1163  0.0543 -0.2116
  490MPD2    C3 7338   0.655   4.336  17.035 -0.4550  0.0951 -0.0443
  490MPD2    C4 7339   0.594   4.462  17.012  0.3622 -0.2638  0.5718
  490MPD2    C5 7340   0.459   4.476  16.971  0.2296  0.0920  0.2398
  490MPD2     H 7341   0.600   4.125  17.051  2.1350  0.7353 -0.4154
  490MPD2    H1 7342   0.655   4.552  17.015 -0.5812  0.2397  4.1292
  490MPD2    H2 7343   0.286   4.381  16.941 -0.5875 -0.6335 -0.5323
  490MPD2    H3 7344   0.424   4.577  16.954 -0.2848  0.0246  0.9174
  490MPD2     N 7345   0.798   4.329  17.069 -0.0461 -0.3728 -0.2694
  490MPD2    H5 7346   0.848   4.416  17.049 -1.4710  0.3030 -0.8894
  490MPD2    N1 7347   0.362   4.121  16.960  0.2541 -0.5742  0.0557
  490MPD2    H7 7348   0.416   4.037  16.977  0.9830 -0.3642 -1.1793
  491TMC3    C1 7349   0.186   3.973  16.956 -0.1299 -0.1586 -0.1957
  491TMC3    C2 7350   0.248   3.892  17.046  0.1294 -0.7074 -0.0822
  491TMC3    C3 7351   0.180   3.778  17.093 -0.0332  0.2738  0.5353
  491TMC3    C4 7352   0.059   3.943  16.909  0.3211  1.1839  0.0645
  491TMC3    C5 7353   4.734   3.837  16.963 -0.2082  0.2912 -0.2488
  491TMC3    C6 7354   0.050   3.753  17.049  0.8437  0.2689 -0.2799
  491TMC3     C 7355   0.225   4.110  16.932  0.1487 -0.1394  0.2808
  491TMC3     O 7356   0.138   4.191  16.898 -0.0190  0.0284  0.1173
  491TMC3     H 7357   0.336   3.926  17.100 -0.7186 -0.3675  1.0992
  491TMC3    H1 7358   0.010   4.004  16.834 -0.6557  0.5909  0.2204
  491TMC3    H2 7359   4.735   3.664  17.082  0.9826 -0.2591 -1.5173
  491TMC3    C7 7360   4.624   3.790  16.890  0.3471 -0.1231 -0.5074
  491TMC3    C8 7361   0.257   3.684  17.167  0.9159 -0.2095  0.1430
  491TMC3    O1 7362   4.615   3.669  16.891  0.2301  0.1189  0.1891
  491TMC3    O2 7363   0.377   3.692  17.139 -0.4417 -0.1696 -0.2672
  492MPD2     C 7364   0.533   4.387  10.204  0.0957  0.8912 -0.3267
  492MPD2    C1 7365   0.433   4.294  10.209 -0.3817  0.2781 -0.4274
  492MPD2    C2 7366   0.432   4.216  10.315  0.7313 -0.3324 -0.1450
  492MPD2    C3 7367   0.523   4.230  10.423 -0.2778  0.4404 -0.7956
  492MPD2    C4 7368   0.618   4.328  10.418 -0.5037  0.5595 -0.1526
  492MPD2    C5 7369   0.629   4.400  10.304  0.3444  0.3831  0.2557
  492MPD2     H 7370   0.351   4.145  10.327 -0.0689  0.4468 -1.0059
  492MPD2    H1 7371   0.696   4.342  10.493 -1.4824 -0.5258  1.0532
  492MPD2    H2 7372   0.532   4.464  10.128  0.0419  1.1844 -0.0293
  492MPD2    H3 7373   0.698   4.484  10.307  0.3374  0.3734  0.8364
  492MPD2     N 7374   0.517   4.153  10.550  0.6160 -0.3778 -0.5742
  492MPD2    H5 7375   0.584   4.181  10.622  0.8207 -2.7714  0.1557
  492MPD2    N1 7376   0.340   4.289  10.106  0.0599 -0.4675 -0.1014
  492MPD2    H7 7377   0.366   4.346  10.026  0.5390  1.7970  1.6700
  493TMC3    C1 7378   0.150   4.233   9.983  0.0973  0.0352  0.0898
  493TMC3    C2 7379   0.223   4.242   9.864  0.9728  0.1539 -0.7752
  493TMC3    C3 7380   0.157   4.303   9.767 -0.1988 -0.1025 -0.6405
  493TMC3    C4 7381   0.028   4.291  10.001  0.3323  0.3562 -0.0123
  493TMC3    C5 7382   4.710   4.368   9.905 -0.5964  0.8020 -0.0887
  493TMC3    C6 7383   0.043   4.378   9.783  0.1247 -0.0320 -0.0727
  493TMC3     C 7384   0.230   4.212  10.103 -0.0740  0.0896  0.0814
  493TMC3     O 7385   0.165   4.175  10.196  0.4081  0.1358 -0.2959
  493TMC3     H 7386   0.319   4.193   9.850  1.3505  0.3531  1.0242
  493TMC3    H1 7387   4.714   4.280  10.097 -0.9301 -0.1788 -0.7457
  493TMC3    H2 7388   0.014   4.440   9.700  0.6989 -1.7985 -1.5925
  493TMC3    C7 7389   4.611   4.464   9.946 -0.0585  0.0685 -0.2658
  493TMC3    C8 7390   0.232   4.335   9.650 -0.3878 -0.1618  0.0236
  493TMC3    O1 7391   4.601   4.571   9.884 -0.1360 -0.4804 -0.1061
  493TMC3    O2 7392   0.163   4.353   9.548  1.2318  0.1284  0.0475
  494TMC3    C1 7393   1.074   0.925   0.314  0.3562 -0.3113 -0.8920
  494TMC3    C2 7394   1.187   0.846   0.329 -0.0673  0.1698 -0.3715
  494TMC3    C3 7395   1.249   0.809   0.208 -0.5598 -0.7034  0.2686
  494TMC3    C4 7396   1.032   0.979   0.195  0.2121 -0.2956 -0.3697
  494TMC3    C5 7397   1.101   0.939   0.085  0.3936 -0.6693 -0.2674
  494TMC3    C6 7398   1.208   0.851   0.086  0.3000  0.5735 -0.0390
  494TMC3     C 7399   1.001   0.960   0.438 -0.3251 -0.3498  0.2664
  494TMC3     O 7400   1.077   0.991   0.527  0.2212  0.2800 -1.1103
  494TMC3     H 7401   1.221   0.808   0.425 -0.6420 -1.3335 -0.7713
  494TMC3    H1 7402   0.945   1.043   0.184  0.5486  0.2666  0.2953
  494TMC3    H2 7403   1.265   0.821  17.745  0.9495 -0.5508  0.7656
  494TMC3    C7 7404   1.062   0.982  17.697  1.3149 -0.3268  0.4541
  494TMC3    C8 7405   1.324   0.682   0.214 -0.3524  0.0175  0.0381
  494TMC3    O1 7406   1.152   0.996  17.613  0.4421 -0.7279 -0.2059
  494TMC3    O2 7407   1.381   0.658   0.322  0.6225  0.2451  0.4863
  495TMC3    C1 7408   4.676   2.801  14.691 -0.4577  0.1648 -0.0294
  495TMC3    C2 7409   4.608   2.855  14.587 -0.6804  0.0782  0.3180
  495TMC3    C3 7410   4.519   2.949  14.607 -0.2053 -0.2710  0.0996
  495TMC3    C4 7411   4.644   2.840  14.821 -0.5858 -0.1978  0.3923
  495TMC3    C5 7412   4.543   2.935  14.841 -0.2288 -1.1707  0.0930
  495TMC3    C6 7413   4.479   2.990  14.731 -0.1409 -0.0946  0.4543
  495TMC3     C 7414   0.002   2.671  14.670 -0.2414 -0.3190  0.3634
  495TMC3     O 7415   0.106   2.640  14.727  0.5865 -0.1098  0.5440
  495TMC3     H 7416   4.632   2.819  14.487 -0.4045 -0.9332  0.7454
  495TMC3    H1 7417   4.683   2.784  14.905 -1.2050 -0.0978  0.7442
  495TMC3    H2 7418   4.394   3.051  14.759  0.4745  0.2006  1.6599
  495TMC3    C7 7419   4.473   2.951  14.972  0.0665 -0.0444 -0.3377
  495TMC3    C8 7420   4.416   2.971  14.508 -0.1072  0.4441  0.2358
  495TMC3    O1 7421   4.532   3.007  15.062 -0.6550 -0.0323 -0.1612
  495TMC3    O2 7422   4.303   2.987  14.554  0.7244 -0.0124 -0.0437
  496MPD2     C 7423   2.118   2.942  15.249  0.1837  0.7138 -0.0805
  496MPD2    C1 7424   2.048   2.927  15.129 -0.0800 -0.5238  0.0587
  496MPD2    C2 7425   1.908   2.939  15.131 -0.2918  0.1747  0.3706
  496MPD2    C3 7426   1.842   2.936  15.252 -0.3747  0.3778  0.1161
  496MPD2    C4 7427   1.912   2.956  15.363  0.6625  0.0459 -0.1437
  496MPD2    C5 7428   2.048   2.950  15.366  0.2543  0.3900 -0.2149
  496MPD2     H 7429   1.850   2.926  15.040 -0.3534  1.7521  0.1767
  496MPD2    H1 7430   1.862   2.964  15.459  1.2282  0.1261  0.1434
  496MPD2    H2 7431   2.226   2.935  15.262  0.1985 -0.5924 -0.8515
  496MPD2    H3 7432   2.102   2.960  15.459  2.0201  0.2550 -1.2135
  496MPD2     N 7433   1.699   2.941  15.264 -0.1534 -1.1743 -0.6961
  496MPD2    H5 7434   1.666   2.947  15.359  0.6813  0.5519 -0.5171
  496MPD2    N1 7435   2.126   2.895  15.012 -0.0687 -0.9369 -0.0137
  496MPD2    H7 7436   2.224   2.871  15.023  0.4965  1.0069 -0.8236
  497TMC3    C1 7437   1.469   2.917  15.206 -0.3869  0.1606 -0.4779
  497TMC3    C2 7438   1.377   2.870  15.119  0.5057  0.0332  0.6754
  497TMC3    C3 7439   1.246   2.871  15.156 -0.3315  0.6936  0.4501
  497TMC3    C4 7440   1.435   2.968  15.325  0.2154 -0.3166 -0.4598
  497TMC3    C5 7441   1.307   2.968  15.361 -0.4436  0.6609 -0.1327
  497TMC3    C6 7442   1.206   2.918  15.279  0.5828  0.6577  0.0778
  497TMC3     C 7443   1.610   2.904  15.163 -0.6036  0.2702  0.1961
  497TMC3     O 7444   1.630   2.869  15.047 -0.6775  0.0723  0.0780
  497TMC3     H 7445   1.403   2.844  15.017 -0.5881  0.6956  0.2199
  497TMC3    H1 7446   1.508   3.027  15.379 -0.6223 -0.6777  1.0611
  497TMC3    H2 7447   1.107   2.921  15.322  0.3089 -1.1968 -0.4536
  497TMC3    C7 7448   1.271   3.014  15.492 -0.3787  0.4557  0.2859
  497TMC3    C8 7449   1.144   2.836  15.059 -0.3727 -0.3766 -0.4757
  497TMC3    O1 7450   1.154   3.051  15.500 -0.5281  0.0976 -0.3815
  497TMC3    O2 7451   1.033   2.891  15.058 -0.4189  0.1581 -0.4423
  498MPD2     C 7452   3.027   4.242   9.719 -0.1701  0.4290  0.3713
  498MPD2    C1 7453   3.013   4.221   9.856 -0.1586 -0.3887 -0.1916
  498MPD2    C2 7454   2.943   4.113   9.902 -0.7789 -0.4854  0.2927
  498MPD2    C3 7455   2.883   4.027   9.810  0.7124  0.1429 -0.1758
  498MPD2    C4 7456   2.896   4.054   9.672  0.2297 -0.2290 -0.9017
  498MPD2    C5 7457   2.969   4.163   9.629  0.1960 -0.1976  0.2943
  498MPD2     H 7458   2.944   4.084  10.006 -1.0956 -2.0598 -0.1313
  498MPD2    H1 7459   2.858   3.995   9.590 -0.9165 -1.2019  0.3318
  498MPD2    H2 7460   3.080   4.331   9.688 -1.8552  1.1923 -0.3391
  498MPD2    H3 7461   2.966   4.204   9.529  2.5750 -0.6398  0.0584
  498MPD2     N 7462   2.818   3.918   9.866  0.1435  0.1992  0.3790
  498MPD2    H5 7463   2.808   3.910   9.966 -0.3174  1.1057  0.4061
  498MPD2    N1 7464   3.090   4.300   9.942 -0.0732 -0.0313 -0.0492
  498MPD2    H7 7465   3.153   4.372   9.908 -0.5119 -0.3472 -1.5513
  499TMC3    C1 7466   3.180   4.385  10.140  0.2036  0.6710 -0.5764
  499TMC3    C2 7467   3.163   4.432  10.267 -0.5548 -0.4004 -1.1746
  499TMC3    C3 7468   3.229   4.550  10.300 -0.4002 -0.3717 -0.7830
  499TMC3    C4 7469   3.282   4.435  10.059 -0.0650  0.0134 -0.0726
  499TMC3    C5 7470   3.363   4.534  10.111  0.5063 -0.6841 -0.3448
  499TMC3    C6 7471   3.333   4.597  10.230  0.6300  0.1915 -0.1640
  499TMC3     C 7472   3.081   4.299  10.083 -1.0095 -0.0469  0.7850
  499TMC3     O 7473   3.003   4.243  10.153 -0.6730 -0.1056 -0.2033
  499TMC3     H 7474   3.087   4.394  10.334  0.6617 -0.5379  0.1288
  499TMC3    H1 7475   3.310   4.391   9.964 -0.0018  1.9009 -0.9367
  499TMC3    H2 7476   3.408   4.661  10.275  0.3093 -0.6936  1.6228
  499TMC3    C7 7477   3.478   4.591  10.039 -1.3055 -1.1882 -0.1766
  499TMC3    C8 7478   3.182   4.626  10.418  0.1717  0.6058  0.0824
  499TMC3    O1 7479   3.514   4.698  10.083  0.1757 -0.5018  0.5381
  499TMC3    O2 7480   3.082   4.580  10.475 -0.0273 -0.3415 -0.3974
  500MPD2     C 7481   4.005   0.836  11.041 -0.5596 -0.2801 -0.2060
  500MPD2    C1 7482   4.082   0.871  10.932  0.5496  0.0900  0.7557
  500MPD2    C2 7483   4.015   0.926  10.827 -0.6439  0.6912 -0.0702
  500MPD2    C3 7484   3.879   0.926  10.817 -0.3799  0.1326 -0.1236
  500MPD2    C4 7485   3.804   0.875  10.918  0.4484 -0.1446  0.0590
  500MPD2    C5 7486   3.869   0.828  11.025  0.2071 -0.2550 -0.4800
  500MPD2     H 7487   4.067   0.962  10.739 -1.5503 -0.6737 -1.1440
  500MPD2    H1 7488   3.695   0.877  10.915  0.4427  1.1915  0.9459
  500MPD2    H2 7489   4.046   0.808  11.138 -0.3252  0.1297 -0.1871
  500MPD2    H3 7490   3.815   0.792  11.111  2.7134 -0.1695  1.1233
  500MPD2     N 7491   3.796   0.973  10.705  0.5335 -1.4512  0.0134
  500MPD2    H5 7492   3.697   0.956  10.714  0.1512  1.2159  0.7089
  500MPD2    N1 7493   4.219   0.861  10.931  0.4306  0.2820 -0.0548
  500MPD2    H7 7494   4.265   0.878  10.842 -2.2382  0.1156 -1.4792
  501TMC3    C1 7495   4.432   0.795  10.985  0.2307 -0.3503 -0.1389
  501TMC3    C2 7496   4.478   0.873  10.880  0.5108  0.2857 -0.5717
  501TMC3    C3 7497   4.606   0.856  10.843  0.2170  0.2663 -0.3702
  501TMC3    C4 7498   4.514   0.726  11.072  0.4337 -0.3721  0.0667
  501TMC3    C5 7499   4.646   0.724  11.035 -0.5273  0.3876  0.4475
  501TMC3    C6 7500   4.695   0.787  10.919  0.4720 -0.8798 -0.3459
  501TMC3     C 7501   4.297   0.797  11.030  0.1805  0.6568 -0.7910
  501TMC3     O 7502   4.272   0.758  11.142 -0.0244  0.2315  0.5576
  501TMC3     H 7503   4.421   0.958  10.844 -0.3727 -0.1293 -0.1678
  501TMC3    H1 7504   4.466   0.652  11.135  0.0466  0.4943  0.7976
  501TMC3    H2 7505   0.061   0.771  10.888  0.7209  1.8091 -0.8999
  501TMC3    C7 7506   4.718   0.606  11.070  0.5382  0.2977  0.1290
  501TMC3    C8 7507   4.655   0.915  10.723 -0.3043  0.2566 -0.4057
  501TMC3    O1 7508   0.042   0.553  10.975 -0.0173  0.3989  0.1681
  501TMC3    O2 7509   0.039   0.940  10.717 -0.0033 -0.1342 -0.8991
  502TMC3    C1 7510   3.499   3.560  14.571  0.1464  0.0907  0.1144
  502TMC3    C2 7511   3.482   3.670  14.487  0.8087  0.2876 -0.0807
  502TMC3    C3 7512   3.373   3.754  14.488  0.1494 -0.0424  0.1711
  502TMC3    C4 7513   3.397   3.524  14.649  0.3531  0.3545  0.2471
  502TMC3    C5 7514   3.285   3.596  14.646  0.9298 -0.0203  0.2746
  502TMC3    C6 7515   3.268   3.712  14.567  0.0169  0.0380 -0.3669
  502TMC3     C 7516   3.630   3.544  14.621  0.8428  0.3683  0.1670
  502TMC3     O 7517   3.722   3.565  14.541  0.7792 -0.0123  0.0500
  502TMC3     H 7518   3.571   3.696  14.431  0.3898  1.3970 -0.2168
  502TMC3    H1 7519   3.398   3.438  14.715  2.0682 -1.6425 -2.4039
  502TMC3    H2 7520   3.188   3.779  14.595  0.9205  0.5121  1.0868
  502TMC3    C7 7521   3.184   3.568  14.744  0.7876  0.1335  0.3632
  502TMC3    C8 7522   3.396   3.896  14.504 -0.1185 -0.1274 -0.2475
  502TMC3    O1 7523   3.229   3.547  14.857 -0.1373  0.7626  0.5263
  502TMC3    O2 7524   3.304   3.974  14.524  0.0155  0.0610 -0.2113
  503MPD2     C 7525   1.423   4.390  16.898 -0.0239 -0.1657 -0.0075
  503MPD2    C1 7526   1.504   4.455  16.995 -0.1958  0.0924  0.5905
  503MPD2    C2 7527   1.594   4.379  17.059 -0.2375  0.1123 -0.0393
  503MPD2    C3 7528   1.614   4.249  17.024 -0.1424  0.1706 -1.0874
  503MPD2    C4 7529   1.537   4.185  16.933 -0.3198  0.0734 -1.0738
  503MPD2    C5 7530   1.434   4.254  16.875 -0.0273 -1.0901 -0.5410
  503MPD2     H 7531   1.661   4.420  17.133 -1.3669  1.1896  0.3945
  503MPD2    H1 7532   1.546   4.082  16.900  0.3340 -0.1307 -0.2592
  503MPD2    H2 7533   1.370   4.444  16.820 -0.2806  1.4873  1.3091
  503MPD2    H3 7534   1.379   4.214  16.790 -0.5756  2.0913 -1.6787
  503MPD2     N 7535   1.725   4.182  17.087  0.1871 -0.1578 -0.5985
  503MPD2    H5 7536   1.774   4.240  17.154 -1.3684  0.2183  0.2279
  503MPD2    N1 7537   1.507   4.597  17.004  0.1854 -0.8039  0.2606
  503MPD2    H7 7538   1.573   4.636  17.070  1.3487  0.8328 -1.8996
  504TMC3    C1 7539   1.895   4.027  17.132  0.1161 -0.3404 -0.5262
  504TMC3    C2 7540   1.897   4.062  17.261  0.3848  0.0523  0.3821
  504TMC3    C3 7541   1.969   3.988  17.345  0.1047 -0.5035  0.3448
  504TMC3    C4 7542   1.953   3.904  17.093 -0.2765  0.1606 -0.7271
  504TMC3    C5 7543   2.039   3.845  17.179  0.6793 -0.4345  0.1022
  504TMC3    C6 7544   2.035   3.879  17.310  0.1710 -0.3914  0.6233
  504TMC3     C 7545   1.781   4.063  17.042 -0.1030  0.0632 -0.0830
  504TMC3     O 7546   1.752   3.988  16.948  0.3917 -0.4493 -0.6760
  504TMC3     H 7547   1.859   4.154  17.303  0.0920  0.4951 -0.8321
  504TMC3    H1 7548   1.951   3.879  16.988  0.6788  0.0971 -0.7326
  504TMC3    H2 7549   2.100   3.828  17.380  0.1375 -0.9150  0.2792
  504TMC3    C7 7550   2.171   3.855  17.119 -0.2825  0.9882 -0.3190
  504TMC3    C8 7551   1.987   4.031  17.487 -0.3846  0.2256 -0.6376
  504TMC3    O1 7552   2.175   3.862  16.997  0.2168 -0.7891  0.4171
  504TMC3    O2 7553   1.983   4.154  17.510  0.6267 -0.2557 -0.3237
  505MPD2     C 7554   1.643   3.193  10.241  0.1452  0.6381 -0.3757
  505MPD2    C1 7555   1.700   3.100  10.329 -0.3128 -0.0927 -0.5265
  505MPD2    C2 7556   1.759   3.147  10.442  0.1968 -1.0326 -0.7157
  505MPD2    C3 7557   1.753   3.278  10.480  0.0350 -0.4601 -0.2272
  505MPD2    C4 7558   1.688   3.369  10.409 -0.0441  0.0428 -0.8464
  505MPD2    C5 7559   1.630   3.325  10.288  0.1960  0.2233 -0.5343
  505MPD2     H 7560   1.797   3.072  10.511 -1.0295 -0.4096  0.6326
  505MPD2    H1 7561   1.683   3.474  10.436 -1.6862 -0.6199  1.3541
  505MPD2    H2 7562   1.584   3.157  10.158 -1.3217  1.8284  0.1744
  505MPD2    H3 7563   1.572   3.397  10.232 -2.0222 -1.4762 -0.4104
  505MPD2     N 7564   1.826   3.313  10.596  0.0754 -0.2332  0.5506
  505MPD2    H5 7565   1.883   3.235  10.627  0.7157 -0.2847 -0.7512
  505MPD2    N1 7566   1.703   2.962  10.289  0.1831 -0.1271 -0.4648
  505MPD2    H7 7567   1.652   2.937  10.205 -2.5861 -0.1334  1.2167
  506TMC3    C1 7568   1.840   2.784  10.242 -0.4051  0.4113  0.0728
  506TMC3    C2 7569   1.876   2.846  10.123 -0.4947 -0.0414  0.0555
  506TMC3    C3 7570   1.999   2.825  10.073 -0.0172 -0.1626 -0.1846
  506TMC3    C4 7571   1.932   2.699  10.300  0.4400 -0.3365  0.6629
  506TMC3    C5 7572   2.057   2.670  10.240  0.4328  0.3590  0.7710
  506TMC3    C6 7573   2.085   2.730  10.117  0.6955 -0.2765  0.3695
  506TMC3     C 7574   1.796   2.880  10.340  0.1255  0.8139  0.5731
  506TMC3     O 7575   1.866   2.881  10.443  0.1774  0.0668  0.0642
  506TMC3     H 7576   1.811   2.925  10.087  2.2602  2.0342 -0.4046
  506TMC3    H1 7577   1.905   2.666  10.399 -0.1210 -1.1166  0.2458
  506TMC3    H2 7578   2.178   2.714  10.065  0.6041  0.9624 -0.1694
  506TMC3    C7 7579   2.171   2.687  10.328  0.0027 -0.8552  0.2129
  506TMC3    C8 7580   2.027   2.890   9.946  0.4347  0.0003  0.4744
  506TMC3    O1 7581   2.277   2.643  10.285  0.3289  0.3190 -0.1829
  506TMC3    O2 7582   1.935   2.886   9.861 -0.2397  0.1861  0.4340
  507TMC3    C1 7583   1.365   3.764  15.072  0.4095  1.0200 -0.6649
  507TMC3    C2 7584   1.312   3.818  14.956  0.2395 -0.1920  0.1975
  507TMC3    C3 7585   1.385   3.801  14.840  0.1970 -0.2725 -0.1004
  507TMC3    C4 7586   1.482   3.692  15.080  0.1017  0.1280  0.1223
  507TMC3    C5 7587   1.552   3.692  14.962  0.5106 -0.0444 -0.2195
  507TMC3    C6 7588   1.500   3.726  14.840 -0.1848 -0.3337 -0.0884
  507TMC3     C 7589   1.288   3.794  15.188 -0.3331  0.1264  0.4197
  507TMC3     O 7590   1.216   3.890  15.181  0.5024 -0.2822 -0.2814
  507TMC3     H 7591   1.209   3.851  14.950  0.8707  1.4571 -1.4485
  507TMC3    H1 7592   1.535   3.681  15.174 -1.4796 -0.9791  0.8887
  507TMC3    H2 7593   1.551   3.711  14.745  0.8384 -1.8120  0.6917
  507TMC3    C7 7594   1.695   3.730  14.966 -0.1165 -0.1241 -0.4029
  507TMC3    C8 7595   1.411   3.926  14.762 -0.2212  0.1882 -0.2036
  507TMC3    O1 7596   1.759   3.680  15.058  0.0978 -0.3777  0.3760
  507TMC3    O2 7597   1.524   3.930  14.716  0.2671 -0.5459 -0.2747
  508MPD2     C 7598   3.309   1.195  15.987  0.1795 -0.0300  0.8656
  508MPD2    C1 7599   3.303   1.318  16.048  0.1017 -0.7201 -0.0814
  508MPD2    C2 7600   3.264   1.424  15.970  0.3991  0.2647 -0.0089
  508MPD2    C3 7601   3.247   1.416  15.834  0.1723 -0.8166 -0.0390
  508MPD2    C4 7602   3.272   1.295  15.777  0.7321  0.1478  0.1543
  508MPD2    C5 7603   3.292   1.185  15.855  0.8838 -0.0861  0.3286
  508MPD2     H 7604   3.266   1.521  16.017  0.3541  0.7246 -0.9569
  508MPD2    H1 7605   3.276   1.288  15.669 -0.3593  1.5441  0.0245
  508MPD2    H2 7606   3.323   1.099  16.035 -0.0921 -2.3161 -3.7264
  508MPD2    H3 7607   3.311   1.085  15.817  2.4217 -0.0175  0.8976
  508MPD2     N 7608   3.223   1.536  15.768  0.5688 -0.2405  0.3608
  508MPD2    H5 7609   3.232   1.621  15.823 -0.3176  0.1276 -0.0840
  508MPD2    N1 7610   3.333   1.324  16.186 -0.0824  0.2535 -0.4323
  508MPD2    H7 7611   3.350   1.240  16.241 -0.9375 -0.3954 -1.1815
  509TMC3    C1 7612   3.141   1.856  15.425  0.8819  0.3338 -0.3590
  509TMC3    C2 7613   3.166   1.963  15.512  0.0794 -0.5271 -0.6264
  509TMC3    C3 7614   3.199   1.930  15.641  0.4646  0.4460 -0.3466
  509TMC3    C4 7615   3.161   1.728  15.462  0.4215  0.3647 -1.0228
  509TMC3    C5 7616   3.191   1.705  15.593  0.0831 -0.2981  0.5926
  509TMC3    C6 7617   3.198   1.804  15.683  0.0259  0.5704  0.1462
  509TMC3     C 7618   3.167   1.877  15.279  0.5494 -0.8513 -0.0312
  509TMC3     O 7619   3.220   1.788  15.210 -0.3712  0.1920  0.3222
  509TMC3     H 7620   3.162   2.063  15.472 -0.2498 -0.5898 -0.7550
  509TMC3    H1 7621   3.158   1.645  15.393 -1.7281 -0.8296  0.5306
  509TMC3    H2 7622   3.231   1.772  15.781  0.2087 -1.7490 -0.6664
  509TMC3    C7 7623   3.201   1.566  15.632  0.2507  0.4204 -0.1071
  509TMC3    C8 7624   3.264   2.030  15.722 -0.1556 -0.1763  0.2652
  509TMC3    O1 7625   3.190   1.485  15.543 -0.2902 -0.5447 -0.5433
  509TMC3    O2 7626   3.348   1.987  15.803  0.8058 -0.0557  0.4025
  510MPD2     C 7627   0.696   3.602  14.426  0.3618 -0.0741  0.1096
  510MPD2    C1 7628   0.813   3.538  14.452  0.3101 -0.1972 -0.0966
  510MPD2    C2 7629   0.917   3.529  14.365 -0.0317 -0.5315 -0.0106
  510MPD2    C3 7630   0.911   3.615  14.257  0.6141 -0.4937 -0.6427
  510MPD2    C4 7631   0.803   3.703  14.241 -0.7133 -0.1745  1.3336
  510MPD2    C5 7632   0.695   3.691  14.325 -0.2369  0.2737  0.2404
  510MPD2     H 7633   1.004   3.468  14.389 -0.5486 -0.7853  1.2499
  510MPD2    H1 7634   0.790   3.776  14.162  0.6460 -0.2216  1.0680
  510MPD2    H2 7635   0.610   3.603  14.492  0.0163 -1.5591 -0.3178
  510MPD2    H3 7636   0.602   3.746  14.319 -0.6573 -0.5347 -0.7506
  510MPD2     N 7637   1.020   3.613  14.174  0.0683 -0.4775  0.7240
  510MPD2    H5 7638   1.093   3.545  14.195  1.3339  0.7599  0.4037
  510MPD2    N1 7639   0.827   3.464  14.572  0.0784  0.8255 -0.0904
  510MPD2    H7 7640   0.902   3.396  14.584 -0.8922 -0.6417 -2.4534
  511TMC3    C1 7641   0.760   3.350  14.771 -0.2390  0.2277  0.9613
  511TMC3    C2 7642   0.709   3.362  14.896 -1.6022 -0.3265 -0.1712
  511TMC3    C3 7643   0.649   3.253  14.957  0.6929 -0.3413 -0.0924
  511TMC3    C4 7644   0.762   3.220  14.714 -0.0053 -0.1230  0.4195
  511TMC3    C5 7645   0.710   3.110  14.786 -0.0830  0.1129 -0.0335
  511TMC3    C6 7646   0.650   3.128  14.907 -0.0681 -0.4088  0.2913
  511TMC3     C 7647   0.736   3.459  14.675 -0.6124 -0.3297 -0.1596
  511TMC3     O 7648   0.650   3.541  14.702 -0.3319 -0.3000 -0.0231
  511TMC3     H 7649   0.700   3.455  14.951 -0.7145 -0.4916  0.2723
  511TMC3    H1 7650   0.794   3.213  14.611  0.3080 -2.3404  0.6781
  511TMC3    H2 7651   0.601   3.049  14.963 -1.4406  0.8509  0.8588
  511TMC3    C7 7652   0.681   2.985  14.719  0.5473  0.5143 -0.3325
  511TMC3    C8 7653   0.589   3.271  15.085  0.5169  0.5401  0.3435
  511TMC3    O1 7654   0.694   2.987  14.598  0.3689  0.1688  0.3200
  511TMC3    O2 7655   0.542   3.383  15.106 -0.2536  0.2372  0.2943
  512TMC3    C1 7656   4.503   3.427  12.766 -0.6487 -0.1451  0.4909
  512TMC3    C2 7657   4.509   3.374  12.889 -0.3921 -0.2583 -0.4956
  512TMC3    C3 7658   4.545   3.248  12.906 -0.3064 -0.7859 -0.1561
  512TMC3    C4 7659   4.524   3.346  12.660  0.3497  0.1997  0.3864
  512TMC3    C5 7660   4.560   3.217  12.673  0.1470 -0.5731 -0.3620
  512TMC3    C6 7661   4.571   3.162  12.800 -0.3293  0.0836  0.1261
  512TMC3     C 7662   4.485   3.570  12.749 -0.4653  0.4857 -0.2497
  512TMC3     O 7663   4.490   3.600  12.629  0.1703 -0.4159 -0.0802
  512TMC3     H 7664   4.502   3.444  12.972  2.3017 -2.4873  1.6126
  512TMC3    H1 7665   4.526   3.390  12.561 -0.5902 -0.0525  0.2567
  512TMC3    H2 7666   4.612   3.064  12.822  2.7921  0.9458 -1.9656
  512TMC3    C7 7667   4.598   3.144  12.554 -0.4422 -0.8195 -0.4768
  512TMC3    C8 7668   4.566   3.197  13.037  0.3090  0.5044 -0.5592
  512TMC3    O1 7669   4.639   3.214  12.459 -0.6730  0.3874  0.1607
  512TMC3    O2 7670   4.578   3.072  13.043  0.4691  0.3304 -0.2561
  513MPD2     C 7671   2.785   3.278  12.590 -0.5708 -0.2916  0.2226
  513MPD2    C1 7672   2.674   3.202  12.623  0.1213 -0.0566 -0.3435
  513MPD2    C2 7673   2.691   3.074  12.676  0.3917  0.0737 -0.0827
  513MPD2    C3 7674   2.812   3.019  12.690  0.1768  0.2343  0.2783
  513MPD2    C4 7675   2.923   3.092  12.657 -0.4188 -0.0115  0.0655
  513MPD2    C5 7676   2.910   3.214  12.608  0.0150  0.1937 -0.0545
  513MPD2     H 7677   2.612   3.010  12.713  0.3044  0.2182 -0.0155
  513MPD2    H1 7678   3.023   3.056  12.679 -1.0182 -1.0434  1.0898
  513MPD2    H2 7679   2.779   3.376  12.544  0.3709 -0.9461 -1.2917
  513MPD2    H3 7680   2.995   3.276  12.581  1.0156 -0.9274  0.5411
  513MPD2     N 7681   2.815   2.891  12.757 -0.6643  0.9624  0.1730
  513MPD2    H5 7682   2.727   2.844  12.774 -0.2993  0.7711  1.5192
  513MPD2    N1 7683   2.548   3.253  12.611  0.0770  0.0169  0.6578
  513MPD2    H7 7684   2.536   3.351  12.585  0.8587 -0.0482  0.0437
  514TMC3    C1 7685   2.317   3.281  12.639  0.1179  0.8402  0.5782
  514TMC3    C2 7686   2.290   3.303  12.510  0.4732 -0.1344  0.4320
  514TMC3    C3 7687   2.168   3.285  12.456 -0.1066  0.0563 -0.2208
  514TMC3    C4 7688   2.214   3.229  12.717  0.6457  0.7168 -0.1609
  514TMC3    C5 7689   2.091   3.202  12.662 -0.2318 -0.0814  0.0549
  514TMC3    C6 7690   2.071   3.220  12.528 -0.5680  0.2719  0.2656
  514TMC3     C 7691   2.434   3.195  12.654  0.1059 -0.0847  0.7982
  514TMC3     O 7692   2.412   3.084  12.696 -0.0711 -0.3099 -0.1743
  514TMC3     H 7693   2.365   3.368  12.465 -0.2966  0.9384  0.7101
  514TMC3    H1 7694   2.227   3.196  12.820  0.0658 -0.2105 -0.3850
  514TMC3    H2 7695   1.980   3.180  12.485 -2.0790  1.9747  1.9073
  514TMC3    C7 7696   2.042   3.078  12.719  0.3488  0.5666  0.1082
  514TMC3    C8 7697   2.136   3.380  12.357 -0.5959  0.3303 -0.0575
  514TMC3    O1 7698   1.928   3.053  12.693  0.1998 -0.0483 -0.5581
  514TMC3    O2 7699   2.186   3.494  12.357  0.2026 -0.2275 -0.0093
  515MPD2     C 7700   4.631   4.445  14.969 -0.1697 -0.2935  0.4167
  515MPD2    C1 7701   4.689   4.414  14.844 -0.0880 -0.2125  0.4366
  515MPD2    C2 7702   0.057   4.495  14.795  0.0704  0.0992 -0.1657
  515MPD2    C3 7703   0.107   4.601  14.866 -0.2569  0.4797 -0.1552
  515MPD2    C4 7704   0.051   4.628  14.990  0.1876 -0.4933 -0.5735
  515MPD2    C5 7705   4.681   4.554  15.032  0.9183  0.4726  0.0762
  515MPD2     H 7706   0.102   4.469  14.700  0.2591  3.1175 -0.8916
  515MPD2    H1 7707   0.081   4.708  15.056  0.1922 -2.1192  1.4039
  515MPD2    H2 7708   4.556   4.390  15.023  1.0629 -1.7227  0.6656
  515MPD2    H3 7709   4.629   4.579  15.124  0.7248  0.3996 -0.0123
  515MPD2     N 7710   0.217   4.684  14.836 -0.1119 -0.1391  0.1745
  515MPD2    H5 7711   0.233   0.019  14.905  1.4822  0.6016 -0.9543
  515MPD2    N1 7712   4.646   4.301  14.775 -0.1139 -0.1503  0.5315
  515MPD2    H7 7713   4.686   4.286  14.683  0.2814  0.6349  0.5770
  516TMC3    C1 7714   4.508   4.125  14.716  0.3543  0.3716 -0.1347
  516TMC3    C2 7715   4.517   4.160  14.587  0.2134 -0.4444 -0.2772
  516TMC3    C3 7716   4.507   4.061  14.495  0.6209 -0.3759  0.2940
  516TMC3    C4 7717   4.476   3.995  14.754  0.1542  0.1781  0.1140
  516TMC3    C5 7718   4.469   3.897  14.663 -0.1902 -0.1614  0.0445
  516TMC3    C6 7719   4.479   3.931  14.531 -0.2795 -0.0372 -0.3652
  516TMC3     C 7720   4.540   4.222  14.813  0.3306  0.9853 -0.2597
  516TMC3     O 7721   4.496   4.217  14.928 -0.0851  0.2329  0.0451
  516TMC3     H 7722   4.528   4.265  14.559  1.5391 -1.2124 -2.6476
  516TMC3    H1 7723   4.454   3.973  14.858 -0.1383  0.9684  0.2181
  516TMC3    H2 7724   4.490   3.854  14.456 -2.5169  0.2692 -0.9832
  516TMC3    C7 7725   4.443   3.763  14.712 -0.2976  0.5020 -0.2609
  516TMC3    C8 7726   4.454   4.106  14.371  0.0873  0.3756 -0.3585
  516TMC3    O1 7727   4.417   3.748  14.830  0.0895 -0.5993  0.3163
  516TMC3    O2 7728   4.387   4.026  14.310  0.0424 -0.4374  0.1112
  517MPD2     C 7729   4.102   1.225  17.442 -0.7216 -0.2243  0.0851
  517MPD2    C1 7730   4.225   1.200  17.503  0.0366 -0.0308  0.4863
  517MPD2    C2 7731   4.277   1.291  17.591  0.5176  0.3824 -1.1536
  517MPD2    C3 7732   4.209   1.408  17.632 -0.6913  0.1104  0.1231
  517MPD2    C4 7733   4.085   1.436  17.567 -0.9048 -0.3433  0.4266
  517MPD2    C5 7734   4.040   1.341  17.481  0.0372 -0.3334 -0.0276
  517MPD2     H 7735   4.369   1.260  17.640 -0.8166 -0.6981  0.6707
  517MPD2    H1 7736   4.026   1.523  17.592 -0.0865  1.0532 -2.4595
  517MPD2    H2 7737   4.056   1.172  17.360 -0.4428  1.6442 -1.2566
  517MPD2    H3 7738   3.945   1.349  17.430  0.3095  0.4386 -0.4082
  517MPD2     N 7739   4.247   1.496  17.731 -0.2166 -0.3164  0.3528
  517MPD2    H5 7740   4.177   1.563   0.017  0.3091 -0.0900  1.0265
  517MPD2    N1 7741   4.303   1.086  17.468  0.9113 -0.3063 -0.1624
  517MPD2    H7 7742   4.398   1.089  17.503  0.9432 -1.2904 -0.1780
  518TMC3    C1 7743   4.376   0.904  17.352 -0.1300 -0.4094 -0.1481
  518TMC3    C2 7744   4.371   0.770  17.360  0.7435  0.2878  0.3542
  518TMC3    C3 7745   4.485   0.703  17.319  0.6634  0.2765 -0.3987
  518TMC3    C4 7746   4.472   0.974  17.294  0.4477 -0.5237  0.1254
  518TMC3    C5 7747   4.588   0.905  17.257 -0.3744  0.1659 -0.7326
  518TMC3    C6 7748   4.593   0.766  17.271  0.6517  0.2631  0.0341
  518TMC3     C 7749   4.261   0.976  17.395 -0.3320  0.5731  0.3922
  518TMC3     O 7750   4.145   0.939  17.389 -0.4209  1.2449  0.3446
  518TMC3     H 7751   4.283   0.721  17.400  0.7532  1.0590  1.3229
  518TMC3    H1 7752   4.453   1.080  17.280 -1.5924 -0.9162  0.0332
  518TMC3    H2 7753   4.678   0.712  17.230  0.7034 -0.5920  1.2489
  518TMC3    C7 7754   4.643   0.954  17.134 -0.0485 -0.5498 -0.1554
  518TMC3    C8 7755   4.491   0.556  17.319 -0.4594 -0.1500  0.3320
  518TMC3    O1 7756   4.576   1.012  17.053  0.4300 -0.0786 -0.4316
  518TMC3    O2 7757   4.594   0.499  17.278  0.2144 -0.1496  0.0816
  519MPD2     C 7758   1.376   4.099  14.249  0.3680 -0.1085  0.2842
  519MPD2    C1 7759   1.352   4.146  14.124 -0.4701  0.4016  0.0287
  519MPD2    C2 7760   1.432   4.092  14.020 -0.0893 -0.0425 -0.0650
  519MPD2    C3 7761   1.532   3.997  14.038 -0.5203  0.2632 -0.2286
  519MPD2    C4 7762   1.540   3.945  14.165 -0.5436 -0.3262  0.0271
  519MPD2    C5 7763   1.473   4.000  14.269 -0.8986 -0.3978 -1.1472
  519MPD2     H 7764   1.409   4.116  13.917  1.0594  1.0242 -0.0649
  519MPD2    H1 7765   1.604   3.859  14.183 -0.1616 -0.4777 -2.0666
  519MPD2    H2 7766   1.330   4.147  14.334  0.0084  0.3614 -0.1790
  519MPD2    H3 7767   1.495   3.972  14.371 -0.1869 -0.3956 -1.3027
  519MPD2     N 7768   1.609   3.937  13.930  0.3406 -0.1599 -0.4381
  519MPD2    H5 7769   1.676   3.873  13.971 -1.5498 -2.3507 -0.7910
  519MPD2    N1 7770   1.254   4.239  14.105  0.0392 -0.8035 -0.2400
  519MPD2    H7 7771   1.202   4.265  14.189  0.2972 -1.3907  0.1037
  520TMC3    C1 7772   1.654   3.882  13.701 -0.6989  0.0191 -0.1014
  520TMC3    C2 7773   1.608   3.883  13.574  0.0111  0.3893  0.2586
  520TMC3    C3 7774   1.675   3.828  13.472 -0.5157  0.0743 -0.3418
  520TMC3    C4 7775   1.775   3.828  13.722 -0.7104 -0.3258 -0.6185
  520TMC3    C5 7776   1.849   3.773  13.613 -0.0894 -0.2171  0.3174
  520TMC3    C6 7777   1.800   3.772  13.489  0.7687 -0.3072 -0.0290
  520TMC3     C 7778   1.596   3.974  13.798  0.3975 -0.2218  0.2343
  520TMC3     O 7779   1.520   4.051  13.743 -0.1525  0.0247 -0.0686
  520TMC3     H 7780   1.515   3.938  13.559 -0.7686 -1.2497 -0.8352
  520TMC3    H1 7781   1.815   3.823  13.823  0.9694 -2.4793 -1.3909
  520TMC3    H2 7782   1.849   3.737  13.399 -0.7806 -4.0633  0.6022
  520TMC3    C7 7783   1.976   3.706  13.647  0.3364  0.5904  0.2954
  520TMC3    C8 7784   1.635   3.865  13.332 -0.1205  0.4627  0.1835
  520TMC3    O1 7785   2.018   3.712  13.761  0.0409 -0.6578 -0.5413
  520TMC3    O2 7786   1.723   3.882  13.247  0.3123  0.2739 -0.0001
  521MPD2     C 7787   2.251   2.116  17.658  0.3713  0.2052  0.4266
  521MPD2    C1 7788   2.215   2.083  17.532 -0.6768  0.2525 -0.0142
  521MPD2    C2 7789   2.317   2.069  17.438 -0.5411  0.6979 -0.1172
  521MPD2    C3 7790   2.451   2.098  17.472  0.1714 -0.2805 -0.5860
  521MPD2    C4 7791   2.482   2.131  17.604 -0.1409 -0.2973  0.1849
  521MPD2    C5 7792   2.377   2.149  17.694 -0.0143 -0.6885 -0.1579
  521MPD2     H 7793   2.288   2.041  17.338  0.3164 -2.5657  0.5428
  521MPD2    H1 7794   2.582   2.152  17.642 -0.8767  1.2459  1.2767
  521MPD2    H2 7795   2.164   2.125  17.721  0.2416  1.2508  0.1049
  521MPD2    H3 7796   2.393   2.168   0.054  2.0791  0.6542 -0.7255
  521MPD2     N 7797   2.562   2.098  17.381 -0.0795  0.3532 -0.0017
  521MPD2    H5 7798   2.660   2.097  17.409 -0.0367 -3.0658 -0.2416
  521MPD2    N1 7799   2.078   2.053  17.505 -0.2305  0.1582 -0.3350
  521MPD2    H7 7800   2.013   2.079  17.579 -0.8144 -3.8186  0.5179
  522TMC3    C1 7801   2.666   2.123  17.166 -0.6587  0.6692 -0.5011
  522TMC3    C2 7802   2.782   2.059  17.199  0.6528 -0.1724  0.0654
  522TMC3    C3 7803   2.895   2.068  17.117 -0.3996  0.0662 -0.0577
  522TMC3    C4 7804   2.652   2.188  17.052  0.4351  0.4307  0.2132
  522TMC3    C5 7805   2.771   2.199  16.977  0.5188  0.3543 -0.3772
  522TMC3    C6 7806   2.892   2.136  16.996  0.0667 -0.3442 -0.3645
  522TMC3     C 7807   2.543   2.097  17.243  0.6130 -0.0121 -1.2647
  522TMC3     O 7808   2.443   2.092  17.178  0.8162 -0.4299 -0.2858
  522TMC3     H 7809   2.790   1.994  17.286 -0.9551 -1.9369 -1.1064
  522TMC3    H1 7810   2.561   2.245  17.036 -1.5679 -2.8855 -0.4473
  522TMC3    H2 7811   2.978   2.164  16.936  0.6362 -0.7905  0.2410
  522TMC3    C7 7812   2.771   2.283  16.852 -0.5105 -0.2937  0.1401
  522TMC3    C8 7813   2.998   1.980  17.151 -0.8152 -0.0252 -0.1017
  522TMC3    O1 7814   2.880   2.322  16.815 -0.4093 -0.3451 -0.8687
  522TMC3    O2 7815   3.011   1.941  17.267  0.6958 -0.0857 -0.2305
  523MPD2     C 7816   0.282   2.507   9.605  0.0895  0.3220 -0.0588
  523MPD2    C1 7817   0.250   2.433   9.715  0.3391 -0.4288  0.0759
  523MPD2    C2 7818   0.167   2.493   9.810 -0.0615  0.6133  0.2469
  523MPD2    C3 7819   0.120   2.622   9.804  0.0111 -0.3343 -0.9333
  523MPD2    C4 7820   0.151   2.690   9.689  0.3943 -0.1068 -0.2626
  523MPD2    C5 7821   0.234   2.633   9.592  0.0260  0.1976  0.1285
  523MPD2     H 7822   0.150   2.437   9.901 -0.7465 -0.5022 -0.5776
  523MPD2    H1 7823   0.114   2.791   9.674 -0.1785 -0.8132 -3.6755
  523MPD2    H2 7824   0.346   2.471   9.526 -0.5464  0.4159 -0.6228
  523MPD2    H3 7825   0.259   2.688   9.501  0.7739  2.2063  1.5628
  523MPD2     N 7826   0.046   2.685   9.905 -0.5540 -0.1338  0.0971
  523MPD2    H5 7827   0.001   2.773   9.882 -1.4530 -0.0034  2.3056
  523MPD2    N1 7828   0.304   2.305   9.736  0.1944 -0.0023  0.4166
  523MPD2    H7 7829   0.354   2.255   9.663 -1.1996 -2.0823  0.9092
  524TMC3    C1 7830   4.638   2.705  10.082 -0.7565 -0.3567 -0.0808
  524TMC3    C2 7831   4.636   2.703  10.220  0.2351  0.0162  0.4425
  524TMC3    C3 7832   4.518   2.693  10.283 -0.2140  0.3528  0.5379
  524TMC3    C4 7833   4.527   2.691  10.007  0.3446 -0.1091 -0.0072
  524TMC3    C5 7834   4.410   2.679  10.079 -0.0115 -0.5053  0.0151
  524TMC3    C6 7835   4.397   2.689  10.215 -0.4397 -0.3054 -0.4053
  524TMC3     C 7836   0.030   2.648  10.033  0.5729 -0.1452  0.1395
  524TMC3     O 7837   0.097   2.568  10.099 -0.3347  0.7203 -0.1783
  524TMC3     H 7838   4.730   2.698  10.275  0.1596 -0.4098  0.5368
  524TMC3    H1 7839   4.535   2.676   9.900 -0.1990  0.5358 -0.1410
  524TMC3    H2 7840   4.302   2.670  10.264 -0.2556  1.1199  0.5321
  524TMC3    C7 7841   4.295   2.671  10.001  0.4203  0.0012  0.1200
  524TMC3    C8 7842   4.520   2.704  10.437 -0.3341 -0.1328 -0.6861
  524TMC3    O1 7843   4.313   2.629   9.882  0.4511  0.4596  0.0452
  524TMC3    O2 7844   4.608   2.767  10.478 -0.5211 -0.1238 -0.0580
  525MPD2     C 7845   2.847   3.519  14.085  0.0363  0.1931 -0.2256
  525MPD2    C1 7846   2.953   3.520  14.170  0.1556  0.2866 -1.1952
  525MPD2    C2 7847   3.051   3.620  14.148 -0.1436  0.2010  0.5944
  525MPD2    C3 7848   3.033   3.715  14.047  0.0291  0.0205 -0.1856
  525MPD2    C4 7849   2.916   3.719  13.969 -0.4798  0.3121  0.1064
  525MPD2    C5 7850   2.830   3.616  13.990  0.5514 -0.0659 -0.4313
  525MPD2     H 7851   3.132   3.624  14.220  1.3286  0.2576 -1.0598
  525MPD2    H1 7852   2.889   3.791  13.893 -2.8651 -0.5643  0.1249
  525MPD2    H2 7853   2.776   3.437  14.085  1.5160 -1.0730  2.5102
  525MPD2    H3 7854   2.743   3.615  13.925 -0.0913  1.3805  0.4124
  525MPD2     N 7855   3.120   3.828  14.040  0.0741  0.4027  0.1311
  525MPD2    H5 7856   3.090   3.901  13.976 -1.4644 -0.7646 -0.4855
  525MPD2    N1 7857   2.961   3.433  14.280  0.5320 -0.6033 -0.2925
  525MPD2    H7 7858   3.046   3.436  14.337  1.8161  1.4750 -2.3311
  526TMC3    C1 7859   2.861   3.339  14.477 -0.0762 -0.4451 -0.3796
  526TMC3    C2 7860   2.762   3.373  14.564 -0.1380  0.5127  0.4812
  526TMC3    C3 7861   2.782   3.346  14.691 -0.2809 -0.3483 -0.1313
  526TMC3    C4 7862   2.986   3.297  14.518  0.3641  0.0084  0.1401
  526TMC3    C5 7863   3.006   3.270  14.654  0.3444 -0.4325 -1.0002
  526TMC3    C6 7864   2.906   3.304  14.745  0.3205  0.2191  0.1462
  526TMC3     C 7865   2.841   3.382  14.338 -0.6496  0.2372 -0.3242
  526TMC3     O 7866   2.727   3.396  14.309 -0.0720  0.2086 -0.0805
  526TMC3     H 7867   2.665   3.405  14.529 -0.3408 -0.3950  0.2107
  526TMC3    H1 7868   3.065   3.266  14.450  0.0426 -1.3115  0.3623
  526TMC3    H2 7869   2.919   3.279  14.850  0.1391  0.1295  0.1476
  526TMC3    C7 7870   3.135   3.215  14.698  0.0703 -0.0907  0.5287
  526TMC3    C8 7871   2.676   3.355  14.788 -0.4363  1.2223  0.0915
  526TMC3    O1 7872   3.222   3.231  14.610  0.5204  0.2050  0.3457
  526TMC3    O2 7873   2.705   3.349  14.901  0.4088  0.4087 -0.7576
  527MPD2     C 7874   0.983   1.414   1.102 -0.2495 -0.5155  0.0544
  527MPD2    C1 7875   1.016   1.335   0.988  0.0393  0.3120  0.0495
  527MPD2    C2 7876   1.152   1.296   0.980  0.3738  0.3118  0.5673
  527MPD2    C3 7877   1.251   1.335   1.067  0.1681  0.6402 -0.0853
  527MPD2    C4 7878   1.225   1.415   1.174  0.2634 -0.0290  0.1388
  527MPD2    C5 7879   1.092   1.458   1.183 -0.9195 -0.2613  0.0987
  527MPD2     H 7880   1.192   1.235   0.899  0.4844  1.5674 -0.3271
  527MPD2    H1 7881   1.308   1.462   1.224  0.2774  0.4338 -0.3175
  527MPD2    H2 7882   0.895   1.465   1.142 -0.1385 -1.6479  1.7423
  527MPD2    H3 7883   1.070   1.531   1.260 -0.7109 -1.2700  1.1201
  527MPD2     N 7884   1.383   1.295   1.028  0.1942  0.3586 -0.1879
  527MPD2    H5 7885   1.384   1.235   0.946 -0.8710 -1.3526  1.0521
  527MPD2    N1 7886   0.930   1.318   0.887  0.3689  0.3880 -0.3302
  527MPD2    H7 7887   0.966   1.278   0.801 -1.0949  0.7337 -1.1054
  528TMC3    C1 7888   0.736   1.336   0.753  0.2268  0.1885  0.4081
  528TMC3    C2 7889   0.816   1.381   0.652  0.3008 -0.5517 -0.2416
  528TMC3    C3 7890   0.792   1.333   0.523  0.2771 -0.3736  0.3992
  528TMC3    C4 7891   0.629   1.247   0.730  0.6120  0.1320 -0.2062
  528TMC3    C5 7892   0.607   1.214   0.603 -0.1906 -0.3926 -0.3232
  528TMC3    C6 7893   0.686   1.250   0.498  1.1052  0.4521  0.0841
  528TMC3     C 7894   0.796   1.341   0.882 -0.4193  0.2719 -0.1486
  528TMC3     O 7895   0.720   1.356   0.980  0.2435 -0.4934 -1.3243
  528TMC3     H 7896   0.901   1.442   0.678 -2.2356  2.2631  1.4179
  528TMC3    H1 7897   0.568   1.204   0.808 -0.3535  0.6438 -0.6754
  528TMC3    H2 7898   0.664   1.212   0.399  0.8477  0.6334  0.0711
  528TMC3    C7 7899   0.477   1.156   0.567 -0.4950  0.3466  0.0711
  528TMC3    C8 7900   0.905   1.365   0.438 -0.1141 -1.0123  0.8007
  528TMC3    O1 7901   0.459   1.146   0.443 -0.3327 -1.0776  0.2936
  528TMC3    O2 7902   1.006   1.395   0.499  0.2330 -0.1855  0.5709
  529MPD2     C 7903   2.989   0.190   0.695  0.6901  0.1200  0.1814
  529MPD2    C1 7904   3.044   0.111   0.596 -0.3872 -0.4679  0.4011
  529MPD2    C2 7905   3.011   0.143   0.467 -0.7636  0.3910 -0.0563
  529MPD2    C3 7906   2.940   0.259   0.433 -0.0037 -0.5039  0.4831
  529MPD2    C4 7907   2.886   0.342   0.536  0.1040  0.3263  0.1801
  529MPD2    C5 7908   2.912   0.303   0.666  0.1808  0.1211  0.3828
  529MPD2     H 7909   3.037   0.088   0.378 -0.8922 -2.5542  1.7435
  529MPD2    H1 7910   2.813   0.419   0.517  0.2327  0.0430 -1.4512
  529MPD2    H2 7911   3.012   0.167   0.799  1.6498  4.8292  1.0158
  529MPD2    H3 7912   2.866   0.362   0.745 -0.2927  0.1218  0.1057
  529MPD2     N 7913   2.914   0.268   0.292 -0.4109  0.1776 -0.3425
  529MPD2    H5 7914   2.952   0.185   0.248 -0.6370 -0.0563 -0.0932
  529MPD2    N1 7915   3.137   0.003   0.623 -0.0381  0.0635 -0.0233
  529MPD2    H7 7916   3.158   4.677   0.546 -1.4533  2.0518 -2.0310
  530TMC3    C1 7917   3.270   4.608   0.760 -0.5914 -0.0763 -0.1434
  530TMC3    C2 7918   3.384   4.619   0.833 -0.1310 -0.1157 -0.1879
  530TMC3    C3 7919   3.466   4.506   0.834  0.5055 -0.0500 -0.7684
  530TMC3    C4 7920   3.236   4.494   0.690 -0.7192  0.1979  0.0771
  530TMC3    C5 7921   3.316   4.389   0.701  0.0515 -0.4242  0.5548
  530TMC3    C6 7922   3.434   4.392   0.775  0.3766  0.2652 -0.0981
  530TMC3     C 7923   3.205   4.727   0.747 -0.0098  1.0900  0.3657
  530TMC3     O 7924   3.220   0.074   0.832  0.0322 -0.1508  0.0340
  530TMC3     H 7925   3.427   4.716   0.854 -2.9030  0.8677  0.9907
  530TMC3    H1 7926   3.139   4.484   0.643 -0.3211 -0.1885 -0.6556
  530TMC3    H2 7927   3.493   4.302   0.792 -0.7578 -0.4919 -0.1336
  530TMC3    C7 7928   3.293   4.265   0.633 -0.1052  0.0052 -0.0223
  530TMC3    C8 7929   3.601   4.508   0.893 -0.4476 -0.4713 -0.6733
  530TMC3    O1 7930   3.224   4.260   0.529 -0.0495 -0.1202 -0.5508
  530TMC3    O2 7931   3.608   4.595   0.980 -0.5084  0.1648 -0.2086
  531MPD2     C 7932   2.189   2.606  12.900 -0.3378  0.2623 -0.2478
  531MPD2    C1 7933   2.298   2.677  12.864  0.1616 -0.2122 -0.2028
  531MPD2    C2 7934   2.285   2.804  12.805  0.5708  0.0202  0.5062
  531MPD2    C3 7935   2.160   2.858  12.781  0.3796 -0.2244  0.8903
  531MPD2    C4 7936   2.046   2.781  12.806  0.0743  0.0684 -0.1064
  531MPD2    C5 7937   2.065   2.655  12.868  0.0108 -0.3622  0.3635
  531MPD2     H 7938   2.362   2.876  12.780  0.7061  0.1219  1.2332
  531MPD2    H1 7939   1.943   2.800  12.781 -0.6096 -3.0512  0.2649
  531MPD2    H2 7940   2.194   2.507  12.944  0.2993  0.7548  0.7741
  531MPD2    H3 7941   1.981   2.588  12.885 -0.2348  0.3192  1.8114
  531MPD2     N 7942   2.150   2.992  12.734  0.3653  0.8125  0.0139
  531MPD2    H5 7943   2.239   3.033  12.710  0.6597  1.3913  2.1673
  531MPD2    N1 7944   2.425   2.628  12.898 -0.1723  0.2210  0.1808
  531MPD2    H7 7945   2.432   2.529  12.920  0.9380  0.3073  0.2111
  532TMC3    C1 7946   2.662   2.611  12.901 -0.4292  0.3616 -0.2127
  532TMC3    C2 7947   2.777   2.692  12.908  0.6951  0.2450 -0.0275
  532TMC3    C3 7948   2.869   2.676  12.810 -0.3045 -0.0715  0.4010
  532TMC3    C4 7949   2.664   2.504  12.811 -0.2440 -0.1163  0.6868
  532TMC3    C5 7950   2.770   2.487  12.730  0.3953 -0.5657 -0.0408
  532TMC3    C6 7951   2.874   2.576  12.720  0.5997 -0.4498  0.5926
  532TMC3     C 7952   2.540   2.693  12.889 -0.3992  0.5541 -0.9472
  532TMC3     O 7953   2.561   2.814  12.881  0.0675  0.5963  0.6943
  532TMC3     H 7954   2.780   2.776  12.978  0.2760  0.1455  0.1107
  532TMC3    H1 7955   2.579   2.438  12.800 -1.8923  2.3536 -1.3875
  532TMC3    H2 7956   2.958   2.562  12.653  0.6230  3.2991 -0.1480
  532TMC3    C7 7957   2.824   2.347  12.715  0.1802 -0.1208 -0.0780
  532TMC3    C8 7958   2.921   2.805  12.761 -0.5452  0.4771 -0.2490
  532TMC3    O1 7959   2.931   2.335  12.659  0.1885  0.3861  0.1207
  532TMC3    O2 7960   3.037   2.815  12.726  0.1564 -0.0271  0.3019
  533TMC3    C1 7961   3.265   3.996  14.115 -0.4155  0.0665  1.1513
  533TMC3    C2 7962   3.398   4.032  14.136  0.8385 -0.1147 -0.2745
  533TMC3    C3 7963   3.419   4.163  14.159  0.1685  0.0395  0.7512
  533TMC3    C4 7964   3.163   4.086  14.120  0.6153  0.2402 -0.5038
  533TMC3    C5 7965   3.189   4.222  14.146 -0.2161  1.0322  0.2312
  533TMC3    C6 7966   3.319   4.259  14.164 -0.2086  0.5338  0.4619
  533TMC3     C 7967   3.235   3.858  14.117 -0.3133 -0.4099  0.3476
  533TMC3     O 7968   3.308   3.790  14.189  0.1558  0.4768  0.5036
  533TMC3     H 7969   3.486   3.969  14.126 -1.0092 -2.9699  1.4546
  533TMC3    H1 7970   3.061   4.050  14.112  0.6970  0.2134 -1.3401
  533TMC3    H2 7971   3.336   4.354  14.212 -2.5036  0.7578  0.8597
  533TMC3    C7 7972   3.080   4.315  14.196 -0.4098 -0.6996  0.0974
  533TMC3    C8 7973   3.553   4.196  14.190 -0.0720  0.5351 -0.1447
  533TMC3    O1 7974   3.108   4.433  14.201  0.1039 -0.1122 -0.1238
  533TMC3    O2 7975   3.628   4.108  14.238  0.7528  0.1550  0.6628
  534MPD2     C 7976   1.409   0.221   0.936 -0.0632 -0.6159  0.5352
  534MPD2    C1 7977   1.414   0.359   0.920 -0.0129  0.1711  0.2040
  534MPD2    C2 7978   1.309   0.423   0.853  0.5959 -0.3930 -0.6534
  534MPD2    C3 7979   1.197   0.348   0.809  0.5671 -0.0826  0.0236
  534MPD2    C4 7980   1.200   0.215   0.828 -0.4386 -0.0516  0.8811
  534MPD2    C5 7981   1.306   0.150   0.887  0.4712  0.0265  0.8613
  534MPD2     H 7982   1.318   0.529   0.832 -3.3103 -0.1434 -1.1273
  534MPD2    H1 7983   1.111   0.155   0.815  0.5453 -1.1994 -0.4912
  534MPD2    H2 7984   1.485   0.159   0.981  2.7162  0.8556 -2.1202
  534MPD2    H3 7985   1.303   0.042   0.893  3.5525  0.0632  2.7170
  534MPD2     N 7986   1.083   0.400   0.745 -0.6379 -0.5181 -0.8705
  534MPD2    H5 7987   1.011   0.336   0.713 -1.3851 -1.3227  2.3807
  534MPD2    N1 7988   1.520   0.443   0.974  0.2332  0.2460 -0.1336
  534MPD2    H7 7989   1.518   0.541   0.949  0.6579  0.1386 -0.5888
  535TMC3    C1 7990   0.942   0.551   0.631 -0.4549 -0.4868 -0.1894
  535TMC3    C2 7991   0.834   0.485   0.685 -0.3220 -1.3970  0.1684
  535TMC3    C3 7992   0.727   0.463   0.604  0.2694  0.4866  0.3881
  535TMC3    C4 7993   0.948   0.578   0.498 -0.6306  0.2992 -0.4903
  535TMC3    C5 7994   0.845   0.519   0.424  0.6225  0.1892  0.3257
  535TMC3    C6 7995   0.733   0.464   0.470  0.3059  0.2488  1.1775
  535TMC3     C 7996   1.073   0.534   0.692  0.2884  0.9776 -0.0202
  535TMC3     O 7997   1.153   0.624   0.667 -0.4568  0.0763 -0.3448
  535TMC3     H 7998   0.834   0.480   0.794 -1.0596 -0.2750  0.2250
  535TMC3    H1 7999   1.021   0.649   0.460  0.8709  0.3865  2.5136
  535TMC3    H2 8000   0.653   0.413   0.417  0.8730  1.4961 -0.8572
  535TMC3    C7 8001   0.864   0.543   0.284  1.0326  0.5623 -0.1670
  535TMC3    C8 8002   0.607   0.413   0.658  0.2176 -1.3870 -0.0810
  535TMC3    O1 8003   0.965   0.595   0.244 -0.1897 -0.4660  0.0411
  535TMC3    O2 8004   0.529   0.350   0.585 -0.1265 -0.0024  0.2839
  536MPD2     C 8005   4.347   3.477  15.875  0.5163 -0.0804  0.2299
  536MPD2    C1 8006   4.240   3.418  15.932 -0.3903  0.1264  0.3151
  536MPD2    C2 8007   4.130   3.397  15.848 -0.0840 -0.2713 -0.4090
  536MPD2    C3 8008   4.140   3.416  15.711 -0.1650 -0.1519  1.3328
  536MPD2    C4 8009   4.262   3.451  15.652 -0.2206 -0.2300  0.0717
  536MPD2    C5 8010   4.366   3.482  15.740 -0.5273 -0.2082  0.6952
  536MPD2     H 8011   4.038   3.373  15.900  1.4466 -1.7886  1.5693
  536MPD2    H1 8012   4.274   3.470  15.546  1.5930 -1.0505  0.1192
  536MPD2    H2 8013   4.431   3.490  15.941  1.4088 -1.4172 -0.6417
  536MPD2    H3 8014   4.454   3.520  15.691 -1.7988  0.8080 -0.8212
  536MPD2     N 8015   4.020   3.410  15.629  0.1374 -0.4982  0.0491
  536MPD2    H5 8016   4.012   3.447  15.535  1.4548  0.5612  0.3539
  536MPD2    N1 8017   4.248   3.394  16.072 -0.8163  0.0635  0.0362
  536MPD2    H7 8018   4.341   3.406  16.111 -0.6399 -0.2593 -0.2816
  537TMC3    C1 8019   4.207   3.306  16.285 -0.3478  0.2242 -0.1733
  537TMC3    C2 8020   4.271   3.399  16.365 -0.1684  0.0193  0.0275
  537TMC3    C3 8021   4.277   3.381  16.500 -0.3823 -0.5051 -0.3694
  537TMC3    C4 8022   4.166   3.194  16.341  0.7569  0.5555  0.1183
  537TMC3    C5 8023   4.193   3.164  16.473 -0.3405  0.3856 -0.9979
  537TMC3    C6 8024   4.240   3.269  16.562 -0.4624 -0.2896 -0.9145
  537TMC3     C 8025   4.159   3.320  16.150 -0.1505 -0.3137  0.2686
  537TMC3     O 8026   4.042   3.287  16.127 -0.4311 -0.0288  0.0074
  537TMC3     H 8027   4.302   3.496  16.328 -1.8284  0.2432 -0.7645
  537TMC3    H1 8028   4.117   3.122  16.277 -0.9120  2.5739 -0.8620
  537TMC3    H2 8029   4.251   3.255  16.669  2.1149 -0.5251 -1.2042
  537TMC3    C7 8030   4.104   3.070  16.533  0.2118  0.0456 -0.7924
  537TMC3    C8 8031   4.310   3.491  16.593  0.0042 -0.1810  0.9023
  537TMC3    O1 8032   3.994   3.076  16.480  0.1545 -0.0182  0.2449
  537TMC3    O2 8033   4.329   3.451  16.709 -0.1275  0.5629  0.7536
  538TMC3    C1 8034   1.105   2.153  10.748  0.6715  0.1693 -0.9368
  538TMC3    C2 8035   1.190   2.111  10.655 -0.2823 -0.0876 -0.0269
  538TMC3    C3 8036   1.163   2.112  10.523 -0.2555  0.1849 -0.0720
  538TMC3    C4 8037   0.978   2.187  10.711  0.2975 -0.3722 -0.0343
  538TMC3    C5 8038   0.952   2.201  10.577 -0.1144 -0.2624 -0.4741
  538TMC3    C6 8039   1.048   2.158  10.480  0.2565  0.2757  0.5371
  538TMC3     C 8040   1.124   2.128  10.887 -0.0774 -0.2379  0.1987
  538TMC3     O 8041   1.017   2.132  10.947 -0.2234  0.4715 -0.6076
  538TMC3     H 8042   1.288   2.087  10.695 -0.5197  0.6938  1.0466
  538TMC3    H1 8043   0.922   2.243  10.785 -0.7926  0.2049 -1.2938
  538TMC3    H2 8044   1.028   2.148  10.374  0.2300 -1.3505  0.6865
  538TMC3    C7 8045   0.814   2.201  10.540 -1.0659  1.0732  1.0101
  538TMC3    C8 8046   1.265   2.073  10.429  0.1984 -0.8594  0.2171
  538TMC3    O1 8047   0.729   2.182  10.626 -0.0369 -0.1162 -0.4015
  538TMC3    O2 8048   1.338   1.981  10.465 -0.2613 -0.3742  0.2670
  539MPD2     C 8049   0.742   1.730  11.522 -0.5473 -0.2888 -0.0042
  539MPD2    C1 8050   0.682   1.692  11.403 -0.1513  0.6922 -0.0225
  539MPD2    C2 8051   0.572   1.762  11.360  0.0798 -0.0973 -0.0105
  539MPD2    C3 8052   0.531   1.878  11.423  0.4597 -0.5912  0.1244
  539MPD2    C4 8053   0.597   1.924  11.533 -0.1268  0.2017 -0.7254
  539MPD2    C5 8054   0.701   1.846  11.584 -0.1206  0.2546  0.1467
  539MPD2     H 8055   0.521   1.720  11.275  1.5431 -1.0762 -0.3948
  539MPD2    H1 8056   0.583   2.019  11.583 -0.1165  0.9182 -2.0897
  539MPD2    H2 8057   0.826   1.676  11.563 -0.4765 -0.1657  0.0134
  539MPD2    H3 8058   0.761   1.890  11.663  0.6564 -0.8083  0.1505
  539MPD2     N 8059   0.425   1.960  11.382 -0.5986 -0.0419  0.0348
  539MPD2    H5 8060   0.392   2.023  11.454  2.1595  0.5741  0.7691
  539MPD2    N1 8061   0.724   1.572  11.328 -0.2198 -0.5222 -0.7107
  539MPD2    H7 8062   0.689   1.558  11.234 -0.6000  0.6347 -0.7383
  540TMC3    C1 8063   0.206   1.977  11.287  0.2016 -0.2843  1.0422
  540TMC3    C2 8064   0.133   1.972  11.168  0.5368  0.4453  0.2466
  540TMC3    C3 8065   4.736   1.997  11.188 -0.7541 -0.7391 -0.0527
  540TMC3    C4 8066   0.157   1.992  11.412 -0.3808 -0.1184 -0.4882
  540TMC3    C5 8067   0.028   2.014  11.417 -0.3151 -0.6434 -0.4595
  540TMC3    C6 8068   4.685   2.015  11.313  0.4052  0.0427 -0.2933
  540TMC3     C 8069   0.350   1.945  11.274  0.2611 -0.0616  0.1774
  540TMC3     O 8070   0.393   1.907  11.170 -0.2775 -0.2495  0.5914
  540TMC3     H 8071   0.180   1.949  11.073 -0.4913 -0.2696 -0.0848
  540TMC3    H1 8072   0.207   1.966  11.505  1.3807  1.6663 -0.9273
  540TMC3    H2 8073   4.579   2.022  11.335  0.4445 -0.9987  0.2306
  540TMC3    C7 8074   4.694   2.010  11.545 -0.3884 -0.3755 -0.4005
  540TMC3    C8 8075   4.634   1.979  11.084  0.3695  0.2343 -0.3857
  540TMC3    O1 8076   4.573   2.000  11.554 -0.0713  0.6574  0.5038
  540TMC3    O2 8077   4.521   1.958  11.124 -0.5404 -0.2898 -0.0355
  541MPD2     C 8078   3.690   2.850  13.149  0.2937  0.2137  0.1438
  541MPD2    C1 8079   3.650   2.823  13.021  0.7045  0.0053  0.1547
  541MPD2    C2 8080   3.655   2.928  12.925  0.0058  0.3639 -0.3446
  541MPD2    C3 8081   3.713   3.044  12.958  0.0453  0.2562  0.4877
  541MPD2    C4 8082   3.762   3.066  13.082  0.5080  0.4208 -0.4885
  541MPD2    C5 8083   3.753   2.972  13.180 -0.3623 -0.0732  0.5720
  541MPD2     H 8084   3.602   2.922  12.831  0.7774 -0.9293 -0.7089
  541MPD2    H1 8085   3.806   3.163  13.098  1.9760 -0.2606 -0.4038
  541MPD2    H2 8086   3.666   2.793  13.238  1.1085 -1.5256 -0.7538
  541MPD2    H3 8087   3.786   3.003  13.278  2.6635 -0.5526 -0.2778
  541MPD2     N 8088   3.730   3.150  12.872  0.0166 -0.0342 -0.4571
  541MPD2    H5 8089   3.766   3.230  12.922  0.5569 -1.3098  1.2100
  541MPD2    N1 8090   3.595   2.705  12.989  0.3216  0.7390 -0.1781
  541MPD2    H7 8091   3.552   2.649  13.062  0.5998 -0.4181 -0.8893
  542TMC3    C1 8092   3.778   3.288  12.695  0.2690 -0.4684 -0.1468
  542TMC3    C2 8093   3.723   3.330  12.577  0.1768  0.1638  0.5986
  542TMC3    C3 8094   3.751   3.462  12.540  0.7287  0.4695  0.0176
  542TMC3    C4 8095   3.840   3.370  12.780 -0.2047 -0.7892 -0.0639
  542TMC3    C5 8096   3.863   3.498  12.736  0.0033  0.2273  0.1580
  542TMC3    C6 8097   3.828   3.546  12.614 -0.5320 -0.1297  0.3897
  542TMC3     C 8098   3.729   3.158  12.737  0.4987 -0.2210 -0.2966
  542TMC3     O 8099   3.724   3.065  12.662  0.5246  0.4371 -0.0138
  542TMC3     H 8100   3.651   3.269  12.524  0.2153  0.8075 -0.1965
  542TMC3    H1 8101   3.874   3.337  12.877 -1.5757 -1.4638  0.1793
  542TMC3    H2 8102   3.876   3.635  12.574  1.0513 -0.7039  1.0340
  542TMC3    C7 8103   3.938   3.595  12.823  0.1919 -0.4207  0.0005
  542TMC3    C8 8104   3.710   3.507  12.404 -0.3115  0.2425  0.5291
  542TMC3    O1 8105   3.946   3.708  12.778 -0.4522  0.5214  0.5525
  542TMC3    O2 8106   3.658   3.421  12.336  0.2174 -0.1994  0.7523
  543TMC3    C1 8107   3.004   4.198  17.251 -0.0573  1.2403  0.1765
  543TMC3    C2 8108   3.009   4.088  17.327  0.6110 -0.1480 -0.5953
  543TMC3    C3 8109   2.959   4.096  17.454 -0.5138 -0.4076  0.0958
  543TMC3    C4 8110   2.943   4.314  17.285 -0.4817 -0.4419  0.2665
  543TMC3    C5 8111   2.894   4.315  17.410 -0.0189 -0.1122 -0.1889
  543TMC3    C6 8112   2.901   4.209  17.498  0.5022 -0.6117 -0.2609
  543TMC3     C 8113   3.034   4.169  17.119  0.6092  0.5971  0.0204
  543TMC3     O 8114   3.131   4.104  17.090 -0.0694 -0.8190  0.0112
  543TMC3     H 8115   3.065   4.000  17.297 -0.4928 -0.9398 -0.3237
  543TMC3    H1 8116   2.938   4.398  17.217  0.1279 -0.1892  0.5318
  543TMC3    H2 8117   2.855   4.217  17.596  0.1143  0.0192 -0.4966
  543TMC3    C7 8118   2.826   4.441  17.466 -0.9099  0.2181 -0.7394
  543TMC3    C8 8119   2.925   3.967  17.512 -0.4684 -0.2317  0.1446
  543TMC3    O1 8120   2.757   4.420  17.567  0.3444 -0.2582 -0.6414
  543TMC3    O2 8121   2.935   3.875  17.435 -0.5107 -0.1376  0.3759
  544MPD2     C 8122   2.706   3.653   0.111 -0.0045  0.0496  0.0118
  544MPD2    C1 8123   2.728   3.636  17.721 -1.1005  0.9641  0.2451
  544MPD2    C2 8124   2.782   3.744  17.650  0.0441 -0.3257 -0.7137
  544MPD2    C3 8125   2.814   3.864  17.707  0.3741  0.1700  0.0530
  544MPD2    C4 8126   2.777   3.887   0.095 -0.0581 -0.6074  0.5381
  544MPD2    C5 8127   2.734   3.776   0.166  0.5104  0.1117 -0.2884
  544MPD2     H 8128   2.795   3.726  17.543  0.1268 -0.4419 -0.6845
  544MPD2    H1 8129   2.788   3.987   0.135 -0.3037 -1.0864  1.7813
  544MPD2    H2 8130   2.673   3.572   0.175  0.9559 -2.9498 -3.2654
  544MPD2    H3 8131   2.716   3.784   0.273  1.3015 -1.6159 -0.0205
  544MPD2     N 8132   2.875   3.975  17.642 -0.7244  0.3690 -0.4295
  544MPD2    H5 8133   2.889   4.054  17.704  1.6141  0.3805 -1.0162
  544MPD2    N1 8134   2.710   3.501  17.672 -0.4389 -0.7559  0.0381
  544MPD2    H7 8135   2.682   3.422  17.728 -2.9120  0.3915  0.4225
  545TMC3    C1 8136   2.750   3.328  17.508 -0.2918  0.5949 -0.2186
  545TMC3    C2 8137   2.801   3.300  17.381  0.0305  0.3311  0.2568
  545TMC3    C3 8138   2.844   3.175  17.353  0.3572  0.3853 -0.3398
  545TMC3    C4 8139   2.736   3.230  17.598 -0.3429  0.0765  0.2088
  545TMC3    C5 8140   2.771   3.102  17.553 -0.3015 -0.0961  0.6170
  545TMC3    C6 8141   2.827   3.070  17.434 -0.1525 -0.0726 -1.5443
  545TMC3     C 8142   2.736   3.474  17.536  0.0382  0.2889 -0.0334
  545TMC3     O 8143   2.750   3.542  17.437  0.0660 -0.1265 -0.1242
  545TMC3     H 8144   2.790   3.369  17.298 -0.5061 -0.2455 -0.1567
  545TMC3    H1 8145   2.683   3.233  17.692 -0.7840 -2.8169  0.0423
  545TMC3    H2 8146   2.838   2.969  17.396  1.0299 -0.9385  1.0990
  545TMC3    C7 8147   2.738   2.990  17.649 -0.7017 -0.3426 -0.4271
  545TMC3    C8 8148   2.873   3.139  17.218  0.7359 -0.0814  0.5678
  545TMC3    O1 8149   2.639   3.008  17.718 -0.2817  0.1525 -0.1004
  545TMC3    O2 8150   2.853   3.024  17.186  0.3347 -0.0602 -0.3680
  546MPD2     C 8151   4.585   3.733  17.343  0.3464  0.4813  0.3929
  546MPD2    C1 8152   4.500   3.788  17.251  0.3845  0.0458  0.0705
  546MPD2    C2 8153   4.510   3.918  17.213 -0.6891 -0.1951 -0.5313
  546MPD2    C3 8154   4.594   4.003  17.280 -0.2687  1.1693  0.5964
  546MPD2    C4 8155   4.663   3.959  17.390  0.0882  0.2681  0.0554
  546MPD2    C5 8156   4.664   3.819  17.410 -0.7953 -0.0864  0.4672
  546MPD2     H 8157   4.448   3.958  17.134 -1.3752  1.5250  0.8647
  546MPD2    H1 8158   4.724   4.028  17.447 -0.7895  2.1240 -1.2583
  546MPD2    H2 8159   4.573   3.630  17.373  1.5593  0.9415  2.4190
  546MPD2    H3 8160   4.712   3.772  17.495 -0.7667 -2.2732 -0.7820
  546MPD2     N 8161   4.590   4.141  17.246  0.2896 -0.2309  0.6998
  546MPD2    H5 8162   4.619   4.208  17.316 -1.0223 -0.2871  1.3032
  546MPD2    N1 8163   4.400   3.703  17.189 -0.6801  0.1254  0.2901
  546MPD2    H7 8164   4.396   3.605  17.214 -0.2759 -0.1879 -0.8727
  547TMC3    C1 8165   4.208   3.655  17.053  0.3731 -0.8945 -0.0981
  547TMC3    C2 8166   4.118   3.699  16.957 -0.2516  0.1939  0.1898
  547TMC3    C3 8167   4.030   3.610  16.904  0.5326 -0.3561  0.1925
  547TMC3    C4 8168   4.206   3.526  17.096 -0.5832 -0.5874  0.0985
  547TMC3    C5 8169   4.112   3.443  17.044 -0.0981 -0.3321  0.0438
  547TMC3    C6 8170   4.026   3.483  16.943  0.2932 -0.1286 -0.0195
  547TMC3     C 8171   4.301   3.752  17.098 -0.0454 -0.4484  0.4774
  547TMC3     O 8172   4.272   3.869  17.078  0.0547  0.0086  0.2796
  547TMC3     H 8173   4.136   3.789  16.900 -1.2573 -0.4500 -1.1284
  547TMC3    H1 8174   4.277   3.486  17.166 -1.7708 -3.8416 -0.5669
  547TMC3    H2 8175   3.950   3.411  16.918 -0.8938  0.6051  1.4856
  547TMC3    C7 8176   4.075   3.330  17.127 -0.0890  0.2628 -1.0473
  547TMC3    C8 8177   3.940   3.654  16.803 -0.3286  0.5281  0.2037
  547TMC3    O1 8178   3.976   3.263  17.095  0.2634  0.7841  0.3282
  547TMC3    O2 8179   3.887   3.763  16.803 -0.1412  0.5967  0.0243
  548MPD2     C 8180   4.158   4.676  11.952 -0.1843 -0.3237 -0.6989
  548MPD2    C1 8181   4.106   4.573  12.024 -0.2510  0.1801 -0.1790
  548MPD2    C2 8182   4.166   4.452  12.017 -0.9206  0.3631  0.0059
  548MPD2    C3 8183   4.284   4.425  11.951 -0.1344  0.5796  0.3046
  548MPD2    C4 8184   4.348   4.529  11.878  0.0637 -1.0034  0.0665
  548MPD2    C5 8185   4.273   4.646  11.871 -0.7741  0.6883 -0.6268
  548MPD2     H 8186   4.117   4.364  12.056  2.2743 -0.9653  1.0614
  548MPD2    H1 8187   4.441   4.517  11.825  0.8500 -0.8660  1.4272
  548MPD2    H2 8188   4.124   0.042  11.959  4.0413  0.9770  0.7010
  548MPD2    H3 8189   4.308   4.729  11.811  0.6841  0.2069 -0.4326
  548MPD2     N 8190   4.351   4.299  11.989  0.8330 -0.0849 -0.5157
  548MPD2    H5 8191   4.297   4.229  12.040  0.2959  0.1736 -0.7224
  548MPD2    N1 8192   3.990   4.599  12.083 -0.4278 -0.6049  0.7288
  548MPD2    H7 8193   3.956   4.695  12.086  0.0231 -0.3955 -1.3339
  549TMC3    C1 8194   3.813   4.570  12.255 -0.2462 -0.5613  0.1137
  549TMC3    C2 8195   3.801   4.709  12.260  0.5419 -0.4609  0.3575
  549TMC3    C3 8196   3.744   0.019  12.377 -0.2437 -0.0419  0.6838
  549TMC3    C4 8197   3.776   4.493  12.361 -0.2598 -1.2938  0.0136
  549TMC3    C5 8198   3.737   4.546  12.478  0.4546  0.4669  0.5427
  549TMC3    C6 8199   3.720   4.679  12.488 -0.2396  0.1618  0.7975
  549TMC3     C 8200   3.921   4.513  12.170  0.0304  0.3326  0.3440
  549TMC3     O 8201   3.951   4.402  12.209  0.3343 -0.3894 -0.4142
  549TMC3     H 8202   3.818   0.046  12.183 -1.3189  0.6782  1.0363
  549TMC3    H1 8203   3.763   4.390  12.331  1.2950 -0.9150 -1.9525
  549TMC3    H2 8204   3.713   4.726  12.585 -0.6583 -0.1831  0.9352
  549TMC3    C7 8205   3.805   4.492  12.592 -0.5877  0.0599 -0.0949
  549TMC3    C8 8206   3.670   0.148  12.383  0.7110 -0.3183  0.0278
  549TMC3    O1 8207   3.807   4.557  12.696 -0.5248  0.7438 -0.3101
  549TMC3    O2 8208   3.556   0.134  12.425  0.2157  0.6051 -1.1089
  550TMC3    C1 8209   2.646   2.439  12.121  0.2645  0.5000 -0.0773
  550TMC3    C2 8210   2.657   2.472  12.253  0.0719  0.3520  0.5376
  550TMC3    C3 8211   2.563   2.568  12.299  0.0966 -0.3132  1.2169
  550TMC3    C4 8212   2.549   2.483  12.038 -0.3664  0.5587  0.6614
  550TMC3    C5 8213   2.454   2.569  12.086  0.7756  0.7334  0.5123
  550TMC3    C6 8214   2.462   2.614  12.219  0.0143  0.4933  0.0853
  550TMC3     C 8215   2.755   2.356  12.075 -0.0282  0.0220  0.0835
  550TMC3     O 8216   2.800   2.263  12.137 -0.5584  0.0245 -0.6645
  550TMC3     H 8217   2.742   2.428  12.302  0.5322 -0.0739 -0.6392
  550TMC3    H1 8218   2.544   2.428  11.944  0.2825 -1.6905  1.9396
  550TMC3    H2 8219   2.385   2.682  12.254 -0.7685  1.2482 -3.0454
  550TMC3    C7 8220   2.389   2.653  11.993  0.3256  1.0997 -0.6787
  550TMC3    C8 8221   2.593   2.652  12.412  0.3249  0.3175 -0.0017
  550TMC3    O1 8222   2.308   2.736  12.034  1.1361  0.0371 -0.4974
  550TMC3    O2 8223   2.504   2.729  12.452  0.9868 -0.1500 -0.0349
  551TMC3    C1 8224   0.389   0.516  13.026  0.7736  0.2876 -0.0923
  551TMC3    C2 8225   0.491   0.442  12.969 -0.6065  0.4391 -0.5636
  551TMC3    C3 8226   0.608   0.486  13.013  0.5673 -0.2920  0.1178
  551TMC3    C4 8227   0.401   0.593  13.135 -0.0461  0.3082  0.8471
  551TMC3    C5 8228   0.523   0.601  13.195  0.7860  0.0476  0.4226
  551TMC3    C6 8229   0.637   0.555  13.127  0.5920 -0.6034 -0.1575
  551TMC3     C 8230   0.262   0.526  12.954  1.1814 -0.2488  0.0502
  551TMC3     O 8231   0.229   0.424  12.893 -0.1747 -0.0775  0.6717
  551TMC3     H 8232   0.474   0.388  12.877  1.6644  0.1311 -0.7986
  551TMC3    H1 8233   0.314   0.647  13.173 -0.9379 -1.5788  1.4981
  551TMC3    H2 8234   0.737   0.545  13.170  1.2958  0.1258 -1.6401
  551TMC3    C7 8235   0.549   0.680  13.313  1.1810 -0.2656  0.6745
  551TMC3    C8 8236   0.717   0.468  12.927 -0.5799 -0.0286 -0.0811
  551TMC3    O1 8237   0.633   0.652  13.390  0.2117  0.2842 -0.3383
  551TMC3    O2 8238   0.759   0.353  12.912 -0.2505  0.5231  0.0825
  552MPD2     C 8239   2.347   2.269  13.773  0.3616  1.1795  0.1479
  552MPD2    C1 8240   2.308   2.201  13.884 -0.2130  0.5244 -0.3200
  552MPD2    C2 8241   2.399   2.151  13.974  0.2696 -0.3542 -0.8404
  552MPD2    C3 8242   2.535   2.166  13.951  0.5704 -0.0540 -0.5524
  552MPD2    C4 8243   2.576   2.218  13.828  0.0857  0.7034 -0.2513
  552MPD2    C5 8244   2.478   2.273  13.748  0.1168  0.1445 -0.2730
  552MPD2     H 8245   2.354   2.108  14.062  3.9759  0.0833  1.2653
  552MPD2    H1 8246   2.678   2.227  13.795  0.2157  2.2781  0.6124
  552MPD2    H2 8247   2.292   2.330  13.702  0.3592  0.9664 -0.0340
  552MPD2    H3 8248   2.489   2.340  13.664  0.4758  2.3187  1.5111
  552MPD2     N 8249   2.632   2.118  14.042 -0.5254  0.0094 -0.5316
  552MPD2    H5 8250   2.725   2.105  14.002 -0.2736 -0.8927  0.3299
  552MPD2    N1 8251   2.176   2.189  13.914 -0.4070  0.1476  0.0657
  552MPD2    H7 8252   2.158   2.127  13.992 -2.0428  0.0844 -0.3530
  553TMC3    C1 8253   1.957   2.152  13.857  0.6601  0.0268  0.2389
  553TMC3    C2 8254   1.919   2.109  13.739 -0.4884 -0.1052 -0.3786
  553TMC3    C3 8255   1.893   1.974  13.708  0.3362 -0.5606 -0.6347
  553TMC3    C4 8256   1.985   2.062  13.957 -0.1053 -0.2011 -0.6384
  553TMC3    C5 8257   1.988   1.935  13.919  0.2199 -0.2072 -0.0924
  553TMC3    C6 8258   1.948   1.883  13.797 -0.4963 -0.7292  0.6551
  553TMC3     C 8259   2.071   2.232  13.839  0.6740 -0.1482  0.4770
  553TMC3     O 8260   2.076   2.316  13.750  0.0527 -0.4323 -0.5017
  553TMC3     H 8261   1.904   2.181  13.659  2.6510  0.9920 -0.0099
  553TMC3    H1 8262   2.011   2.088  14.059 -0.7383  1.5911 -0.9276
  553TMC3    H2 8263   1.970   1.781  13.767  2.0439 -0.3170  1.1320
  553TMC3    C7 8264   2.097   1.863  13.983  0.0749 -0.3103  0.4426
  553TMC3    C8 8265   1.876   1.929  13.573  0.5263  0.0147  0.5705
  553TMC3    O1 8266   2.108   1.880  14.104  0.0906  0.0873  0.1653
  553TMC3    O2 8267   1.894   1.810  13.555 -0.2072  0.2122  0.3152
  554TMC3    C1 8268   4.206   2.109  11.585  0.0951 -0.9522  0.5293
  554TMC3    C2 8269   4.107   2.083  11.485  0.5585 -0.3782 -0.4266
  554TMC3    C3 8270   4.084   2.190  11.403  0.2831  0.2248 -0.1363
  554TMC3    C4 8271   4.285   2.218  11.579 -0.0098 -0.1846 -0.1771
  554TMC3    C5 8272   4.255   2.323  11.497  0.2654 -0.1462  0.0117
  554TMC3    C6 8273   4.148   2.307  11.412  0.7382 -0.3229 -0.6390
  554TMC3     C 8274   4.227   2.003  11.684  0.3186 -0.1329 -0.1128
  554TMC3     O 8275   4.317   2.027  11.765 -0.2716 -1.0697  0.1236
  554TMC3     H 8276   4.049   1.993  11.467  0.1658 -0.2104  0.0139
  554TMC3    H1 8277   4.380   2.216  11.633  0.7353  0.0626 -1.4883
  554TMC3    H2 8278   4.112   2.392  11.354  0.3423  0.7899  1.2346
  554TMC3    C7 8279   4.361   2.392  11.419 -0.0329  0.5296  0.4961
  554TMC3    C8 8280   3.998   2.169  11.285 -0.0174  0.3085 -0.4796
  554TMC3    O1 8281   4.327   2.441  11.310  0.6075 -0.0017  0.2597
  554TMC3    O2 8282   4.033   2.231  11.187  0.7067  0.0055 -0.4633
  555TMC3    C1 8283   3.281   0.852  15.238 -1.2809  0.1363 -0.4015
  555TMC3    C2 8284   3.352   0.946  15.305  0.4259  0.4254 -0.0772
  555TMC3    C3 8285   3.359   0.931  15.444 -0.1115 -0.3918 -0.7579
  555TMC3    C4 8286   3.220   0.741  15.295  0.4957 -0.9277 -0.1139
  555TMC3    C5 8287   3.234   0.729  15.434  0.1416 -0.7132 -0.2468
  555TMC3    C6 8288   3.312   0.818  15.507 -0.2748 -0.4474 -0.3082
  555TMC3     C 8289   3.300   0.850  15.097  0.8671  0.3048  0.5860
  555TMC3     O 8290   3.408   0.903  15.064  0.1682  0.0582  0.1366
  555TMC3     H 8291   3.396   1.035  15.260 -0.0341  0.9990  0.5945
  555TMC3    H1 8292   3.164   0.668  15.239 -1.7825  1.2625 -0.6423
  555TMC3    H2 8293   3.304   0.819  15.615 -1.7885  0.5705 -0.4221
  555TMC3    C7 8294   3.164   0.622  15.509  0.1754  0.3973  0.1331
  555TMC3    C8 8295   3.431   1.029  15.520  0.6714 -0.5161 -0.3005
  555TMC3    O1 8296   3.060   0.588  15.454  0.0731  0.0287 -0.1734
  555TMC3    O2 8297   3.426   1.146  15.485  0.1043  0.1523 -1.0495
  556MPD2     C 8298   1.080   2.897  10.242  0.4652  0.6106  0.0413
  556MPD2    C1 8299   1.178   2.797  10.236  0.1753 -0.2328  0.6742
  556MPD2    C2 8300   1.196   2.723  10.124 -0.2037 -0.1293  0.2744
  556MPD2    C3 8301   1.110   2.740  10.011  1.3553  1.2112 -0.3098
  556MPD2    C4 8302   1.014   2.844  10.022 -0.4880 -0.3618  0.0403
  556MPD2    C5 8303   0.996   2.912  10.137 -0.0493  0.1503  0.1001
  556MPD2     H 8304   1.288   2.666  10.117  0.0137  0.5207 -2.2002
  556MPD2    H1 8305   0.944   2.863   9.942  2.1390 -0.6131 -2.3101
  556MPD2    H2 8306   1.066   2.961  10.328 -1.9941 -0.4582  0.4609
  556MPD2    H3 8307   0.914   2.984  10.143  0.3513  0.6882 -0.9118
  556MPD2     N 8308   1.133   2.668   9.895  0.3753  0.2117 -0.2714
  556MPD2    H5 8309   1.209   2.601   9.907  0.2085  0.1431  0.3816
  556MPD2    N1 8310   1.276   2.779  10.332  0.0388  0.0821  0.4425
  556MPD2    H7 8311   1.344   2.706  10.312  0.6050  0.4021  1.1996
  557TMC3    C1 8312   1.144   2.609   9.676 -0.3836 -0.2200  0.1217
  557TMC3    C2 8313   1.060   2.543   9.591  0.2721 -0.1318  0.0567
  557TMC3    C3 8314   1.099   2.416   9.562  0.7625 -0.1175 -1.1770
  557TMC3    C4 8315   1.261   2.557   9.715 -0.1034 -0.7486  0.2524
  557TMC3    C5 8316   1.288   2.427   9.706  1.1307 -0.1960 -0.1254
  557TMC3    C6 8317   1.203   2.353   9.632 -0.6527  0.1962 -0.0520
  557TMC3     C 8318   1.070   2.690   9.778  0.2993  0.6973  0.2660
  557TMC3     O 8319   0.970   2.752   9.745 -0.5462  0.1403 -0.4054
  557TMC3     H 8320   0.972   2.583   9.541  0.5625  0.8283  0.3362
  557TMC3    H1 8321   1.327   2.622   9.773 -0.1520 -1.9548  1.6649
  557TMC3    H2 8322   1.225   2.247   9.627  1.0179  0.5596 -0.7329
  557TMC3    C7 8323   1.317   2.375   9.844  0.2724 -0.0650 -0.3607
  557TMC3    C8 8324   1.032   2.337   9.463  0.1758 -0.8296  0.5444
  557TMC3    O1 8325   1.334   2.460   9.933 -0.3809 -0.0248  0.5818
  557TMC3    O2 8326   0.918   2.356   9.430 -0.0221  0.0364 -0.2304
  558TMC3    C1 8327   3.733   1.040  10.494 -0.2170 -0.2491 -0.7690
  558TMC3    C2 8328   3.651   1.129  10.552  0.1804 -0.0949 -0.3573
  558TMC3    C3 8329   3.585   1.213  10.471 -0.0944 -0.1243  0.2728
  558TMC3    C4 8330   3.756   1.030  10.360  0.7122  0.0441  0.0575
  558TMC3    C5 8331   3.684   1.118  10.283 -0.1728 -0.1430  0.3011
  558TMC3    C6 8332   3.600   1.206  10.334 -0.0547 -0.3889  0.6354
  558TMC3     C 8333   3.843   0.993  10.579 -0.1279  0.2397 -0.4385
  558TMC3     O 8334   3.953   0.982  10.534  0.1302  0.8074  0.1939
  558TMC3     H 8335   3.626   1.130  10.658 -1.0798 -0.3509 -0.6591
  558TMC3    H1 8336   3.834   0.967  10.319 -0.1430 -1.3330  0.5681
  558TMC3    H2 8337   3.540   1.272  10.273 -0.0137 -1.3807 -0.4788
  558TMC3    C7 8338   3.723   1.133  10.139  0.1068  0.1978 -0.4635
  558TMC3    C8 8339   3.461   1.271  10.523 -0.3317  0.1707  0.0120
  558TMC3    O1 8340   3.692   1.238  10.085 -0.2923  0.1666  0.0375
  558TMC3    O2 8341   3.358   1.264  10.459 -0.6390  0.5064 -0.1184
  559MPD2     C 8342   3.911   1.626  10.518 -0.2166 -0.1857  0.3404
  559MPD2    C1 8343   3.847   1.651  10.637 -0.1192 -0.0406 -0.4401
  559MPD2    C2 8344   3.928   1.675  10.744 -0.8034  0.0428  1.0963
  559MPD2    C3 8345   4.068   1.669  10.732 -0.2859  0.0691  0.1820
  559MPD2    C4 8346   4.129   1.650  10.608 -0.6431  0.1072 -0.3833
  559MPD2    C5 8347   4.044   1.630  10.502 -0.5788 -0.2359  0.0750
  559MPD2     H 8348   3.887   1.686  10.844  1.4373  0.5781  1.9534
  559MPD2    H1 8349   4.236   1.638  10.597 -1.2701 -2.3674 -3.6754
  559MPD2    H2 8350   3.862   1.613  10.422  0.4695  1.7424 -0.2848
  559MPD2    H3 8351   4.092   1.600  10.410 -2.4199  1.9741 -1.5828
  559MPD2     N 8352   4.133   1.662  10.849  0.7302  0.0838 -0.1135
  559MPD2    H5 8353   4.079   1.677  10.933 -0.9562  3.8062 -1.8992
  559MPD2    N1 8354   3.709   1.646  10.638 -0.2579 -0.0401 -0.6286
  559MPD2    H7 8355   3.661   1.630  10.551  2.4825  0.3497 -2.2253
  560TMC3    C1 8356   4.289   1.605  11.002 -0.4029  0.5190  0.3802
  560TMC3    C2 8357   4.177   1.558  11.071  0.4543  0.4777 -0.3588
  560TMC3    C3 8358   4.209   1.502  11.190 -0.3589 -0.5647 -0.2097
  560TMC3    C4 8359   4.418   1.598  11.036  0.3332 -0.1260  0.4938
  560TMC3    C5 8360   4.438   1.559  11.163 -0.1359 -0.3902  0.3163
  560TMC3    C6 8361   4.336   1.513  11.247  0.3887 -0.1216  0.3212
  560TMC3     C 8362   4.265   1.637  10.866  0.4308 -0.5768 -0.0646
  560TMC3     O 8363   4.355   1.606  10.788  0.1808 -0.3719  0.3792
  560TMC3     H 8364   4.075   1.543  11.038 -0.4435  0.5870  2.3256
  560TMC3    H1 8365   4.490   1.616  10.957  1.8140  0.7897  2.0268
  560TMC3    H2 8366   4.363   1.454  11.333 -0.8000 -0.6485  0.3308
  560TMC3    C7 8367   4.577   1.522  11.205 -0.6077 -0.4247  0.5318
  560TMC3    C8 8368   4.094   1.472  11.269  0.2315 -0.5768 -0.1907
  560TMC3    O1 8369   4.584   1.500  11.324  0.4143 -0.3183  0.1754
  560TMC3    O2 8370   3.981   1.453  11.224  0.4642  0.0429 -0.2139
  561TMC3    C1 8371   1.844   0.589  11.549 -0.5056 -0.1402  1.2906
  561TMC3    C2 8372   1.770   0.544  11.654  0.3451 -0.0137 -0.1590
  561TMC3    C3 8373   1.793   0.594  11.774 -0.0548 -0.5782 -0.1501
  561TMC3    C4 8374   1.936   0.686  11.560  0.1454  0.2203 -0.0759
  561TMC3    C5 8375   1.964   0.724  11.686  0.1320  0.6485  0.3047
  561TMC3    C6 8376   1.896   0.677  11.795 -0.1462 -0.5145 -0.1920
  561TMC3     C 8377   1.828   0.522  11.426 -0.8778 -0.1604 -0.4326
  561TMC3     O 8378   1.783   0.410  11.429  0.1173 -0.0418  0.7257
  561TMC3     H 8379   1.711   0.453  11.647 -0.9062  0.6312  2.2096
  561TMC3    H1 8380   1.999   0.716  11.476  2.2521  0.5195  1.6114
  561TMC3    H2 8381   1.916   0.712  11.896  1.7841  0.1600 -0.7921
  561TMC3    C7 8382   2.068   0.825  11.705  0.5918 -0.1480 -0.0184
  561TMC3    C8 8383   1.723   0.535  11.883  0.1626 -1.3314  0.0215
  561TMC3    O1 8384   2.140   0.821  11.803  0.7700 -0.1361  0.0173
  561TMC3    O2 8385   1.797   0.509  11.976  0.1731 -0.1194  0.5175
  562TMC3    C1 8386   2.891   1.339  16.299 -0.2525 -0.2289  0.5736
  562TMC3    C2 8387   2.791   1.425  16.252 -0.6004 -0.2995  0.0755
  562TMC3    C3 8388   2.768   1.417  16.120  0.0633  0.7499  0.3615
  562TMC3    C4 8389   2.961   1.253  16.223 -0.2893 -0.8368  0.5046
  562TMC3    C5 8390   2.936   1.253  16.089 -0.8065  0.2123  0.4473
  562TMC3    C6 8391   2.844   1.346  16.036  0.2415  0.0986  0.2709
  562TMC3     C 8392   2.916   1.335  16.444 -0.6653  0.6029 -0.4332
  562TMC3     O 8393   2.958   1.228  16.484  0.3392 -0.0374  0.0330
  562TMC3     H 8394   2.734   1.490  16.318  0.3685  2.3599 -1.7397
  562TMC3    H1 8395   3.034   1.187  16.268 -0.5099 -1.8556 -0.6198
  562TMC3    H2 8396   2.821   1.337  15.931  1.6111 -0.6257  0.0410
  562TMC3    C7 8397   2.979   1.139  16.011 -0.5302  0.5920  0.5619
  562TMC3    C8 8398   2.684   1.526  16.062 -0.0649  0.1127  0.4228
  562TMC3    O1 8399   2.952   1.131  15.893  0.0161 -0.5355 -0.0543
  562TMC3    O2 8400   2.617   1.590  16.143 -0.7567  0.2743 -0.6533
  563MPD2     C 8401   0.565   2.651  15.585  0.1744  0.5015  0.2165
  563MPD2    C1 8402   0.650   2.695  15.683  0.0571 -0.3342  0.6118
  563MPD2    C2 8403   0.767   2.631  15.689  0.6906 -0.0313 -0.7071
  563MPD2    C3 8404   0.806   2.526  15.603 -0.0877 -0.2202 -0.1794
  563MPD2    C4 8405   0.719   2.487  15.503 -0.2628  0.1324 -0.2832
  563MPD2    C5 8406   0.596   2.544  15.499 -0.3751  0.0265  0.2044
  563MPD2     H 8407   0.837   2.656  15.767  2.4073  0.5203 -2.4112
  563MPD2    H1 8408   0.736   2.399  15.443 -0.2092  1.3497 -2.0531
  563MPD2    H2 8409   0.467   2.696  15.580 -0.0677 -0.0910 -0.2358
  563MPD2    H3 8410   0.518   2.507  15.434 -1.2170 -0.4193  1.4651
  563MPD2     N 8411   0.930   2.472  15.636  0.0222  0.5085  0.0796
  563MPD2    H5 8412   0.979   2.499  15.721  0.0061 -0.4388  0.3846
  563MPD2    N1 8413   0.605   2.788  15.780 -0.5617 -0.1456 -0.0470
  563MPD2    H7 8414   0.506   2.809  15.789 -0.0953  2.3171 -0.8612
  564TMC3    C1 8415   0.650   2.852  16.007 -0.0445 -0.0194  0.5485
  564TMC3    C2 8416   0.518   2.831  16.037  0.0572  1.1642  0.2352
  564TMC3    C3 8417   0.483   2.752  16.143 -0.3202  0.0699  0.1936
  564TMC3    C4 8418   0.743   2.796  16.090  0.8608  0.6104 -0.2277
  564TMC3    C5 8419   0.701   2.724  16.196  0.4470 -0.0649 -0.1465
  564TMC3    C6 8420   0.574   2.709  16.231  0.1103 -0.3805 -0.5518
  564TMC3     C 8421   0.695   2.843  15.866 -0.1975 -0.3122  0.2717
  564TMC3     O 8422   0.815   2.866  15.844 -0.1196  0.1923 -0.2373
  564TMC3     H 8423   0.444   2.892  15.987  0.0019 -0.1780 -1.3121
  564TMC3    H1 8424   0.847   2.820  16.073  0.4047  2.2748 -0.6847
  564TMC3    H2 8425   0.548   2.664  16.326  3.6374  0.8990  1.0166
  564TMC3    C7 8426   0.767   2.598  16.198  0.3221  0.4712 -0.6686
  564TMC3    C8 8427   0.393   2.640  16.107  0.7196  0.3362  0.5691
  564TMC3    O1 8428   0.777   2.534  16.299 -0.1145 -0.2908 -0.0329
  564TMC3    O2 8429   0.375   2.555  16.192 -0.3089  0.1210 -0.0498
  565TMC3    C1 8430   1.429   3.908   9.793  0.0964  0.5292 -0.7730
  565TMC3    C2 8431   1.417   3.830   9.906  0.4621  0.6389  0.5453
  565TMC3    C3 8432   1.320   3.737   9.896  0.0422  0.0802  0.5730
  565TMC3    C4 8433   1.331   3.908   9.700 -0.7658 -0.7285 -0.1366
  565TMC3    C5 8434   1.231   3.817   9.701  0.4137 -0.2951  0.0354
  565TMC3    C6 8435   1.227   3.719   9.795 -0.1839 -1.1325  0.9169
  565TMC3     C 8436   1.507   4.033   9.798  0.3831 -0.0820  0.4915
  565TMC3     O 8437   1.547   4.069   9.907  0.1816  0.7994  0.5117
  565TMC3     H 8438   1.472   3.844   9.998  0.2325 -0.7883  0.9006
  565TMC3    H1 8439   1.334   3.986   9.624  0.9151 -0.1216  0.5575
  565TMC3    H2 8440   1.141   3.656   9.810  0.1202 -2.0212 -1.1344
  565TMC3    C7 8441   1.122   3.810   9.601  0.6742 -0.4053 -0.3191
  565TMC3    C8 8442   1.309   3.652  10.011  0.1977 -0.9137  0.3992
  565TMC3    O1 8443   1.014   3.763   9.637 -0.0799 -0.3705  0.2120
  565TMC3    O2 8444   1.338   3.694  10.118 -0.5910  0.0488  0.2378
  566MPD2     C 8445   2.881   0.435  14.544  0.8908  0.1097  0.1441
  566MPD2    C1 8446   2.960   0.503  14.459 -0.3470 -0.3445 -0.4471
  566MPD2    C2 8447   2.903   0.555  14.345 -0.3562  0.1471  0.0284
  566MPD2    C3 8448   2.777   0.526  14.301  0.6042  0.4636 -0.3999
  566MPD2    C4 8449   2.703   0.443  14.380  0.1782 -0.1144  0.3388
  566MPD2    C5 8450   2.750   0.407  14.509  1.1595 -0.0460 -0.0507
  566MPD2     H 8451   2.967   0.627  14.295 -0.9118 -0.2948 -1.3323
  566MPD2    H1 8452   2.600   0.422  14.356  0.4564 -0.6433 -0.4059
  566MPD2    H2 8453   2.914   0.403  14.642  1.0546  2.4249  0.8595
  566MPD2    H3 8454   2.685   0.360  14.582 -0.6422  0.8979 -1.0822
  566MPD2     N 8455   2.713   0.567  14.188  0.0959  0.2101  0.1039
  566MPD2    H5 8456   2.631   0.516  14.158  0.2692  0.4701 -0.8171
  566MPD2    N1 8457   3.096   0.517  14.489 -0.3872 -0.2810  0.3455
  566MPD2    H7 8458   3.124   0.467  14.572 -0.1432 -0.3730  0.2077
  567TMC3    C1 8459   3.331   0.564  14.452 -0.4267  0.5042 -0.6733
  567TMC3    C2 8460   3.412   0.655  14.390  0.3751 -0.3449  0.4587
  567TMC3    C3 8461   3.528   0.694  14.448 -0.2095  0.1306 -0.4612
  567TMC3    C4 8462   3.360   0.520  14.576  0.8498  0.8628  0.3885
  567TMC3    C5 8463   3.477   0.557  14.636 -0.1211  0.3579  0.2581
  567TMC3    C6 8464   3.561   0.645  14.574 -0.7508  0.0555 -0.1601
  567TMC3     C 8465   3.197   0.559  14.405 -0.3207 -0.4286 -0.5077
  567TMC3     O 8466   3.182   0.569  14.281 -0.4940  0.1160 -0.5437
  567TMC3     H 8467   3.372   0.688  14.295  3.3740 -1.3628 -1.1325
  567TMC3    H1 8468   3.289   0.452  14.623  0.5785  0.3451 -0.7845
  567TMC3    H2 8469   3.657   0.657  14.622  0.5122  0.8419 -2.8556
  567TMC3    C7 8470   3.498   0.531  14.779 -0.1972  0.5127 -0.6368
  567TMC3    C8 8471   3.591   0.822  14.414  0.5079 -0.4301  0.1138
  567TMC3    O1 8472   3.613   0.536  14.821 -0.8288 -0.8410 -0.0192
  567TMC3    O2 8473   3.677   0.869  14.487 -0.0627  0.0032 -0.3849
  568MPD2     C 8474   0.517   1.068  16.094 -0.1723 -0.8372  0.2084
  568MPD2    C1 8475   0.520   1.150  16.206 -0.5765 -0.4040 -0.3734
  568MPD2    C2 8476   0.502   1.286  16.179  0.2138 -0.2424  0.3958
  568MPD2    C3 8477   0.471   1.340  16.055 -0.6928  0.6860  0.1585
  568MPD2    C4 8478   0.468   1.256  15.950 -0.2233 -0.1615 -0.5169
  568MPD2    C5 8479   0.488   1.120  15.969 -0.6698  0.5423 -0.2002
  568MPD2     H 8480   0.503   1.356  16.261 -2.0346  0.4561 -0.1696
  568MPD2    H1 8481   0.448   1.288  15.848 -1.8669  0.5311  0.0144
  568MPD2    H2 8482   0.541   0.963  16.102  1.3802 -0.5506 -0.6406
  568MPD2    H3 8483   0.467   1.050  15.890  0.6947  0.2328 -0.3020
  568MPD2     N 8484   0.457   1.483  16.055  0.1053  0.0124 -0.1749
  568MPD2    H5 8485   0.438   1.525  16.145 -0.4206  0.2553 -0.4030
  568MPD2    N1 8486   0.550   1.089  16.327  0.5721  0.2474 -0.4537
  568MPD2    H7 8487   0.569   0.990  16.317 -0.6848  0.2451 -2.7147
  569TMC3    C1 8488   0.498   1.701  15.981 -0.5598 -0.2972  0.1146
  569TMC3    C2 8489   0.557   1.717  16.099 -0.2526  0.0189 -0.2540
  569TMC3    C3 8490   0.574   1.850  16.133  0.0584  1.2226  0.2767
  569TMC3    C4 8491   0.461   1.794  15.884 -0.4445  0.0312 -0.1140
  569TMC3    C5 8492   0.473   1.928  15.932  0.0194  0.6248  0.4216
  569TMC3    C6 8493   0.536   1.952  16.052  0.4259 -0.5250  0.1583
  569TMC3     C 8494   0.475   1.567  15.942 -0.0533  0.8783 -0.4377
  569TMC3     O 8495   0.495   1.539  15.826 -0.4119 -0.3729 -0.3880
  569TMC3     H 8496   0.586   1.642  16.171  1.6634  0.5338 -0.5051
  569TMC3    H1 8497   0.408   1.765  15.794  0.2873  1.4266 -0.9902
  569TMC3    H2 8498   0.541   2.056  16.080  1.1318 -0.7777  0.9754
  569TMC3    C7 8499   0.430   2.039  15.843 -0.2599  0.2797  1.0910
  569TMC3    C8 8500   0.610   1.873  16.270  0.0644  0.5663 -0.6905
  569TMC3    O1 8501   0.412   2.011  15.726 -0.2708  0.1432  0.4449
  569TMC3    O2 8502   0.611   1.778  16.350 -0.5941 -0.2384 -0.4463
  570TMC3    C1 8503   4.296   4.697  16.125  0.5709 -0.4684  0.6750
  570TMC3    C2 8504   4.314   4.664  15.991 -0.4659  0.3688  0.6032
  570TMC3    C3 8505   4.370   0.033  15.919 -0.7389  0.4292  0.3953
  570TMC3    C4 8506   4.311   0.082  16.177 -0.7753  0.2480 -0.3618
  570TMC3    C5 8507   4.349   0.181  16.095 -0.1460  0.4613 -0.4419
  570TMC3    C6 8508   4.381   0.157  15.963  0.4229  0.5736  0.4179
  570TMC3     C 8509   4.281   4.578  16.207 -0.2105  0.2573  0.5868
  570TMC3     O 8510   4.251   4.471  16.148 -0.0978 -0.2987 -0.1538
  570TMC3     H 8511   4.337   4.560  15.966 -0.8777 -0.0859  2.1285
  570TMC3    H1 8512   4.287   0.112  16.278  0.4350 -1.8813  0.5528
  570TMC3    H2 8513   4.427   0.232  15.900  1.3566  0.2804  0.7447
  570TMC3    C7 8514   4.366   0.310  16.152  0.3402  0.0817 -0.3384
  570TMC3    C8 8515   4.464   0.009  15.815 -0.0570 -0.4125  0.0919
  570TMC3    O1 8516   4.376   0.325  16.273  0.1699  0.2654 -0.2607
  570TMC3    O2 8517   4.568   0.079  15.828  0.2254 -0.0734  0.1179
  571MPD2     C 8518   2.452   1.598  17.499 -0.1643  0.4721 -0.5150
  571MPD2    C1 8519   2.443   1.505  17.598 -0.5611 -0.3502  0.7718
  571MPD2    C2 8520   2.366   1.520  17.712 -0.8542  0.2228 -0.3977
  571MPD2    C3 8521   2.318   1.649  17.732 -0.3919  0.6651 -0.1458
  571MPD2    C4 8522   2.321   1.736  17.636  0.3398 -0.8734  0.0586
  571MPD2    C5 8523   2.387   1.722  17.516 -0.0638 -0.5700 -0.0776
  571MPD2     H 8524   2.359   1.438   0.037 -1.2019  0.6747  0.0957
  571MPD2    H1 8525   2.279   1.833  17.662  0.9351 -0.1018 -1.8774
  571MPD2    H2 8526   2.508   1.586  17.407  0.4638 -0.5488 -0.0055
  571MPD2    H3 8527   2.399   1.797  17.438  1.5177 -0.4494  0.2955
  571MPD2     N 8528   2.239   1.675   0.098 -0.1122  0.1490  0.0673
  571MPD2    H5 8529   2.193   1.766   0.094 -2.3826 -0.9172  1.9278
  571MPD2    N1 8530   2.521   1.388  17.565 -0.1006  0.4071  0.2251
  571MPD2    H7 8531   2.578   1.390  17.481  0.2357 -3.0073  0.3986
  572TMC3    C1 8532   2.142   1.645   0.312  1.0213 -0.2164  0.4804
  572TMC3    C2 8533   2.149   1.572   0.427  0.3921  0.8153  0.2510
  572TMC3    C3 8534   2.119   1.641   0.538 -0.7613 -0.1894  0.3306
  572TMC3    C4 8535   2.079   1.768   0.303  0.2008 -0.1827 -0.7111
  572TMC3    C5 8536   2.037   1.828   0.419 -0.1678  0.1662 -0.2011
  572TMC3    C6 8537   2.063   1.767   0.537 -0.0423 -0.2561 -0.2184
  572TMC3     C 8538   2.220   1.593   0.205  0.1815  0.5085  0.1969
  572TMC3     O 8539   2.261   1.477   0.226  0.4727  0.2158  0.1156
  572TMC3     H 8540   2.193   1.474   0.439 -1.0059  0.1316 -0.2566
  572TMC3    H1 8541   2.047   1.807   0.207 -2.0256  1.2315  0.6107
  572TMC3    H2 8542   2.053   1.828   0.627 -0.9578 -1.3804  0.4483
  572TMC3    C7 8543   1.982   1.961   0.393  0.0013  0.3177 -0.1159
  572TMC3    C8 8544   2.149   1.585   0.666 -0.6271 -0.0632 -0.0822
  572TMC3    O1 8545   2.002   2.011   0.278 -0.1954  0.0030 -0.1022
  572TMC3    O2 8546   2.247   1.514   0.669 -0.5476 -0.6315  0.2544
  573MPD2     C 8547   3.390   1.772   0.463  0.9261 -0.5058  0.0970
  573MPD2    C1 8548   3.469   1.888   0.469 -0.7629 -0.2349  0.3130
  573MPD2    C2 8549   3.483   1.959   0.348 -0.3910 -0.6217  0.3936
  573MPD2    C3 8550   3.423   1.910   0.230  0.1593  0.7966 -0.1914
  573MPD2    C4 8551   3.348   1.796   0.233  0.1542 -0.3420 -0.2277
  573MPD2    C5 8552   3.339   1.725   0.348  0.0585 -0.7788 -0.3548
  573MPD2     H 8553   3.548   2.045   0.354  0.3804 -1.1178 -0.6973
  573MPD2    H1 8554   3.289   1.757   0.151 -2.0762  1.8918  0.3301
  573MPD2    H2 8555   3.378   1.712   0.553  0.5195  1.8713  1.6157
  573MPD2    H3 8556   3.278   1.636   0.345 -1.1480  0.0768 -1.5695
  573MPD2     N 8557   3.400   1.992   0.112  0.6675 -0.2293 -0.1806
  573MPD2    H5 8558   3.327   1.968   0.046 -2.2010  0.2799  2.7848
  573MPD2    N1 8559   3.518   1.921   0.595  0.0650  0.0567 -0.1442
  573MPD2    H7 8560   3.504   1.851   0.667 -1.3470 -0.4041 -0.8514
  574TMC3    C1 8561   3.381   2.186  17.745 -0.2323  0.0251  0.3176
  574TMC3    C2 8562   3.240   2.198   0.009 -0.7785  0.8763  0.9428
  574TMC3    C3 8563   3.177   2.300  17.687 -0.0216 -0.3018  0.0576
  574TMC3    C4 8564   3.453   2.268  17.666  0.0692 -0.1368 -0.2432
  574TMC3    C5 8565   3.389   2.374  17.611 -0.8905 -0.0698  0.2727
  574TMC3    C6 8566   3.251   2.394  17.624  0.1836  0.3069  0.6789
  574TMC3     C 8567   3.454   2.118   0.093  0.1102  0.4294  0.4810
  574TMC3     O 8568   3.548   2.175   0.144 -0.2684 -0.4979 -0.2489
  574TMC3     H 8569   3.178   2.131   0.068  0.7684 -1.4024 -0.0116
  574TMC3    H1 8570   3.560   2.260  17.651  0.4081  3.2283  0.2613
  574TMC3    H2 8571   3.213   2.480  17.571  1.6644  0.1857 -0.5843
  574TMC3    C7 8572   3.467   2.443  17.506 -0.4744 -0.0460  0.0388
  574TMC3    C8 8573   3.054   2.340  17.740  0.1295 -0.0351  0.4729
  574TMC3    O1 8574   3.589   2.457  17.516 -0.6198 -0.2314  0.2151
  574TMC3    O2 8575   3.014   2.296   0.104  0.2302  0.3001  0.9094
  575TMC3    C1 8576   1.477   3.340  10.819  0.3171  0.0549 -0.1919
  575TMC3    C2 8577   1.401   3.242  10.869  0.3538  0.0979  0.2107
  575TMC3    C3 8578   1.305   3.179  10.797 -0.1471  0.5608 -1.0467
  575TMC3    C4 8579   1.444   3.378  10.690  0.2129  0.0641  0.3421
  575TMC3    C5 8580   1.353   3.310  10.616  0.2808 -0.6452  0.3429
  575TMC3    C6 8581   1.278   3.211  10.666  0.3105 -0.5394 -0.1436
  575TMC3     C 8582   1.575   3.415  10.898 -0.1027 -0.1407 -0.9066
  575TMC3     O 8583   1.622   3.363  11.002  0.6371 -0.2023 -0.0808
  575TMC3     H 8584   1.416   3.215  10.973  1.2040  0.2235  0.1231
  575TMC3    H1 8585   1.508   3.453  10.645  2.5968 -2.5083 -0.5393
  575TMC3    H2 8586   1.210   3.170  10.593  0.0215 -0.1503 -0.0977
  575TMC3    C7 8587   1.327   3.360  10.487  0.4983  0.2398  0.0555
  575TMC3    C8 8588   1.242   3.055  10.838 -0.4579 -0.2416 -0.1269
  575TMC3    O1 8589   1.351   3.478  10.473 -0.0303  0.2680 -0.4808
  575TMC3    O2 8590   1.247   3.033  10.961 -0.1198 -0.4585 -0.0493
  576MPD2     C 8591   0.359   0.455  11.632  0.0316  0.5439  0.2019
  576MPD2    C1 8592   0.468   0.535  11.604 -0.0996 -0.2138  0.0496
  576MPD2    C2 8593   0.451   0.657  11.540 -0.3564 -0.8371  0.3743
  576MPD2    C3 8594   0.332   0.690  11.482  0.4170  0.2233  0.0245
  576MPD2    C4 8595   0.223   0.608  11.499  0.1872 -0.3777 -0.9241
  576MPD2    C5 8596   0.240   0.486  11.567  0.1199  0.2012 -0.0759
  576MPD2     H 8597   0.541   0.716  11.531 -1.2007  0.0327 -2.3517
  576MPD2    H1 8598   0.126   0.648  11.470 -0.8486 -0.8403  1.9027
  576MPD2    H2 8599   0.373   0.368  11.695  0.4802 -0.3708 -1.1491
  576MPD2    H3 8600   0.154   0.422  11.583  0.4385 -0.0777  0.5084
  576MPD2     N 8601   0.341   0.804  11.394 -0.0869 -0.0900  0.2096
  576MPD2    H5 8602   0.430   0.853  11.396  1.1546 -2.3826  1.0354
  576MPD2    N1 8603   0.600   0.507  11.648 -0.1238  0.5093  0.3074
  576MPD2    H7 8604   0.672   0.576  11.624  0.9581 -1.0748 -0.9928
  577TMC3    C1 8605   0.781   0.377  11.716  0.4085 -0.0871 -0.1798
  577TMC3    C2 8606   0.839   0.291  11.811  0.0166 -0.3256 -0.0386
  577TMC3    C3 8607   0.974   0.257  11.795  0.2485  0.6267  0.1838
  577TMC3    C4 8608   0.838   0.400  11.593  0.8613  0.3191  0.0999
  577TMC3    C5 8609   0.967   0.349  11.583 -0.5620 -0.1599 -0.5802
  577TMC3    C6 8610   1.036   0.290  11.680  0.1978 -0.5468  0.3302
  577TMC3     C 8611   0.638   0.402  11.723 -0.1528 -0.2432 -0.0777
  577TMC3     O 8612   0.574   0.324  11.790  0.0540  0.1344  0.4615
  577TMC3     H 8613   0.791   0.274  11.907 -0.0755  1.3337  0.2149
  577TMC3    H1 8614   0.800   0.448  11.504  1.4104  0.7365  0.0896
  577TMC3    H2 8615   1.133   0.246  11.660 -0.4698 -1.8551 -0.0261
  577TMC3    C7 8616   1.054   0.402  11.481  1.0528  0.3314 -0.5211
  577TMC3    C8 8617   1.061   0.247  11.914  0.6583 -0.3914 -0.1355
  577TMC3    O1 8618   1.153   0.339  11.454  0.3514 -0.0966 -0.2599
  577TMC3    O2 8619   1.026   0.196  12.019  0.0067  0.4709  0.0666
  578MPD2     C 8620   3.766   0.280   0.876 -0.0449  0.2367 -0.7907
  578MPD2    C1 8621   3.801   0.173   0.791 -0.0498  0.4428  0.7012
  578MPD2    C2 8622   3.934   0.138   0.771  0.1216  0.8431  0.4878
  578MPD2    C3 8623   4.035   0.216   0.831  0.1171  0.2222  0.3043
  578MPD2    C4 8624   4.003   0.321   0.912 -0.1814  1.0209 -0.2579
  578MPD2    C5 8625   3.867   0.354   0.931 -0.4604  0.1570  0.0899
  578MPD2     H 8626   3.957   0.040   0.731 -1.8523  0.1035  1.1738
  578MPD2    H1 8627   4.075   0.386   0.961  0.3434  0.4636 -0.3025
  578MPD2    H2 8628   3.666   0.315   0.896  0.3227  1.4229 -0.9951
  578MPD2    H3 8629   3.848   0.441   0.993 -2.1078 -0.2037  0.0957
  578MPD2     N 8630   4.174   0.171   0.809 -0.3298  0.4949  0.5749
  578MPD2    H5 8631   4.187   0.083   0.761 -1.4606 -0.2115  1.5539
  578MPD2    N1 8632   3.690   0.105   0.733  0.0668  0.7916  0.4690
  578MPD2    H7 8633   3.596   0.142   0.744 -0.7035 -0.6160 -1.5813
  579TMC3    C1 8634   4.412   0.203   0.805 -0.3107  0.0244  1.1056
  579TMC3    C2 8635   4.525   0.259   0.868  0.6228  0.2688  0.6054
  579TMC3    C3 8636   4.645   0.219   0.822  0.6128 -0.6082  0.9170
  579TMC3    C4 8637   4.416   0.112   0.702 -0.2861  0.5045 -0.1816
  579TMC3    C5 8638   4.543   0.079   0.656  0.0729 -0.5776 -0.4345
  579TMC3    C6 8639   4.659   0.137   0.710  0.1976  0.2118 -0.4767
  579TMC3     C 8640   4.285   0.233   0.869 -0.3070  0.3913  0.0400
  579TMC3     O 8641   4.292   0.317   0.957 -0.9160 -0.6115 -0.0319
  579TMC3     H 8642   4.521   0.339   0.940 -0.5548  0.6037  0.1720
  579TMC3    H1 8643   4.326   0.085   0.648 -1.5308  2.2277  1.0342
  579TMC3    H2 8644   0.018   0.098   0.678  0.3570 -0.7518  1.1458
  579TMC3    C7 8645   4.559   4.718   0.552  0.7031  0.0147 -0.0811
  579TMC3    C8 8646   0.026   0.248   0.907 -0.3077  0.5795 -0.6790
  579TMC3    O1 8647   4.672   4.719   0.505 -0.0553 -0.2236 -0.4666
  579TMC3    O2 8648   4.722   0.300   1.011 -0.1527 -0.0209 -0.1235
  580TMC3    C1 8649   3.874   4.351  11.701 -0.7609 -1.3296 -0.2955
  580TMC3    C2 8650   3.963   4.424  11.624 -0.7276  0.5203 -0.8420
  580TMC3    C3 8651   4.015   4.361  11.513  0.0518 -0.6126 -0.5274
  580TMC3    C4 8652   3.845   4.221  11.669 -0.3832  0.2746 -0.4107
  580TMC3    C5 8653   3.898   4.161  11.554 -0.3115 -0.8134  0.8196
  580TMC3    C6 8654   3.979   4.240  11.471 -0.2742  0.8893  0.1418
  580TMC3     C 8655   3.805   4.420  11.812  0.5381  0.2608  0.3949
  580TMC3     O 8656   3.833   4.538  11.827  0.3729  0.1592 -0.1671
  580TMC3     H 8657   3.998   4.520  11.661  1.7887 -1.6667  2.4086
  580TMC3    H1 8658   3.782   4.162  11.734 -1.0827 -0.9342 -2.1977
  580TMC3    H2 8659   4.023   4.194  11.383 -0.6656 -1.0145  0.9234
  580TMC3    C7 8660   3.899   4.017  11.552  0.1275  0.2425  0.0280
  580TMC3    C8 8661   4.072   4.445  11.410  0.3747  0.2173  0.0119
  580TMC3    O1 8662   3.860   3.956  11.453  0.2567 -0.2106  0.3946
  580TMC3    O2 8663   4.144   4.395  11.322  0.7653  0.2391  0.7166
  581MPD2     C 8664   1.346   3.604  14.499 -0.2680  0.2551 -0.3386
  581MPD2    C1 8665   1.250   3.604  14.598  0.8672 -0.2835 -0.3426
  581MPD2    C2 8666   1.135   3.693  14.582 -0.1520 -0.0312  0.4758
  581MPD2    C3 8667   1.128   3.782  14.476  0.1437 -0.3750 -0.6158
  581MPD2    C4 8668   1.230   3.782  14.385  0.3454 -0.0977  0.4081
  581MPD2    C5 8669   1.338   3.701  14.406 -0.6196  0.4984  0.1884
  581MPD2     H 8670   1.051   3.690  14.651  0.1773 -0.6602  0.8512
  581MPD2    H1 8671   1.224   3.844  14.296 -0.2883 -0.6587  0.0610
  581MPD2    H2 8672   1.437   3.545  14.501 -0.1264  0.4428 -1.2554
  581MPD2    H3 8673   1.420   3.698  14.335 -0.2451  1.5874  0.5854
  581MPD2     N 8674   1.018   3.867  14.454 -0.0158 -0.2045 -0.6198
  581MPD2    H5 8675   1.024   3.925  14.371 -0.0536  1.6769  0.6773
  581MPD2    N1 8676   1.268   3.511  14.699  0.4931 -0.1245 -0.3190
  581MPD2    H7 8677   1.354   3.458  14.702  0.8285  0.3938 -0.9416
  582TMC3    C1 8678   1.215   3.355  14.859  0.0078  0.1703 -0.3226
  582TMC3    C2 8679   1.333   3.357  14.923 -0.4122 -0.9392 -0.7188
  582TMC3    C3 8680   1.360   3.278  15.028  0.0873  0.2554  0.0054
  582TMC3    C4 8681   1.109   3.283  14.904  0.3604  1.2719 -0.1581
  582TMC3    C5 8682   1.126   3.203  15.011  0.3573 -0.3116  0.1137
  582TMC3    C6 8683   1.248   3.199  15.072  0.2365 -0.5238  0.1814
  582TMC3     C 8684   1.177   3.474  14.794 -0.6730  0.3288  0.3235
  582TMC3     O 8685   1.068   3.520  14.831 -0.2586  0.1280  0.8684
  582TMC3     H 8686   1.404   3.438  14.906  0.0804 -1.2359 -0.0710
  582TMC3    H1 8687   1.015   3.289  14.851  0.1439 -0.1117  0.0662
  582TMC3    H2 8688   1.255   3.145  15.166 -2.3287  0.8303  1.1368
  582TMC3    C7 8689   1.031   3.230  15.116 -0.0619 -0.0162 -0.4291
  582TMC3    C8 8690   1.414   3.354  15.134  0.0629 -0.1092  0.4469
  582TMC3    O1 8691   0.994   3.162  15.211 -0.6678  0.2097 -0.0182
  582TMC3    O2 8692   1.344   3.434  15.185  0.4115  0.3958 -0.4472
  583MPD2     C 8693   1.314   0.709  16.371  0.2218 -0.9466 -0.2381
  583MPD2    C1 8694   1.343   0.839  16.348 -0.6330 -0.6481 -0.9072
  583MPD2    C2 8695   1.321   0.928  16.447  0.1532 -0.4919 -0.2609
  583MPD2    C3 8696   1.267   0.890  16.568  1.3011  0.0735  0.3163
  583MPD2    C4 8697   1.244   0.753  16.590  0.1885 -0.5756 -0.7502
  583MPD2    C5 8698   1.266   0.663  16.490  0.8768  0.1612 -0.2266
  583MPD2     H 8699   1.331   1.035  16.432 -0.1712 -0.3020  0.8368
  583MPD2    H1 8700   1.197   0.717  16.681 -0.1431 -0.9401 -1.0615
  583MPD2    H2 8701   1.355   0.626  16.314 -0.0047 -2.0298  1.1640
  583MPD2    H3 8702   1.245   0.558  16.506 -0.4588  0.1253 -2.2999
  583MPD2     N 8703   1.232   0.995  16.657 -0.8489  0.3539  0.3582
  583MPD2    H5 8704   1.255   1.091  16.635 -3.7345  0.6892 -1.3443
  583MPD2    N1 8705   1.394   0.885  16.221  0.4475 -0.2025 -0.3070
  583MPD2    H7 8706   1.405   0.985  16.203 -0.0879  0.0497  0.8000
  584TMC3    C1 8707   1.109   1.105  16.840  0.4741  0.1769 -0.7935
  584TMC3    C2 8708   1.182   1.217  16.818  0.8760 -0.3134 -0.7986
  584TMC3    C3 8709   1.181   1.307  16.915  0.4963 -0.9723  0.2536
  584TMC3    C4 8710   1.028   1.084  16.945 -0.8100 -0.4086 -0.2580
  584TMC3    C5 8711   1.025   1.185  17.041 -0.1987  0.1106 -0.2195
  584TMC3    C6 8712   1.104   1.303  17.032  0.2546 -0.2382 -0.8020
  584TMC3     C 8713   1.135   0.981  16.755 -0.3115  0.3421 -0.1182
  584TMC3     O 8714   1.072   0.881  16.788 -0.1078  0.0747 -0.4092
  584TMC3     H 8715   1.237   1.232  16.726 -0.3736 -1.4376 -1.7312
  584TMC3    H1 8716   0.977   0.989  16.957 -3.0439  0.8459  0.2915
  584TMC3    H2 8717   1.085   1.393  17.088  1.1597  1.8146 -3.8086
  584TMC3    C7 8718   0.991   1.144  17.177 -0.4967 -0.3704  0.8172
  584TMC3    C8 8719   1.231   1.439  16.871 -0.2120  0.1357 -0.3249
  584TMC3    O1 8720   1.067   1.200  17.257 -0.3035 -0.0412  0.0093
  584TMC3    O2 8721   1.250   1.459  16.751 -0.1650 -0.0686 -0.1705
  585MPD2     C 8722   1.531   0.086  17.525  0.0204  0.5656 -0.7611
  585MPD2    C1 8723   1.428   0.119  17.443  0.2417 -0.4332  0.2198
  585MPD2    C2 8724   1.368   0.017  17.377 -0.3044  0.7741  0.1472
  585MPD2    C3 8725   1.395   4.621  17.402  0.0168  0.4527  0.3092
  585MPD2    C4 8726   1.494   4.589  17.483 -0.2519 -0.3976  0.1711
  585MPD2    C5 8727   1.559   4.691  17.548 -0.2545 -0.1878  0.2429
  585MPD2     H 8728   1.294   0.042  17.303  0.7677  2.0046 -0.5240
  585MPD2    H1 8729   1.538   4.492  17.503  0.3759 -0.2627 -0.5630
  585MPD2    H2 8730   1.588   0.158  17.583 -1.2394  0.9502  0.0213
  585MPD2    H3 8731   1.636   4.670  17.622  0.6172  1.3815 -0.2199
  585MPD2     N 8732   1.321   4.511  17.346  0.4770  0.1158 -0.4101
  585MPD2    H5 8733   1.348   4.421  17.384 -2.8757 -0.4279  0.6400
  585MPD2    N1 8734   1.410   0.262  17.427  0.1641  0.5003  0.3531
  585MPD2    H7 8735   1.470   0.331  17.470 -0.0311 -0.3303  1.9567
  586TMC3    C1 8736   1.184   4.392  17.214 -0.3156  0.8479 -0.3357
  586TMC3    C2 8737   1.275   4.282  17.211 -0.2712 -0.1733  0.3640
  586TMC3    C3 8738   1.233   4.162  17.170  0.4005  0.4294 -0.0157
  586TMC3    C4 8739   1.056   4.373  17.167  0.5456  0.2606 -0.8641
  586TMC3    C5 8740   1.019   4.252  17.113  0.2696 -0.2437  0.1683
  586TMC3    C6 8741   1.106   4.145  17.118 -0.1206  0.2491  0.2493
  586TMC3     C 8742   1.236   4.525  17.243 -0.2080 -0.0005 -0.2373
  586TMC3     O 8743   1.178   4.614  17.182  0.2922  0.0062  0.1772
  586TMC3     H 8744   1.377   4.301  17.245 -0.5106 -0.3160  1.1622
  586TMC3    H1 8745   0.987   4.457  17.175 -1.6588 -1.4202 -2.3839
  586TMC3    H2 8746   1.075   4.052  17.073 -2.1106 -0.1415  2.4634
  586TMC3    C7 8747   0.876   4.218  17.091 -0.1593  0.4380 -0.4800
  586TMC3    C8 8748   1.316   4.053  17.186 -0.1433  0.0726 -0.3997
  586TMC3    O1 8749   0.846   4.098  17.098 -0.1113  0.0937  0.5282
  586TMC3    O2 8750   1.290   3.948  17.124 -0.6913 -0.1326 -0.0887
  587TMC3    C1 8751   2.883   3.065  15.994  0.2268 -0.5670 -0.8545
  587TMC3    C2 8752   2.980   3.155  16.039 -0.0510  0.4969 -0.0646
  587TMC3    C3 8753   3.083   3.092  16.115  0.1804 -0.2443 -0.1914
  587TMC3    C4 8754   2.892   2.931  16.026 -0.6261  0.2422 -0.7833
  587TMC3    C5 8755   3.004   2.878  16.074  0.0525  0.1312  0.5437
  587TMC3    C6 8756   3.099   2.957  16.127 -0.3129 -0.3995  0.1618
  587TMC3     C 8757   2.765   3.126  15.943 -0.1980 -0.0713 -0.1606
  587TMC3     O 8758   2.785   3.243  15.908 -0.3146 -0.1363 -0.4498
  587TMC3     H 8759   2.994   3.257  16.007 -0.5970  0.6842  0.3023
  587TMC3    H1 8760   2.813   2.866  15.990  0.7512 -1.8884  0.0503
  587TMC3    H2 8761   3.182   2.912  16.181 -0.1569 -0.2455  0.0534
  587TMC3    C7 8762   3.036   2.731  16.058  0.5302 -1.0239  1.0684
  587TMC3    C8 8763   3.160   3.175  16.202 -0.9027  0.2532  0.6670
  587TMC3    O1 8764   2.952   2.664  15.992 -0.4747  0.2922  0.1216
  587TMC3    O2 8765   3.257   3.118  16.252  0.5917 -0.2115 -0.5852
  588TMC3    C1 8766   1.204   0.915   9.282 -0.0884 -0.1183 -0.0808
  588TMC3    C2 8767   1.253   0.788   9.292 -0.2121 -0.1562  0.6283
  588TMC3    C3 8768   1.382   0.767   9.321 -0.3529 -0.6776 -0.3740
  588TMC3    C4 8769   1.282   1.025   9.307  0.1330 -0.7806  0.2544
  588TMC3    C5 8770   1.417   0.998   9.332 -0.0360 -0.0376  0.5317
  588TMC3    C6 8771   1.469   0.866   9.327 -0.9797  0.5146 -0.0827
  588TMC3     C 8772   1.054   0.942   9.272 -0.4798 -0.1982 -0.0275
  588TMC3     O 8773   0.980   0.859   9.221  0.4973  0.4158 -0.2037
  588TMC3     H 8774   1.182   0.708   9.276 -0.1011  0.0727 -0.9763
  588TMC3    H1 8775   1.241   1.123   9.288 -2.4957 -2.1153 -0.9229
  588TMC3    H2 8776   1.574   0.860   9.354 -0.9236  0.4687 -0.3125
  588TMC3    C7 8777   1.502   1.118   9.354  0.1967 -0.0369  0.1004
  588TMC3    C8 8778   1.440   0.636   9.297 -0.1551 -0.1535 -0.2031
  588TMC3    O1 8779   1.621   1.106   9.323  0.4353  0.2901  0.0057
  588TMC3    O2 8780   1.552   0.631   9.249 -0.2217  0.3384 -0.0268
  589TMC3    C1 8781   4.444   2.676   0.935 -0.0106  0.1298  0.5526
  589TMC3    C2 8782   4.570   2.688   0.981  0.0099  0.1396 -0.4168
  589TMC3    C3 8783   4.656   2.583   0.961 -1.0483  0.0457 -0.0595
  589TMC3    C4 8784   4.398   2.566   0.873  0.3342 -0.6051 -0.3933
  589TMC3    C5 8785   4.488   2.467   0.845  0.9224 -0.2589 -0.5466
  589TMC3    C6 8786   4.615   2.471   0.887 -0.1628 -0.3393  0.2245
  589TMC3     C 8787   4.349   2.785   0.954  0.1805 -0.2773  0.7425
  589TMC3     O 8788   4.229   2.756   0.952 -0.1076 -1.0284 -0.4277
  589TMC3     H 8789   4.611   2.773   1.034  0.9581  0.7952 -2.2190
  589TMC3    H1 8790   4.296   2.549   0.843  1.3102  0.8764 -4.4635
  589TMC3    H2 8791   4.675   2.381   0.884 -1.0868 -0.9610  0.5168
  589TMC3    C7 8792   4.443   2.350   0.782  0.7152 -0.3024  0.4722
  589TMC3    C8 8793   0.058   2.596   1.003  0.0454  0.6861 -0.9392
  589TMC3    O1 8794   4.496   2.249   0.822 -0.2113  0.6819  0.2092
  589TMC3    O2 8795   0.082   2.693   1.075 -0.4877  0.5630 -0.7413
  590MPD2     C 8796   3.918   1.285  16.778  0.3943 -0.9136 -0.3049
  590MPD2    C1 8797   3.854   1.361  16.681 -0.7376  1.0651  0.5018
  590MPD2    C2 8798   3.932   1.460  16.616  0.1883 -0.1923  0.0471
  590MPD2    C3 8799   4.069   1.475  16.631  0.0488 -0.4347 -0.1598
  590MPD2    C4 8800   4.122   1.394  16.730 -0.7570  0.0269 -0.5297
  590MPD2    C5 8801   4.046   1.307  16.801 -0.4449  0.3248 -0.3346
  590MPD2     H 8802   3.879   1.522  16.544  0.6921  1.0670  0.7598
  590MPD2    H1 8803   4.228   1.392  16.753 -1.2175  1.0309  1.7252
  590MPD2    H2 8804   3.870   1.206  16.834 -0.6873 -0.5134 -0.6604
  590MPD2    H3 8805   4.084   1.241  16.878  2.8399  1.0134 -1.3564
  590MPD2     N 8806   4.140   1.574  16.555 -0.3566 -0.1852  0.0059
  590MPD2    H5 8807   4.087   1.637  16.495 -1.0776 -0.0449  0.7789
  590MPD2    N1 8808   3.717   1.340  16.656  0.4050 -0.3791  0.0205
  590MPD2    H7 8809   3.665   1.278  16.717 -0.1848 -0.4344 -0.5385
  591TMC3    C1 8810   4.328   1.691  16.470 -0.3230  0.0876  0.9230
  591TMC3    C2 8811   4.419   1.660  16.380 -0.3315  0.6707 -0.0335
  591TMC3    C3 8812   4.435   1.754  16.280 -0.1289  0.2125 -0.3376
  591TMC3    C4 8813   4.248   1.803  16.467  1.3179  0.5713  0.5780
  591TMC3    C5 8814   4.277   1.893  16.372  0.0860 -0.4216  0.8898
  591TMC3    C6 8815   4.362   1.869  16.266 -0.5580 -1.1317  0.5221
  591TMC3     C 8816   4.276   1.579  16.550 -0.1135  0.5578  0.6302
  591TMC3     O 8817   4.361   1.499  16.591  0.2279 -0.7736  0.2116
  591TMC3     H 8818   4.472   1.566  16.382 -0.2750  0.6687 -1.4057
  591TMC3    H1 8819   4.181   1.833  16.547  0.3166  1.0722 -0.4644
  591TMC3    H2 8820   4.370   1.939  16.184 -2.0351  0.0728  1.4006
  591TMC3    C7 8821   4.186   2.003  16.370 -0.8272 -0.4143  0.0451
  591TMC3    C8 8822   4.531   1.731  16.178 -0.4686 -0.0834 -0.8845
  591TMC3    O1 8823   4.073   1.990  16.421 -0.2239  0.4040 -0.1046
  591TMC3    O2 8824   4.588   1.627  16.193 -0.1602 -0.0168  0.1673
  592MPD2     C 8825   4.398   3.576  11.120 -0.0465  0.3884  0.8816
  592MPD2    C1 8826   4.419   3.614  11.249 -0.7180  0.9356 -0.0240
  592MPD2    C2 8827   4.368   3.535  11.346 -0.1785 -0.2607 -0.1159
  592MPD2    C3 8828   4.299   3.416  11.323  0.2251 -0.1115 -0.3097
  592MPD2    C4 8829   4.305   3.363  11.195  0.5259 -0.6820 -0.0907
  592MPD2    C5 8830   4.352   3.444  11.095 -0.7122  0.4462  0.2402
  592MPD2     H 8831   4.372   3.565  11.450 -1.9405  0.7034 -0.3259
  592MPD2    H1 8832   4.276   3.261  11.172 -0.5147 -0.5557  0.7091
  592MPD2    H2 8833   4.453   3.627  11.041 -0.2938  0.3135  0.6608
  592MPD2    H3 8834   4.368   3.402  10.997 -0.6671  0.8667  0.0652
  592MPD2     N 8835   4.247   3.346  11.435  0.3218  0.9083  0.1806
  592MPD2    H5 8836   4.245   3.390  11.526 -1.7617  1.0432  0.0769
  592MPD2    N1 8837   4.499   3.729  11.275  0.4326 -0.0168 -0.5396
  592MPD2    H7 8838   4.531   3.785  11.197 -0.8464  2.4595  0.6854
  593TMC3    C1 8839   4.634   3.882  11.385  0.3227  0.3917 -0.8190
  593TMC3    C2 8840   4.652   3.950  11.501 -0.4773 -0.4336  0.1362
  593TMC3    C3 8841   4.733   4.064  11.495 -0.1164 -0.0863  0.0544
  593TMC3    C4 8842   4.691   3.911  11.267 -0.7131 -0.1322  0.0072
  593TMC3    C5 8843   0.044   4.013  11.271 -0.1424 -0.4482 -0.1362
  593TMC3    C6 8844   0.061   4.098  11.376 -0.3755 -0.2349  0.1296
  593TMC3     C 8845   4.540   3.774  11.401 -0.3217  0.5057 -0.5048
  593TMC3     O 8846   4.520   3.730  11.512 -0.0233 -0.0982 -0.7923
  593TMC3     H 8847   4.609   3.923  11.597 -0.5934 -0.6102  0.0348
  593TMC3    H1 8848   4.695   3.835  11.189  0.4154  2.2164 -2.2381
  593TMC3    H2 8849   0.110   4.193  11.357  0.0540 -0.4662  0.0825
  593TMC3    C7 8850   0.122   4.040  11.154  0.2607 -0.1522 -0.5739
  593TMC3    C8 8851   0.036   4.133  11.622  0.3867  0.3693 -0.4338
  593TMC3    O1 8852   0.241   4.048  11.183 -0.3509  0.0111  0.0467
  593TMC3    O2 8853   4.721   4.106  11.728 -0.0223 -0.1471 -0.1304
  594MPD2     C 8854   3.202   2.328  13.958  0.6510  0.3667 -0.2900
  594MPD2    C1 8855   3.187   2.303  14.090  0.4497  0.1846  0.0619
  594MPD2    C2 8856   3.281   2.361  14.182 -0.9381  0.7019 -0.0162
  594MPD2    C3 8857   3.388   2.427  14.130  0.1758 -0.2394 -1.2392
  594MPD2    C4 8858   3.390   2.466  13.995  0.2213 -0.0420  0.2645
  594MPD2    C5 8859   3.298   2.414  13.909  0.4754 -0.2650  0.3607
  594MPD2     H 8860   3.280   2.354  14.290 -5.9999 -0.2850 -0.1243
  594MPD2    H1 8861   3.460   2.538  13.954  1.3966 -1.2755  0.0747
  594MPD2    H2 8862   3.131   2.295  13.882 -1.2465 -1.3715  2.2296
  594MPD2    H3 8863   3.291   2.434  13.802  0.0334 -1.2516  0.2044
  594MPD2     N 8864   3.458   2.503  14.221 -0.1330 -0.5802 -0.6839
  594MPD2    H5 8865   3.435   2.494  14.319  1.2694 -1.9559 -0.4847
  594MPD2    N1 8866   3.082   2.212  14.132  0.0837 -0.2498 -0.1833
  594MPD2    H7 8867   3.009   2.179  14.069 -2.0133  0.9090  1.6554
  595TMC3    C1 8868   3.798   2.804  14.361  0.0192  0.3781  0.5953
  595TMC3    C2 8869   3.743   2.709  14.277  0.3269 -0.0168  0.2633
  595TMC3    C3 8870   3.617   2.668  14.305 -0.2584  0.2396  0.0028
  595TMC3    C4 8871   3.732   2.850  14.474  0.9940  0.4805  0.3449
  595TMC3    C5 8872   3.601   2.823  14.483  0.3817 -0.1883  0.3267
  595TMC3    C6 8873   3.541   2.729  14.398  0.4942 -0.4161 -0.3847
  595TMC3     C 8874   3.941   2.841  14.351 -0.3676 -0.1028 -0.9629
  595TMC3     O 8875   3.984   2.907  14.443  0.2463  0.0976  0.1226
  595TMC3     H 8876   3.814   2.663  14.209 -1.0131  1.5425 -2.1920
  595TMC3    H1 8877   3.777   2.911  14.551 -1.8762  0.9391  1.6564
  595TMC3    H2 8878   3.434   2.711  14.394 -0.0595  2.2089  2.2285
  595TMC3    C7 8879   3.509   2.867  14.585  0.4129  0.3350 -0.2014
  595TMC3    C8 8880   3.562   2.589  14.187  0.0527 -0.4755  0.4318
  595TMC3    O1 8881   3.390   2.833  14.567  0.2597  0.0507 -0.6734
  595TMC3    O2 8882   3.629   2.604  14.088  0.0984 -0.4622  0.5013
  596MPD2     C 8883   2.273   0.825  16.273 -0.5861  0.4289 -0.6333
  596MPD2    C1 8884   2.226   0.944  16.224 -0.3117  0.3422  0.7584
  596MPD2    C2 8885   2.219   0.962  16.090  0.4830 -0.4142 -0.0914
  596MPD2    C3 8886   2.229   0.852  16.002 -0.0425  0.2178  0.4779
  596MPD2    C4 8887   2.264   0.729  16.059  0.4729 -0.0692 -0.1159
  596MPD2    C5 8888   2.290   0.720  16.191 -0.1369  0.3080 -0.9979
  596MPD2     H 8889   2.191   1.061  16.055 -0.3876 -0.5488  0.2237
  596MPD2    H1 8890   2.258   0.638  16.001  2.1326 -0.0501 -0.3040
  596MPD2    H2 8891   2.304   0.812  16.376  0.6443  0.7719 -0.9561
  596MPD2    H3 8892   2.320   0.623  16.230  0.5598  0.6285 -0.7466
  596MPD2     N 8893   2.212   0.859  15.862 -0.2856 -0.7886  0.0038
  596MPD2    H5 8894   2.218   0.775  15.805 -0.6327  0.5198 -1.9870
  596MPD2    N1 8895   2.205   1.052  16.313  0.4342  0.0971  0.0593
  596MPD2    H7 8896   2.211   1.144  16.272  2.1502 -0.0953 -0.1171
  597TMC3    C1 8897   2.149   1.162  16.523 -0.2388 -0.0937  0.9915
  597TMC3    C2 8898   2.223   1.276  16.499  0.0409  0.8339  0.1835
  597TMC3    C3 8899   2.196   1.388  16.576 -0.1405  0.1649 -0.1684
  597TMC3    C4 8900   2.057   1.152  16.622  0.4531  0.1752 -0.5405
  597TMC3    C5 8901   2.036   1.270  16.700 -0.5190 -0.6121  0.6192
  597TMC3    C6 8902   2.102   1.388  16.676 -0.1423  0.0214  0.0431
  597TMC3     C 8903   2.155   1.038  16.440 -0.3247  0.7359  0.0485
  597TMC3     O 8904   2.088   0.938  16.479  0.5531 -0.1859  0.0194
  597TMC3     H 8905   2.295   1.281  16.418 -2.1028  0.8165 -1.7253
  597TMC3    H1 8906   2.007   1.061  16.651  0.5210  0.3349  0.0723
  597TMC3    H2 8907   2.080   1.479  16.732 -0.4357 -0.6808  1.0751
  597TMC3    C7 8908   1.958   1.261  16.825 -0.3321 -0.1605  0.1560
  597TMC3    C8 8909   2.268   1.510  16.558  0.4984  0.0369 -0.6515
  597TMC3    O1 8910   1.947   1.152  16.878 -0.6006 -0.3138 -0.2719
  597TMC3    O2 8911   2.289   1.540  16.442  0.1918  0.2599 -0.5318
  598TMC3    C1 8912   0.480   2.184  15.201  0.6063 -0.4564 -0.5797
  598TMC3    C2 8913   0.366   2.108  15.230 -0.1502 -0.5848 -0.5222
  598TMC3    C3 8914   0.265   2.098  15.130  0.0664  0.4242  0.6174
  598TMC3    C4 8915   0.488   2.260  15.088 -0.4294 -0.4187 -0.3529
  598TMC3    C5 8916   0.391   2.249  15.002  0.2546 -0.6639 -0.6426
  598TMC3    C6 8917   0.275   2.167  15.013  0.3186  0.0779  0.1864
  598TMC3     C 8918   0.600   2.172  15.284 -0.4619 -0.1685  1.2345
  598TMC3     O 8919   0.696   2.244  15.254 -0.2416 -0.1775  0.4662
  598TMC3     H 8920   0.355   2.067  15.330 -0.4461 -2.0136 -1.1300
  598TMC3    H1 8921   0.579   2.314  15.063  0.1640 -2.1411 -1.9199
  598TMC3    H2 8922   0.198   2.167  14.936 -1.1823 -0.5072  1.6739
  598TMC3    C7 8923   0.401   2.332  14.882 -0.1349  0.5236 -0.2627
  598TMC3    C8 8924   0.153   2.007  15.133  0.0760  0.3213  0.1338
  598TMC3    O1 8925   0.334   2.289  14.792  0.3834  0.6401 -0.6736
  598TMC3    O2 8926   0.097   1.975  15.032 -0.2994 -0.0010  0.2239
  599MPD2     C 8927   0.482   4.430  15.506 -0.0691  1.0712 -0.1975
  599MPD2    C1 8928   0.444   4.327  15.592 -0.9543  0.4337  0.0463
  599MPD2    C2 8929   0.328   4.345  15.665  0.0558 -1.1502  0.8234
  599MPD2    C3 8930   0.264   4.468  15.662  0.0328  0.4172  0.1739
  599MPD2    C4 8931   0.307   4.564  15.576 -0.0188 -0.4928  1.0298
  599MPD2    C5 8932   0.420   4.549  15.495  0.6066  0.6977  0.0581
  599MPD2     H 8933   0.291   4.268  15.732 -2.4966 -0.4665  0.2025
  599MPD2    H1 8934   0.261   4.663  15.577  2.7906  0.8184 -0.5438
  599MPD2    H2 8935   0.581   4.414  15.464  0.1877 -0.2664  0.8996
  599MPD2    H3 8936   0.463   4.629  15.436  1.2675  0.1490 -0.1956
  599MPD2     N 8937   0.159   4.501  15.746  0.0858  0.1161  0.2210
  599MPD2    H5 8938   0.150   4.600  15.764  0.0339  0.2142 -0.3324
  599MPD2    N1 8939   0.526   4.216  15.609  0.3489  1.0299 -0.5230
  599MPD2    H7 8940   0.624   4.229  15.588  0.7759 -1.1576  0.1472
  600TMC3    C1 8941   4.722   4.469  15.901  0.0714  0.5673 -0.0271
  600TMC3    C2 8942   4.639   4.387  15.976 -0.1932 -0.4857 -0.1324
  600TMC3    C3 8943   4.580   4.435  16.088 -0.5600  0.0317  0.0341
  600TMC3    C4 8944   0.015   4.594  15.950 -0.1837  0.3666 -0.4284
  600TMC3    C5 8945   4.687   4.637  16.062 -0.1555 -0.4318  0.2314
  600TMC3    C6 8946   4.608   4.563  16.135 -0.2841 -0.4070  0.1650
  600TMC3     C 8947   0.068   4.410  15.797  0.2988  0.4630  0.4696
  600TMC3     O 8948   0.065   4.289  15.786  0.1424 -0.5627  0.4409
  600TMC3     H 8949   4.616   4.285  15.947  0.3997 -1.1948  1.8783
  600TMC3    H1 8950   0.079   4.656  15.889  1.0895  0.2828  0.8144
  600TMC3    H2 8951   4.571   4.597  16.231  0.9725 -3.3093  1.6675
  600TMC3    C7 8952   4.702   0.040  16.114  0.1926 -0.1058  0.1010
  600TMC3    C8 8953   4.536   4.333  16.185 -0.2905  0.2733 -0.5053
  600TMC3    O1 8954   4.628   0.082  16.204 -0.2546  0.2273 -0.2419
  600TMC3    O2 8955   4.559   4.357  16.301  0.7953 -0.1231 -0.4904
  601MPD2     C 8956   1.674   2.373   0.485 -0.1193 -0.4029 -0.7659
  601MPD2    C1 8957   1.757   2.349   0.379 -0.4552  0.5161  0.2849
  601MPD2    C2 8958   1.838   2.232   0.382  0.1416  0.2437 -0.0181
  601MPD2    C3 8959   1.850   2.149   0.496  0.0268 -0.3132  0.6584
  601MPD2    C4 8960   1.757   2.178   0.595 -0.2883  0.2826  0.8265
  601MPD2    C5 8961   1.667   2.280   0.589  1.0384 -0.0275 -0.0822
  601MPD2     H 8962   1.884   2.199   0.289  3.5839 -0.3700  1.9203
  601MPD2    H1 8963   1.746   2.123   0.688 -0.2729 -0.2664  0.5026
  601MPD2    H2 8964   1.605   2.456   0.497  0.1544  0.0771 -2.5324
  601MPD2    H3 8965   1.596   2.296   0.669 -2.4470 -1.0009 -2.9555
  601MPD2     N 8966   1.921   2.023   0.504 -0.4003  0.5601 -0.1108
  601MPD2    H5 8967   1.915   1.971   0.591  0.1911  0.6235 -0.0350
  601MPD2    N1 8968   1.732   2.413   0.259 -0.0785 -0.2141  0.4420
  601MPD2    H7 8969   1.781   2.378   0.178  0.2436  0.6314  0.2710
  602TMC3    C1 8970   1.646   2.552   0.089 -0.4498  0.2047 -0.6474
  602TMC3    C2 8971   1.651   2.685   0.064  0.4186 -0.3674 -0.5031
  602TMC3    C3 8972   1.696   2.731  17.688  0.2250 -0.0951 -0.4335
  602TMC3    C4 8973   1.682   2.457  17.739 -0.3271 -0.0986 -0.2708
  602TMC3    C5 8974   1.725   2.500  17.617 -0.1103  0.6853  0.5058
  602TMC3    C6 8975   1.733   2.638  17.591  0.1812  0.0052  0.0029
  602TMC3     C 8976   1.645   2.524   0.234  0.0153 -0.2196 -0.0343
  602TMC3     O 8977   1.587   2.602   0.307 -0.2574  0.7783 -0.2088
  602TMC3     H 8978   1.638   2.759   0.142 -2.0909 -0.3263 -0.9636
  602TMC3    H1 8979   1.682   2.349   0.008 -2.6917  0.0818  1.0687
  602TMC3    H2 8980   1.754   2.681  17.494 -0.9932  1.2028  0.2704
  602TMC3    C7 8981   1.760   2.419  17.501 -0.1045  0.2949  0.1583
  602TMC3    C8 8982   1.746   2.868  17.683  0.5644  0.0252  0.4605
  602TMC3    O1 8983   1.693   2.318  17.481 -0.1801  0.2987  0.0975
  602TMC3    O2 8984   1.697   2.955   0.008  0.2621  0.5606  0.0426
  603TMC3    C1 8985   0.920   3.455  10.354  0.2801 -0.4464 -0.5296
  603TMC3    C2 8986   0.925   3.448  10.491  0.6081 -0.2502  0.3346
  603TMC3    C3 8987   0.989   3.547  10.554 -0.1750  0.2939 -0.4364
  603TMC3    C4 8988   0.970   3.556  10.278  0.1867 -0.1780  0.0400
  603TMC3    C5 8989   1.015   3.667  10.353 -0.5747  0.3222 -0.5264
  603TMC3    C6 8990   1.037   3.662  10.486 -0.2257 -0.0215  0.8484
  603TMC3     C 8991   0.835   3.362  10.280  0.5289 -0.2466  0.4761
  603TMC3     O 8992   0.810   3.392  10.163 -0.0761 -0.0698  0.2612
  603TMC3     H 8993   0.889   3.370  10.557  0.3466 -0.1911  0.2613
  603TMC3    H1 8994   0.977   3.547  10.170  0.9238  0.4234  0.0361
  603TMC3    H2 8995   1.057   3.751  10.544  0.7698  0.2341  0.1146
  603TMC3    C7 8996   1.038   3.792  10.287  1.3376 -0.9590  0.0198
  603TMC3    C8 8997   1.050   3.503  10.684 -0.3104  0.2979 -0.2144
  603TMC3    O1 8998   1.074   3.879  10.362 -0.1991 -0.3241  0.3903
  603TMC3    O2 8999   1.037   3.383  10.714 -0.2995  0.1123  0.5232
  604MPD2     C 9000   1.714   2.015  16.082 -0.2692 -0.8723 -0.0055
  604MPD2    C1 9001   1.607   1.952  16.038 -1.1045  0.4195  0.8114
  604MPD2    C2 9002   1.602   1.929  15.902  0.1262 -0.4287 -0.5399
  604MPD2    C3 9003   1.709   1.956  15.816 -0.2458 -0.1197  0.4512
  604MPD2    C4 9004   1.821   2.006  15.872 -0.4074 -0.3683  0.9441
  604MPD2    C5 9005   1.819   2.045  15.998  0.8118 -0.1256  0.0700
  604MPD2     H 9006   1.521   1.872  15.859  1.7476 -2.4008 -0.9586
  604MPD2    H1 9007   1.907   2.031  15.810 -2.2308  1.5758 -0.7959
  604MPD2    H2 9008   1.714   2.052  16.184 -2.1481 -2.3374  0.5137
  604MPD2    H3 9009   1.904   2.098  16.039  0.5217 -0.4538  1.0827
  604MPD2     N 9010   1.691   1.936  15.678 -0.5730  0.2382  0.6453
  604MPD2    H5 9011   1.597   1.905  15.655  0.6567 -1.7172 -1.6770
  604MPD2    N1 9012   1.506   1.923  16.131  0.0371 -0.1483 -0.2151
  604MPD2    H7 9013   1.535   1.949  16.225  0.9004 -1.1202 -0.2083
  605TMC3    C1 9014   1.299   1.857  16.222 -0.1313 -0.4209 -0.7357
  605TMC3    C2 9015   1.366   1.870  16.343  0.4716 -0.1076  0.2265
  605TMC3    C3 9016   1.324   1.966  16.429  0.5265 -0.4205  0.6013
  605TMC3    C4 9017   1.172   1.922  16.210 -0.1763 -0.2786 -0.2740
  605TMC3    C5 9018   1.146   2.030  16.285 -0.0647 -0.0369 -0.3684
  605TMC3    C6 9019   1.222   2.057  16.395 -0.4185 -0.3363  1.2861
  605TMC3     C 9020   1.383   1.868  16.100  0.1082 -0.4105 -0.0171
  605TMC3     O 9021   1.330   1.857  15.991 -0.3716  0.3199 -0.7113
  605TMC3     H 9022   1.444   1.800  16.370  0.8441 -0.0600 -0.7581
  605TMC3    H1 9023   1.122   1.902  16.116  1.6185  0.0766 -1.3192
  605TMC3    H2 9024   1.200   2.150  16.446 -0.7414  0.5962 -0.5453
  605TMC3    C7 9025   1.042   2.118  16.242  0.9256  0.4145 -0.3841
  605TMC3    C8 9026   1.444   2.042  16.468 -0.1670  0.3597  0.1468
  605TMC3    O1 9027   1.016   2.205  16.328  0.3420 -0.1281 -0.1586
  605TMC3    O2 9028   1.527   2.031  16.377 -0.3465 -0.7019  0.3298
  606TMC3    C1 9029   2.298   0.924  16.863 -0.1277  0.4654  0.1243
  606TMC3    C2 9030   2.348   0.914  16.987 -0.0511  0.1389  0.1215
  606TMC3    C3 9031   2.374   0.786  17.036  0.5327  0.1894 -0.0966
  606TMC3    C4 9032   2.261   0.809  16.792 -0.4932 -0.5909  0.1256
  606TMC3    C5 9033   2.298   0.689  16.843  0.0182 -0.1607  0.1882
  606TMC3    C6 9034   2.343   0.673  16.964  0.4727 -0.6367 -0.0131
  606TMC3     C 9035   2.375   1.018  16.786  0.2434  0.9223  0.2209
  606TMC3     O 9036   2.373   1.137  16.811  0.4782  0.4697 -0.3393
  606TMC3     H 9037   2.396   1.000  17.033 -1.5408  0.9543  0.1515
  606TMC3    H1 9038   2.203   0.817  16.701 -0.9001 -1.8091  0.2815
  606TMC3    H2 9039   2.372   0.575  16.999  2.8098 -0.8943 -2.6045
  606TMC3    C7 9040   2.316   0.592  16.736 -0.0069 -0.4060 -0.3977
  606TMC3    C8 9041   2.417   0.760  17.172  0.1656 -0.5197  0.2228
  606TMC3    O1 9042   2.330   0.643  16.624 -0.2733  0.2552  0.6684
  606TMC3    O2 9043   2.490   0.659  17.180  0.0469  0.1058 -0.0610
  607MPD2     C 9044   0.094   3.595  11.083 -0.0085 -0.4187 -0.0942
  607MPD2    C1 9045   0.186   3.687  11.125  0.2343  0.2707  0.2531
  607MPD2    C2 9046   0.190   3.701  11.262 -0.1133 -0.2861  0.6235
  607MPD2    C3 9047   0.115   3.626  11.353 -0.2431 -0.1004 -0.1501
  607MPD2    C4 9048   0.031   3.527  11.305  0.5199 -0.1410  0.3609
  607MPD2    C5 9049   0.017   3.517  11.167 -0.3989  0.5414  0.5652
  607MPD2     H 9050   0.256   3.776  11.303  1.6198 -1.2793 -0.3492
  607MPD2    H1 9051   4.707   3.467  11.372 -2.0845  1.1256 -0.8774
  607MPD2    H2 9052   0.075   3.574  10.978  1.9531  1.5381 -0.8251
  607MPD2    H3 9053   4.684   3.443  11.128 -0.5168  0.4877  0.8774
  607MPD2     N 9054   0.142   3.653  11.489 -0.6388  1.0853  0.2916
  607MPD2    H5 9055   0.205   3.730  11.509  1.2425 -0.1107 -0.9059
  607MPD2    N1 9056   0.273   3.764  11.044  0.4498  0.0054  0.1602
  607MPD2    H7 9057   0.321   3.835  11.098  0.3589  0.1824  0.0066
  608TMC3    C1 9058   0.396   3.841  10.873 -0.3774 -0.0639  0.5132
  608TMC3    C2 9059   0.462   3.899  10.976 -0.2971 -0.1320  0.1466
  608TMC3    C3 9060   0.526   4.016  10.940 -0.0256  0.6182  0.6139
  608TMC3    C4 9061   0.378   3.899  10.751 -0.8218 -0.0052  0.0571
  608TMC3    C5 9062   0.449   4.015  10.723 -0.3028  0.3006 -0.4827
  608TMC3    C6 9063   0.520   4.078  10.817  0.5486  0.8769  0.3241
  608TMC3     C 9064   0.289   3.755  10.907 -0.3008 -0.2865  0.4832
  608TMC3     O 9065   0.233   3.694  10.816  0.0747  0.3880 -0.3722
  608TMC3     H 9066   0.489   3.839  11.062 -0.3151  0.3933  0.5147
  608TMC3    H1 9067   0.331   3.843  10.670  0.3128 -1.9274  0.7130
  608TMC3    H2 9068   0.568   4.175  10.814 -0.7413  1.5452  1.6685
  608TMC3    C7 9069   0.429   4.061  10.589  0.6088  0.2943  0.6561
  608TMC3    C8 9070   0.600   4.089  11.053  0.1205  0.5375  0.1778
  608TMC3    O1 9071   0.360   3.994  10.512  0.1667  0.4488  0.3632
  608TMC3    O2 9072   0.699   4.157  11.025  0.0774 -0.4680 -0.5606
  609TMC3    C1 9073   2.204   2.981   9.175  0.6606 -0.0623 -0.4842
  609TMC3    C2 9074   2.155   3.042   9.065  0.1902  0.0064 -0.0330
  609TMC3    C3 9075   2.240   3.039   8.958  0.3634 -0.0266 -0.3871
  609TMC3    C4 9076   2.326   2.924   9.184  0.1426  0.3186  1.2218
  609TMC3    C5 9077   2.404   2.924   9.072  0.6226  0.0443  0.0476
  609TMC3    C6 9078   2.364   2.977   8.958  0.4776 -0.1754  0.1898
  609TMC3     C 9079   2.112   2.947   9.286  0.0189  0.0460  0.6545
  609TMC3     O 9080   2.135   2.844   9.353  0.0887  0.3224  0.2681
  609TMC3     H 9081   2.048   3.054   9.050  0.1336  1.6838  1.5954
  609TMC3    H1 9082   2.357   2.862   9.268 -0.7781 -0.5744  0.8956
  609TMC3    H2 9083   2.433   2.981   8.875  1.6244  0.9426  1.2110
  609TMC3    C7 9084   2.548   2.902   9.097  0.6521  0.2156 -0.6400
  609TMC3    C8 9085   2.195   3.100   8.839 -0.2624  1.1591 -0.3236
  609TMC3    O1 9086   2.579   2.905   9.216 -0.1143  0.2342 -0.0866
  609TMC3    O2 9087   2.259   3.065   8.741 -0.1111  0.6421 -0.0058
  610TMC3    C1 9088   0.197   3.679  12.403 -0.9852  0.7689 -0.5893
  610TMC3    C2 9089   0.291   3.675  12.303  0.4905 -0.0863  0.3176
  610TMC3    C3 9090   0.369   3.565  12.293 -0.6787  0.6268  0.3849
  610TMC3    C4 9091   0.172   3.563  12.474  0.4668  0.6756  0.3896
  610TMC3    C5 9092   0.263   3.459  12.468  0.3913 -0.0675 -0.3006
  610TMC3    C6 9093   0.362   3.458  12.375  0.6645  0.3276 -0.0678
  610TMC3     C 9094   0.079   3.747  12.376  0.4504 -0.0814  0.6564
  610TMC3     O 9095   4.730   3.688  12.307 -0.7559 -0.0894 -0.0441
  610TMC3     H 9096   0.301   3.746  12.222  0.3425 -0.8601 -0.3704
  610TMC3    H1 9097   0.088   3.556  12.542  1.3848 -3.1260  1.1463
  610TMC3    H2 9098   0.429   3.372  12.376 -0.5111 -0.5523  2.3393
  610TMC3    C7 9099   0.231   3.342  12.546 -0.6833  0.3905  0.3291
  610TMC3    C8 9100   0.496   3.588  12.232  0.2424  0.0522 -0.2752
  610TMC3    O1 9101   0.278   3.231  12.523 -0.5774 -0.0121 -0.3822
  610TMC3    O2 9102   0.515   3.701  12.194  0.3513 -0.1896 -0.1545
  611MPD2     C 9103   0.063   3.891   9.304 -0.2824  0.2011  0.0149
  611MPD2    C1 9104   0.098   3.914   9.430  0.5034 -0.2872 -0.1482
  611MPD2    C2 9105   0.230   3.950   9.467  0.7712 -0.5440 -0.3329
  611MPD2    C3 9106   0.320   3.974   9.366  0.6806  0.5983  0.3049
  611MPD2    C4 9107   0.276   3.946   9.235  0.7894 -0.2642 -0.6001
  611MPD2    C5 9108   0.149   3.909   9.202 -0.5167  0.4044  0.2090
  611MPD2     H 9109   0.248   3.980   9.569  0.6176  0.5093 -0.6189
  611MPD2    H1 9110   0.351   3.955   9.157  1.2031 -0.1559 -0.1903
  611MPD2    H2 9111   4.697   3.862   9.288 -0.3778  0.4911  0.0891
  611MPD2    H3 9112   0.117   3.897   9.099  0.2630  1.7347 -0.1926
  611MPD2     N 9113   0.446   4.030   9.369  0.1270 -0.2973 -0.4674
  611MPD2    H5 9114   0.495   4.050   9.282  0.5810  0.1097 -0.1128
  611MPD2    N1 9115   4.731   3.906   9.529  0.4653 -0.0765  0.5621
  611MPD2    H7 9116   4.637   3.878   9.502  0.1145  1.5050  0.1606
  612TMC3    C1 9117   0.637   4.112   9.484 -0.2743 -0.9110  0.0752
  612TMC3    C2 9118   0.735   4.083   9.579 -0.0408 -1.0865 -0.8793
  612TMC3    C3 9119   0.869   4.115   9.561 -0.4688 -0.4853 -0.1811
  612TMC3    C4 9120   0.676   4.173   9.366 -0.0153  0.0711  0.5226
  612TMC3    C5 9121   0.815   4.198   9.346 -0.0850  0.0455 -0.5848
  612TMC3    C6 9122   0.902   4.173   9.439 -0.8803 -0.3022  0.4431
  612TMC3     C 9123   0.511   4.046   9.490  0.3450 -0.3318 -0.1219
  612TMC3     O 9124   0.474   4.020   9.604 -0.6058 -0.2913  0.1921
  612TMC3     H 9125   0.710   4.034   9.672  0.9126  1.6598  0.8229
  612TMC3    H1 9126   0.602   4.193   9.289 -0.1828  0.1090  0.6922
  612TMC3    H2 9127   1.004   4.208   9.431 -0.4303 -2.0621 -1.5231
  612TMC3    C7 9128   0.860   4.272   9.231 -0.6057 -0.6302 -0.5256
  612TMC3    C8 9129   0.973   4.124   9.660 -0.3336  0.4718  0.3036
  612TMC3    O1 9130   0.972   4.321   9.240 -0.4343  0.2511 -0.3365
  612TMC3    O2 9131   1.079   4.180   9.635 -0.9379  0.1823 -0.4278
  613MPD2     C 9132   4.171   0.500  16.665 -0.0624  1.0668  0.0335
  613MPD2    C1 9133   4.092   0.600  16.602 -0.5208 -0.0830 -0.6093
  613MPD2    C2 9134   3.955   0.586  16.599  0.6158  0.0464  0.9004
  613MPD2    C3 9135   3.891   0.474  16.651 -0.1183 -0.5754  0.6198
  613MPD2    C4 9136   3.968   0.379  16.720  0.1367 -0.1634  0.0400
  613MPD2    C5 9137   4.107   0.393  16.725  0.4544  0.2579 -0.1630
  613MPD2     H 9138   3.898   0.656  16.539 -1.1332 -1.8304  0.3853
  613MPD2    H1 9139   3.913   0.300  16.769  1.9039 -0.2412  1.8769
  613MPD2    H2 9140   4.279   0.510  16.674  0.0664 -0.8648  0.5963
  613MPD2    H3 9141   4.166   0.321  16.781  0.6598  0.1974 -0.4630
  613MPD2     N 9142   3.754   0.443  16.630 -0.0330  0.2171  0.4396
  613MPD2    H5 9143   3.718   0.358  16.672  0.0532  0.8009  1.7017
  613MPD2    N1 9144   4.153   0.703  16.524 -0.5623  0.7939  0.5040
  613MPD2    H7 9145   4.246   0.684  16.487 -0.3247 -0.1703  1.6035
  614TMC3    C1 9146   4.104   0.780  16.317  0.3086  0.1791  0.3787
  614TMC3    C2 9147   4.086   0.650  16.273  0.0279 -0.1604 -0.1437
  614TMC3    C3 9148   3.997   0.623  16.170  0.3654 -0.0171  0.0145
  614TMC3    C4 9149   4.055   0.884  16.243 -0.1061 -0.2206  0.4491
  614TMC3    C5 9150   3.962   0.855  16.144 -0.0450  0.3938 -0.0975
  614TMC3    C6 9151   3.926   0.729  16.113 -0.4030  0.9495  0.0141
  614TMC3     C 9152   4.079   0.793  16.459  0.1794 -0.3787  0.6189
  614TMC3     O 9153   3.977   0.858  16.491 -0.2102  0.0042 -0.8453
  614TMC3     H 9154   4.131   0.566  16.325 -2.3028  0.5478  3.0233
  614TMC3    H1 9155   4.055   0.982  16.289 -0.6201 -0.0449  0.0852
  614TMC3    H2 9156   3.841   0.704  16.051 -1.4524  2.1272  0.9768
  614TMC3    C7 9157   3.897   0.971  16.078  0.1229  0.6548  0.2890
  614TMC3    C8 9158   3.924   0.493  16.170  0.5768 -0.1220  0.3769
  614TMC3    O1 9159   3.939   1.086  16.099 -0.3808 -0.2013  0.3336
  614TMC3    O2 9160   3.908   0.422  16.269  0.4397 -0.3037 -0.6710
  615MPD2     C 9161   3.014   1.748  16.041 -0.3254 -0.4534 -0.1493
  615MPD2    C1 9162   2.945   1.867  16.032  0.7611 -0.1447  0.2736
  615MPD2    C2 9163   2.889   1.904  15.909  0.0161  0.2710 -0.0867
  615MPD2    C3 9164   2.879   1.810  15.812 -0.0425  0.2856 -0.0810
  615MPD2    C4 9165   2.942   1.692  15.827 -0.0265  0.2494 -0.1670
  615MPD2    C5 9166   3.013   1.662  15.939  0.1403 -0.0367 -0.3623
  615MPD2     H 9167   2.845   2.002  15.894 -2.6926 -0.7640  1.0438
  615MPD2    H1 9168   2.928   1.619  15.748  3.3463 -1.1872  0.5688
  615MPD2    H2 9169   3.055   1.716  16.136  1.9204  0.4621 -0.8107
  615MPD2    H3 9170   3.064   1.567  15.947 -2.0798 -1.2093 -0.0799
  615MPD2     N 9171   2.814   1.829  15.684 -0.1538  0.0225 -0.2361
  615MPD2    H5 9172   2.812   1.751  15.619  1.0252  1.9725 -2.5904
  615MPD2    N1 9173   2.947   1.967  16.131 -0.4641 -0.8082 -0.0702
  615MPD2    H7 9174   2.891   2.048  16.106 -0.1127 -0.7584 -0.7063
  616TMC3    C1 9175   2.998   2.074  16.328  0.5436  0.2197  0.4993
  616TMC3    C2 9176   3.064   2.069  16.448  0.7481 -0.2072 -0.1401
  616TMC3    C3 9177   3.069   2.186  16.520 -0.7545  0.5691 -0.1151
  616TMC3    C4 9178   2.938   2.190  16.281 -0.8710 -0.6234 -0.6333
  616TMC3    C5 9179   2.957   2.303  16.360 -0.7506  1.0136 -0.9718
  616TMC3    C6 9180   3.018   2.306  16.479 -0.8382  0.1324 -0.2613
  616TMC3     C 9181   3.017   1.958  16.253 -0.1867  0.0780 -0.5178
  616TMC3     O 9182   3.074   1.861  16.301  0.1895  0.4028 -0.1583
  616TMC3     H 9183   3.108   1.979  16.490 -0.9310  0.3721  2.8222
  616TMC3    H1 9184   2.887   2.197  16.186 -0.4392  3.1737 -0.5818
  616TMC3    H2 9185   3.012   2.388  16.550 -0.9182  0.9429 -1.1962
  616TMC3    C7 9186   2.893   2.423  16.311  0.2443 -0.1561 -0.5331
  616TMC3    C8 9187   3.137   2.170  16.646 -0.5546  0.5637 -0.1500
  616TMC3    O1 9188   2.827   2.416  16.206 -0.1303 -0.1483 -0.2498
  616TMC3    O2 9189   3.110   2.073  16.715  0.1507 -0.4496  0.7500
  617MPD2     C 9190   1.377   0.494  13.405 -0.3191  0.6713 -0.4687
  617MPD2    C1 9191   1.358   0.508  13.539  0.5450 -0.0584 -0.2935
  617MPD2    C2 9192   1.243   0.453  13.590  0.1721 -0.1220  0.0398
  617MPD2    C3 9193   1.143   0.398  13.510 -1.2017  0.3902  0.4210
  617MPD2    C4 9194   1.165   0.411  13.375  0.3200 -0.2986 -0.2437
  617MPD2    C5 9195   1.281   0.455  13.322  0.6562 -0.0358 -0.0527
  617MPD2     H 9196   1.224   0.446  13.696 -0.6813  3.0729  0.0977
  617MPD2    H1 9197   1.086   0.377  13.308 -0.3229 -0.7791  0.7559
  617MPD2    H2 9198   1.465   0.539  13.359 -0.0143  0.7742  0.2105
  617MPD2    H3 9199   1.302   0.468  13.216 -0.8548  0.3095 -0.3112
  617MPD2     N 9200   1.027   0.335  13.550  0.1004  0.2706  0.0375
  617MPD2    H5 9201   0.971   0.302  13.472 -0.7123  0.1167  0.6869
  617MPD2    N1 9202   1.457   0.564  13.624  0.4413  0.2873 -0.0122
  617MPD2    H7 9203   1.544   0.593  13.581  1.3457 -2.9127 -0.3157
  618TMC3    C1 9204   1.568   0.646  13.829 -0.1088  0.0026 -0.3761
  618TMC3    C2 9205   1.616   0.574  13.931  0.2424 -0.4741  0.0199
  618TMC3    C3 9206   1.746   0.582  13.957 -0.2143  0.4587 -1.0235
  618TMC3    C4 9207   1.641   0.752  13.774  0.0951  0.2671  0.7467
  618TMC3    C5 9208   1.768   0.766  13.801  0.0233  0.1570  0.0908
  618TMC3    C6 9209   1.825   0.675  13.898 -0.0898  0.2295 -0.2160
  618TMC3     C 9210   1.446   0.584  13.763  0.3510 -0.0924  0.0569
  618TMC3     O 9211   1.373   0.532  13.848 -0.0880 -0.4172 -0.0710
  618TMC3     H 9212   1.555   0.501  13.984 -0.5338 -0.2522 -0.5553
  618TMC3    H1 9213   1.598   0.829  13.711 -0.7283 -1.2429 -0.5253
  618TMC3    H2 9214   1.928   0.680  13.929 -1.1270  0.0193  3.2340
  618TMC3    C7 9215   1.834   0.889  13.755 -0.1820  0.0942 -0.3525
  618TMC3    C8 9216   1.809   0.465  14.016 -0.2211 -0.4754  0.5787
  618TMC3    O1 9217   1.759   0.985  13.754 -0.1443  0.1262  0.3658
  618TMC3    O2 9218   1.760   0.414  14.116 -0.2140  0.8973  0.1588
  619MPD2     C 9219   2.333   1.495  13.605  0.2984 -0.3807 -0.3124
  619MPD2    C1 9220   2.233   1.514  13.518  0.3525 -0.3849  0.2176
  619MPD2    C2 9221   2.103   1.502  13.562 -0.0413  1.4280 -0.4560
  619MPD2    C3 9222   2.086   1.494  13.695  0.1425 -0.1608 -0.4123
  619MPD2    C4 9223   2.182   1.517  13.784  0.6196 -0.4369 -0.0494
  619MPD2    C5 9224   2.312   1.507  13.737  0.1214  0.2603 -1.1933
  619MPD2     H 9225   2.019   1.505  13.495 -1.2426 -1.5837  0.9170
  619MPD2    H1 9226   2.166   1.524  13.891  0.1266 -1.2035 -0.0742
  619MPD2    H2 9227   2.437   1.479  13.579  0.0565 -1.8412 -0.3746
  619MPD2    H3 9228   2.400   1.508  13.800 -2.0169 -2.1511  1.8618
  619MPD2     N 9229   1.953   1.497  13.747 -0.0036  0.1631 -0.1523
  619MPD2    H5 9230   1.939   1.521  13.844 -0.9616 -2.4262  0.3331
  619MPD2    N1 9231   2.262   1.531  13.379  0.0245  0.6592  0.1414
  619MPD2    H7 9232   2.181   1.550  13.322  0.5095 -0.3876 -0.8901
  620TMC3    C1 9233   2.363   1.560  13.183 -0.2461 -0.6819  0.1993
  620TMC3    C2 9234   2.232   1.560  13.141 -0.1463  0.1245  0.2548
  620TMC3    C3 9235   2.175   1.668  13.084 -0.3972 -0.0651  0.2527
  620TMC3    C4 9236   2.448   1.657  13.140  0.1140  0.6817 -0.6868
  620TMC3    C5 9237   2.390   1.763  13.074 -0.7450 -0.6539 -0.0255
  620TMC3    C6 9238   2.257   1.775  13.058 -0.4678  0.4959  0.7095
  620TMC3     C 9239   2.386   1.525  13.319  0.0434  0.0757 -0.0794
  620TMC3     O 9240   2.500   1.515  13.362 -0.2476 -0.2376 -0.1161
  620TMC3     H 9241   2.157   1.484  13.159 -2.0218  1.9122  0.0367
  620TMC3    H1 9242   2.550   1.663  13.175 -0.0669 -0.7737  0.0891
  620TMC3    H2 9243   2.216   1.860  13.005  0.0460  1.0396  1.1915
  620TMC3    C7 9244   2.471   1.861  13.001  0.5918  0.8568 -0.0754
  620TMC3    C8 9245   2.050   1.694  13.139 -0.6175 -0.1442 -0.1212
  620TMC3    O1 9246   2.413   1.937  12.929 -0.0668  0.0759  0.1272
  620TMC3    O2 9247   2.027   1.632  13.245 -0.6969  0.0067 -0.0844
  621MPD2     C 9248   3.244   1.512  10.316 -0.2052 -0.0002  0.4661
  621MPD2    C1 9249   3.128   1.442  10.301 -0.1431  0.1542 -0.4079
  621MPD2    C2 9250   3.024   1.488  10.224 -0.0321 -0.0400 -0.5858
  621MPD2    C3 9251   3.030   1.612  10.155 -0.1148  0.4594 -0.4053
  621MPD2    C4 9252   3.137   1.691  10.185  0.0522  0.2214 -0.8277
  621MPD2    C5 9253   3.238   1.640  10.265 -0.1485  0.1653  0.0498
  621MPD2     H 9254   2.938   1.424  10.209 -1.9364  2.1862  0.7437
  621MPD2    H1 9255   3.155   1.790  10.146  1.4528 -1.1391 -3.6303
  621MPD2    H2 9256   3.324   1.470  10.375  0.1993 -0.8198 -0.6551
  621MPD2    H3 9257   3.325   1.703  10.277 -0.6170  0.5796  1.3063
  621MPD2     N 9258   2.933   1.643  10.065 -0.1687 -0.3696  0.0702
  621MPD2    H5 9259   2.873   1.565  10.042  0.3388 -0.4589 -0.9455
  621MPD2    N1 9260   3.113   1.323  10.382 -0.6835  0.0867 -0.1872
  621MPD2    H7 9261   3.200   1.292  10.424 -0.3603  2.3982  0.8336
  622TMC3    C1 9262   2.999   1.181  10.527 -0.7981 -0.0196 -0.0522
  622TMC3    C2 9263   2.881   1.190  10.593 -0.0412 -0.5007 -0.2730
  622TMC3    C3 9264   2.878   1.141  10.718 -0.0342 -0.6363 -0.2873
  622TMC3    C4 9265   3.101   1.107  10.576 -0.1583 -0.2446 -0.4152
  622TMC3    C5 9266   3.096   1.055  10.699  0.2487 -0.7094 -0.3994
  622TMC3    C6 9267   2.985   1.073  10.775  0.3151  0.2490  0.3500
  622TMC3     C 9268   3.000   1.248  10.408  0.3659  0.2550 -0.3195
  622TMC3     O 9269   2.890   1.250  10.357  0.5791  0.0340  0.3767
  622TMC3     H 9270   2.793   1.234  10.547 -0.0574 -0.8199 -0.5491
  622TMC3    H1 9271   3.190   1.094  10.516 -0.9504 -1.9824 -1.2430
  622TMC3    H2 9272   2.979   1.023  10.871  2.0805 -1.2098 -0.3036
  622TMC3    C7 9273   3.193   0.959  10.744  0.6724  0.6644  0.1444
  622TMC3    C8 9274   2.752   1.124  10.784 -0.0772  0.8282  0.6329
  622TMC3    O1 9275   3.228   0.953  10.859  0.5293 -0.7027  0.0981
  622TMC3    O2 9276   2.729   1.017  10.840  0.1476 -0.9687 -0.4662
  623MPD2     C 9277   1.695   2.352  15.545 -0.1182  0.1469 -0.6855
  623MPD2    C1 9278   1.646   2.294  15.655  0.3873  0.2269 -0.2730
  623MPD2    C2 9279   1.708   2.303  15.780  0.8167  0.2207  0.2747
  623MPD2    C3 9280   1.832   2.368  15.785  0.4266 -0.2785  0.9308
  623MPD2    C4 9281   1.891   2.419  15.669  0.6219  0.6453 -0.4412
  623MPD2    C5 9282   1.808   2.419  15.562 -0.7209 -0.3112 -0.4303
  623MPD2     H 9283   1.662   2.265  15.870 -0.0354 -0.2213 -0.3430
  623MPD2    H1 9284   1.978   2.482  15.674  0.3296  0.9678  0.6007
  623MPD2    H2 9285   1.642   2.364  15.451  0.1160 -0.2853 -0.8758
  623MPD2    H3 9286   1.834   2.475  15.473 -0.7526  0.3216 -0.0442
  623MPD2     N 9287   1.894   2.374  15.908  0.0504  0.0929  0.1020
  623MPD2    H5 9288   1.837   2.341  15.985 -0.2941  2.1703  0.7438
  623MPD2    N1 9289   1.520   2.231  15.655 -0.1464  0.7313  0.1617
  623MPD2    H7 9290   1.488   2.190  15.742  1.0573  1.3118  0.8815
  624TMC3    C1 9291   2.170   2.457  16.287  0.3578 -0.1366  0.2899
  624TMC3    C2 9292   2.079   2.395  16.363  0.5226  0.6979 -0.3523
  624TMC3    C3 9293   1.961   2.366  16.307  0.2953  0.2580 -0.2343
  624TMC3    C4 9294   2.150   2.481  16.152  0.0979 -0.1691 -0.6849
  624TMC3    C5 9295   2.035   2.427  16.094 -0.1028 -0.1768  0.7115
  624TMC3    C6 9296   1.935   2.379  16.173  0.2166 -0.0622 -0.0096
  624TMC3     C 9297   2.293   2.511  16.351 -0.0214 -1.2271 -0.2888
  624TMC3     O 9298   2.338   2.614  16.302 -0.0740  0.1867 -0.1630
  624TMC3     H 9299   2.097   2.373  16.468  0.0859  0.2638 -0.3631
  624TMC3    H1 9300   2.218   2.543  16.095 -0.2826  1.5128  0.7195
  624TMC3    H2 9301   1.838   2.340  16.147  0.7706  0.9962 -3.5689
  624TMC3    C7 9302   2.016   2.437  15.953  0.2208  0.2737 -0.7621
  624TMC3    C8 9303   1.864   2.301  16.381 -0.3506 -0.6420  0.4023
  624TMC3    O1 9304   2.081   2.516  15.889  0.4725 -0.6509 -0.0231
  624TMC3    O2 9305   1.826   2.195  16.340 -0.3422  0.4179  0.7644
  625MPD2     C 9306   2.237   3.416   0.987 -0.0950 -0.7885 -0.0662
  625MPD2    C1 9307   2.270   3.405   0.850  0.3168  0.0259 -0.9489
  625MPD2    C2 9308   2.404   3.406   0.815  0.2070  0.2832 -0.1980
  625MPD2    C3 9309   2.500   3.394   0.918 -0.5191 -0.7389 -0.0042
  625MPD2    C4 9310   2.459   3.383   1.052  0.5071 -0.6032 -0.2226
  625MPD2    C5 9311   2.331   3.418   1.082 -0.7130  0.2645 -0.3038
  625MPD2     H 9312   2.434   3.423   0.712  1.5668 -2.0806 -0.1733
  625MPD2    H1 9313   2.527   3.372   1.136 -1.5167  1.3224  1.6785
  625MPD2    H2 9314   2.133   3.402   1.015 -0.1170 -2.0289 -0.7235
  625MPD2    H3 9315   2.314   3.421   1.189 -3.9236 -1.0912 -0.7601
  625MPD2     N 9316   2.633   3.398   0.877 -0.4858  1.1709  0.2936
  625MPD2    H5 9317   2.641   3.431   0.781  0.0219  1.5518  0.4671
  625MPD2    N1 9318   2.177   3.405   0.747 -0.0374  0.6171 -0.6530
  625MPD2    H7 9319   2.220   3.411   0.655  2.3947  0.4968  0.4610
  626TMC3    C1 9320   1.973   3.442   0.646  0.0298  0.4936  0.0406
  626TMC3    C2 9321   2.043   3.513   0.551 -0.4598 -0.0390 -0.3164
  626TMC3    C3 9322   1.977   3.578   0.446 -0.0748  0.2864  0.2244
  626TMC3    C4 9323   1.840   3.433   0.637 -0.9042  0.5251  0.1778
  626TMC3    C5 9324   1.776   3.496   0.531  0.7389  0.0306  0.2297
  626TMC3    C6 9325   1.839   3.575   0.437  0.5357 -0.0230 -0.7003
  626TMC3     C 9326   2.043   3.395   0.764 -0.0423  0.3320  0.0848
  626TMC3     O 9327   1.974   3.384   0.869  0.0287 -0.2201 -0.0207
  626TMC3     H 9328   2.149   3.533   0.554 -0.5792  0.2984  1.3957
  626TMC3    H1 9329   1.784   3.389   0.719  0.2780  0.7372  1.1083
  626TMC3    H2 9330   1.788   3.630   0.359  1.4457  0.0442 -1.2473
  626TMC3    C7 9331   1.631   3.484   0.521 -0.3196  0.6330 -0.3599
  626TMC3    C8 9332   2.047   3.695   0.388 -0.6561 -0.2953 -0.4619
  626TMC3    O1 9333   1.590   3.380   0.569 -0.8764  0.1991  0.5593
  626TMC3    O2 9334   2.134   3.751   0.456 -0.0068 -0.6256 -0.0083
  627MPD2     C 9335   0.206   4.067  14.309  0.2737  0.3119 -0.3585
  627MPD2    C1 9336   0.285   3.975  14.375  0.2805 -0.4040  0.2667
  627MPD2    C2 9337   0.225   3.857  14.414 -0.3839  0.1100  0.4916
  627MPD2    C3 9338   0.100   3.818  14.366  0.0785 -0.5419  0.0388
  627MPD2    C4 9339   0.028   3.906  14.290  0.1990 -0.6485 -0.3836
  627MPD2    C5 9340   0.082   4.029  14.263 -0.0125  0.0975 -0.3596
  627MPD2     H 9341   0.276   3.786  14.478  0.7126 -1.5004 -2.1590
  627MPD2    H1 9342   4.661   3.891  14.260  0.8499 -0.4427 -2.7041
  627MPD2    H2 9343   0.241   4.167  14.283  0.1877  0.3978 -0.1377
  627MPD2    H3 9344   0.024   4.099  14.204 -1.5897 -1.1012 -0.2301
  627MPD2     N 9345   0.051   3.690  14.400  0.0468 -1.0947 -0.2620
  627MPD2    H5 9346   0.124   3.631  14.439  1.3815  0.4626 -0.3766
  627MPD2    N1 9347   0.411   4.001  14.428  0.2999  0.5877  0.0133
  627MPD2    H7 9348   0.457   3.922  14.472  2.7988  2.1784  0.2749
  628TMC3    C1 9349   0.620   4.113  14.443 -0.5623  0.2839 -0.2739
  628TMC3    C2 9350   0.692   3.996  14.475 -0.2076  0.5472 -0.5167
  628TMC3    C3 9351   0.830   4.000  14.485 -0.6153 -0.0601 -1.0024
  628TMC3    C4 9352   0.694   4.231  14.430  0.0705 -0.3609  0.7377
  628TMC3    C5 9353   0.832   4.225  14.434  0.1281  0.3386 -0.2371
  628TMC3    C6 9354   0.904   4.119  14.484  0.7770 -0.2216  0.3182
  628TMC3     C 9355   0.480   4.114  14.403 -0.1037 -0.4624 -0.5113
  628TMC3     O 9356   0.456   4.203  14.323  0.5196  0.0646 -0.1958
  628TMC3     H 9357   0.640   3.901  14.481 -2.1390  1.6920  0.7625
  628TMC3    H1 9358   0.635   4.318  14.404  2.1706  1.0157  0.5312
  628TMC3    H2 9359   1.011   4.121  14.463  0.4817 -2.2245 -1.3439
  628TMC3    C7 9360   0.894   4.352  14.400  0.4919 -0.4815  0.0484
  628TMC3    C8 9361   0.903   3.883  14.526 -0.3844 -0.1433  1.0696
  628TMC3    O1 9362   1.014   4.354  14.421 -0.0529  0.0475 -0.2839
  628TMC3    O2 9363   0.854   3.825  14.619  0.0691 -0.2187  0.3334
  629MPD2     C 9364   3.558   2.217  16.925 -0.6949 -0.6725 -0.2362
  629MPD2    C1 9365   3.581   2.275  16.801 -0.4606  0.1837 -0.5427
  629MPD2    C2 9366   3.478   2.284  16.708  0.0480  0.1407 -0.8611
  629MPD2    C3 9367   3.357   2.235  16.739 -0.1618 -0.0972  0.3893
  629MPD2    C4 9368   3.338   2.176  16.867  0.0930  0.3932  0.1805
  629MPD2    C5 9369   3.438   2.165  16.956  0.5164  0.2808  0.1436
  629MPD2     H 9370   3.499   2.313  16.606  1.2955 -2.0836 -1.2499
  629MPD2    H1 9371   3.242   2.137  16.901  0.6358 -1.3115 -0.2440
  629MPD2    H2 9372   3.641   2.222  16.995 -1.1046  2.6713  0.0415
  629MPD2    H3 9373   3.411   2.108  17.043 -0.1146  0.1269 -0.1573
  629MPD2     N 9374   3.251   2.249  16.641 -0.9302  0.2505 -0.3651
  629MPD2    H5 9375   3.262   2.308  16.559  2.0272 -0.7045 -0.6574
  629MPD2    N1 9376   3.708   2.342  16.779  0.0976  0.5922 -0.2733
  629MPD2    H7 9377   3.775   2.343  16.855  1.8586 -2.0256 -1.7773
  630TMC3    C1 9378   3.861   2.476  16.654 -0.8137  0.2648  0.3392
  630TMC3    C2 9379   3.886   2.554  16.550  0.6805 -0.4139 -0.1028
  630TMC3    C3 9380   4.014   2.583  16.514  0.2845 -0.3967 -0.1485
  630TMC3    C4 9381   3.959   2.405  16.721  0.3785 -0.1692  0.8870
  630TMC3    C5 9382   4.082   2.458  16.702 -0.6147  0.2880 -0.0566
  630TMC3    C6 9383   4.116   2.544  16.598 -0.0592  0.3036 -0.4482
  630TMC3     C 9384   3.725   2.441  16.681  0.4185 -0.0860 -0.1520
  630TMC3     O 9385   3.640   2.497  16.610  0.6977  0.2322 -0.0746
  630TMC3     H 9386   3.810   2.617  16.504  1.3230  0.8774  0.6161
  630TMC3    H1 9387   3.940   2.330  16.796 -0.8724  0.4025  1.1524
  630TMC3    H2 9388   4.216   2.585  16.589 -0.1314  0.8282  1.1934
  630TMC3    C7 9389   4.185   2.416  16.791  0.3607  0.4315 -0.7522
  630TMC3    C8 9390   4.049   2.657  16.402  0.2641 -0.6974  0.1440
  630TMC3    O1 9391   4.142   2.384  16.905 -0.0961  0.4463 -0.0811
  630TMC3    O2 9392   4.169   2.655  16.393  0.3793  0.7690 -0.0394
  631MPD2     C 9393   2.034   2.308  15.149 -0.1165  0.3805 -0.6208
  631MPD2    C1 9394   2.156   2.330  15.079  0.3522 -0.6668  0.6570
  631MPD2    C2 9395   2.267   2.249  15.116 -0.2233 -0.9712 -0.5900
  631MPD2    C3 9396   2.256   2.152  15.220  0.5244 -0.5540  0.2394
  631MPD2    C4 9397   2.133   2.138  15.288 -0.2773 -0.3233 -0.2356
  631MPD2    C5 9398   2.031   2.209  15.240 -0.2633 -0.0741 -0.3034
  631MPD2     H 9399   2.364   2.262  15.069  0.3336  0.6552  1.0536
  631MPD2    H1 9400   2.109   2.059  15.358  1.5339  0.8457  1.6888
  631MPD2    H2 9401   1.946   2.367  15.128  0.6589  2.0535  0.7599
  631MPD2    H3 9402   1.936   2.188  15.286  0.3793  0.6815  1.3717
  631MPD2     N 9403   2.375   2.077  15.257  0.4781 -0.2396  0.3442
  631MPD2    H5 9404   2.458   2.116  15.212  0.0897 -0.2119 -0.3356
  631MPD2    N1 9405   2.154   2.435  14.985 -0.0537 -0.0863  0.0835
  631MPD2    H7 9406   2.072   2.491  14.964 -0.8901 -1.4259 -0.2595
  632TMC3    C1 9407   2.232   2.570  14.813 -1.2161  0.1557 -0.3612
  632TMC3    C2 9408   2.211   2.683  14.888 -0.2377 -0.7765 -0.0909
  632TMC3    C3 9409   2.151   2.780  14.817 -0.2247  0.2162 -0.3078
  632TMC3    C4 9410   2.215   2.557  14.675  0.6398  0.2061 -0.5577
  632TMC3    C5 9411   2.157   2.663  14.617  0.7430  0.4552  0.0836
  632TMC3    C6 9412   2.123   2.776  14.684 -0.1673  0.9324  0.0785
  632TMC3     C 9413   2.248   2.445  14.896  0.6647 -0.0815 -0.0247
  632TMC3     O 9414   2.345   2.373  14.873  0.1222 -0.2456  0.0866
  632TMC3     H 9415   2.244   2.688  14.992  0.0875 -1.7987 -0.1426
  632TMC3    H1 9416   2.249   2.471  14.619  2.3105  2.1707 -2.5652
  632TMC3    H2 9417   2.076   2.862  14.638  1.9112  1.9908 -0.0534
  632TMC3    C7 9418   2.200   2.702  14.484 -0.2156 -0.3968 -0.0544
  632TMC3    C8 9419   2.077   2.874  14.891 -0.0708 -0.5299  0.3665
  632TMC3    O1 9420   2.126   2.763  14.413 -0.2544 -0.5605  0.2701
  632TMC3    O2 9421   1.978   2.920  14.839  0.2932 -0.0189  0.7091
  633MPD2     C 9422   2.001   0.539  17.014 -0.0077  0.4252 -0.3207
  633MPD2    C1 9423   1.919   0.484  16.922 -0.4011  0.3451  0.2855
  633MPD2    C2 9424   1.904   0.345  16.923  0.1291  0.3128 -0.2811
  633MPD2    C3 9425   1.962   0.261  17.015  0.3217 -0.3039 -0.5626
  633MPD2    C4 9426   2.039   0.324  17.108  0.1835 -0.1598 -0.7792
  633MPD2    C5 9427   2.058   0.462  17.111 -0.4345  0.7633  0.4907
  633MPD2     H 9428   1.865   0.292  16.837  1.9187 -0.4643 -0.6097
  633MPD2    H1 9429   2.092   0.266  17.183 -1.3370 -1.4704 -0.6938
  633MPD2    H2 9430   2.027   0.644  17.006  1.6057  0.0964  0.6947
  633MPD2    H3 9431   2.114   0.517  17.186  0.7666 -1.7058  1.4251
  633MPD2     N 9432   1.959   0.116  17.017 -0.8610 -0.6609  0.0867
  633MPD2    H5 9433   2.006   0.070  17.094 -0.2095 -1.1800 -0.6089
  633MPD2    N1 9434   1.850   0.559  16.822 -0.9448  0.3232  0.0826
  633MPD2    H7 9435   1.816   0.501  16.746 -2.3318 -0.2465  1.1210
  634TMC3    C1 9436   1.795   0.736  16.676  0.1728 -0.3232  0.2955
  634TMC3    C2 9437   1.821   0.665  16.563 -0.0885 -0.1473 -0.1426
  634TMC3    C3 9438   1.780   0.715  16.444 -0.8514  0.1400  0.2577
  634TMC3    C4 9439   1.731   0.857  16.672 -0.5836  0.4989 -0.0878
  634TMC3    C5 9440   1.681   0.904  16.551  0.1574  0.2751 -0.2770
  634TMC3    C6 9441   1.702   0.830  16.430  0.3312 -0.0648 -0.1846
  634TMC3     C 9442   1.839   0.696  16.807  0.1638  0.1540 -0.2854
  634TMC3     O 9443   1.842   0.776  16.899 -0.0905  0.3476 -0.2564
  634TMC3     H 9444   1.867   0.567  16.564 -0.3202 -0.2584 -0.5192
  634TMC3    H1 9445   1.709   0.910  16.764  0.0573  1.2962 -0.3918
  634TMC3    H2 9446   1.669   0.867  16.334  2.5356 -2.1347 -1.7288
  634TMC3    C7 9447   1.651   1.052  16.543  0.8009  0.2484 -0.6455
  634TMC3    C8 9448   1.798   0.626  16.325  0.1762  0.0065 -0.1630
  634TMC3    O1 9449   1.641   1.100  16.431 -0.1402 -0.2365  0.3560
  634TMC3    O2 9450   1.806   0.506  16.345 -0.4160  0.3834  0.3473
  635TMC3    C1 9451   2.608   1.185  17.574  0.8967  0.5751  0.6561
  635TMC3    C2 9452   2.680   1.106  17.653  0.5878  0.5113 -0.0131
  635TMC3    C3 9453   2.753   1.010  17.587  0.3042 -0.8263  0.4665
  635TMC3    C4 9454   2.595   1.172  17.438  0.8160 -0.4761 -0.2286
  635TMC3    C5 9455   2.664   1.070  17.379  0.5420  0.4878  0.1852
  635TMC3    C6 9456   2.745   0.989  17.454  0.0982  0.4285  0.2330
  635TMC3     C 9457   2.529   1.278  17.642 -0.6125  0.3023  0.5072
  635TMC3     O 9458   2.483   1.250   0.004 -0.2981 -0.0600 -0.0129
  635TMC3     H 9459   2.698   1.122   0.013  1.3065 -0.2675 -0.0180
  635TMC3    H1 9460   2.534   1.229  17.369 -0.6594 -0.9964  0.6399
  635TMC3    H2 9461   2.771   0.893  17.412  0.8920  1.4503 -1.6229
  635TMC3    C7 9462   2.658   1.067  17.234 -0.3555 -0.2889  0.1335
  635TMC3    C8 9463   2.856   0.950  17.662 -1.1947  0.3307  1.1655
  635TMC3    O1 9464   2.558   1.105  17.167  0.1243 -0.4321  0.2728
  635TMC3    O2 9465   2.829   0.939   0.038 -0.0756 -0.1155 -0.4526
  636MPD2     C 9466   3.106   0.888  15.910 -0.7911  0.9437  0.7659
  636MPD2    C1 9467   3.105   0.921  16.047 -0.5806  0.3797  0.4677
  636MPD2    C2 9468   3.176   0.846  16.142  0.4070 -0.3059  0.2976
  636MPD2    C3 9469   3.252   0.740  16.104 -0.0615  0.6996  0.0751
  636MPD2    C4 9470   3.249   0.703  15.969  0.2322  0.0843  0.0778
  636MPD2    C5 9471   3.174   0.774  15.878  0.7724  0.2361  0.0242
  636MPD2     H 9472   3.175   0.869  16.248 -3.9034  0.4134  0.1034
  636MPD2    H1 9473   3.282   0.609  15.928 -0.1957 -0.3860  0.7898
  636MPD2    H2 9474   3.056   0.948  15.834  1.5632  0.3467 -1.2661
  636MPD2    H3 9475   3.165   0.730  15.779 -0.5023  0.4440  0.0487
  636MPD2     N 9476   3.317   0.662  16.210 -0.2674  0.6230 -0.1217
  636MPD2    H5 9477   3.301   0.698  16.304  0.4021 -1.2379  0.6897
  636MPD2    N1 9478   3.038   1.037  16.087  0.3457 -0.2081 -0.0744
  636MPD2    H7 9479   3.030   1.041  16.188  2.7006  1.5242  0.0471
  637TMC3    C1 9480   3.424   0.468  16.308  0.0277 -0.1036 -0.4416
  637TMC3    C2 9481   3.478   0.530  16.413 -0.0725 -0.2970  0.1218
  637TMC3    C3 9482   3.562   0.457  16.493 -0.0219 -0.2905  0.3921
  637TMC3    C4 9483   3.444   0.337  16.275 -0.5565  0.7423 -0.5801
  637TMC3    C5 9484   3.519   0.268  16.362 -0.9768  0.5706 -0.2750
  637TMC3    C6 9485   3.581   0.326  16.467  0.7826  0.6320 -0.5173
  637TMC3     C 9486   3.380   0.541  16.186  0.5712  0.0943  1.0386
  637TMC3     O 9487   3.412   0.490  16.082 -0.4037  0.0266  0.4220
  637TMC3     H 9488   3.459   0.634  16.433 -2.0953 -0.2241 -2.1975
  637TMC3    H1 9489   3.394   0.295  16.189 -2.5058 -0.7635  1.2775
  637TMC3    H2 9490   3.642   0.258  16.527 -0.0186  0.5894  0.2514
  637TMC3    C7 9491   3.565   0.138  16.314  0.1612 -0.8516  0.2104
  637TMC3    C8 9492   3.671   0.527  16.560  0.0154  0.3862  0.0005
  637TMC3    O1 9493   3.559   0.056  16.407 -0.0983 -0.6372 -0.3537
  637TMC3    O2 9494   3.674   0.649  16.561  0.0561  0.3922  0.1199
  638MPD2     C 9495   2.805   4.434  14.267  0.1146  0.4847  0.4671
  638MPD2    C1 9496   2.841   4.303  14.276  0.0375  0.1161  0.0832
  638MPD2    C2 9497   2.750   4.205  14.326  0.0539 -0.0390  1.1393
  638MPD2    C3 9498   2.631   4.241  14.374  0.2460  0.4658  0.1592
  638MPD2    C4 9499   2.602   4.375  14.370 -0.1087 -0.0844 -0.2206
  638MPD2    C5 9500   2.686   4.473  14.321 -0.4729  0.7944 -0.2526
  638MPD2     H 9501   2.778   4.100  14.322  2.4107  0.5163  3.3417
  638MPD2    H1 9502   2.509   4.417  14.405 -0.9942 -2.3822  0.1645
  638MPD2    H2 9503   2.864   4.511  14.218  0.5676  2.1895  3.6689
  638MPD2    H3 9504   2.662   4.579  14.328 -2.6559  0.3671 -1.4657
  638MPD2     N 9505   2.545   4.138  14.415 -0.2529 -0.4597  0.0115
  638MPD2    H5 9506   2.579   4.042  14.416 -1.4373 -0.8964 -1.6689
  638MPD2    N1 9507   2.967   4.248  14.235  0.3361  0.6635 -0.0764
  638MPD2    H7 9508   2.962   4.148  14.248  1.9491  0.3542 -1.7870
  639TMC3    C1 9509   2.368   4.056  14.524 -0.6259 -0.1618 -0.3161
  639TMC3    C2 9510   2.236   4.010  14.504  0.0858 -0.4900  0.6920
  639TMC3    C3 9511   2.195   3.918  14.596  0.3495 -0.3514  0.3466
  639TMC3    C4 9512   2.455   4.001  14.614  0.4091 -0.1304  0.0623
  639TMC3    C5 9513   2.411   3.908  14.701  0.2225 -0.0153  0.1628
  639TMC3    C6 9514   2.284   3.864  14.690  0.3701 -0.1342  0.1090
  639TMC3     C 9515   2.412   4.154  14.440 -0.0575  0.1837 -0.4235
  639TMC3     O 9516   2.343   4.260  14.437 -0.2945  0.1620 -0.4687
  639TMC3     H 9517   2.175   4.048  14.422  2.7176  0.0751 -1.0034
  639TMC3    H1 9518   2.556   4.037  14.634 -0.0076 -0.1624  2.2285
  639TMC3    H2 9519   2.250   3.784  14.754  1.9755 -1.3961 -0.6157
  639TMC3    C7 9520   2.507   3.855  14.799 -0.2742  0.2807 -0.2237
  639TMC3    C8 9521   2.115   3.803  14.551 -0.2327 -0.1381  0.4150
  639TMC3    O1 9522   2.472   3.841  14.914 -0.5506 -0.2575 -0.2638
  639TMC3    O2 9523   1.994   3.793  14.580 -0.0162  0.0871 -0.2162
  640MPD2     C 9524   3.301   4.040  10.192  0.0378 -0.5981 -0.3602
  640MPD2    C1 9525   3.351   4.057  10.065 -0.0761 -0.1253 -0.0148
  640MPD2    C2 9526   3.468   4.141  10.050  0.2398 -0.7525 -0.0789
  640MPD2    C3 9527   3.511   4.222  10.157  0.6360 -0.5087  0.0255
  640MPD2    C4 9528   3.456   4.198  10.287 -0.5415 -0.7422  0.5888
  640MPD2    C5 9529   3.350   4.111  10.294  0.5059  0.1703 -0.0311
  640MPD2     H 9530   3.525   4.134   9.958  1.7566 -0.3695  0.8487
  640MPD2    H1 9531   3.506   4.234  10.376 -0.5606  1.2573 -0.2008
  640MPD2    H2 9532   3.213   3.980  10.210 -0.2213  0.0654  0.6061
  640MPD2    H3 9533   3.309   4.097  10.393 -0.1549  0.0867 -0.3207
  640MPD2     N 9534   3.628   4.304  10.158  0.3919  0.0694 -0.3497
  640MPD2    H5 9535   3.642   4.367  10.236 -1.4213 -0.0776  0.1060
  640MPD2    N1 9536   3.299   3.975   9.955 -0.0881 -0.1659  0.0167
  640MPD2    H7 9537   3.225   3.907   9.971 -0.1647  0.1910  1.1319
  641TMC3    C1 9538   3.291   3.891   9.736 -1.0951 -0.1337  0.5981
  641TMC3    C2 9539   3.229   3.778   9.787 -0.5121 -0.2622  0.7197
  641TMC3    C3 9540   3.141   3.718   9.706 -0.7226 -0.6358 -0.5069
  641TMC3    C4 9541   3.268   3.936   9.603 -0.6595 -0.0081 -0.9308
  641TMC3    C5 9542   3.157   3.880   9.530  0.3947  0.7113 -0.0862
  641TMC3    C6 9543   3.105   3.763   9.582 -0.2941  0.3623 -0.0097
  641TMC3     C 9544   3.346   3.983   9.830 -0.7682  0.4242  0.0096
  641TMC3     O 9545   3.424   4.060   9.777 -0.0354  0.4342 -0.2403
  641TMC3     H 9546   3.256   3.737   9.884  0.5192 -2.1786 -0.3853
  641TMC3    H1 9547   3.327   4.018   9.564  0.6961 -0.6783 -0.3060
  641TMC3    H2 9548   3.031   3.710   9.523 -1.0170  0.3817  0.8930
  641TMC3    C7 9549   3.111   3.936   9.405  0.2929  0.1146 -0.2363
  641TMC3    C8 9550   3.117   3.578   9.724  0.5594  0.1660 -0.1262
  641TMC3    O1 9551   3.177   4.033   9.363 -0.4646  0.0009  0.5592
  641TMC3    O2 9552   3.064   3.512   9.638  0.5457  0.3938  0.4081
  642TMC3    C1 9553   4.542   4.162  12.022 -0.5379 -0.1748  0.4682
  642TMC3    C2 9554   4.673   4.149  12.055  0.4245  0.4718 -0.1054
  642TMC3    C3 9555   4.722   4.023  12.071  0.6060 -0.3994  0.0883
  642TMC3    C4 9556   4.459   4.051  12.014  0.3327 -0.1896 -0.6356
  642TMC3    C5 9557   4.512   3.928  12.038 -0.9983 -0.3660 -0.3344
  642TMC3    C6 9558   4.646   3.911  12.057 -0.1693 -0.3750 -0.0421
  642TMC3     C 9559   4.489   4.293  12.004 -0.5051  0.0368  0.6433
  642TMC3     O 9560   4.568   4.384  11.981 -1.1356 -0.7144 -0.3302
  642TMC3     H 9561   0.004   4.233  12.066  1.6839  0.0255 -4.6259
  642TMC3    H1 9562   4.366   4.058  11.959  0.0350 -1.4909 -0.2874
  642TMC3    H2 9563   4.675   3.807  12.056  1.0067 -0.0716  1.3044
  642TMC3    C7 9564   4.423   3.810  12.051 -0.8188 -0.4211 -0.1214
  642TMC3    C8 9565   0.120   3.979  12.035  0.2056  0.3157  0.0508
  642TMC3    O1 9566   4.308   3.819  12.008  1.0421  0.2479  0.0314
  642TMC3    O2 9567   0.142   3.855  12.040  0.2525 -0.2885 -0.0405
  643TMC3    C1 9568   3.543   2.850  17.513  0.7714 -0.3378 -0.0562
  643TMC3    C2 9569   3.441   2.858  17.421 -0.4119 -0.6062  0.0985
  643TMC3    C3 9570   3.472   2.840  17.286 -0.3547  0.3551  0.0336
  643TMC3    C4 9571   3.663   2.794  17.477  0.2085 -0.5436  0.5886
  643TMC3    C5 9572   3.697   2.790  17.347  0.5486  0.2502  0.3107
  643TMC3    C6 9573   3.600   2.808  17.247 -0.2043  0.6617  0.7056
  643TMC3     C 9574   3.563   2.971  17.583 -0.1621  0.7301 -0.8291
  643TMC3     O 9575   3.518   3.069  17.527 -0.1865  0.8985 -0.3411
  643TMC3     H 9576   3.351   2.916  17.440 -1.4036 -1.7962 -0.9441
  643TMC3    H1 9577   3.732   2.756  17.551 -1.4190 -2.2185  1.2505
  643TMC3    H2 9578   3.628   2.807  17.142  1.7214  0.5183  1.2237
  643TMC3    C7 9579   3.805   2.882  17.318  0.6690 -0.1220 -0.5489
  643TMC3    C8 9580   3.418   2.941  17.200 -0.5338  0.4597  0.2974
  643TMC3    O1 9581   3.828   2.907  17.200  0.4543  0.3427  0.1903
  643TMC3    O2 9582   3.380   2.920  17.084  0.7284  0.2035 -0.1407
  644MPD2     C 9583   3.596   3.361  10.299 -0.4705 -0.0587 -0.6233
  644MPD2    C1 9584   3.594   3.413  10.174  1.6954 -0.7447  0.1875
  644MPD2    C2 9585   3.632   3.545  10.163  0.0902 -0.8404  0.0175
  644MPD2    C3 9586   3.672   3.627  10.266 -0.1183 -0.0349  0.1289
  644MPD2    C4 9587   3.676   3.570  10.390  0.2747 -0.1562  0.0570
  644MPD2    C5 9588   3.633   3.434  10.406 -0.4886 -0.3790 -0.0776
  644MPD2     H 9589   3.641   3.592  10.066  1.0189 -2.0289 -0.4710
  644MPD2    H1 9590   3.700   3.625  10.480 -0.2186 -0.3961  0.3350
  644MPD2    H2 9591   3.583   3.254  10.314 -1.6200  0.0195 -1.0757
  644MPD2    H3 9592   3.631   3.384  10.502  0.7663 -0.4786 -0.1061
  644MPD2     N 9593   3.705   3.764  10.245 -0.1186  0.2904 -0.1280
  644MPD2    H5 9594   3.718   3.806  10.153  1.4337  0.4597  0.1762
  644MPD2    N1 9595   3.564   3.334  10.061  0.3319 -0.3237 -0.2269
  644MPD2    H7 9596   3.558   3.233  10.076  0.9268 -0.1629  1.1064
  645TMC3    C1 9597   3.795   3.981  10.294  0.0196  0.1307  0.6145
  645TMC3    C2 9598   3.870   3.976  10.180  0.4379 -0.6563  0.3077
  645TMC3    C3 9599   3.957   4.075  10.154  0.3509  0.3678 -0.8533
  645TMC3    C4 9600   3.800   4.082  10.380 -0.7788 -0.0962  0.1325
  645TMC3    C5 9601   3.909   4.162  10.368 -0.0733  0.3821  0.2183
  645TMC3    C6 9602   3.986   4.163  10.257  0.2539 -0.1205 -0.0058
  645TMC3     C 9603   3.720   3.862  10.344 -0.3351 -0.1244 -0.3154
  645TMC3     O 9604   3.697   3.862  10.464  0.0241 -0.2148 -0.4126
  645TMC3     H 9605   3.848   3.903  10.103 -0.4222 -0.1130  0.0346
  645TMC3    H1 9606   3.732   4.094  10.463  0.0443  0.9287  0.6559
  645TMC3    H2 9607   4.054   4.246  10.241  1.9681 -0.8942  3.2183
  645TMC3    C7 9608   3.907   4.276  10.461  0.4934  0.1535 -0.6044
  645TMC3    C8 9609   4.033   4.080  10.030 -0.1442 -0.4832 -0.2917
  645TMC3    O1 9610   3.792   4.320  10.496 -0.1380  0.3360  0.2779
  645TMC3    O2 9611   4.112   4.169  10.016 -0.0662  0.1041 -0.1531
  646MPD2     C 9612   3.152   2.994  14.395  0.1257  0.4063  0.1359
  646MPD2    C1 9613   3.042   2.945  14.460 -0.4217  0.5414  0.4401
  646MPD2    C2 9614   2.917   2.972  14.407 -0.3747  0.0950  0.6906
  646MPD2    C3 9615   2.904   3.039  14.288  0.4552  0.2547  0.1715
  646MPD2    C4 9616   3.017   3.097  14.223 -0.2429  0.2490 -0.1023
  646MPD2    C5 9617   3.136   3.077  14.283  0.0311  0.5129 -0.9525
  646MPD2     H 9618   2.827   2.928  14.448 -0.2075 -0.8514  0.0344
  646MPD2    H1 9619   3.009   3.166  14.139 -0.5084 -0.6939 -0.8532
  646MPD2    H2 9620   3.252   2.972  14.429  0.1006 -0.2759 -0.2173
  646MPD2    H3 9621   3.224   3.122  14.241  1.7371  0.5228  2.6237
  646MPD2     N 9622   2.777   3.066  14.226  0.1041  0.3615  0.0184
  646MPD2    H5 9623   2.693   3.031  14.270 -1.2808  2.2596 -1.1467
  646MPD2    N1 9624   3.077   2.869  14.572 -0.5390  0.2986 -0.0786
  646MPD2    H7 9625   3.176   2.864  14.593 -0.2327  1.4435 -1.2694
  647TMC3    C1 9626   3.055   2.703  14.742 -0.2464 -0.4618  0.3074
  647TMC3    C2 9627   2.979   2.606  14.806  0.0671  0.3686  0.2691
  647TMC3    C3 9628   3.006   2.580  14.938 -0.2632 -0.2327  0.5050
  647TMC3    C4 9629   3.180   2.738  14.794 -0.1281 -0.1638  0.3628
  647TMC3    C5 9630   3.213   2.703  14.924 -0.6663  0.0601  0.3976
  647TMC3    C6 9631   3.123   2.626  14.992 -0.9506  0.0657 -0.0381
  647TMC3     C 9632   2.991   2.781  14.636  0.6543  0.3612 -0.3869
  647TMC3     O 9633   2.875   2.764  14.604  0.5116 -0.2185  0.6702
  647TMC3     H 9634   2.889   2.561  14.765 -1.0794  0.4047  2.7131
  647TMC3    H1 9635   3.247   2.814  14.756 -0.1364  0.5298  1.7260
  647TMC3    H2 9636   3.145   2.602  15.095  1.5440  0.8823 -0.3784
  647TMC3    C7 9637   3.354   2.658  14.941 -0.7053  0.1499 -0.2345
  647TMC3    C8 9638   2.981   2.448  14.991 -0.2961 -0.1962  0.2679
  647TMC3    O1 9639   3.396   2.667  15.058 -0.1197  0.3562 -0.1562
  647TMC3    O2 9640   2.956   2.448  15.109 -0.2340 -0.3475 -0.1535
  648TMC3    C1 9641   2.123   0.960  15.657  0.6125 -0.2532 -1.0690
  648TMC3    C2 9642   2.122   0.834  15.594 -0.0033 -0.0529 -0.6878
  648TMC3    C3 9643   2.042   0.819  15.478  0.0008  0.5289 -0.1861
  648TMC3    C4 9644   2.061   1.065  15.601 -0.0605  0.2292 -0.1719
  648TMC3    C5 9645   1.978   1.049  15.484 -0.3817 -0.2015 -0.4813
  648TMC3    C6 9646   1.970   0.926  15.421  0.4865 -0.0451  0.3747
  648TMC3     C 9647   2.181   0.978  15.794  0.6669 -0.3862  0.2525
  648TMC3     O 9648   2.200   1.093  15.834  0.0047  0.4524  0.0316
  648TMC3     H 9649   2.179   0.750  15.631 -0.2414  0.7830  1.5482
  648TMC3    H1 9650   2.085   1.161  15.645 -0.5615 -0.0373  0.6860
  648TMC3    H2 9651   1.901   0.914  15.337  1.6842  0.7379 -0.7145
  648TMC3    C7 9652   1.860   1.136  15.465  0.0390 -0.6109  0.8479
  648TMC3    C8 9653   2.052   0.688  15.398 -0.5032 -0.3068  0.0003
  648TMC3    O1 9654   1.795   1.118  15.362  0.6378 -0.3665  0.0727
  648TMC3    O2 9655   1.960   0.674  15.322 -0.4182 -0.0050 -0.2136
  649TMC3    C1 9656   1.406   2.307  13.280 -0.5114 -0.0915  0.3601
  649TMC3    C2 9657   1.437   2.339  13.401  1.0027  0.2104 -0.0832
  649TMC3    C3 9658   1.479   2.241  13.489 -0.2490 -0.3456 -0.3036
  649TMC3    C4 9659   1.384   2.180  13.240 -0.1836 -0.3564 -0.2881
  649TMC3    C5 9660   1.431   2.085  13.329 -0.3564 -0.8929  0.3062
  649TMC3    C6 9661   1.488   2.108  13.452 -0.6893 -0.0391  0.5683
  649TMC3     C 9662   1.420   2.396  13.171  0.8615 -0.3546  0.5941
  649TMC3     O 9663   1.328   2.380  13.088 -0.2639  0.1683 -0.6915
  649TMC3     H 9664   1.469   2.438  13.431  3.4403 -0.0734 -1.7139
  649TMC3    H1 9665   1.347   2.160  13.140  1.0861 -0.5972 -0.7207
  649TMC3    H2 9666   1.521   2.032  13.522 -0.4801 -1.7575 -1.3960
  649TMC3    C7 9667   1.394   1.955  13.299 -0.4165 -0.4520 -0.5760
  649TMC3    C8 9668   1.535   2.274  13.618 -0.3809 -0.4136 -0.3597
  649TMC3    O1 9669   1.298   1.953  13.220 -0.1946  0.5473  0.0985
  649TMC3    O2 9670   1.618   2.201  13.664  0.3913 -0.5018  0.2524
  650TMC3    C1 9671   4.159   3.554  12.452 -0.1414 -0.2166  0.3421
  650TMC3    C2 9672   4.155   3.684  12.507  0.5159 -0.2345 -0.3463
  650TMC3    C3 9673   4.109   3.786  12.428 -0.1714  0.0593 -0.4088
  650TMC3    C4 9674   4.124   3.527  12.326 -0.5648 -0.1479  0.2936
  650TMC3    C5 9675   4.095   3.633  12.246  0.5885  1.0661  0.8595
  650TMC3    C6 9676   4.089   3.762  12.293 -0.1529  0.5769 -0.8414
  650TMC3     C 9677   4.176   3.450  12.552 -0.1088 -0.2817 -0.2546
  650TMC3     O 9678   4.162   3.479  12.671  0.2214 -0.3246  0.5423
  650TMC3     H 9679   4.163   3.704  12.614 -0.5101  0.4583 -0.4036
  650TMC3    H1 9680   4.134   3.429  12.281  0.9141  0.8158 -1.4883
  650TMC3    H2 9681   4.069   3.842  12.222  1.1776  1.1467 -0.5738
  650TMC3    C7 9682   4.028   3.590  12.120 -0.3359  0.6172 -0.2943
  650TMC3    C8 9683   4.076   3.923  12.469 -0.0366 -0.3533  0.4795
  650TMC3    O1 9684   3.984   3.475  12.113 -0.0793 -0.4752 -0.4509
  650TMC3    O2 9685   4.070   4.006  12.374  0.0518  0.0820  0.3110
  651MPD2     C 9686   2.812   1.563  11.247  1.6110 -0.0786 -0.3472
  651MPD2    C1 9687   2.776   1.593  11.116  0.2681  0.8614 -1.0186
  651MPD2    C2 9688   2.862   1.654  11.033  0.7186  0.3787  0.8082
  651MPD2    C3 9689   2.998   1.671  11.072 -0.4787 -0.2146 -1.3082
  651MPD2    C4 9690   3.036   1.627  11.201 -0.2645 -0.2471 -0.2015
  651MPD2    C5 9691   2.944   1.574  11.287  0.5584  0.0164 -0.4480
  651MPD2     H 9692   2.838   1.682  10.931 -0.2306 -2.8914  0.1564
  651MPD2    H1 9693   3.140   1.630  11.233  0.2518 -1.3714 -1.7752
  651MPD2    H2 9694   2.738   1.518  11.313  2.7821 -1.2088  0.2053
  651MPD2    H3 9695   2.977   1.545  11.386  1.6914 -0.3487 -0.9386
  651MPD2     N 9696   3.090   1.704  10.970 -0.4954 -0.7025  0.1519
  651MPD2    H5 9697   3.045   1.721  10.881  1.1858 -1.5442 -0.8549
  651MPD2    N1 9698   2.642   1.563  11.072  0.1317 -0.8315 -0.6007
  651MPD2    H7 9699   2.622   1.587  10.975  1.4164  0.7371 -0.4797
  652TMC3    C1 9700   3.491   1.672  10.743 -0.0883 -0.3191 -0.8339
  652TMC3    C2 9701   3.419   1.670  10.859 -0.0685  0.0871  0.6287
  652TMC3    C3 9702   3.297   1.725  10.864 -0.1500  1.2453 -0.6181
  652TMC3    C4 9703   3.439   1.738  10.637  0.6076 -0.4075 -0.4068
  652TMC3    C5 9704   3.315   1.792  10.647 -0.4987 -0.2407  0.3335
  652TMC3    C6 9705   3.236   1.779  10.760  0.5630  0.3322  0.5891
  652TMC3     C 9706   3.637   1.646  10.755  0.0274  0.3085  0.5191
  652TMC3     O 9707   3.678   1.633  10.870  0.7584  0.3540 -0.3629
  652TMC3     H 9708   3.477   1.637  10.944  1.6002 -1.3495 -1.0569
  652TMC3    H1 9709   3.482   1.741  10.537 -0.0195  0.1245 -0.6619
  652TMC3    H2 9710   3.136   1.821  10.767  0.3774  0.0911 -0.7335
  652TMC3    C7 9711   3.273   1.884  10.545 -0.2717  0.6512 -0.0977
  652TMC3    C8 9712   3.226   1.696  10.986  0.2185  0.7876 -0.2744
  652TMC3    O1 9713   3.154   1.896  10.514  0.1882 -0.2284  0.3754
  652TMC3    O2 9714   3.297   1.656  11.081 -0.1689 -0.0146 -0.1473
  653MPD2     C 9715   1.965   0.548  17.496  0.1969 -0.5730  0.1055
  653MPD2    C1 9716   1.894   0.640  17.421  1.0945  0.2219 -0.3315
  653MPD2    C2 9717   1.810   0.599  17.320  0.1984  0.6897 -0.0401
  653MPD2    C3 9718   1.784   0.460  17.304 -0.0394  0.2401  0.0362
  653MPD2    C4 9719   1.849   0.374  17.385 -0.2325  0.4752 -0.2096
  653MPD2    C5 9720   1.944   0.412  17.479  0.2439  0.0132  0.1578
  653MPD2     H 9721   1.765   0.671  17.252  1.6949 -1.5295 -3.3914
  653MPD2    H1 9722   1.838   0.268  17.367 -3.2054  0.6208  0.6828
  653MPD2    H2 9723   2.043   0.568  17.568  0.8701 -2.8199 -0.0031
  653MPD2    H3 9724   2.001   0.343  17.539 -0.2438 -0.0325  0.5642
  653MPD2     N 9725   1.696   0.410  17.208 -0.1692  0.7168  0.2431
  653MPD2    H5 9726   1.673   0.473  17.132 -0.0943  0.6176  0.1382
  653MPD2    N1 9727   1.902   0.778  17.450  0.1263 -0.3199 -0.8043
  653MPD2    H7 9728   1.830   0.834  17.405 -1.0330 -0.0877  1.3323
  654TMC3    C1 9729   1.572   0.254  17.073  0.2807  0.1156  0.8605
  654TMC3    C2 9730   1.485   0.345  17.031  0.5604  0.5117 -0.2668
  654TMC3    C3 9731   1.372   0.306  16.969 -0.1299  0.2886 -0.2402
  654TMC3    C4 9732   1.564   0.128  17.048  0.7653  1.0779  0.0397
  654TMC3    C5 9733   1.452   0.085  16.974  0.5379  0.0427 -0.3575
  654TMC3    C6 9734   1.357   0.178  16.933  0.6699 -0.5532  0.3432
  654TMC3     C 9735   1.652   0.278  17.193  0.7813 -0.7961  0.1268
  654TMC3     O 9736   1.680   0.172  17.251 -0.1680  0.0306  0.0717
  654TMC3     H 9737   1.504   0.450  17.048  2.5028 -0.0993  1.4213
  654TMC3    H1 9738   1.651   0.063  17.054  0.9554  1.2170 -1.2188
  654TMC3    H2 9739   1.291   0.148  16.853  0.1894  1.9015 -0.1617
  654TMC3    C7 9740   1.422   4.686  16.949  0.7116 -1.1424  0.4266
  654TMC3    C8 9741   1.274   0.401  16.927 -0.1787 -0.9171  0.5573
  654TMC3    O1 9742   1.316   4.667  16.885  0.5580  0.8394  0.8970
  654TMC3    O2 9743   1.283   0.517  16.948 -0.5702  0.0164 -0.7372
  655MPD2     C 9744   2.761   0.724  15.924 -0.9948 -0.1245  0.0984
  655MPD2    C1 9745   2.685   0.776  15.823 -0.3573 -0.5313 -0.3755
  655MPD2    C2 9746   2.686   0.714  15.698 -0.5441  0.0298 -0.4272
  655MPD2    C3 9747   2.746   0.592  15.683 -0.2451 -0.1571 -0.1680
  655MPD2    C4 9748   2.817   0.538  15.791 -0.3401 -0.7880  0.1241
  655MPD2    C5 9749   2.819   0.601  15.911 -0.2185 -0.7202 -0.4284
  655MPD2     H 9750   2.629   0.768  15.623  0.3684  0.3680 -0.8663
  655MPD2    H1 9751   2.854   0.438  15.773  0.2148 -0.0902 -2.6118
  655MPD2    H2 9752   2.774   0.785  16.013  1.4329  1.2723 -1.2098
  655MPD2    H3 9753   2.878   0.559  15.991  0.2395 -0.3888 -0.5978
  655MPD2     N 9754   2.744   0.513  15.565  0.0723 -0.1014  0.8769
  655MPD2    H5 9755   2.806   0.434  15.556  2.6149  1.9523  0.0953
  655MPD2    N1 9756   2.618   0.900  15.835  0.2747 -0.1174 -0.1110
  655MPD2    H7 9757   2.564   0.922  15.751  0.2832 -2.9193 -0.8671
  656TMC3    C1 9758   2.550   1.111  15.908  0.1019  0.0824  0.2911
  656TMC3    C2 9759   2.512   1.192  16.012  0.4211 -0.7056 -0.3742
  656TMC3    C3 9760   2.425   1.291  15.980 -0.1513 -0.9744 -0.9590
  656TMC3    C4 9761   2.522   1.149  15.779  0.6184 -0.5144  0.3448
  656TMC3    C5 9762   2.450   1.259  15.754 -0.1127  0.2026 -0.0466
  656TMC3    C6 9763   2.392   1.328  15.855  0.2959 -0.4414 -0.7632
  656TMC3     C 9764   2.625   0.989  15.936 -0.0860 -0.2843  0.0569
  656TMC3     O 9765   2.665   0.977  16.047  0.2863  0.4196 -0.4835
  656TMC3     H 9766   2.529   1.175  16.118 -1.9337  1.3280  0.3295
  656TMC3    H1 9767   2.580   1.099  15.701 -0.2703  1.4114 -1.5439
  656TMC3    H2 9768   2.339   1.422  15.842  1.5393  0.2520 -0.8740
  656TMC3    C7 9769   2.404   1.266  15.615 -0.4318  0.0870 -0.1072
  656TMC3    C8 9770   2.330   1.326  16.082 -0.0021 -0.0204  0.3587
  656TMC3    O1 9771   2.456   1.196  15.532 -0.3996  0.3831 -0.3930
  656TMC3    O2 9772   2.369   1.335  16.197  0.6383 -0.0823 -0.0843
  657TMC3    C1 9773   1.241   0.030  15.059  0.5906 -0.6214  0.6249
  657TMC3    C2 9774   1.137   0.052  15.146 -0.0864  0.1595 -0.1368
  657TMC3    C3 9775   1.092   0.184  15.156 -0.2623 -0.5173 -0.0076
  657TMC3    C4 9776   1.307   0.129  14.992 -0.4487 -0.2080 -0.0578
  657TMC3    C5 9777   1.246   0.252  14.991 -0.2067  0.1560 -0.5069
  657TMC3    C6 9778   1.143   0.286  15.074 -0.2487  0.1923  0.6316
  657TMC3     C 9779   1.288   4.625  15.053  0.1702  0.3436  0.1724
  657TMC3     O 9780   1.213   4.540  15.091  0.7822  0.1502  0.1482
  657TMC3     H 9781   1.090   4.710  15.203  1.5723 -0.2333  0.6813
  657TMC3    H1 9782   1.393   0.104  14.931 -0.4803  0.7786 -0.5072
  657TMC3    H2 9783   1.109   0.389  15.084 -1.9399 -0.1268 -1.8435
  657TMC3    C7 9784   1.310   0.363  14.928  0.0472 -0.1057 -0.3748
  657TMC3    C8 9785   0.993   0.220  15.258 -0.0721  0.3849 -0.2609
  657TMC3    O1 9786   1.295   0.470  14.984  0.2849  0.0410  0.0167
  657TMC3    O2 9787   0.956   0.128  15.329 -0.7521 -0.0127 -0.5246
  658MPD2     C 9788   3.284   0.431  15.244  0.6675 -0.5469 -0.5615
  658MPD2    C1 9789   3.188   0.431  15.148  0.5602  0.5237 -0.6484
  658MPD2    C2 9790   3.216   0.456  15.017 -0.2163  0.1353  0.3516
  658MPD2    C3 9791   3.350   0.466  14.982 -0.5989 -0.1956 -0.4894
  658MPD2    C4 9792   3.455   0.454  15.074  0.2714  0.4946 -0.2165
  658MPD2    C5 9793   3.415   0.430  15.207  0.5597  0.4383 -0.5364
  658MPD2     H 9794   3.144   0.464  14.937 -0.3560 -0.9343  0.3700
  658MPD2    H1 9795   3.558   0.446  15.042  0.4843  1.1028  0.3436
  658MPD2    H2 9796   3.258   0.416  15.348  0.5593  1.5020 -0.2753
  658MPD2    H3 9797   3.490   0.425  15.285  1.4802  0.4878 -1.4220
  658MPD2     N 9798   3.376   0.509  14.845 -0.4049 -0.1320 -0.0541
  658MPD2    H5 9799   3.294   0.504  14.786 -0.9690  0.6914  0.6593
  658MPD2    N1 9800   3.062   0.403  15.198  0.5134 -0.3771  0.4665
  658MPD2    H7 9801   3.048   0.417  15.297  1.8521 -1.3749  0.7947
  659TMC3    C1 9802   2.829   0.357  15.181 -0.7510  0.0464  0.3092
  659TMC3    C2 9803   2.811   0.434  15.293 -0.2712 -0.4230  0.3342
  659TMC3    C3 9804   2.681   0.454  15.342  0.1082 -0.9142  0.3042
  659TMC3    C4 9805   2.722   0.288  15.136 -0.7533  0.0596 -0.0007
  659TMC3    C5 9806   2.599   0.308  15.183  0.2654 -0.2325 -0.0190
  659TMC3    C6 9807   2.569   0.397  15.285  0.3869 -0.2469  0.1772
  659TMC3     C 9808   2.961   0.356  15.115 -0.6583  0.2092 -0.2208
  659TMC3     O 9809   2.964   0.307  15.000 -0.1838 -0.1987  0.6228
  659TMC3     H 9810   2.889   0.483  15.352 -0.2390  0.0195 -0.0727
  659TMC3    H1 9811   2.732   0.220  15.052  1.1838  0.6868 -0.2822
  659TMC3    H2 9812   2.472   0.438  15.310  0.3468 -0.4075  0.2810
  659TMC3    C7 9813   2.488   0.287  15.089 -0.3282  0.2006  0.0087
  659TMC3    C8 9814   2.658   0.543  15.453  0.1176 -1.1185  0.0105
  659TMC3    O1 9815   2.405   0.377  15.078  0.2427 -0.5635 -0.6886
  659TMC3    O2 9816   2.554   0.604  15.453 -0.1548 -0.2818  0.6120
  660MPD2     C 9817   0.871   4.536  12.486 -0.5035 -0.1487 -0.8295
  660MPD2    C1 9818   0.756   4.537  12.404  0.5121 -0.2487 -0.5922
  660MPD2    C2 9819   0.641   4.473  12.455 -0.1440  0.2310 -0.0430
  660MPD2    C3 9820   0.656   4.389  12.565 -0.1263  0.6889  0.2322
  660MPD2    C4 9821   0.773   4.383  12.634  0.0334  0.1567 -0.3210
  660MPD2    C5 9822   0.878   4.456  12.593  0.1248 -0.0107  0.3280
  660MPD2     H 9823   0.548   4.467  12.400 -0.5699  0.2840  0.6684
  660MPD2    H1 9824   0.779   4.324  12.725 -2.0736 -2.3694 -1.8439
  660MPD2    H2 9825   0.956   4.596  12.455  0.6739 -0.1858  2.3160
  660MPD2    H3 9826   0.970   4.460  12.650 -0.5387  1.2402  1.3090
  660MPD2     N 9827   0.547   4.323  12.623 -0.3700  0.2395  0.5180
  660MPD2    H5 9828   0.562   4.272  12.710 -2.1361  2.3449  2.0582
  660MPD2    N1 9829   0.766   4.611  12.282  0.5523  0.3494  0.2481
  660MPD2    H7 9830   0.858   4.646  12.256  1.1263 -0.9170  0.6170
  661TMC3    C1 9831   0.689   4.703  12.080 -0.8117 -0.0376  0.5519
  661TMC3    C2 9832   0.802   4.661  12.023 -0.6051  0.0079  0.1213
  661TMC3    C3 9833   0.808   4.646  11.886 -0.1933  0.1871 -0.2796
  661TMC3    C4 9834   0.582   0.007  11.998 -0.8139 -0.0713 -0.3914
  661TMC3    C5 9835   0.583   4.722  11.860  0.3989 -0.9203 -0.2876
  661TMC3    C6 9836   0.692   4.665  11.800 -0.9262  0.9093 -0.0035
  661TMC3     C 9837   0.657   4.648  12.211  0.1563 -0.3855 -0.3047
  661TMC3     O 9838   0.534   4.642  12.229 -0.1851  0.4086  0.5655
  661TMC3     H 9839   0.891   4.637  12.080  0.6597  0.0479 -1.8389
  661TMC3    H1 9840   0.501   0.050  12.057  0.5524  0.0238  1.4221
  661TMC3    H2 9841   0.692   4.657  11.692 -0.0582  2.9251 -0.1546
  661TMC3    C7 9842   0.444   4.710  11.806 -0.2552 -0.5172  0.2998
  661TMC3    C8 9843   0.940   4.659  11.821  0.2602  0.2324 -0.0196
  661TMC3    O1 9844   0.363   0.057  11.840  0.8925 -0.4523  0.4490
  661TMC3    O2 9845   0.939   4.672  11.697  0.0622  0.0759  0.1057
  662MPD2     C 9846   1.683   3.794  17.443  0.1297  0.4060 -0.1895
  662MPD2    C1 9847   1.623   3.785  17.313 -0.0043 -0.6041 -0.2955
  662MPD2    C2 9848   1.544   3.885  17.254 -0.7768  0.0168  0.3416
  662MPD2    C3 9849   1.507   3.985  17.334 -0.1379  0.2836 -0.6656
  662MPD2    C4 9850   1.558   4.000  17.460 -0.7991 -0.3738  0.3769
  662MPD2    C5 9851   1.643   3.908  17.510 -0.1341 -0.8516  0.0738
  662MPD2     H 9852   1.511   3.885  17.151  1.3336  1.1383 -0.3424
  662MPD2    H1 9853   1.524   4.077  17.529 -0.6924 -1.4332  1.5907
  662MPD2    H2 9854   1.757   3.727  17.486 -1.0516 -0.4937  0.4402
  662MPD2    H3 9855   1.680   3.918  17.612  0.0129  0.8502 -0.1443
  662MPD2     N 9856   1.405   4.076  17.288  0.0443 -0.1368  0.5725
  662MPD2    H5 9857   1.393   4.160  17.344 -1.0809 -1.6767  2.6605
  662MPD2    N1 9858   1.641   3.679  17.232  0.4094 -0.1090 -0.4562
  662MPD2    H7 9859   1.610   3.681  17.135 -0.9209  0.9637 -0.0134
  663TMC3    C1 9860   1.672   3.459  17.167  0.4199 -0.0242 -0.4873
  663TMC3    C2 9861   1.725   3.339  17.202  0.0708 -0.1308 -0.4206
  663TMC3    C3 9862   1.676   3.230  17.134  0.0187  0.7772 -0.2904
  663TMC3    C4 9863   1.552   3.465  17.098  0.0699 -1.0963  0.8304
  663TMC3    C5 9864   1.492   3.346  17.064  0.2930 -0.3904  0.1073
  663TMC3    C6 9865   1.549   3.224  17.084 -0.8080 -0.1838  0.5340
  663TMC3     C 9866   1.702   3.563  17.267  0.1943  0.0368  0.5407
  663TMC3     O 9867   1.762   3.533  17.370 -0.7418  0.8231 -0.2939
  663TMC3     H 9868   1.821   3.338  17.252  0.6144  2.0227 -1.4117
  663TMC3    H1 9869   1.498   3.558  17.085  0.4201 -0.8840  0.8909
  663TMC3    H2 9870   1.519   3.144  17.018 -0.3579 -1.0454  1.3699
  663TMC3    C7 9871   1.347   3.356  17.053  0.2361  0.2054 -0.3165
  663TMC3    C8 9872   1.711   3.102  17.194  0.4345 -0.2774 -0.3154
  663TMC3    O1 9873   1.285   3.464  17.046 -0.4375 -0.4156  0.1632
  663TMC3    O2 9874   1.769   3.032  17.112 -0.5176  0.1199  0.3148
  664MPD2     C 9875   3.774   2.249  17.359 -0.9301 -0.8709 -0.2192
  664MPD2    C1 9876   3.872   2.248  17.456  0.5235  0.0962  0.8396
  664MPD2    C2 9877   3.864   2.152  17.558  0.3444 -0.0906 -0.2130
  664MPD2    C3 9878   3.756   2.059  17.566  0.4900 -0.4017  0.1019
  664MPD2    C4 9879   3.653   2.073  17.474 -0.2242 -0.1033  0.4822
  664MPD2    C5 9880   3.661   2.166  17.374 -0.1487  0.2545 -0.2419
  664MPD2     H 9881   3.944   2.142  17.630 -0.8609 -0.5051  1.0749
  664MPD2    H1 9882   3.568   2.006  17.477 -0.5709  0.2569 -0.9429
  664MPD2    H2 9883   3.778   2.315  17.273 -4.2061  1.4142  1.3834
  664MPD2    H3 9884   3.599   2.154  17.286  1.7981  1.5459 -1.7927
  664MPD2     N 9885   3.757   1.970  17.676  0.3692 -0.4450 -0.3956
  664MPD2    H5 9886   3.838   1.970  17.738  1.3505  0.8005 -1.6874
  664MPD2    N1 9887   3.982   2.338  17.448  0.1274 -0.2590  0.1152
  664MPD2    H7 9888   4.065   2.312  17.501  0.4597  1.6817  0.5776
  665TMC3    C1 9889   3.686   1.786   0.070 -0.4295 -0.7616  0.2385
  665TMC3    C2 9890   3.623   1.668   0.068 -0.0095 -0.4191  0.2188
  665TMC3    C3 9891   3.649   1.585   0.172  0.6522  0.8513 -0.5997
  665TMC3    C4 9892   3.773   1.824   0.175 -0.0846 -0.2226 -0.2700
  665TMC3    C5 9893   3.786   1.736   0.275  0.3121 -0.1774 -0.4486
  665TMC3    C6 9894   3.738   1.611   0.270 -0.1064  0.2920 -0.0129
  665TMC3     C 9895   3.665   1.866  17.693 -0.0496 -0.1707  0.4489
  665TMC3     O 9896   3.568   1.838  17.624  0.8381  0.1352 -0.0282
  665TMC3     H 9897   3.554   1.643  17.735  0.4708 -0.6099 -0.1425
  665TMC3    H1 9898   3.808   1.926   0.183  2.0599 -0.7970 -2.3788
  665TMC3    H2 9899   3.765   1.529   0.335  0.3959  0.9392  0.6022
  665TMC3    C7 9900   3.848   1.782   0.398 -0.1536 -0.0755 -0.4069
  665TMC3    C8 9901   3.560   1.479   0.215 -0.0356 -1.1291 -0.2552
  665TMC3    O1 9902   3.943   1.859   0.382 -0.2319 -0.0914 -0.4116
  665TMC3    O2 9903   3.550   1.466   0.341 -0.7062  0.5104 -0.0134
  666TMC3    C1 9904   2.817   1.785   9.916 -0.8599  0.0564 -0.2249
  666TMC3    C2 9905   2.827   1.702   9.811 -0.1870 -0.2962 -0.4673
  666TMC3    C3 9906   2.737   1.733   9.712  0.4294 -0.8994  0.4550
  666TMC3    C4 9907   2.740   1.897   9.917  0.1137 -0.8804 -1.0873
  666TMC3    C5 9908   2.644   1.913   9.826 -0.0443  0.1231 -0.0742
  666TMC3    C6 9909   2.643   1.835   9.717 -0.4762  0.8327 -0.2463
  666TMC3     C 9910   2.903   1.768  10.028  0.6591 -0.1954 -0.5601
  666TMC3     O 9911   2.947   1.871  10.073 -0.5642  0.1762 -0.2234
  666TMC3     H 9912   2.891   1.614   9.805 -0.3422 -0.5416  1.3974
  666TMC3    H1 9913   2.737   1.958  10.007  0.4604  0.2200 -1.8165
  666TMC3    H2 9914   2.570   1.843   9.638 -1.4017  2.5699  0.7909
  666TMC3    C7 9915   2.586   2.048   9.824  0.0940  0.0638  0.2526
  666TMC3    C8 9916   2.766   1.656   9.588 -0.9383 -0.1465  0.2858
  666TMC3    O1 9917   2.599   2.109   9.930  0.3046 -0.2852 -0.3077
  666TMC3    O2 9918   2.786   1.538   9.608  0.3751  0.7817 -0.8335
  667MPD2     C 9919   4.411   2.325  14.729  0.1010 -0.5804 -0.2548
  667MPD2    C1 9920   4.412   2.271  14.858 -0.2987  0.5865 -0.3070
  667MPD2    C2 9921   4.300   2.193  14.895 -0.8234  0.0039 -0.5108
  667MPD2    C3 9922   4.191   2.173  14.811  0.4163  0.0533  0.0290
  667MPD2    C4 9923   4.189   2.241  14.692  0.2871  0.0320  0.0938
  667MPD2    C5 9924   4.294   2.321  14.654  0.2884  0.4342 -0.2024
  667MPD2     H 9925   4.291   2.153  14.995 -3.3291 -2.0748 -1.5742
  667MPD2    H1 9926   4.099   2.230  14.633  0.3342 -0.5170  0.1180
  667MPD2    H2 9927   4.486   2.399  14.703 -0.1491 -0.6815 -1.2963
  667MPD2    H3 9928   4.283   2.382  14.565 -1.7162 -0.3663 -0.5030
  667MPD2     N 9929   4.073   2.100  14.841  0.1476 -0.4221 -0.4118
  667MPD2    H5 9930   3.993   2.094  14.778 -0.8046  1.4756  0.6386
  667MPD2    N1 9931   4.519   2.291  14.950 -0.0192 -0.6995 -1.0138
  667MPD2    H7 9932   4.526   2.221  15.023  1.5311  0.0867 -0.4008
  668TMC3    C1 9933   4.712   2.385  15.042  0.1872 -0.4741 -0.2335
  668TMC3    C2 9934   0.087   2.464  15.017  0.0564 -0.6924  0.5623
  668TMC3    C3 9935   0.172   2.501  15.116 -0.7496 -0.2497  0.3916
  668TMC3    C4 9936   4.675   2.341  15.165  0.2030  0.3548 -0.3186
  668TMC3    C5 9937   0.027   2.375  15.262 -0.5633 -0.0665 -0.2154
  668TMC3    C6 9938   0.147   2.446  15.237  0.1326  0.0999  0.0411
  668TMC3     C 9939   4.609   2.398  14.943  0.2394 -0.6093 -0.6576
  668TMC3     O 9940   4.596   2.496  14.873 -0.0467 -0.4835  0.6364
  668TMC3     H 9941   0.094   2.503  14.916  0.2544  0.0139  0.8528
  668TMC3    H1 9942   4.576   2.301  15.187  1.2835 -0.5677  2.9985
  668TMC3    H2 9943   0.211   2.469  15.322 -0.3290  0.9246  0.1688
  668TMC3    C7 9944   4.732   2.355  15.399  0.1454 -0.8456  0.9013
  668TMC3    C8 9945   0.215   2.638  15.113  0.4253  0.1900 -0.0688
  668TMC3    O1 9946   0.061   2.421  15.478 -0.1662  0.3240 -0.5958
  668TMC3    O2 9947   0.241   2.677  15.224 -0.1257 -0.2964 -0.2899
  669TMC3    C1 9948   2.813   1.991  14.458  0.5420  0.3066  0.4157
  669TMC3    C2 9949   2.712   1.994  14.374 -0.2963 -0.3793 -0.2944
  669TMC3    C3 9950   2.725   2.052  14.255 -0.1405 -0.8347  0.6447
  669TMC3    C4 9951   2.933   2.047  14.425 -0.4624  0.2458 -0.2890
  669TMC3    C5 9952   2.940   2.111  14.302 -0.5193  0.0007  0.0414
  669TMC3    C6 9953   2.837   2.111  14.216  0.4843  0.0849  0.4354
  669TMC3     C 9954   2.803   1.902  14.572 -0.0828 -0.7546  0.7032
  669TMC3     O 9955   2.696   1.906  14.632  0.1963  0.6253 -0.3571
  669TMC3     H 9956   2.615   1.959  14.408  0.5051 -0.3625  2.0332
  669TMC3    H1 9957   3.017   2.024  14.491 -1.3810 -0.3982  0.6549
  669TMC3    H2 9958   2.839   2.173  14.127 -0.4827 -0.2208  0.1966
  669TMC3    C7 9959   3.063   2.179  14.267  0.5864  0.3429  0.8641
  669TMC3    C8 9960   2.606   2.089  14.174  0.2361  0.0271  0.3561
  669TMC3    O1 9961   3.137   2.199  14.364  0.0112  0.6650  0.0584
  669TMC3    O2 9962   2.501   2.084  14.234  0.3373 -0.2955  0.7108
  670MPD2     C 9963   1.273   0.106  13.353  0.4525 -0.8258 -0.3277
  670MPD2    C1 9964   1.341   0.131  13.475 -0.0734 -0.5925 -0.2291
  670MPD2    C2 9965   1.286   0.090  13.591 -0.3068 -0.6902  0.6513
  670MPD2    C3 9966   1.160   0.026  13.586 -0.5802 -0.2854 -0.2595
  670MPD2    C4 9967   1.088   0.009  13.466  0.4037 -0.3863 -0.6886
  670MPD2    C5 9968   1.147   0.039  13.350  0.3850  0.4015 -0.2055
  670MPD2     H 9969   1.338   0.097  13.686 -1.6268 -1.3778  1.4295
  670MPD2    H1 9970   0.998   4.686  13.466  0.1037  0.0641  0.3466
  670MPD2    H2 9971   1.319   0.128  13.257 -1.0794  1.1458 -0.6197
  670MPD2    H3 9972   1.087   0.032  13.260 -0.3745  0.8116  0.2725
  670MPD2     N 9973   1.117   4.704  13.711 -0.2442  0.3619 -0.3696
  670MPD2    H5 9974   1.192   4.694  13.779  0.1143 -0.8757 -0.9527
  670MPD2    N1 9975   1.473   0.187  13.477  0.1733  0.1011  1.0603
  670MPD2    H7 9976   1.508   0.202  13.572  3.2751  2.2181 -0.4256
  671TMC3    C1 9977   1.007   4.554  13.853 -0.7240 -0.6671  0.0908
  671TMC3    C2 9978   1.128   4.514  13.904 -0.3382  0.1213 -0.0604
  671TMC3    C3 9979   1.124   4.415  14.003 -0.5678 -0.2199  0.4477
  671TMC3    C4 9980   0.886   4.507  13.897 -0.0105  0.0432  0.6575
  671TMC3    C5 9981   0.891   4.428  14.010 -0.5267  0.8963 -0.3648
  671TMC3    C6 9982   1.008   4.378  14.066  0.6673  1.3395  0.6745
  671TMC3     C 9983   0.998   4.636  13.733  0.3097 -0.3138  0.2846
  671TMC3     O 9984   0.896   4.617  13.668 -0.2360 -0.4000  0.3461
  671TMC3     H 9985   1.215   4.527  13.840 -1.0056  1.2282 -0.7666
  671TMC3    H1 9986   0.797   4.529  13.838  1.1961 -0.2662 -1.2668
  671TMC3    H2 9987   1.000   4.288  14.127  2.0865  0.5987 -0.2075
  671TMC3    C7 9988   0.770   4.341  14.006 -0.9021  0.4943 -0.0120
  671TMC3    C8 9989   1.233   4.314  13.992  0.1362  0.2088 -0.4874
  671TMC3    O1 9990   0.677   4.362  14.085 -0.2251  0.6557  0.1239
  671TMC3    O2 9991   1.305   4.335  13.897 -0.0620 -0.0370  0.4499
  672MPD2     C 9992   2.221   0.511   0.472 -0.2861  0.3802  0.4210
  672MPD2    C1 9993   2.198   0.418   0.572  0.4122 -0.1076 -0.8347
  672MPD2    C2 9994   2.279   0.425   0.684 -0.8775  1.0041  0.2948
  672MPD2    C3 9995   2.382   0.522   0.707  0.3833 -0.8143  0.1833
  672MPD2    C4 9996   2.398   0.612   0.596 -0.4849  0.2821  0.1559
  672MPD2    C5 9997   2.323   0.602   0.477 -0.5506 -0.4430  0.1145
  672MPD2     H 9998   2.252   0.354   0.761 -0.8598  2.3944  1.5799
  672MPD2    H1 9999   2.472   0.691   0.602  0.0660 -0.1233 -1.4114
  672MPD2    H210000   2.161   0.532   0.384  0.1279  1.3229  0.3761
  672MPD2    H310001   2.338   0.673   0.397 -1.6481 -0.6574 -0.2868
  672MPD2     N10002   2.471   0.534   0.814 -0.3069 -0.6990 -0.0547
  672MPD2    H510003   2.525   0.619   0.824 -0.1858 -0.8351  0.4883
  672MPD2    N110004   2.098   0.323   0.561 -0.7977 -0.5167  0.3600
  672MPD2    H710005   2.088   0.250   0.631  1.3906 -0.7398  0.4434
  673TMC3    C110006   1.897   0.219   0.469 -1.4388  0.1062 -1.0025
  673TMC3    C210007   1.949   0.103   0.520 -0.6494  0.3322  0.7926
  673TMC3    C310008   1.876   4.727   0.498  0.1640 -0.1676  0.2327
  673TMC3    C410009   1.782   0.234   0.401 -0.9693  0.5001 -0.0643
  673TMC3    C510010   1.713   0.120   0.381 -0.2567  0.0863 -0.0569
  673TMC3    C610011   1.759   0.002   0.432 -0.3856  0.1061  1.2270
  673TMC3     C10012   2.001   0.329   0.461 -0.2750  0.5382  0.6196
  673TMC3     O10013   1.968   0.410   0.376 -0.2824 -0.5767  0.2737
  673TMC3     H10014   2.045   0.094   0.569 -1.2718 -0.6390  1.8313
  673TMC3    H110015   1.755   0.329   0.357  0.8696  0.6327 -0.9267
  673TMC3    H210016   1.702   4.649   0.412 -1.9198  0.8409  2.2995
  673TMC3    C710017   1.601   0.115   0.298  0.4674  0.4511 -1.1828
  673TMC3    C810018   1.939   4.607   0.487 -0.5607 -0.4039  0.4239
  673TMC3    O110019   1.600   0.022   0.221  0.2376  0.3198  0.1875
  673TMC3    O210020   1.888   4.531   0.401  0.1540  0.0409 -0.6214
  674MPD2     C10021   1.813   0.620   0.161  0.4341  0.5897  0.8029
  674MPD2    C110022   1.791   0.511   0.073  0.4182  0.0588  0.1096
  674MPD2    C210023   1.715   0.532  17.704  0.2456  0.1379 -0.1231
  674MPD2    C310024   1.635   0.636  17.687  0.2443 -0.0672  0.4135
  674MPD2    C410025   1.645   0.738   0.029  0.3270 -0.6890 -0.5938
  674MPD2    C510026   1.738   0.735   0.134  1.0482 -0.5090 -0.0931
  674MPD2     H10027   1.720   0.455  17.628 -0.8987  0.8723 -0.9523
  674MPD2    H110028   1.581   0.825   0.018  0.9876 -0.3866 -2.0895
  674MPD2    H210029   1.870   0.618   0.253  0.3028  1.5276  0.9040
  674MPD2    H310030   1.752   0.820   0.200  0.8947 -0.1594 -0.5096
  674MPD2     N10031   1.552   0.628  17.577  0.2113 -0.6177  0.9481
  674MPD2    H510032   1.565   0.539  17.530  0.2903 -0.8320  1.3738
  674MPD2    N110033   1.868   0.394   0.106  0.1741 -0.1909 -0.3002
  674MPD2    H710034   1.923   0.395   0.191  0.6797 -1.4372 -0.6043
  675TMC3    C110035   1.932   0.167   0.101  0.5009  0.4583  0.6716
  675TMC3    C210036   1.890   0.042   0.074  0.1800 -0.1530  0.0724
  675TMC3    C310037   1.980   4.675   0.109 -0.7058  0.4412 -0.4888
  675TMC3    C410038   2.054   0.196   0.156  0.0890  0.1969 -0.8100
  675TMC3    C510039   2.128   0.091   0.207  0.5913  0.3183 -0.7442
  675TMC3    C610040   2.094   4.698   0.180 -0.0065 -0.4219 -0.1504
  675TMC3     C10041   1.859   0.275   0.044 -0.1744 -0.3560 -0.6231
  675TMC3     O10042   1.792   0.244  17.689  0.2802 -0.1971  0.4159
  675TMC3     H10043   1.802   0.020   0.016  2.0274  0.4479 -2.9693
  675TMC3    H110044   2.092   0.298   0.161 -0.0011  0.1214  1.4716
  675TMC3    H210045   2.157   4.610   0.190  1.4364  0.5928 -0.3372
  675TMC3    C710046   2.257   0.127   0.260 -0.2178  0.5129 -0.2559
  675TMC3    C810047   1.943   4.542   0.084  0.4141 -0.2508 -0.1297
  675TMC3    O110048   2.298   0.239   0.226 -0.0919 -0.0289 -1.0273
  675TMC3    O210049   2.038   4.470   0.047 -0.4920  0.1270  0.2229
  676MPD2     C10050   4.271   3.732  10.726  0.4872 -0.3824 -0.3911
  676MPD2    C110051   4.194   3.642  10.791  0.3669 -0.8735 -0.0398
  676MPD2    C210052   4.151   3.528  10.725 -0.1204 -0.3175 -0.0933
  676MPD2    C310053   4.193   3.506  10.597  0.1790 -0.6847  0.7701
  676MPD2    C410054   4.265   3.599  10.519 -0.1250 -0.1489 -0.6518
  676MPD2    C510055   4.310   3.707  10.590  0.5342  0.5887 -0.4967
  676MPD2     H10056   4.081   3.460  10.772  2.8049 -1.7829  2.1551
  676MPD2    H110057   4.304   3.577  10.420  0.0354  0.4278 -0.7141
  676MPD2    H210058   4.304   3.825  10.771 -0.1836  0.1662 -1.0301
  676MPD2    H310059   4.373   3.779  10.538  2.3854  0.2885  1.3405
  676MPD2     N10060   4.136   3.400  10.520  0.3509  0.0256 -0.0351
  676MPD2    H510061   4.158   3.407  10.421  0.1294  0.3359 -0.0601
  676MPD2    N110062   4.143   3.664  10.919  0.2672 -0.1254  0.3738
  676MPD2    H710063   4.108   3.577  10.957 -2.6585  1.0110  0.2449
  677TMC3    C110064   4.094   3.769  11.135  0.4905  0.0241 -0.3689
  677TMC3    C210065   4.031   3.662  11.180  0.1305  0.4527  0.4458
  677TMC3    C310066   4.034   3.632  11.314  0.2137 -0.3548 -0.3978
  677TMC3    C410067   4.137   3.869  11.219 -0.3820  0.8434  0.0662
  677TMC3    C510068   4.156   3.828  11.350 -0.5510  0.3811 -0.2236
  677TMC3    C610069   4.104   3.713  11.397 -0.1998  0.3898 -0.4498
  677TMC3     C10070   4.171   3.766  11.007 -0.2645  0.5318 -0.4889
  677TMC3     O10071   4.252   3.857  10.995 -0.2529  0.7148 -0.2008
  677TMC3     H10072   4.006   3.585  11.108  1.2488  0.2593  0.2661
  677TMC3    H110073   4.180   3.957  11.173  2.2109 -0.4641 -0.0386
  677TMC3    H210074   4.098   3.687  11.502 -0.6049  0.3481 -0.4839
  677TMC3    C710075   4.222   3.917  11.438 -0.0578  0.0562 -0.0643
  677TMC3    C810076   3.964   3.518  11.376  0.4986  0.2842 -0.6963
  677TMC3    O110077   4.217   3.895  11.560 -0.3710  0.1259 -0.3682
  677TMC3    O210078   3.991   3.485  11.490 -0.0081 -0.1191  0.7130
  678MPD2     C10079   0.505   2.393   1.139 -0.7166  0.4436 -0.1229
  678MPD2    C110080   0.475   2.339   1.013 -0.4103  0.4983 -0.8975
  678MPD2    C210081   0.343   2.364   0.962 -0.2477  0.4128  0.5777
  678MPD2    C310082   0.256   2.452   1.029  0.2350  0.2576  0.1243
  678MPD2    C410083   0.301   2.516   1.149 -0.5125  0.0899 -0.5032
  678MPD2    C510084   0.424   2.485   1.201  0.0397  0.2719 -0.3738
  678MPD2     H10085   0.303   2.305   0.880  1.2331 -2.5563  1.9790
  678MPD2    H110086   0.242   2.587   1.206  1.6684  1.1525  0.4426
  678MPD2    H210087   0.605   2.389   1.180  0.0661 -1.8706 -2.2347
  678MPD2    H310088   0.457   2.522   1.297 -2.7517  2.1766 -0.1560
  678MPD2     N10089   0.134   2.485   0.969  0.1890  0.0420 -0.1874
  678MPD2    H510090   0.110   2.434   0.885 -1.1303  0.5797 -0.1279
  678MPD2    N110091   0.574   2.263   0.946 -0.0440  0.0565 -0.3523
  678MPD2    H710092   0.654   2.248   1.007 -0.1013  1.0670 -0.0206
  679TMC3    C110093   0.911   2.065   0.838  0.1948 -0.1188  0.8384
  679TMC3    C210094   0.788   2.106   0.878 -0.0640  0.1829 -1.0836
  679TMC3    C310095   0.708   2.164   0.782 -0.4872  0.3267  0.4796
  679TMC3    C410096   0.961   2.082   0.711 -0.4719 -0.2414  0.5112
  679TMC3    C510097   0.870   2.132   0.618 -0.0531 -0.3031 -0.6075
  679TMC3    C610098   0.751   2.182   0.652 -0.3944 -0.1970 -0.1199
  679TMC3     C10099   1.020   2.050   0.930  0.3821 -1.1187  0.1380
  679TMC3     O10100   1.111   1.981   0.893  0.0003  0.2380  0.2454
  679TMC3     H10101   0.766   2.103   0.984  0.7700  2.9018 -0.8186
  679TMC3    H110102   1.048   2.025   0.682  0.1040  2.5683 -3.3373
  679TMC3    H210103   0.691   2.230   0.575  0.4296 -2.2298 -2.0391
  679TMC3    C710104   0.933   2.200   0.506  0.9489  0.5634 -0.3577
  679TMC3    C810105   0.576   2.219   0.817  0.0911  0.3727 -0.4277
  679TMC3    O110106   0.878   2.300   0.461  0.1481  0.2023  0.3748
  679TMC3    O210107   0.502   2.248   0.726  0.4510  0.1224  0.1273
  680MPD2     C10108   0.521   1.671  13.055 -0.4116  0.8430  0.3970
  680MPD2    C110109   0.638   1.662  13.124  0.9445  0.1688  0.1051
  680MPD2    C210110   0.646   1.726  13.246  0.1674 -0.2595  0.8596
  680MPD2    C310111   0.538   1.794  13.305 -0.3216 -1.3319  0.4675
  680MPD2    C410112   0.427   1.808  13.224  0.0357  0.1712  0.2990
  680MPD2    C510113   0.426   1.757  13.097 -0.2543 -0.1390  0.2244
  680MPD2     H10114   0.736   1.713  13.305  0.0308 -0.0913  1.1072
  680MPD2    H110115   0.334   1.857  13.251  0.1898 -0.2472  1.5970
  680MPD2    H210116   0.504   1.613  12.965 -0.0575  1.5118 -0.1023
  680MPD2    H310117   0.335   1.773  13.040  0.7916  2.4680 -0.7500
  680MPD2     N10118   0.527   1.842  13.438 -0.0051  0.0571  0.8735
  680MPD2    H510119   0.434   1.870  13.466 -0.3331  0.3721 -0.5494
  680MPD2    N110120   0.738   1.569  13.090 -0.0578 -0.3215  0.1796
  680MPD2    H710121   0.823   1.565  13.146 -0.1939 -0.9725  0.3361
  681TMC3    C110122   0.814   1.366  13.042  0.0112 -0.6437  0.4350
  681TMC3    C210123   0.725   1.301  13.126 -0.5961  0.4846  0.7101
  681TMC3    C310124   0.757   1.272  13.256  0.3487  0.0607  0.9541
  681TMC3    C410125   0.944   1.384  13.078 -1.5724 -0.1018 -1.3489
  681TMC3    C510126   0.980   1.341  13.208  0.6856  0.1096  0.3253
  681TMC3    C610127   0.890   1.287  13.300  0.0775 -0.6913 -0.3253
  681TMC3     C10128   0.736   1.477  12.985  0.2608  0.9636  0.4782
  681TMC3     O10129   0.650   1.464  12.905 -0.6290  0.4865 -0.2187
  681TMC3     H10130   0.624   1.294  13.085 -0.3596  1.1829  0.0133
  681TMC3    H110131   1.013   1.430  13.008 -0.9752  1.4769  0.2666
  681TMC3    H210132   0.914   1.260  13.403  0.3243  0.3305 -0.1050
  681TMC3    C710133   1.117   1.369  13.254  0.8574 -0.7553 -0.6308
  681TMC3    C810134   0.653   1.325  13.345 -0.9627 -0.1154 -0.2625
  681TMC3    O110135   1.157   1.292  13.342 -0.1121 -0.2854 -0.4813
  681TMC3    O210136   0.539   1.343  13.301 -0.4338  0.3258  0.3377
  682MPD2     C10137   2.757   3.353   9.997  0.2795  0.0800 -0.1325
  682MPD2    C110138   2.683   3.292  10.096 -0.3801  1.0710 -0.2678
  682MPD2    C210139   2.686   3.334  10.226 -0.2805  0.1983 -0.5950
  682MPD2    C310140   2.760   3.446  10.267  0.1752  0.4807  0.2940
  682MPD2    C410141   2.832   3.517  10.168  0.4761  0.5856 -0.3352
  682MPD2    C510142   2.827   3.464  10.036 -0.6882  0.5309 -0.3522
  682MPD2     H10143   2.621   3.288  10.300  0.1946  3.5304  1.9169
  682MPD2    H110144   2.898   3.602  10.182  1.4358 -0.1634 -0.2542
  682MPD2    H210145   2.759   3.324   9.893  0.0242  2.8724 -0.9268
  682MPD2    H310146   2.877   3.520   9.957  0.3530  0.3117  0.1481
  682MPD2     N10147   2.754   3.496  10.404 -0.3749 -0.0444  0.2479
  682MPD2    H510148   2.775   3.593  10.423  1.4755 -0.2454 -0.7131
  682MPD2    N110149   2.619   3.164  10.081  0.6165  0.0207  0.3232
  682MPD2    H710150   2.580   3.131  10.168  0.5518  1.7150  0.9404
  683TMC3    C110151   2.681   3.655  10.786  0.6388 -0.3715  0.5261
  683TMC3    C210152   2.639   3.570  10.883  0.7665  0.4150  0.3251
  683TMC3    C310153   2.643   3.437  10.861  0.2644 -1.2914  0.9095
  683TMC3    C410154   2.727   3.605  10.669 -0.0907 -0.0731 -0.0892
  683TMC3    C510155   2.735   3.471  10.650  0.4307 -0.7684 -0.2134
  683TMC3    C610156   2.696   3.383  10.747 -0.1388  0.3905 -0.0093
  683TMC3     C10157   2.695   3.794  10.818  0.1062 -0.4688  0.2419
  683TMC3     O10158   2.623   3.842  10.903 -0.9217 -0.7578  0.1216
  683TMC3     H10159   2.627   3.617  10.980  1.7775  0.0575  0.6231
  683TMC3    H110160   2.764   3.663  10.585 -1.9044  0.1003 -0.7654
  683TMC3    H210161   2.683   3.277  10.728 -0.1147  0.4488 -0.3393
  683TMC3    C710162   2.728   3.412  10.513  0.0470 -0.4037 -0.1208
  683TMC3    C810163   2.581   3.352  10.956  0.5943  0.1606 -0.8974
  683TMC3    O110164   2.707   3.292  10.506  0.4219 -0.2390 -0.3636
  683TMC3    O210165   2.521   3.406  11.049 -0.1266  0.0740  0.1343
  684MPD2     C10166   1.357   2.347  16.214  0.1958  0.3220  0.1581
  684MPD2    C110167   1.255   2.400  16.134 -0.4569  0.4383  0.3999
  684MPD2    C210168   1.189   2.514  16.177 -0.0461 -0.0705 -0.0392
  684MPD2    C310169   1.235   2.589  16.284 -0.2021  0.2519  0.1091
  684MPD2    C410170   1.331   2.534  16.366 -0.5886  0.1723  0.3922
  684MPD2    C510171   1.395   2.417  16.328 -0.1427 -0.1312  0.2342
  684MPD2     H10172   1.113   2.554  16.110 -0.7668  1.8436  1.9191
  684MPD2    H110173   1.369   2.584  16.454  0.0248  0.6779 -0.1599
  684MPD2    H210174   1.403   2.249  16.211  0.4861  0.4224  1.4722
  684MPD2    H310175   1.474   2.377  16.389 -0.4967 -0.0010  0.7817
  684MPD2     N10176   1.188   2.717  16.325  0.4431  0.3386 -0.0307
  684MPD2    H510177   1.216   2.752  16.416 -0.5499  0.5831  0.1711
  684MPD2    N110178   1.206   2.338  16.018  0.0669 -0.3771 -0.5754
  684MPD2    H710179   1.119   2.375  15.981  0.8652 -0.2066 -2.2822
  685TMC3    C110180   1.220   2.221  15.809  0.1469  0.1779  0.2889
  685TMC3    C210181   1.135   2.314  15.755 -0.1797  0.0672  0.8924
  685TMC3    C310182   1.122   2.325  15.618  0.3853  0.0156  0.0307
  685TMC3    C410183   1.306   2.152  15.728  0.0164  0.4494  0.0340
  685TMC3    C510184   1.305   2.176  15.596  0.1843  0.9987  0.1238
  685TMC3    C610185   1.211   2.254  15.534  0.4254 -0.1836 -0.0861
  685TMC3     C10186   1.279   2.251  15.937 -0.0886  0.4156  0.5654
  685TMC3     O10187   1.397   2.222  15.950  0.0834  0.0871  0.0322
  685TMC3     H10188   1.071   2.379  15.813 -0.9809  0.8476 -0.8457
  685TMC3    H110189   1.373   2.081  15.774 -0.9648 -1.8018 -2.0563
  685TMC3    H210190   1.210   2.273  15.427  0.2499  0.2294 -0.0141
  685TMC3    C710191   1.436   2.207  15.552 -0.8314 -0.1582 -0.3442
  685TMC3    C810192   1.007   2.390  15.557 -0.3181 -0.7629  0.2908
  685TMC3    O110193   1.452   2.240  15.438 -0.4933 -0.0055 -0.1725
  685TMC3    O210194   0.986   2.355  15.440  0.5183  0.3662  0.5980
  686MPD2     C10195   2.625   2.314  15.029 -0.5644  0.1982  0.4066
  686MPD2    C110196   2.653   2.273  15.156  0.6483  0.5366 -0.0830
  686MPD2    C210197   2.737   2.158  15.168 -0.2847  0.2781 -0.0716
  686MPD2    C310198   2.763   2.073  15.065  0.1493  0.3864  0.6431
  686MPD2    C410199   2.719   2.111  14.942 -0.7981 -0.0345 -0.1099
  686MPD2    C510200   2.658   2.234  14.923  0.0021 -0.1442 -1.3914
  686MPD2     H10201   2.783   2.139  15.264  0.2109  0.3934 -0.2850
  686MPD2    H110202   2.738   2.049  14.856  1.4228  0.0680  0.3201
  686MPD2    H210203   2.556   2.397  15.016 -1.8052 -1.0417 -0.9508
  686MPD2    H310204   2.633   2.261  14.821 -3.4500  2.0676  0.0759
  686MPD2     N10205   2.817   1.938  15.073  0.5196  0.4960 -0.3508
  686MPD2    H510206   2.846   1.894  14.986 -0.6140 -1.2110  0.1343
  686MPD2    N110207   2.585   2.336  15.262 -0.3433  0.0685 -0.5150
  686MPD2    H710208   2.514   2.403  15.235  0.3580  1.0311  0.0480
  687TMC3    C110209   2.723   1.892  15.290  0.4038  0.2173 -0.0020
  687TMC3    C210210   2.589   1.918  15.265  0.4722  0.1646 -0.5636
  687TMC3    C310211   2.520   1.956  15.376 -0.2297  0.3101 -0.4690
  687TMC3    C410212   2.776   1.885  15.416  0.2790 -0.2055  0.7414
  687TMC3    C510213   2.694   1.912  15.515 -0.1739  0.5552  0.1702
  687TMC3    C610214   2.569   1.962  15.504 -0.2358  0.2549  0.4313
  687TMC3     C10215   2.812   1.855  15.185 -0.1108 -0.0236 -0.3339
  687TMC3     O10216   2.854   1.742  15.195  0.0221  0.0877 -0.1572
  687TMC3     H10217   2.561   1.909  15.161 -1.9219 -0.0790  0.1047
  687TMC3    H110218   2.881   1.867  15.437  0.2369  1.3397  2.2142
  687TMC3    H210219   2.511   2.006  15.584  0.7476 -1.9563  2.3450
  687TMC3    C710220   2.744   1.935  15.644  0.2798 -0.6812  0.0009
  687TMC3    C810221   2.389   1.995  15.363  0.0460 -0.4199 -0.3591
  687TMC3    O110222   2.714   2.033  15.710  0.2263  0.0082 -0.0630
  687TMC3    O210223   2.314   1.971  15.457  0.0530 -0.2858 -0.3328
  688MPD2     C10224   1.772   1.473  17.236 -0.1884 -0.1325 -0.2200
  688MPD2    C110225   1.839   1.354  17.220  0.6541  0.4370  0.3682
  688MPD2    C210226   1.894   1.325  17.098 -0.1126  0.1336 -0.0456
  688MPD2    C310227   1.876   1.413  16.989  1.1097  0.0998 -0.0691
  688MPD2    C410228   1.833   1.543  17.012 -0.2298  0.4567 -0.0516
  688MPD2    C510229   1.786   1.563  17.139 -0.9273  0.1600  0.2122
  688MPD2     H10230   1.947   1.231  17.094 -0.3117  0.0398 -0.4388
  688MPD2    H110231   1.834   1.621  16.936 -0.1895  1.6596  1.1865
  688MPD2    H210232   1.717   1.504  17.324 -0.3952 -1.0306 -0.0343
  688MPD2    H310233   1.737   1.656  17.165  2.1264  0.8551  3.6212
  688MPD2     N10234   1.915   1.384  16.857 -0.4638  0.3724 -0.1110
  688MPD2    H510235   1.906   1.455  16.785  1.2492  0.7459  0.0382
  688MPD2    N110236   1.845   1.263  17.330 -0.7741  0.5461 -0.3204
  688MPD2    H710237   1.886   1.172  17.310 -2.0438 -0.4516  1.6545
  689TMC3    C110238   1.825   1.168  17.546  0.2562  0.3055  0.0197
  689TMC3    C210239   1.795   1.193  17.681 -0.4255  0.7424 -0.5614
  689TMC3    C310240   1.850   1.099   0.022 -0.2876 -0.0678  0.3933
  689TMC3    C410241   1.891   1.058  17.495 -0.0013 -0.3073 -0.0162
  689TMC3    C510242   1.936   0.966  17.588  0.5442 -0.6125 -0.5514
  689TMC3    C610243   1.916   0.988  17.720 -0.1752 -0.2005 -0.6010
  689TMC3     C10244   1.792   1.276  17.456 -0.6382  0.5331 -0.3128
  689TMC3     O10245   1.753   1.375  17.515 -0.1755 -0.2102 -0.6298
  689TMC3     H10246   1.750   1.286  17.714  1.3273  1.4457 -0.1410
  689TMC3    H110247   1.911   1.038  17.391 -1.5340 -0.3138 -0.3058
  689TMC3    H210248   1.951   0.911   0.043  1.9846  0.1463 -1.3246
  689TMC3    C710249   1.982   0.834  17.551  0.2788  0.5416  0.5982
  689TMC3    C810250   1.797   1.108   0.158 -0.5947  0.3114  0.1571
  689TMC3    O110251   2.068   0.781  17.619 -0.0735  0.4251 -0.0497
  689TMC3    O210252   1.870   1.060   0.248 -0.3931 -0.0833  0.0278
  690MPD2     C10253   3.425   3.270  15.298  0.0487 -0.0778 -0.0509
  690MPD2    C110254   3.493   3.206  15.391  0.1563 -0.0047 -0.5379
  690MPD2    C210255   3.623   3.182  15.366 -0.6420 -0.1297 -0.4213
  690MPD2    C310256   3.677   3.222  15.245 -0.2174 -0.2546 -0.2367
  690MPD2    C410257   3.602   3.264  15.140  0.3971  0.4641 -0.1909
  690MPD2    C510258   3.474   3.298  15.178  0.1103 -0.2117  0.5549
  690MPD2     H10259   3.689   3.141  15.442 -0.2048  2.0475  0.3855
  690MPD2    H110260   3.646   3.291  15.044  1.4650 -0.0078  0.1668
  690MPD2    H210261   3.319   3.290  15.309  0.1685 -0.5693  1.9066
  690MPD2    H310262   3.414   3.347  15.102 -0.0173  0.1719  0.9013
  690MPD2     N10263   3.814   3.212  15.217 -0.1153 -0.2136 -0.3544
  690MPD2    H510264   3.841   3.252  15.128  3.3993 -2.3094 -0.2256
  690MPD2    N110265   3.450   3.168  15.521  0.3438 -0.0111 -0.4387
  690MPD2    H710266   3.510   3.121  15.588  0.7125  1.9672  0.6020
  691TMC3    C110267   3.269   3.104  15.660  0.2539  0.1923 -0.3390
  691TMC3    C210268   3.135   3.093  15.662  0.6419  0.3550  0.1249
  691TMC3    C310269   3.072   2.976  15.698  0.0767 -0.5529  0.0037
  691TMC3    C410270   3.345   2.995  15.699 -0.5352  0.1569  0.4067
  691TMC3    C510271   3.281   2.874  15.719  0.0996  0.4854 -0.7114
  691TMC3    C610272   3.144   2.863  15.728 -0.2057 -0.1605 -0.1809
  691TMC3     C10273   3.322   3.199  15.567 -0.1524 -0.3136 -0.2497
  691TMC3     O10274   3.249   3.288  15.534 -0.2182  0.4278  0.6493
  691TMC3     H10275   3.085   3.181  15.624 -2.0706 -2.0506 -1.8676
  691TMC3    H110276   3.453   3.000  15.694 -0.3499  0.0536  4.0404
  691TMC3    H210277   3.092   2.771  15.752  2.3021 -1.8246 -1.0684
  691TMC3    C710278   3.366   2.769  15.752  0.0742 -0.3581  0.2281
  691TMC3    C810279   2.934   2.947  15.669 -0.1416  0.1172  0.5014
  691TMC3    O110280   3.482   2.797  15.788 -0.5945  0.3452  0.0614
  691TMC3    O210281   2.891   2.835  15.707 -0.5388 -0.7197  0.1455
  692TMC3    C110282   0.608   3.996  15.657 -0.0310 -0.3444  0.1272
  692TMC3    C210283   0.733   4.056  15.682  0.8037  0.2514  0.2751
  692TMC3    C310284   0.835   3.976  15.732 -0.4178 -0.1410  0.2005
  692TMC3    C410285   0.587   3.870  15.680 -0.0849  0.9559 -0.4096
  692TMC3    C510286   0.680   3.804  15.755 -0.1154 -0.1935  0.8311
  692TMC3    C610287   0.799   3.859  15.794 -0.5639 -1.1001  0.4358
  692TMC3     C10288   0.492   4.085  15.651 -0.1134 -0.1721  0.2797
  692TMC3     O10289   0.381   4.039  15.660 -0.4040  0.0587  0.5908
  692TMC3     H10290   0.764   4.135  15.615 -1.1853  0.7879 -0.0111
  692TMC3    H110291   0.492   3.822  15.659  0.7639 -0.5024 -0.8822
  692TMC3    H210292   0.881   3.801  15.836 -1.0713 -2.3432 -0.2823
  692TMC3    C710293   0.677   3.659  15.743  0.8595 -0.2778 -0.4825
  692TMC3    C810294   0.933   4.049  15.818  0.7947 -0.4181  0.0545
  692TMC3    O110295   0.611   3.612  15.652 -0.5567 -0.1088 -0.6724
  692TMC3    O210296   1.023   3.983  15.867 -0.0638  0.0163  0.2243
  693MPD2     C10297   0.433   2.352  10.217 -0.0103 -0.1343  0.0306
  693MPD2    C110298   0.436   2.324  10.353  0.2916  0.6092  0.5796
  693MPD2    C210299   0.551   2.277  10.416 -0.0063  0.3216 -0.5670
  693MPD2    C310300   0.669   2.267  10.346 -0.0500 -0.0007 -0.6212
  693MPD2    C410301   0.672   2.308  10.207  0.3408  0.4925  1.0639
  693MPD2    C510302   0.554   2.347  10.151  0.5032  0.4979  0.4947
  693MPD2     H10303   0.559   2.271  10.524 -0.2930  1.0731 -0.4987
  693MPD2    H110304   0.750   2.279  10.137 -0.4625  0.9138 -0.0158
  693MPD2    H210305   0.341   2.380  10.167  0.2581  0.6647 -0.0161
  693MPD2    H310306   0.558   2.366  10.044  2.8931 -1.9961  0.1651
  693MPD2     N10307   0.791   2.224  10.407 -0.4376 -0.4801 -0.4695
  693MPD2    H510308   0.873   2.237  10.348  0.9713  0.0802  1.6119
  693MPD2    N110309   0.312   2.337  10.423  0.4934 -0.3664 -0.5221
  693MPD2    H710310   0.224   2.343  10.372  1.1169 -0.6051 -1.6419
  694TMC3    C110311   0.170   2.339  10.607 -0.4173  0.1446 -0.1991
  694TMC3    C210312   0.057   2.328  10.533 -0.0793  0.0191 -0.2693
  694TMC3    C310313   4.676   2.302  10.603 -0.6920 -0.0430  0.0649
  694TMC3    C410314   0.169   2.333  10.747 -0.1775 -0.4862  0.7555
  694TMC3    C510315   0.054   2.303  10.808 -0.4530 -0.2263 -0.0473
  694TMC3    C610316   4.671   2.278  10.737  1.1856 -0.8059  0.0290
  694TMC3     C10317   0.308   2.352  10.558 -0.4442  0.6959 -0.7056
  694TMC3     O10318   0.392   2.367  10.650 -0.7336 -0.3111 -0.1391
  694TMC3     H10319   0.068   2.370  10.433 -2.1833 -1.5341 -1.1362
  694TMC3    H110320   0.256   2.361  10.805  2.0660 -0.8467 -2.4070
  694TMC3    H210321   4.583   2.247  10.792  1.6034  0.5851  1.4887
  694TMC3    C710322   0.069   2.273  10.945 -0.1194  0.6616  0.4674
  694TMC3    C810323   4.555   2.280  10.525  0.1781  0.2226 -0.5233
  694TMC3    O110324   0.172   2.216  10.975  0.7037 -0.1146 -0.1331
  694TMC3    O210325   4.468   2.243  10.599  0.4020  0.0708 -0.2316
  695MPD2     C10326   1.478   3.905  13.085  0.0205 -0.0314  0.1121
  695MPD2    C110327   1.424   3.910  13.212 -0.0913  0.3079 -0.8071
  695MPD2    C210328   1.289   3.931  13.229 -0.2059 -0.3509  0.1082
  695MPD2    C310329   1.204   3.939  13.119  0.1550  0.3264  0.5535
  695MPD2    C410330   1.263   3.931  12.993 -0.0354  0.6149 -0.1968
  695MPD2    C510331   1.395   3.915  12.976 -0.2379 -0.0829  0.6245
  695MPD2     H10332   1.250   3.945  13.329 -0.5748  0.0463 -0.0927
  695MPD2    H110333   1.212   3.941  12.898  0.3566  0.8732 -0.3801
  695MPD2    H210334   1.584   3.896  13.061  0.7870 -0.0171  3.5430
  695MPD2    H310335   1.441   3.899  12.880  0.7719  2.1073  0.7331
  695MPD2     N10336   1.067   3.960  13.152 -0.7675 -0.2198  0.2884
  695MPD2    H510337   1.037   3.965  13.248 -0.4579  0.7965  0.3331
  695MPD2    N110338   1.497   3.893  13.329 -0.4182  0.1213 -0.0712
  695MPD2    H710339   1.446   3.876  13.415 -1.8353  1.0151 -0.7420
  696TMC3    C110340   0.840   4.022  13.103 -0.2866  0.6738  0.4400
  696TMC3    C210341   0.827   4.007  13.242  0.7953  0.4414 -0.6111
  696TMC3    C310342   0.709   4.061  13.287 -0.1737  0.7354  0.0737
  696TMC3    C410343   0.760   4.106  13.026  0.0515 -0.1609  0.2163
  696TMC3    C510344   0.645   4.159  13.084 -0.2252  0.2950  0.0067
  696TMC3    C610345   0.625   4.139  13.214 -0.2327  0.2283  0.0247
  696TMC3     C10346   0.973   3.982  13.053  1.2077  0.1723  0.0166
  696TMC3     O10347   0.988   4.006  12.934  0.5905  0.3249 -0.2887
  696TMC3     H10348   0.888   3.937  13.297  0.9536  0.4627 -0.7576
  696TMC3    H110349   0.786   4.136  12.926 -1.0690 -0.2268 -0.0916
  696TMC3    H210350   0.537   4.175  13.264 -0.4654  0.1882 -0.3541
  696TMC3    C710351   0.611   4.294  13.040 -0.1473 -0.3424 -0.1305
  696TMC3    C810352   0.706   4.063  13.430 -0.1129 -0.1506  0.3712
  696TMC3    O110353   0.618   4.315  12.920 -0.2921  0.1306 -0.1254
  696TMC3    O210354   0.807   4.037  13.493  0.4879 -0.4601 -0.7338
  697MPD2     C10355   0.342   0.860  15.520 -0.0805  0.6310  0.6463
  697MPD2    C110356   0.324   0.826  15.383  0.3265  0.1853  0.6543
  697MPD2    C210357   0.355   0.921  15.294  0.6236  0.1916  0.3641
  697MPD2    C310358   0.421   1.035  15.331 -0.7495 -0.4748 -0.2047
  697MPD2    C410359   0.459   1.056  15.459  0.7244  0.6062  0.1986
  697MPD2    C510360   0.412   0.967  15.554  0.0912  0.9121  0.0967
  697MPD2     H10361   0.343   0.908  15.187  0.1496 -0.4947  0.5048
  697MPD2    H110362   0.529   1.132  15.492  0.5923  0.7474  0.1514
  697MPD2    H210363   0.301   0.798  15.600  0.2211  0.7684  0.9059
  697MPD2    H310364   0.437   0.975  15.659 -1.0691  0.7456  0.3859
  697MPD2     N10365   0.452   1.126  15.228 -0.2840 -0.1930 -0.3871
  697MPD2    H510366   0.416   1.112  15.134 -0.3968 -1.2491 -0.1847
  697MPD2    N110367   0.276   0.703  15.337 -0.0193  0.1670  0.4205
  697MPD2    H710368   0.247   0.697  15.239  1.3709 -0.5917  0.0606
  698TMC3    C110369   0.530   1.325  15.132 -0.2349 -0.6825  0.5272
  698TMC3    C210370   0.572   1.453  15.154 -0.4436 -0.1096 -0.5873
  698TMC3    C310371   0.572   1.545  15.051  0.4987  0.3975  0.4622
  698TMC3    C410372   0.501   1.285  15.008  0.4753 -0.0757  0.1472
  698TMC3    C510373   0.503   1.378  14.904 -0.5760 -0.0538 -0.0019
  698TMC3    C610374   0.534   1.506  14.929  0.3967  0.8826 -0.5218
  698TMC3     C10375   0.499   1.254  15.254 -0.3576  0.1546  0.3084
  698TMC3     O10376   0.514   1.319  15.357  0.0125  0.1921  0.6982
  698TMC3     H10377   0.592   1.489  15.254 -3.5029 -0.7978  0.2631
  698TMC3    H110378   0.466   1.184  14.990  3.0211 -0.6902 -1.3833
  698TMC3    H210379   0.539   1.576  14.846  0.4631  2.3071  0.6875
  698TMC3    C710380   0.485   1.337  14.770 -0.0423 -0.2367  0.1834
  698TMC3    C810381   0.637   1.671  15.062  0.3692  0.3350 -0.5290
  698TMC3    O110382   0.441   1.414  14.686  0.1866  0.6001  0.4358
  698TMC3    O210383   0.603   1.741  15.154 -0.2650  0.7295 -0.1966
  699TMC3    C110384   0.319   4.252  12.663  1.3190 -0.5139 -0.1615
  699TMC3    C210385   0.367   4.151  12.747  0.1571  0.3897  0.5521
  699TMC3    C310386   0.282   4.071  12.811  0.2590 -0.3512 -0.3075
  699TMC3    C410387   0.185   4.272  12.645 -0.3355 -0.0994 -0.6383
  699TMC3    C510388   0.096   4.190  12.706 -0.5286  0.3886 -0.1417
  699TMC3    C610389   0.149   4.091  12.784  0.1191 -0.2264 -0.6486
  699TMC3     C10390   0.412   4.344  12.595  0.5469  0.5232  0.6430
  699TMC3     O10391   0.362   4.430  12.524 -0.1918  0.3529  0.0929
  699TMC3     H10392   0.467   4.153  12.790 -0.7962  1.0162  2.7086
  699TMC3    H110393   0.141   4.351  12.585 -2.3050 -0.6138  0.1154
  699TMC3    H210394   0.080   4.032  12.843 -1.4713  2.7381  0.4546
  699TMC3    C710395   4.734   4.263  12.781  0.7406  0.3579  0.6945
  699TMC3    C810396   0.315   3.986  12.917 -0.2050  0.0830  0.0267
  699TMC3    O110397   4.718   4.237  12.900  0.5984 -0.3289 -0.7980
  699TMC3    O210398   0.227   3.950  12.992  0.0618  0.3961  0.3614
  700TMC3    C110399   4.413   1.350  17.129  0.1229 -1.0281  0.3418
  700TMC3    C210400   4.536   1.324  17.072 -0.1686 -0.0714  0.3041
  700TMC3    C310401   4.646   1.335  17.156  0.6188  0.5815 -0.2922
  700TMC3    C410402   4.399   1.387  17.262 -0.0391 -0.3130 -0.3801
  700TMC3    C510403   4.514   1.425  17.332 -0.1403 -0.0293  0.1311
  700TMC3    C610404   4.637   1.404  17.279  0.0559 -0.0411 -0.0933
  700TMC3     C10405   4.325   1.432  17.054  0.1487  0.2246  0.5422
  700TMC3     O10406   4.220   1.452  17.108 -0.7037 -0.5415 -0.3150
  700TMC3     H10407   4.540   1.288  16.970  0.5829 -1.1211  0.7014
  700TMC3    H110408   4.303   1.411  17.307  0.4727 -0.3101  0.6892
  700TMC3    H210409   4.726   1.432  17.335 -0.1390  0.1715  0.1099
  700TMC3    C710410   4.510   1.552  17.401 -0.0970 -0.0781  0.4117
  700TMC3    C810411   0.040   1.293  17.106 -0.1568 -0.1331  0.5350
  700TMC3    O110412   4.615   1.614  17.410 -0.6861  0.0924  0.5980
  700TMC3    O210413   0.046   1.264  16.987 -0.0353  0.1463  0.0928
  701TMC3    C110414   4.410   0.336  15.474  0.6487  0.3558 -0.2312
  701TMC3    C210415   4.424   0.297  15.342 -0.0750  1.1361 -0.4684
  701TMC3    C310416   4.523   0.364  15.268  0.0211 -0.1212  0.2690
  701TMC3    C410417   4.492   0.422  15.542  0.6540 -0.0403 -0.7568
  701TMC3    C510418   4.582   0.488  15.465 -0.7053 -0.0252  0.2869
  701TMC3    C610419   4.593   0.463  15.330 -0.3952  0.0404 -0.0837
  701TMC3     C10420   4.305   0.283  15.555  0.4763 -0.4295  0.1590
  701TMC3     O10421   4.290   0.326  15.668 -0.4313 -0.7281  0.1150
  701TMC3     H10422   4.345   0.243  15.291  0.5886 -0.1649 -0.1218
  701TMC3    H110423   4.460   0.460  15.639 -0.0456  1.8913 -1.7426
  701TMC3    H210424   4.670   0.515  15.274  0.2079 -0.7931 -0.0322
  701TMC3    C710425   4.650   0.605  15.510 -0.1547 -0.0685 -0.5792
  701TMC3    C810426   4.546   0.337  15.126  0.1015  0.4405 -0.4321
  701TMC3    O110427   4.662   0.697  15.431 -0.3279 -0.4383  0.1623
  701TMC3    O210428   4.601   0.433  15.073 -0.3158 -0.0482 -0.3025
  702MPD2     C10429   3.973   3.335   9.841  0.5178  0.5493  0.8582
  702MPD2    C110430   4.020   3.384   9.958 -0.6965 -0.2720 -0.0123
  702MPD2    C210431   4.122   3.481   9.946 -0.3606  1.0728 -0.1337
  702MPD2    C310432   4.157   3.544   9.825 -0.3268  0.2629  0.3648
  702MPD2    C410433   4.098   3.493   9.712  0.9142  0.0489  0.2345
  702MPD2    C510434   4.014   3.388   9.717 -0.0352  0.2838 -0.8578
  702MPD2     H10435   4.168   3.511  10.039  0.8020 -2.6798  0.4777
  702MPD2    H110436   4.130   3.518   9.612  0.0270  1.0795  0.2007
  702MPD2    H210437   3.898   3.258   9.826  0.9937  0.3724 -0.6608
  702MPD2    H310438   3.981   3.360   9.618 -0.3695 -0.1093 -0.6347
  702MPD2     N10439   4.242   3.651   9.824 -0.5113  0.3227 -0.0627
  702MPD2    H510440   4.270   3.697   9.910  2.9058 -2.0489  0.0931
  702MPD2    N110441   3.981   3.341  10.085  0.2583 -0.1291  0.1165
  702MPD2    H710442   4.026   3.390  10.162 -0.5023  1.3933 -0.4108
  703TMC3    C110443   4.398   3.809   9.757  0.1115  0.3002  0.3749
  703TMC3    C210444   4.379   3.876   9.874  0.1360 -0.3181  0.9672
  703TMC3    C310445   4.481   3.959   9.915 -0.3158  0.3386 -0.8785
  703TMC3    C410446   4.518   3.823   9.690  0.3556  0.3162 -0.3180
  703TMC3    C510447   4.616   3.901   9.745  0.1498 -0.0247  0.4947
  703TMC3    C610448   4.602   3.972   9.854 -0.4455 -0.3934  0.3779
  703TMC3     C10449   4.302   3.710   9.714  0.3200  0.0870 -0.5555
  703TMC3     O10450   4.323   3.668   9.598  0.4704 -0.5480  0.7603
  703TMC3     H10451   4.284   3.874   9.926 -0.7960  1.8938 -0.6763
  703TMC3    H110452   4.538   3.756   9.607  2.1295  0.8388 -0.3162
  703TMC3    H210453   4.673   4.049   9.882 -1.6013  0.3813  1.1893
  703TMC3    C710454   0.002   3.935   9.668  0.7978 -0.1789 -0.1397
  703TMC3    C810455   4.472   4.030  10.039  0.1406  0.5037  0.3541
  703TMC3    O110456   0.101   3.964   9.738  0.7514  0.6863  0.3288
  703TMC3    O210457   4.532   4.140  10.046  0.2343 -0.1687 -0.0049
  704TMC3    C110458   1.823   1.266  12.632 -0.3274 -0.0798 -0.9318
  704TMC3    C210459   1.884   1.237  12.512  0.1788  0.0436 -0.1327
  704TMC3    C310460   1.999   1.162  12.500  0.1466  0.7740 -0.5251
  704TMC3    C410461   1.877   1.209  12.741 -0.1258 -0.4813 -0.6646
  704TMC3    C510462   1.998   1.142  12.725  0.2865 -0.0430  0.0544
  704TMC3    C610463   2.061   1.115  12.609 -0.5965  0.1781  0.3462
  704TMC3     C10464   1.681   1.262  12.629  0.4272  0.2075 -0.0589
  704TMC3     O10465   1.632   1.186  12.710 -0.2509 -0.1964  0.2526
  704TMC3     H10466   1.843   1.266  12.416 -0.6950 -3.1703 -0.7235
  704TMC3    H110467   1.847   1.238  12.840  0.1507 -2.1385 -0.1006
  704TMC3    H210468   2.141   1.042  12.604 -0.2558  0.5560  0.2617
  704TMC3    C710469   2.041   1.059  12.830 -0.3118 -0.3127 -0.8909
  704TMC3    C810470   1.981   1.062  12.392  0.1990  0.3349 -0.3271
  704TMC3    O110471   2.148   0.999  12.820 -0.5262 -0.0388  0.0034
  704TMC3    O210472   1.962   0.948  12.441 -0.6761  0.1358 -0.0709
  705MPD2     C10473   1.180   3.522  16.492  0.1737 -0.2017  0.0172
  705MPD2    C110474   1.138   3.600  16.387 -1.0582  1.0081  0.9728
  705MPD2    C210475   1.026   3.682  16.402 -0.4434 -0.1774  0.2272
  705MPD2    C310476   0.950   3.690  16.523  0.3252 -0.7126  0.2929
  705MPD2    C410477   0.992   3.601  16.623  0.4598 -0.3884 -0.4374
  705MPD2    C510478   1.104   3.520  16.607  0.4531 -0.0222  0.3343
  705MPD2     H10479   0.986   3.739  16.319 -0.4146  1.4405  1.3094
  705MPD2    H110480   0.939   3.598  16.717 -1.1315  1.2855 -1.2645
  705MPD2    H210481   1.270   3.462  16.486  1.0679  1.2080 -0.8080
  705MPD2    H310482   1.132   3.462  16.694  1.1695 -1.7239 -1.0560
  705MPD2     N10483   0.834   3.766  16.542 -0.5861 -0.1650  0.7570
  705MPD2    H510484   0.786   3.749  16.630 -1.1765 -1.8981  0.1066
  705MPD2    N110485   1.209   3.616  16.265 -0.2144  0.3946 -0.2457
  705MPD2    H710486   1.185   3.685  16.195 -1.7676 -0.8084 -0.8991
  706TMC3    C110487   1.438   3.506  15.872 -0.7091 -0.1584 -0.5251
  706TMC3    C210488   1.434   3.638  15.838  0.3926  0.5617 -0.1058
  706TMC3    C310489   1.413   3.730  15.932 -0.3419 -0.3891  0.4258
  706TMC3    C410490   1.419   3.470  16.008 -0.0549  0.0389 -0.5308
  706TMC3    C510491   1.380   3.570  16.096  0.0849  0.9646  0.2523
  706TMC3    C610492   1.374   3.701  16.061  0.2058  0.2280  0.4671
  706TMC3     C10493   1.522   3.422  15.784 -0.5928  0.0267  0.1331
  706TMC3     O10494   1.609   3.358  15.844  0.0084 -0.6804  0.1455
  706TMC3     H10495   1.445   3.669  15.735 -1.8536  0.3500 -0.4089
  706TMC3    H110496   1.429   3.369  16.047  0.5302  0.1311 -0.4427
  706TMC3    H210497   1.343   3.778  16.131  3.1263  0.6268  1.2984
  706TMC3    C710498   1.315   3.533  16.220  0.0855  0.7355  0.2194
  706TMC3    C810499   1.424   3.870  15.885  0.3265 -0.6632  0.0484
  706TMC3    O110500   1.360   3.437  16.273 -0.0528  0.5361 -0.0527
  706TMC3    O210501   1.429   3.900  15.765 -0.0931  0.3001 -0.0215
  707TMC3    C110502   2.784   2.300   1.126 -0.6005 -0.3353 -0.3402
  707TMC3    C210503   2.755   2.162   1.132  0.5237  0.4869 -0.5114
  707TMC3    C310504   2.626   2.123   1.168  0.0493  0.1333  0.8241
  707TMC3    C410505   2.687   2.395   1.159 -0.4478  0.0460 -0.0748
  707TMC3    C510506   2.565   2.349   1.208 -0.6108 -0.1779 -0.3522
  707TMC3    C610507   2.533   2.215   1.205  0.0872  0.2391  0.9850
  707TMC3     C10508   2.914   2.342   1.100  1.6139 -0.0991 -0.5524
  707TMC3     O10509   2.999   2.260   1.127  0.3148  0.7843  0.3041
  707TMC3     H10510   2.833   2.091   1.109  1.8691  2.0792 -0.8932
  707TMC3    H110511   2.704   2.499   1.182  1.0866 -0.4816  1.1142
  707TMC3    H210512   2.437   2.183   1.246 -0.0334 -1.2959 -0.5094
  707TMC3    C710513   2.453   2.444   1.237  0.6158 -0.5671  0.0932
  707TMC3    C810514   2.604   1.982   1.211 -0.7467  0.9500  0.4982
  707TMC3    O110515   2.350   2.398   1.286 -0.5316 -0.7409 -0.1459
  707TMC3    O210516   2.525   1.970   1.303 -0.7429  0.0915  0.0019
  708MPD2     C10517   4.493   2.480  13.418  0.1321 -0.1041 -0.2628
  708MPD2    C110518   4.373   2.457  13.476  0.2940  0.2099  0.1303
  708MPD2    C210519   4.364   2.367  13.583  0.7887  0.1615  0.1838
  708MPD2    C310520   4.472   2.308  13.640 -0.6138  0.3769 -0.4572
  708MPD2    C410521   4.597   2.336  13.583 -0.2670  0.4053 -1.0668
  708MPD2    C510522   4.598   2.417  13.477  0.1576  0.6500 -0.3518
  708MPD2     H10523   4.268   2.368  13.633  1.7598  3.0929  2.0131
  708MPD2    H110524   4.679   2.305  13.647 -0.1523  0.1180 -1.3492
  708MPD2    H210525   4.514   2.551  13.339  1.1361  0.0216  0.1177
  708MPD2    H310526   4.696   2.434  13.436 -0.2734  0.4676 -1.4444
  708MPD2     N10527   4.464   2.222  13.750 -0.1783  0.5949  0.4711
  708MPD2    H510528   4.555   2.199  13.790  0.5455  0.1049 -1.4572
  708MPD2    N110529   4.263   2.533  13.435 -0.4720  0.2681  0.2495
  708MPD2    H710530   4.183   2.515  13.496 -0.7242 -0.0787 -0.1814
  709TMC3    C110531   4.104   2.661  13.335  0.3014 -0.0175 -0.2216
  709TMC3    C210532   4.039   2.614  13.223  0.2063 -0.4639 -0.2240
  709TMC3    C310533   3.918   2.556  13.231 -0.4191 -0.3782 -0.5284
  709TMC3    C410534   4.048   2.650  13.453 -0.6593 -0.1945 -0.7789
  709TMC3    C510535   3.926   2.586  13.472 -0.2709  0.4627  0.1919
  709TMC3    C610536   3.860   2.536  13.359  0.2188 -0.5091 -0.1703
  709TMC3     C10537   4.242   2.616  13.331  0.1385  0.1301 -0.0449
  709TMC3     O10538   4.315   2.635  13.232  0.4809  0.1383  0.2699
  709TMC3     H10539   4.105   2.635  13.140  2.1716 -2.5975  0.7994
  709TMC3    H110540   4.092   2.702  13.537 -0.2968 -0.7913 -0.6000
  709TMC3    H210541   3.763   2.489  13.363 -0.3749  0.9929  3.4240
  709TMC3    C710542   3.941   2.481  13.573 -0.4327  0.4328  0.1242
  709TMC3    C810543   3.886   2.468  13.123 -0.6783  0.6491 -0.4933
  709TMC3    O110544   4.053   2.459  13.614 -0.1844 -0.8616 -0.2043
  709TMC3    O210545   3.814   2.374  13.156  0.1320 -0.0311  0.0123
  710TMC3    C110546   0.900   2.761  17.638 -0.3614 -0.5515 -0.8318
  710TMC3    C210547   1.013   2.839  17.607 -0.3994 -0.3647 -0.2408
  710TMC3    C310548   1.134   2.797  17.637  0.7581  0.1828 -0.5111
  710TMC3    C410549   0.919   2.639  17.695  0.4440 -0.2005 -0.3050
  710TMC3    C510550   1.040   2.594  17.721  0.0657 -0.0209 -0.3412
  710TMC3    C610551   1.155   2.672  17.700 -0.3731 -0.0429  0.1139
  710TMC3     C10552   0.758   2.809  17.628  0.3923 -0.0454  0.4889
  710TMC3     O10553   0.670   2.724  17.631  0.2111  0.1637 -0.5977
  710TMC3     H10554   1.002   2.928  17.545 -1.7336 -0.7172 -0.5124
  710TMC3    H110555   0.834   2.577  17.716  0.4541  0.0851  0.6096
  710TMC3    H210556   1.258   2.642  17.718 -1.0222 -1.0614  2.1903
  710TMC3    C710557   1.047   2.473   0.058  0.4895  0.1248  0.3914
  710TMC3    C810558   1.241   2.862  17.560 -0.0837  0.3845  0.6294
  710TMC3    O110559   0.947   2.414   0.091 -0.8192 -0.3173 -0.5970
  710TMC3    O210560   1.243   2.981  17.550 -0.4865  0.1468 -0.3153
  711TMC3    C110561   0.429   0.004  14.751 -0.1232  0.6012  0.4720
  711TMC3    C210562   0.474   0.017  14.885 -0.2084  0.2054  0.7315
  711TMC3    C310563   0.602   0.057  14.890  0.2158  1.5171  0.2517
  711TMC3    C410564   0.511   4.735  14.643 -0.0412  0.2631 -0.2868
  711TMC3    C510565   0.644   0.010  14.664  0.3255 -0.3254  0.2766
  711TMC3    C610566   0.687   0.069  14.784 -0.3002  0.0629 -0.2291
  711TMC3     C10567   0.301   4.679  14.725 -0.4564  0.2064 -0.5999
  711TMC3     O10568   0.291   4.606  14.627  0.6066 -0.0733  0.3185
  711TMC3     H10569   0.416   0.032  14.975 -2.1767 -2.1302 -0.1389
  711TMC3    H110570   0.479   4.723  14.541  1.4050  0.1554 -0.7317
  711TMC3    H210571   0.793   0.061  14.806  0.0656  1.7184 -1.3363
  711TMC3    C710572   0.705   4.610  14.667  1.1203 -0.2054  0.2821
  711TMC3    C810573   0.681   0.017  15.003 -0.5138  0.5940 -0.1434
  711TMC3    O110574   0.822   4.595  14.701 -0.1887 -0.2093 -0.1038
  711TMC3    O210575   0.761   0.099  15.051  0.3232 -0.1546  0.1248
  712MPD2     C10576   1.510   0.885  13.344  0.7625 -0.4004 -0.0841
  712MPD2    C110577   1.399   0.946  13.406  0.0125  0.6134  0.3111
  712MPD2    C210578   1.411   1.042  13.497  0.2298  0.0782  0.2882
  712MPD2    C310579   1.533   1.097  13.510 -0.9269 -0.0078  0.0920
  712MPD2    C410580   1.645   1.046  13.449 -0.4330  0.9251 -0.9897
  712MPD2    C510581   1.633   0.935  13.371 -0.7466 -0.3378  0.1573
  712MPD2     H10582   1.326   1.089  13.545  1.1918  1.0517  1.0382
  712MPD2    H110583   1.749   1.076  13.457  0.1872 -0.6979 -2.6669
  712MPD2    H210584   1.498   0.792  13.290  1.9571 -0.7098  0.1862
  712MPD2    H310585   1.720   0.881  13.337 -0.4701  0.8617 -0.9941
  712MPD2     N10586   1.560   1.208  13.586 -0.1909  1.2881  0.1952
  712MPD2    H510587   1.654   1.246  13.579  0.4084 -0.7265 -2.7600
  712MPD2    N110588   1.269   0.887  13.386 -0.1746  0.1955 -0.8766
  712MPD2    H710589   1.188   0.919  13.439 -0.3484  0.4505 -1.2994
  713TMC3    C110590   1.517   1.370  13.757  0.6786  0.0903  0.1240
  713TMC3    C210591   1.652   1.350  13.785 -0.2040 -0.1204 -0.3974
  713TMC3    C310592   1.731   1.459  13.780  0.2679 -0.0494 -0.0921
  713TMC3    C410593   1.470   1.502  13.744  0.5185  0.5235 -1.1138
  713TMC3    C510594   1.560   1.606  13.748  0.3076  0.3629  0.5641
  713TMC3    C610595   1.690   1.581  13.760  0.2864 -0.3085  0.2102
  713TMC3     C10596   1.469   1.267  13.676 -0.4468  0.5149  0.1815
  713TMC3     O10597   1.351   1.251  13.690  0.6358 -0.0563 -0.3113
  713TMC3     H10598   1.693   1.250  13.788  1.1432  0.4784  0.7945
  713TMC3    H110599   1.366   1.513  13.715  0.7459  0.0601 -2.0992
  713TMC3    H210600   1.763   1.661  13.761  0.4627 -0.4555 -0.4733
  713TMC3    C710601   1.512   1.742  13.748 -0.3007 -0.7116  0.7865
  713TMC3    C810602   1.842   1.437  13.690 -0.1635  0.0914 -0.1442
  713TMC3    O110603   1.590   1.824  13.795 -0.9644 -0.2693  0.4957
  713TMC3    O210604   1.835   1.352  13.604  0.3488  0.4131 -0.0994
  714MPD2     C10605   4.105   4.398   0.921 -0.2445 -0.7313 -0.5177
  714MPD2    C110606   4.052   4.330   0.814  0.6977 -0.0440 -0.7198
  714MPD2    C210607   3.915   4.344   0.785  0.2199  0.4363  0.5786
  714MPD2    C310608   3.834   4.434   0.854  0.0196  1.0570 -0.7235
  714MPD2    C410609   3.895   4.501   0.968 -0.1937 -0.0920 -0.7251
  714MPD2    C510610   4.033   4.488   0.991 -0.6822 -0.2186  0.7395
  714MPD2     H10611   3.873   4.288   0.702  0.9181 -0.1482  0.6184
  714MPD2    H110612   3.838   4.580   1.016  0.6657  0.5173 -0.7012
  714MPD2    H210613   4.205   4.387   0.961  0.5243  2.4417 -1.5746
  714MPD2    H310614   4.077   4.546   1.072 -0.4485 -0.8787  1.0779
  714MPD2     N10615   3.694   4.439   0.826 -0.4568 -0.1016 -0.4686
  714MPD2    H510616   3.664   4.389   0.743  0.2645 -0.2794 -0.6252
  714MPD2    N110617   4.139   4.243   0.744  0.4271  0.5395  0.2984
  714MPD2    H710618   4.229   4.226   0.786 -0.1364  0.3789  1.4465
  715TMC3    C110619   4.235   4.121   0.560 -0.3858  0.5719  0.1104
  715TMC3    C210620   4.230   4.002   0.496  0.2271 -0.4637 -0.7616
  715TMC3    C310621   4.343   3.948   0.435  0.0747 -0.9326 -0.2469
  715TMC3    C410622   4.350   4.192   0.568 -0.0779 -0.3021  0.9029
  715TMC3    C510623   4.457   4.136   0.516  0.5919  0.0319  0.2725
  715TMC3    C610624   4.459   4.020   0.445  0.5268 -0.6175 -1.0654
  715TMC3     C10625   4.112   4.171   0.630 -0.1997 -0.3295  0.7523
  715TMC3     O10626   4.005   4.137   0.579  0.2440  0.3719 -0.0244
  715TMC3     H10627   4.139   3.946   0.478  0.8376 -2.0413  0.9814
  715TMC3    H110628   4.350   4.293   0.608 -0.9598 -0.2406  0.7474
  715TMC3    H210629   4.556   3.983   0.415  0.4170  0.4438 -2.6916
  715TMC3    C710630   4.589   4.185   0.557  0.2020  0.1203  0.4163
  715TMC3    C810631   4.339   3.802   0.405 -0.7961 -1.0333 -0.3509
  715TMC3    O110632   4.684   4.172   0.479 -0.2322 -0.1734  0.0973
  715TMC3    O210633   4.239   3.744   0.441 -0.0543 -0.4438 -0.1226
  716MPD2     C10634   3.183   3.361  10.012 -0.0248  0.3363 -0.1430
  716MPD2    C110635   3.172   3.396   9.877 -0.0159  0.0524  0.0135
  716MPD2    C210636   3.187   3.293   9.791 -0.3427  0.0404 -0.1771
  716MPD2    C310637   3.201   3.160   9.828 -0.1001 -0.2741  0.2814
  716MPD2    C410638   3.217   3.130   9.960 -0.1733  0.0726  0.1279
  716MPD2    C510639   3.211   3.235  10.055 -0.1005  0.0198 -0.1957
  716MPD2     H10640   3.188   3.314   9.684 -0.2154 -0.2964 -0.2418
  716MPD2    H110641   3.229   3.026   9.990  0.8475 -0.1356 -0.9848
  716MPD2    H210642   3.180   3.438  10.089  1.6706 -1.4760  1.7345
  716MPD2    H310643   3.217   3.223  10.162  0.3419  0.5922 -0.1514
  716MPD2     N10644   3.194   3.069   9.726 -0.7867 -0.6718 -0.6162
  716MPD2    H510645   3.176   3.108   9.634  1.7158 -1.7310 -1.5454
  716MPD2    N110646   3.139   3.528   9.848  0.9210  0.4963 -0.5573
  716MPD2    H710647   3.141   3.598   9.921  0.0266 -3.7780  3.5939
  717TMC3    C110648   3.245   2.873   9.617 -0.1074  0.1859  0.3110
  717TMC3    C210649   3.147   2.900   9.529  0.4780 -0.5384 -0.5431
  717TMC3    C310650   3.153   2.832   9.409 -0.3727 -0.0865  0.6069
  717TMC3    C410651   3.346   2.786   9.585  0.0724  0.7688  0.0681
  717TMC3    C510652   3.355   2.732   9.463 -0.3389  0.3742 -0.0977
  717TMC3    C610653   3.255   2.748   9.375  0.3438  0.0655 -0.4115
  717TMC3     C10654   3.244   2.942   9.737 -0.6299  0.1944 -0.3344
  717TMC3     O10655   3.301   2.886   9.829 -0.2674  0.2593 -0.1231
  717TMC3     H10656   3.055   2.951   9.552  1.1197  0.0195  0.7989
  717TMC3    H110657   3.422   2.769   9.660 -0.7056  0.2097  0.7219
  717TMC3    H210658   3.250   2.696   9.280 -1.3055  0.5410 -0.5854
  717TMC3    C710659   3.442   2.617   9.438 -0.1021  0.5410  0.6311
  717TMC3    C810660   3.041   2.832   9.318  0.3654  0.0921 -0.0920
  717TMC3    O110661   3.417   2.546   9.342  0.6012  0.5230 -0.3200
  717TMC3    O210662   2.934   2.872   9.366  0.4443 -0.1735 -0.1441
  718MPD2     C10663   3.305   1.088  12.964  0.4306  0.2404 -0.4346
  718MPD2    C110664   3.252   1.120  12.843 -0.3902  0.7615 -0.8496
  718MPD2    C210665   3.124   1.083  12.820  0.5376 -0.0930  0.0143
  718MPD2    C310666   3.044   1.024  12.911 -0.6900  0.4728  0.6550
  718MPD2    C410667   3.093   1.011  13.040 -0.2808  0.7337 -0.3420
  718MPD2    C510668   3.221   1.038  13.064 -0.0660 -0.6104  0.6251
  718MPD2     H10669   3.074   1.105  12.726 -2.8158 -0.6825  1.6450
  718MPD2    H110670   3.037   0.974  13.125 -0.2761  2.0619  0.2382
  718MPD2    H210671   3.408   1.118  12.983  0.6173 -0.8148  0.2191
  718MPD2    H310672   3.266   1.013  13.160 -1.4871  2.6801  2.1279
  718MPD2     N10673   2.907   1.007  12.878 -0.1853  0.3429  0.1568
  718MPD2    H510674   2.869   1.034  12.788  0.5061  1.6846  0.2631
  718MPD2    N110675   3.330   1.201  12.757  0.4065 -0.0656  0.1129
  718MPD2    H710676   3.420   1.230  12.795 -0.3672 -0.3328  2.1559
  719TMC3    C110677   3.356   1.346  12.578  0.4677 -0.2788  0.0222
  719TMC3    C210678   3.311   1.375  12.450  0.2889 -0.6693 -0.1634
  719TMC3    C310679   3.295   1.507  12.418  0.7369  0.8427  0.0897
  719TMC3    C410680   3.419   1.437  12.653 -0.5167  0.4283 -0.4549
  719TMC3    C510681   3.441   1.559  12.605 -0.3054 -0.3299  0.2755
  719TMC3    C610682   3.366   1.600  12.495 -0.7543 -0.1121  0.6164
  719TMC3     C10683   3.284   1.234  12.632  0.1905  0.4144 -0.0638
  719TMC3     O10684   3.188   1.195  12.571 -0.3715 -0.1421 -0.1437
  719TMC3     H10685   3.271   1.301  12.382  2.1819 -1.9042  0.0465
  719TMC3    H110686   3.440   1.425  12.759 -0.2998  0.2541 -0.5169
  719TMC3    H210687   3.378   1.704  12.465  0.5930  0.5264  3.4353
  719TMC3    C710688   3.580   1.610  12.595  0.0235 -0.5790  0.3070
  719TMC3    C810689   3.156   1.537  12.388  0.9313  0.3956 -0.3407
  719TMC3    O110690   3.598   1.688  12.501 -0.1636 -0.0604  0.0504
  719TMC3    O210691   3.124   1.642  12.337 -0.6552  0.2438  0.0640
  720MPD2     C10692   1.682   2.734  13.666  0.4483 -0.9211  0.4880
  720MPD2    C110693   1.758   2.772  13.557  0.3646 -0.4380  0.8225
  720MPD2    C210694   1.893   2.768  13.562  0.4409  0.0924 -0.7039
  720MPD2    C310695   1.958   2.725  13.680 -0.4160 -0.2556  0.0052
  720MPD2    C410696   1.879   2.699  13.791 -0.7845  0.0465  0.3549
  720MPD2    C510697   1.745   2.701  13.778  0.3820 -0.0757  0.7951
  720MPD2     H10698   1.949   2.799  13.475  2.7861  0.9303  1.0851
  720MPD2    H110699   1.923   2.673  13.887 -0.4157 -3.9491 -0.8755
  720MPD2    H210700   1.574   2.739  13.668  0.4380 -1.5188  1.4609
  720MPD2    H310701   1.691   2.673  13.869 -1.5247  1.8087  0.2435
  720MPD2     N10702   2.098   2.728  13.695  0.2135  0.2738 -0.5827
  720MPD2    H510703   2.136   2.703  13.786  1.4929  1.9768 -0.6358
  720MPD2    N110704   1.699   2.817  13.437 -0.4948  0.0851  0.2484
  720MPD2    H710705   1.759   2.877  13.381 -0.2033  0.3872  0.8761
  721TMC3    C110706   2.329   2.731  13.632 -0.5315  0.1786  0.0115
  721TMC3    C210707   2.362   2.788  13.754 -0.4172  0.7711 -0.2939
  721TMC3    C310708   2.491   2.774  13.794  0.1359 -0.4728  1.0910
  721TMC3    C410709   2.416   2.656  13.555 -0.7301 -0.5524 -0.3131
  721TMC3    C510710   2.536   2.630  13.610 -0.7063  0.0788  0.1580
  721TMC3    C610711   2.578   2.704  13.720 -0.3617  0.4105  0.0056
  721TMC3     C10712   2.186   2.733  13.590  0.3642 -0.1518 -0.5523
  721TMC3     O10713   2.167   2.705  13.473  0.2769 -0.3793 -0.1321
  721TMC3     H10714   2.291   2.846  13.811  0.2847 -2.3172  3.6910
  721TMC3    H110715   2.386   2.624  13.456  1.1922 -2.1346 -0.3798
  721TMC3    H210716   2.680   2.693  13.753 -0.0786  0.0975 -0.9672
  721TMC3    C710717   2.644   2.593  13.518  0.3461  0.1106  0.3064
  721TMC3    C810718   2.536   2.821  13.916 -0.2309  0.0122  0.6827
  721TMC3    O110719   2.756   2.629  13.547 -0.1935 -0.0201 -0.3249
  721TMC3    O210720   2.649   2.867  13.921  0.0146 -0.4929  0.3448
  722MPD2     C10721   0.252   2.145  13.213  0.0779 -0.3604  0.3936
  722MPD2    C110722   0.340   2.122  13.110 -0.1568  0.9010  0.3548
  722MPD2    C210723   0.295   2.120  12.984  0.3381 -0.6447  0.0163
  722MPD2    C310724   0.159   2.134  12.948  0.2463 -0.4001 -0.0111
  722MPD2    C410725   0.073   2.160  13.051 -0.5827  0.5634  0.0286
  722MPD2    C510726   0.121   2.171  13.179  0.3036  0.7574 -0.0489
  722MPD2     H10727   0.369   2.092  12.909 -1.4030 -3.2545 -0.7137
  722MPD2    H110728   4.704   2.180  13.035 -0.1335  2.0366 -1.0878
  722MPD2    H210729   0.281   2.146  13.318 -2.8075  1.5902  1.1735
  722MPD2    H310730   0.046   2.186  13.257 -0.3548 -0.4310 -0.4507
  722MPD2     N10731   0.126   2.120  12.808 -0.5460 -0.2383 -0.6119
  722MPD2    H510732   0.206   2.096  12.750 -1.4326  1.2178 -2.4413
  722MPD2    N110733   0.483   2.122  13.127  0.7573 -0.4634  0.5832
  722MPD2    H710734   0.545   2.096  13.051  1.5200  1.5285  0.5398
  723TMC3    C110735   0.038   2.176  12.611 -0.4000 -0.2812 -0.3315
  723TMC3    C210736   0.105   2.076  12.548 -0.3429 -1.0154 -0.4486
  723TMC3    C310737   0.157   2.110  12.421  0.6232  0.1853  0.2958
  723TMC3    C410738   0.024   2.300  12.572  0.4174  0.4545  0.7368
  723TMC3    C510739   0.082   2.326  12.455 -0.5500  0.3216  0.4356
  723TMC3    C610740   0.141   2.234  12.374 -0.4046 -0.5650 -0.9136
  723TMC3     C10741   0.012   2.154  12.750 -0.3909  0.0575 -0.4846
  723TMC3     O10742   4.640   2.194  12.789 -0.2171  0.3999  0.6009
  723TMC3     H10743   0.102   1.978  12.596 -0.7696  0.4810  2.5420
  723TMC3    H110744   4.715   2.369  12.642 -3.3340 -0.5141 -0.7747
  723TMC3    H210745   0.178   2.240  12.272  0.4010 -3.6028 -0.7986
  723TMC3    C710746   0.072   2.456  12.389 -0.2329  0.5546 -0.0356
  723TMC3    C810747   0.187   2.008  12.321 -0.3291  0.3747  0.3080
  723TMC3    O110748   0.143   2.465  12.288  0.6772 -0.0174  0.6970
  723TMC3    O210749   0.300   2.011  12.272  0.8006  0.1098 -0.0205
  724TMC3    C110750   1.226   4.561  10.685  0.3793  0.2726  0.0386
  724TMC3    C210751   1.275   4.501  10.565  0.0983  0.9885 -0.2822
  724TMC3    C310752   1.293   4.577  10.454 -0.1472  0.1168  0.3994
  724TMC3    C410753   1.222   4.698  10.693  0.2773 -0.0865  0.5267
  724TMC3    C510754   1.234   0.031  10.580 -0.1279  0.6699  0.0290
  724TMC3    C610755   1.271   4.713  10.461 -0.3068 -0.2216 -0.6198
  724TMC3     C10756   1.181   4.471  10.793  0.3350 -0.3325 -0.2544
  724TMC3     O10757   1.159   4.357  10.758  0.6341  0.1714 -0.1427
  724TMC3     H10758   1.262   4.394  10.551  0.0087  0.9013  0.4546
  724TMC3    H110759   1.189   0.007  10.785 -2.1954 -1.6100  0.4042
  724TMC3    H210760   1.281   0.047  10.379  0.6937  0.7570  0.3379
  724TMC3    C710761   1.228   0.179  10.585  0.1588 -0.4154 -0.1110
  724TMC3    C810762   1.306   4.510  10.323 -0.0067  0.2222  0.0897
  724TMC3    O110763   1.255   0.241  10.486  0.0424 -0.4364  0.0374
  724TMC3    O210764   1.285   4.393  10.317  0.5957  0.2218  0.6114
  725TMC3    C110765   2.498   3.482  12.188 -0.3505 -0.7797 -0.0680
  725TMC3    C210766   2.390   3.464  12.113  0.2005  0.2117  0.8823
  725TMC3    C310767   2.376   3.349  12.045 -0.1253  0.2014 -0.0945
  725TMC3    C410768   2.575   3.378  12.221 -0.8225 -0.2702  0.0694
  725TMC3    C510769   2.547   3.258  12.171 -0.0042  0.7556 -0.4026
  725TMC3    C610770   2.451   3.241  12.072  0.4328 -0.1518 -0.5067
  725TMC3     C10771   2.516   3.603  12.269 -0.2598  0.4604 -0.3537
  725TMC3     O10772   2.628   3.652  12.275  0.5596  0.1126 -0.1237
  725TMC3     H10773   2.313   3.540  12.104  0.1550  0.3366  2.4406
  725TMC3    H110774   2.646   3.387  12.303  0.0935  1.2053 -0.8819
  725TMC3    H210775   2.435   3.143  12.030  0.7562 -0.1309 -0.6804
  725TMC3    C710776   2.597   3.140  12.239  0.1431 -0.1799 -0.2444
  725TMC3    C810777   2.302   3.347  11.916 -0.5516  0.2294 -0.7920
  725TMC3    O110778   2.526   3.043  12.213  0.2114  0.1222  0.0925
  725TMC3    O210779   2.283   3.241  11.859 -0.0863  0.1168 -0.7091
  726MPD2     C10780   0.755   0.289   9.536  0.2680 -0.0382  0.2980
  726MPD2    C110781   0.783   0.372   9.645 -0.1516 -0.4022  0.3108
  726MPD2    C210782   0.770   0.332   9.779 -0.3262  0.3975 -0.1205
  726MPD2    C310783   0.712   0.206   9.799 -0.5721  0.1935 -0.7294
  726MPD2    C410784   0.707   0.116   9.698  1.0451  0.5892  0.6863
  726MPD2    C510785   0.722   0.159   9.566  0.2993 -0.8311  0.2367
  726MPD2     H10786   0.793   0.412   9.850  3.4046 -0.7577  0.0044
  726MPD2    H110787   0.689   0.010   9.709  0.2594  0.7766  1.2021
  726MPD2    H210788   0.776   0.305   9.430  1.1661 -2.7097  0.0916
  726MPD2    H310789   0.716   0.087   9.486  0.7559 -0.8608  0.2288
  726MPD2     N10790   0.669   0.167   9.927 -0.1944 -0.1662  0.1042
  726MPD2    H510791   0.622   0.077   9.939  0.0187 -0.0735  1.6084
  726MPD2    N110792   0.808   0.507   9.622  0.4740 -0.4611  0.5142
  726MPD2    H710793   0.831   0.569   9.699 -0.2919 -2.1001  2.0438
  727TMC3    C110794   0.821   0.709   9.520 -0.3274 -0.0059 -0.6983
  727TMC3    C210795   0.875   0.742   9.640 -0.7409 -0.0486  0.0166
  727TMC3    C310796   0.827   0.852   9.707  0.1290 -0.3898  0.3294
  727TMC3    C410797   0.718   0.790   9.467  0.7202  0.0773 -0.2465
  727TMC3    C510798   0.664   0.888   9.540  0.0180 -0.1347  0.0689
  727TMC3    C610799   0.714   0.928   9.658 -0.0309  0.6905  0.0515
  727TMC3     C10800   0.802   0.574   9.496  0.1393  0.0472  0.5557
  727TMC3     O10801   0.766   0.532   9.384  0.3144 -0.2207  0.4108
  727TMC3     H10802   0.958   0.689   9.688 -2.5721 -2.6828  0.2653
  727TMC3    H110803   0.678   0.766   9.370 -1.1191 -2.3154  1.0850
  727TMC3    H210804   0.659   0.994   9.724 -2.3350 -2.6552  1.4687
  727TMC3    C710805   0.561   0.965   9.472 -0.0722  0.4208 -0.0775
  727TMC3    C810806   0.859   0.865   9.848  0.0830  0.1599  0.3580
  727TMC3    O110807   0.481   0.902   9.405  0.2615  0.6246  0.1770
  727TMC3    O210808   0.894   0.755   9.891 -0.4339 -0.9108  0.0189
  728TMC3    C110809   4.045   3.165  15.250 -0.0546  0.8104  0.3226
  728TMC3    C210810   4.146   3.166  15.342 -0.6152 -0.5502  0.0287
  728TMC3    C310811   4.270   3.183  15.299  0.2841  0.2039  0.0433
  728TMC3    C410812   4.071   3.183  15.118  0.2246  0.2900 -0.2589
  728TMC3    C510813   4.197   3.207  15.080  0.7071 -0.4335 -0.4976
  728TMC3    C610814   4.298   3.215  15.168  0.2736 -1.0472  0.5721
  728TMC3     C10815   3.904   3.149  15.294  0.7713 -0.4901 -0.2458
  728TMC3     O10816   3.897   3.115  15.409  0.0775  0.3251 -0.0588
  728TMC3     H10817   4.123   3.133  15.443 -2.1343 -0.3073 -0.2426
  728TMC3    H110818   3.997   3.162  15.042 -1.3961 -2.4818  2.0889
  728TMC3    H210819   4.397   3.216  15.123 -1.3771  0.3436 -3.0008
  728TMC3    C710820   4.223   3.219  14.944  0.4980  0.0427  0.0241
  728TMC3    C810821   4.375   3.168  15.397 -0.4613 -0.4315  0.4835
  728TMC3    O110822   4.149   3.154  14.869  0.3927 -0.2485 -0.3338
  728TMC3    O210823   4.342   3.143  15.510  0.0647  0.0639 -0.2313
  729MPD2     C10824   1.721   4.586  16.165  0.3681 -0.2806  0.5043
  729MPD2    C110825   1.857   4.578  16.197 -0.1162 -0.1735  0.3289
  729MPD2    C210826   1.895   4.537  16.321  0.1303 -0.1789  0.1537
  729MPD2    C310827   1.811   4.506  16.420 -0.1403  1.0942 -0.1387
  729MPD2    C410828   1.675   4.517  16.388 -0.1259 -0.2777 -0.0573
  729MPD2    C510829   1.633   4.553  16.263 -0.0716  0.6191  0.2344
  729MPD2     H10830   1.999   4.518  16.344  0.5666  2.7510  0.5996
  729MPD2    H110831   1.601   4.486  16.461 -0.7887  1.4327  0.0102
  729MPD2    H210832   1.699   4.618  16.063  2.7905  0.5680  0.2644
  729MPD2    H310833   1.525   4.558  16.248  0.2575  5.2522 -0.6000
  729MPD2     N10834   1.864   4.480  16.550 -1.0564 -0.2351 -0.6691
  729MPD2    H510835   1.964   4.495  16.562 -1.4184  1.6341  0.0639
  729MPD2    N110836   1.955   4.610  16.099  0.6389  0.1642 -0.1761
  729MPD2    H710837   1.922   4.630  16.006 -2.0607  2.6009  1.3383
  730TMC3    C110838   1.882   4.456  16.776  0.3232 -0.2170  0.1257
  730TMC3    C210839   2.013   4.438  16.765  0.3358  0.7450 -0.4046
  730TMC3    C310840   2.101   4.526  16.836 -0.2957  0.4908 -0.2916
  730TMC3    C410841   1.827   4.552  16.860 -0.0790  0.6676 -0.3330
  730TMC3    C510842   1.916   4.634  16.930  0.1642 -0.5532 -0.0796
  730TMC3    C610843   2.049   4.608  16.935 -0.5836 -0.1142 -0.8324
  730TMC3     C10844   1.793   4.437  16.658 -0.0932  0.0861  0.3321
  730TMC3     O10845   1.672   4.443  16.673  0.1168  0.2519 -0.0683
  730TMC3     H10846   2.065   4.389  16.683 -0.7476  1.6969 -1.6558
  730TMC3    H110847   1.724   4.586  16.855 -0.0600  0.3713 -2.9258
  730TMC3    H210848   2.112   4.656  17.009 -1.7171 -0.2708  0.2507
  730TMC3    C710849   1.882   0.039  16.930  0.0010  0.1113 -0.0518
  730TMC3    C810850   2.175   4.603  16.737  0.1715  0.4515 -0.2771
  730TMC3    O110851   1.795   0.077  16.850 -0.1997  0.6326 -0.0290
  730TMC3    O210852   2.160   4.571  16.619 -0.2105 -0.5997  0.0942
  731MPD2     C10853   1.916   3.455  11.904 -0.2507  0.3741  0.3516
  731MPD2    C110854   1.932   3.318  11.927 -1.1461  0.3629  0.1764
  731MPD2    C210855   1.983   3.274  12.044 -0.1688  0.8373  0.0183
  731MPD2    C310856   2.023   3.366  12.140  0.0910  0.2967 -0.1672
  731MPD2    C410857   2.003   3.501  12.122  0.6035  0.2081  0.2395
  731MPD2    C510858   1.952   3.540  12.004 -0.8422  0.2028 -0.8500
  731MPD2     H10859   1.989   3.168  12.066 -0.0689  0.9041  0.3139
  731MPD2    H110860   2.040   3.575  12.192 -0.2326 -1.0535  2.0169
  731MPD2    H210861   1.874   3.501  11.816 -0.4999 -0.0992  0.2212
  731MPD2    H310862   1.935   3.646  11.987 -2.7353 -0.1884 -1.4112
  731MPD2     N10863   2.064   3.314  12.262  0.4264  0.6825  0.1125
  731MPD2    H510864   2.057   3.213  12.263  2.0590  0.5566 -0.8226
  731MPD2    N110865   1.911   3.223  11.824 -0.4012 -0.1020 -0.2295
  731MPD2    H710866   1.941   3.127  11.837 -0.1248 -0.0968 -0.8018
  732TMC3    C110867   1.846   3.145  11.621  0.3301  0.2441  0.2475
  732TMC3    C210868   1.729   3.093  11.571 -0.1029  0.0477 -0.0449
  732TMC3    C310869   1.740   3.014  11.455  0.2380 -0.8343  0.0335
  732TMC3    C410870   1.970   3.110  11.584  0.4336  0.0363  0.4484
  732TMC3    C510871   1.971   3.022  11.477  0.7452 -0.4623 -0.1188
  732TMC3    C610872   1.865   2.983  11.408 -0.3005  0.5631 -0.3355
  732TMC3     C10873   1.839   3.252  11.714  0.3088  0.6109  0.4520
  732TMC3     O10874   1.745   3.329  11.700  0.0380  0.0407  0.3175
  732TMC3     H10875   1.634   3.114  11.618 -0.1629  0.2589 -0.2606
  732TMC3    H110876   2.057   3.148  11.635 -1.6171  2.4299  2.1210
  732TMC3    H210877   1.879   2.900  11.339  1.7821 -0.5952  1.4428
  732TMC3    C710878   2.094   2.947  11.477 -0.6625 -1.0175 -0.0560
  732TMC3    C810879   1.639   2.918  11.422  0.5497 -0.3468  0.5567
  732TMC3    O110880   2.112   2.887  11.373 -0.5612 -0.7147  0.4195
  732TMC3    O210881   1.673   2.849  11.328  0.4072 -0.1934  0.0469
  733TMC3    C110882   2.468   1.113  12.959  1.1695  0.5166 -0.0122
  733TMC3    C210883   2.583   1.057  13.006 -0.3811  0.6842  0.1272
  733TMC3    C310884   2.674   1.009  12.913 -0.7060  0.0149  0.3616
  733TMC3    C410885   2.447   1.139  12.828 -0.0098 -0.2496 -0.1484
  733TMC3    C510886   2.546   1.106  12.737  0.0054  0.3112  0.2708
  733TMC3    C610887   2.659   1.040  12.778  0.5163 -0.8977  0.2941
  733TMC3     C10888   2.368   1.159  13.044 -0.2832 -0.0219 -0.4098
  733TMC3     O10889   2.298   1.258  13.018  0.1101  0.0403 -0.0174
  733TMC3     H10890   2.602   1.023  13.107  3.4268  0.0050 -0.8173
  733TMC3    H110891   2.352   1.184  12.802 -0.1184  0.2997  1.1727
  733TMC3    H210892   2.724   0.999  12.701  0.9133  3.4625 -1.6637
  733TMC3    C710893   2.563   1.199  12.628  0.0701  0.5262  0.2339
  733TMC3    C810894   2.809   0.973  12.966  0.2684  0.2460 -0.0168
  733TMC3    O110895   2.464   1.249  12.578  0.2915 -0.4788 -0.7519
  733TMC3    O210896   2.810   0.940  13.082  0.3266 -0.2231 -0.8052
  734MPD2     C10897   0.651   4.095  11.557 -0.3083 -0.5786  0.2574
  734MPD2    C110898   0.534   4.035  11.528  0.0851  0.1515  0.3063
  734MPD2    C210899   0.490   4.033  11.397 -0.4240  0.4242 -0.3657
  734MPD2    C310900   0.575   4.081  11.296 -0.2544  0.2148 -0.2029
  734MPD2    C410901   0.698   4.131  11.329 -0.0473 -0.2159  0.7497
  734MPD2    C510902   0.735   4.141  11.460 -0.4634 -0.0933 -0.1082
  734MPD2     H10903   0.392   4.001  11.367 -0.4241 -1.6878  1.8967
  734MPD2    H110904   0.768   4.164  11.254 -1.7559 -1.0019 -1.1762
  734MPD2    H210905   0.690   4.098  11.658  0.5778  0.7386 -0.1160
  734MPD2    H310906   0.831   4.179  11.493 -0.2655 -0.7319  0.0446
  734MPD2     N10907   0.529   4.072  11.166  0.1142 -0.2938 -0.1546
  734MPD2    H510908   0.439   4.027  11.151  0.0529 -0.2158 -0.0258
  734MPD2    N110909   0.460   3.970  11.629  0.0675  0.1927 -0.0464
  734MPD2    H710910   0.503   3.976  11.721  1.1402 -0.2678 -0.5159
  735TMC3    C110911   0.323   3.800  11.715 -0.1074 -0.8240  0.4904
  735TMC3    C210912   0.192   3.765  11.719  0.0231  0.1066  0.2806
  735TMC3    C310913   0.159   3.629  11.725 -0.2904  0.0966  0.8850
  735TMC3    C410914   0.423   3.716  11.750  0.3290 -0.8027  0.3905
  735TMC3    C510915   0.390   3.588  11.775  0.0199  1.3469 -0.1977
  735TMC3    C610916   0.263   3.539  11.754 -0.2986 -0.4900  0.1607
  735TMC3     C10917   0.341   3.895  11.611  0.1357 -0.2351 -0.3162
  735TMC3     O10918   0.260   3.897  11.522  0.0918 -0.6331 -0.4497
  735TMC3     H10919   0.116   3.839  11.698 -0.9212 -0.9169  0.0662
  735TMC3    H110920   0.528   3.740  11.759  0.1860  0.7077 -1.8363
  735TMC3    H210921   0.235   3.435  11.740 -0.8864 -0.3284  0.1350
  735TMC3    C710922   0.496   3.491  11.779  0.2609  0.7094  0.1971
  735TMC3    C810923   0.105   3.581  11.596 -0.0314  0.0777 -0.5745
  735TMC3    O110924   0.581   3.518  11.696 -0.1248 -0.2147  0.2196
  735TMC3    O210925   0.044   3.477  11.598  1.0273  0.3315 -0.1522
  736MPD2     C10926   0.512   3.154  11.936  0.0875 -0.3078  0.2374
  736MPD2    C110927   0.556   3.262  11.859 -0.0489 -0.4579 -0.2601
  736MPD2    C210928   0.686   3.265  11.809 -0.5352 -0.2560 -0.5445
  736MPD2    C310929   0.770   3.150  11.828  0.7216 -0.1850 -0.1078
  736MPD2    C410930   0.720   3.047  11.899  0.2996 -0.4816  0.1620
  736MPD2    C510931   0.600   3.052  11.960  0.4024 -0.0496  0.1431
  736MPD2     H10932   0.729   3.354  11.765  1.0553 -0.7438 -0.0052
  736MPD2    H110933   0.786   2.965  11.923 -2.4863 -3.4417 -2.3083
  736MPD2    H210934   0.413   3.153  11.979  0.1111  0.3782  0.2950
  736MPD2    H310935   0.566   2.968  12.019  0.3244  1.2873  2.0138
  736MPD2     N10936   0.895   3.138  11.764 -0.3030 -0.0419 -0.0162
  736MPD2    H510937   0.936   3.046  11.778  0.4369  0.3937  0.6759
  736MPD2    N110938   0.467   3.374  11.849  0.1063 -0.0721 -0.2606
  736MPD2    H710939   0.381   3.370  11.904 -0.5176 -0.0582 -1.2342
  737TMC3    C110940   1.056   3.194  11.589 -0.2117 -0.6956  0.6720
  737TMC3    C210941   1.098   3.294  11.508 -0.3271 -0.1466 -0.8769
  737TMC3    C310942   1.146   3.265  11.382  0.3382 -0.4141  0.2953
  737TMC3    C410943   1.041   3.068  11.543 -0.5287  0.1632  0.0940
  737TMC3    C510944   1.087   3.041  11.413 -0.6186  0.4636 -0.2361
  737TMC3    C610945   1.144   3.137  11.327  0.0530  0.0072 -1.0413
  737TMC3     C10946   0.957   3.240  11.685  0.1653 -0.2678 -0.1287
  737TMC3     O10947   0.923   3.359  11.670  0.4052  0.0832 -0.2807
  737TMC3     H10948   1.095   3.394  11.548  2.9317  0.1471 -1.3649
  737TMC3    H110949   1.011   2.993  11.615 -1.4898  1.4358  1.0237
  737TMC3    H210950   1.183   3.110  11.230  1.8829  1.0220 -0.5895
  737TMC3    C710951   1.095   2.898  11.380 -0.4060  0.1582  0.0381
  737TMC3    C810952   1.207   3.373  11.308 -0.1737  0.4870 -0.1522
  737TMC3    O110953   1.005   2.837  11.430 -0.2010  0.2472  0.0816
  737TMC3    O210954   1.238   3.470  11.375 -0.0913  0.0422  0.7203
  738MPD2     C10955   0.797   1.909  15.036  0.2818  0.0285 -0.0827
  738MPD2    C110956   0.820   1.798  14.968  0.7414 -0.7713  1.2962
  738MPD2    C210957   0.923   1.796  14.875  0.9980  0.1385  0.3312
  738MPD2    C310958   1.012   1.908  14.862 -0.4531 -0.1415 -0.3752
  738MPD2    C410959   0.981   2.020  14.929 -0.4788  0.2116  0.2994
  738MPD2    C510960   0.874   2.019  15.017  0.4147  0.2431 -0.2069
  738MPD2     H10961   0.935   1.706  14.816 -1.4497  0.8342 -1.2346
  738MPD2    H110962   1.031   2.113  14.908 -1.5690  0.4977 -1.0302
  738MPD2    H210963   0.710   1.923  15.100  0.3996  3.2313 -0.5936
  738MPD2    H310964   0.845   2.100  15.083  0.4372  2.0815 -2.4946
  738MPD2     N10965   1.122   1.910  14.774  0.8060 -0.4214  0.4798
  738MPD2    H510966   1.170   1.998  14.763 -0.8006  0.1105 -2.3161
  738MPD2    N110967   0.745   1.681  14.983  0.3402 -0.1481  0.5979
  738MPD2    H710968   0.780   1.604  14.927  0.2288 -0.0278  0.3656
  739TMC3    C110969   1.275   1.860  14.609  0.0207 -0.0279  0.3139
  739TMC3    C210970   1.239   1.884  14.477  0.1475  0.1930 -0.1535
  739TMC3    C310971   1.268   1.997  14.417 -0.4787 -0.1240 -0.0794
  739TMC3    C410972   1.355   1.958  14.675 -0.7170  0.3580 -0.1154
  739TMC3    C510973   1.389   2.073  14.602  0.1280 -0.5611 -0.0996
  739TMC3    C610974   1.345   2.095  14.474 -0.0212  0.2969 -0.7436
  739TMC3     C10975   1.162   1.812  14.688  0.0356  0.2883  0.6321
  739TMC3     O10976   1.113   1.701  14.667 -0.7485  0.1267 -0.8534
  739TMC3     H10977   1.157   1.831  14.430 -1.3559  1.4334  1.0781
  739TMC3    H110978   1.392   1.937  14.775  0.2523 -1.7391 -0.9175
  739TMC3    H210979   1.353   2.194  14.430  1.7463  0.9092  0.9765
  739TMC3    C710980   1.436   2.184  14.679 -0.0244  0.2588  0.9534
  739TMC3    C810981   1.187   2.027  14.291  0.2935  0.2026 -0.2309
  739TMC3    O110982   1.421   2.185  14.801  0.6603  0.0082 -0.0807
  739TMC3    O210983   1.092   1.954  14.273  0.1255  0.3941  0.0068
  740TMC3    C110984   1.143   3.663  13.975  0.2293  0.0411  0.2544
  740TMC3    C210985   1.129   3.685  13.840  0.0553 -0.4366 -1.1493
  740TMC3    C310986   1.242   3.705  13.767  0.1827 -0.0975 -0.6489
  740TMC3    C410987   1.265   3.662  14.036 -0.2617 -0.4435 -0.0057
  740TMC3    C510988   1.375   3.653  13.950 -0.2856  0.3667  0.4892
  740TMC3    C610989   1.367   3.671  13.814 -0.1900 -0.1443 -0.1103
  740TMC3     C10990   1.017   3.672  14.045 -0.0193  0.2489 -0.1241
  740TMC3     O10991   0.916   3.711  13.983  1.1171  0.0721 -0.1540
  740TMC3     H10992   1.032   3.702  13.796 -0.2788 -0.5715 -0.4628
  740TMC3    H110993   1.276   3.643  14.142 -2.1558 -0.4826  0.1813
  740TMC3    H210994   1.451   3.685  13.747 -1.6897  2.4284 -1.4740
  740TMC3    C710995   1.499   3.597  13.991 -0.6125  0.6528 -0.8246
  740TMC3    C810996   1.233   3.723  13.621 -0.1014  0.3255  0.0193
  740TMC3    O110997   1.530   3.601  14.111 -0.1754  0.0170  0.1130
  740TMC3    O210998   1.334   3.761  13.560  0.3246  0.4737  0.1893
  741TMC3    C110999   0.927   2.947  14.346  0.8753  0.7624  0.1172
  741TMC3    C211000   0.841   2.842  14.342 -0.1624 -0.0893 -0.2851
  741TMC3    C311001   0.882   2.722  14.397 -0.4207  0.2394 -0.2149
  741TMC3    C411002   1.056   2.925  14.392 -1.0180  0.0282 -0.3021
  741TMC3    C511003   1.092   2.805  14.437  0.2619 -0.5640  0.7346
  741TMC3    C611004   1.010   2.700  14.430 -0.0777  0.3495  0.3763
  741TMC3     C11005   0.903   3.069  14.280 -0.4989 -0.2144 -0.3313
  741TMC3     O11006   0.978   3.163  14.302 -0.5968  0.2547 -0.3668
  741TMC3     H11007   0.736   2.858  14.319  0.1070  1.3228 -0.5822
  741TMC3    H111008   1.121   3.012  14.394 -1.8237  0.6256  0.0330
  741TMC3    H211009   1.052   2.603  14.455 -0.8544 -0.6420 -2.1749
  741TMC3    C711010   1.231   2.772  14.430 -0.0884 -0.2939  0.5014
  741TMC3    C811011   0.797   2.608  14.345 -0.0700  0.7151 -0.0151
  741TMC3    O111012   1.267   2.663  14.475  0.3990 -0.2072 -1.1776
  741TMC3    O211013   0.694   2.639  14.286 -0.2077  0.8949 -0.7304
  742TMC3    C111014   1.440   1.498  14.871  0.3310  0.0743 -0.1308
  742TMC3    C211015   1.329   1.476  14.795 -0.0950 -0.1037 -0.1423
  742TMC3    C311016   1.304   1.346  14.740  0.1567 -0.2665 -0.6754
  742TMC3    C411017   1.514   1.395  14.923  0.7226 -0.5289  0.2611
  742TMC3    C511018   1.484   1.273  14.878 -0.3804 -0.2070 -0.5100
  742TMC3    C611019   1.388   1.240  14.786  0.3826  0.1732 -0.2114
  742TMC3     C11020   1.447   1.618  14.948  0.1568 -0.3677 -0.3676
  742TMC3     O11021   1.550   1.652  15.004  0.0534 -0.5581  0.6687
  742TMC3     H11022   1.286   1.559  14.741  1.7124 -0.5922 -2.3426
  742TMC3    H111023   1.595   1.406  14.994 -0.1396  0.8221  1.0150
  742TMC3    H211024   1.374   1.136  14.762 -0.4385  1.0055 -3.3948
  742TMC3    C711025   1.559   1.158  14.917 -0.3413  1.1110 -0.0137
  742TMC3    C811026   1.197   1.319  14.645 -0.9430 -0.2652 -0.2903
  742TMC3    O111027   1.493   1.053  14.929  0.3008  0.0133 -0.1371
  742TMC3    O211028   1.175   1.201  14.618 -0.1901 -0.1789  0.1924
  743MPD2     C11029   3.069   0.694   0.716 -0.2447 -0.2534  0.2482
  743MPD2    C111030   3.100   0.807   0.794 -0.1746 -0.0856 -0.7647
  743MPD2    C211031   3.201   0.804   0.883 -0.2665  0.3402  0.3593
  743MPD2    C311032   3.269   0.684   0.892 -0.0043  0.8651  0.1237
  743MPD2    C411033   3.234   0.569   0.825 -0.5716 -0.2074 -0.3215
  743MPD2    C511034   3.138   0.574   0.728  0.4202 -0.0331 -0.7824
  743MPD2     H11035   3.229   0.895   0.936 -1.9106  0.6060  0.7563
  743MPD2    H111036   3.291   0.477   0.830 -0.0837  0.0568 -1.0348
  743MPD2    H211037   2.985   0.696   0.648 -1.0544 -0.9669  1.2216
  743MPD2    H311038   3.105   0.493   0.663 -0.4584  0.4034 -0.8887
  743MPD2     N11039   3.371   0.689   0.985 -0.5889  0.1864 -0.6117
  743MPD2    H511040   3.382   0.777   1.034  0.3844  0.3038 -1.0425
  743MPD2    N111041   3.039   0.928   0.761 -0.2566  0.0192 -0.2252
  743MPD2    H711042   2.976   0.931   0.681 -0.7906  1.7646  0.2755
  744TMC3    C111043   2.997   1.163   0.769 -0.4624 -0.4285 -0.4734
  744TMC3    C211044   2.945   1.263   0.842  0.5513 -1.3159 -0.3339
  744TMC3    C311045   2.914   1.378   0.774  0.1970 -0.5515 -0.7773
  744TMC3    C411046   3.037   1.178   0.635  0.9423  0.4024  0.1960
  744TMC3    C511047   3.036   1.299   0.587  0.6502  0.6786  0.1687
  744TMC3    C611048   2.970   1.401   0.652 -0.3429 -0.2276 -0.5388
  744TMC3     C11049   3.036   1.044   0.837 -0.1743  0.1115 -0.4280
  744TMC3     O11050   3.066   1.058   0.955 -0.0463  0.1870 -0.0321
  744TMC3     H11051   2.921   1.251   0.947  0.8991  0.0760 -0.0965
  744TMC3    H111052   3.108   1.107   0.595 -0.7416  0.1076 -2.2797
  744TMC3    H211053   2.965   1.498   0.605 -0.8955  0.0644  0.1203
  744TMC3    C711054   3.100   1.333   0.463 -0.0570  0.0292 -0.3321
  744TMC3    C811055   2.852   1.490   0.841 -0.5111 -0.5013 -0.4904
  744TMC3    O111056   3.145   1.451   0.454 -0.1293  0.5571  0.2424
  744TMC3    O211057   2.908   1.592   0.808 -0.3218 -0.0277 -0.3140
  745TMC3    C111058   1.099   0.766  13.296  0.0787  0.3802  0.4742
  745TMC3    C211059   1.043   0.799  13.416 -0.3525 -0.0744  0.2554
  745TMC3    C311060   0.924   0.858  13.424  0.2330 -0.2001  0.8097
  745TMC3    C411061   1.026   0.792  13.183 -0.6133  0.2427  0.1670
  745TMC3    C511062   0.910   0.864  13.196  0.1362  0.2883 -0.6408
  745TMC3    C611063   0.853   0.901  13.312  0.1061 -0.2970 -0.7355
  745TMC3     C11064   1.237   0.801  13.286  0.2680  0.5967  0.2203
  745TMC3     O11065   1.286   0.793  13.174 -0.0080 -0.4553 -0.0567
  745TMC3     H11066   1.097   0.758  13.501 -1.3743  0.1888  1.0310
  745TMC3    H111067   1.066   0.781  13.083 -1.5409 -1.4155 -0.0151
  745TMC3    H211068   0.759   0.953  13.326  1.1293  0.7904  1.9918
  745TMC3    C711069   0.892   0.966  13.098  0.7928 -0.0345  0.2308
  745TMC3    C811070   0.915   0.956  13.520 -0.1764  0.5750  0.5532
  745TMC3    O111071   0.784   1.016  13.072  0.1228  0.0690 -0.0724
  745TMC3    O211072   0.846   1.055  13.501  0.3555 -0.2908 -0.1101
  746TMC3    C111073   4.001   3.219  10.462 -0.2174  0.4849 -0.2191
  746TMC3    C211074   3.955   3.281  10.347 -0.8233  0.1602 -0.1414
  746TMC3    C311075   3.885   3.204  10.258 -0.2896 -0.0155  0.5538
  746TMC3    C411076   3.944   3.103  10.509  0.0216  0.0223 -0.7988
  746TMC3    C511077   3.858   3.043  10.425 -0.1319 -0.1732  0.2417
  746TMC3    C611078   3.832   3.085  10.296  0.0910  0.1755 -0.3767
  746TMC3     C11079   4.049   3.306  10.572  0.1455  0.1837  0.9467
  746TMC3     O11080   4.052   3.258  10.684  0.0214 -0.5143  0.2895
  746TMC3     H11081   3.993   3.379  10.324 -0.4692  0.4785  1.7814
  746TMC3    H111082   3.976   3.062  10.604  0.2234  1.4973 -0.2254
  746TMC3    H211083   3.755   3.038  10.237  1.2363 -2.1517 -0.0403
  746TMC3    C711084   3.780   2.940  10.492 -0.4197 -0.2989 -0.6107
  746TMC3    C811085   3.905   3.226  10.115 -0.0342  0.3572  0.1348
  746TMC3    O111086   3.764   2.831  10.439  0.1797  0.6990  0.0738
  746TMC3    O211087   3.870   3.139  10.035 -0.4097 -0.0085 -0.4348
  747TMC3    C111088   1.423   2.796  10.499 -0.1546 -0.1367 -0.5333
  747TMC3    C211089   1.380   2.685  10.567 -0.4822 -0.5535  0.0079
  747TMC3    C311090   1.458   2.654  10.679  0.4231  0.2424 -0.6243
  747TMC3    C411091   1.517   2.886  10.543 -0.9561 -0.6201 -0.4879
  747TMC3    C511092   1.584   2.844  10.657 -0.0258 -0.6289 -0.2667
  747TMC3    C611093   1.553   2.730  10.731 -0.0453  0.0857  0.3904
  747TMC3     C11094   1.314   2.862  10.430  0.0257  0.0492  0.5188
  747TMC3     O11095   1.270   2.971  10.467  0.2393 -0.4832  0.0175
  747TMC3     H11096   1.298   2.623  10.534  0.2085  0.0700 -2.8028
  747TMC3    H111097   1.538   2.982  10.499 -0.0711 -0.3685  0.4837
  747TMC3    H211098   1.630   2.695  10.799 -1.7186 -2.9971  0.6822
  747TMC3    C711099   1.664   2.940  10.737 -0.5509  0.5137 -0.6315
  747TMC3    C811100   1.374   2.596  10.777 -0.1173  0.4362 -0.2324
  747TMC3    O111101   1.635   3.059  10.720 -0.6707  0.4862  0.0333
  747TMC3    O211102   1.298   2.508  10.740  1.0420  0.2380  0.2531
  748MPD2     C11103   3.090   3.122   1.103 -1.5797 -0.1523 -0.5026
  748MPD2    C111104   3.192   3.041   1.060  0.5980 -1.0453 -0.5120
  748MPD2    C211105   3.254   3.061   0.936  0.4131  0.1464  0.0942
  748MPD2    C311106   3.222   3.173   0.863  0.4146  0.0330  1.1936
  748MPD2    C411107   3.116   3.248   0.899 -0.8059  0.7162  0.0443
  748MPD2    C511108   3.059   3.230   1.023  0.6281  0.4194  0.5944
  748MPD2     H11109   3.318   2.985   0.891 -1.0342 -1.4665  0.7453
  748MPD2    H111110   3.074   3.327   0.837  1.5501  0.3421 -2.0597
  748MPD2    H211111   3.038   3.097   1.195  1.1726 -1.6535  0.6645
  748MPD2    H311112   2.979   3.298   1.048 -1.1518 -0.6965 -2.0620
  748MPD2     N11113   3.299   3.191   0.745 -0.1394 -0.7060  0.5362
  748MPD2    H511114   3.385   3.137   0.742 -0.3598 -1.1442  2.0900
  748MPD2    N111115   3.231   2.938   1.144  0.1448  0.2417 -0.1175
  748MPD2    H711116   3.185   2.916   1.232  0.3534 -0.5102 -0.1992
  749TMC3    C111117   3.377   3.291   0.544  0.0906  0.4915  0.0280
  749TMC3    C211118   3.465   3.190   0.530  0.2000  0.1110 -0.4437
  749TMC3    C311119   3.537   3.189   0.414  0.4874 -0.1492  0.0972
  749TMC3    C411120   3.362   3.386   0.446 -0.1050 -0.0631 -0.0312
  749TMC3    C511121   3.437   3.379   0.329 -0.8252  0.9905 -0.5038
  749TMC3    C611122   3.522   3.275   0.308  0.9156 -0.2405  0.2833
  749TMC3     C11123   3.280   3.288   0.650 -0.3795 -0.4055  0.5637
  749TMC3     O11124   3.193   3.371   0.647  0.0374  0.1328  0.0761
  749TMC3     H11125   3.480   3.123   0.614 -0.5712  1.8936  1.0996
  749TMC3    H111126   3.300   3.475   0.455  2.1365  1.4288  0.5278
  749TMC3    H211127   3.608   3.291   0.245  0.8724 -2.4719 -0.3652
  749TMC3    C711128   3.467   3.502   0.264 -0.0662  0.4909  0.7149
  749TMC3    C811129   3.679   3.171   0.431  0.1672  0.0426 -0.4102
  749TMC3    O111130   3.413   3.602   0.308  0.0254 -0.1435  0.2727
  749TMC3    O211131   3.759   3.252   0.397  0.2054  0.0547  0.7897
  750MPD2     C11132   3.616   0.681  11.627  0.4756 -0.5749 -0.8496
  750MPD2    C111133   3.612   0.547  11.659 -0.3357  0.2357 -0.4288
  750MPD2    C211134   3.643   0.453  11.565 -0.7129  0.0688  0.2228
  750MPD2    C311135   3.666   0.497  11.436 -1.0617 -0.2992  0.1607
  750MPD2    C411136   3.685   0.632  11.405 -0.6708 -0.3178 -0.4964
  750MPD2    C511137   3.665   0.720  11.508  0.3864 -0.6189  0.3721
  750MPD2     H11138   3.627   0.350  11.592 -1.2719  0.5976  1.8860
  750MPD2    H111139   3.703   0.671  11.305 -0.0593  2.7469  0.8132
  750MPD2    H211140   3.589   0.760  11.695  1.7168 -0.7646 -0.1408
  750MPD2    H311141   3.672   0.827  11.490 -1.8617 -0.6885 -0.9648
  750MPD2     N11142   3.700   0.410  11.330  0.1024  0.2592 -0.2604
  750MPD2    H511143   3.741   0.450  11.246 -0.6069  0.4214 -0.5305
  750MPD2    N111144   3.573   0.511  11.796 -0.8223 -0.1226  0.2910
  750MPD2    H711145   3.542   0.590  11.853  0.7913  0.4395  0.3756
  751TMC3    C111146   3.767   0.199  11.229  0.5587 -0.2910 -0.5278
  751TMC3    C211147   3.762   0.063  11.235 -0.1785  0.6141 -0.3068
  751TMC3    C311148   3.848   4.735  11.145 -0.1929 -0.3909  0.4073
  751TMC3    C411149   3.844   0.269  11.139  0.4814 -0.5849 -0.5110
  751TMC3    C511150   3.931   0.196  11.058 -0.2192 -0.2519 -0.0668
  751TMC3    C611151   3.928   0.059  11.053  1.0422  0.0030 -0.1500
  751TMC3     C11152   3.700   0.269  11.339  0.9323 -0.0741 -0.0104
  751TMC3     O11153   3.670   0.198  11.434 -0.3563  0.1331 -0.8497
  751TMC3     H11154   3.702   0.017  11.312 -0.1856 -0.5226 -0.9964
  751TMC3    H111155   3.860   0.375  11.153  0.9139 -0.7029 -0.1331
  751TMC3    H211156   4.003   0.013  10.990  0.6667 -1.7006  0.6552
  751TMC3    C711157   4.003   0.264  10.948 -0.8076  0.0405  0.0804
  751TMC3    C811158   3.844   4.593  11.132 -0.5788  0.4398  0.5333
  751TMC3    O111159   4.099   0.199  10.908 -0.3525 -0.1319  0.3834
  751TMC3    O211160   3.923   4.549  11.049  0.2660  0.3285 -0.2415
  752TMC3    C111161   2.613   0.088  16.771 -0.5206 -0.9358 -0.7626
  752TMC3    C211162   2.589   4.691  16.784  0.1585 -0.1620  0.3273
  752TMC3    C311163   2.512   4.658  16.894 -0.0329  0.1149  0.3990
  752TMC3    C411164   2.568   0.193  16.850 -0.0371 -0.1898 -0.2346
  752TMC3    C511165   2.516   0.157  16.972  0.3015  0.2521 -0.3211
  752TMC3    C611166   2.482   0.021  16.992 -0.1378  0.0578  0.2916
  752TMC3     C11167   2.675   0.135  16.646 -0.3093 -0.5104  0.8515
  752TMC3     O11168   2.712   0.248  16.653  0.1741 -0.1529 -0.0199
  752TMC3     H11169   2.657   4.619  16.740  0.7016 -0.0283  0.9400
  752TMC3    H111170   2.600   0.296  16.840  3.1666 -1.1041  0.7518
  752TMC3    H211171   2.422   4.728  17.077 -2.1087 -2.2260 -1.8928
  752TMC3    C711172   2.471   0.254  17.065  1.1670 -0.8283 -0.1175
  752TMC3    C811173   2.464   4.518  16.909  0.5925 -0.0998  0.8311
  752TMC3    O111174   2.475   0.371  17.030  0.4449  0.0389  0.0483
  752TMC3    O211175   2.388   4.512  17.004  0.2182 -0.0769 -0.1077
  753TMC3    C111176   4.504   0.987  12.992 -0.1969  0.1910  0.0001
  753TMC3    C211177   4.589   0.942  13.084  0.4823 -0.6899  0.3535
  753TMC3    C311178   4.616   0.808  13.074 -1.4179  0.0643  0.2835
  753TMC3    C411179   4.438   0.908  12.907  0.2449 -0.5822  0.8178
  753TMC3    C511180   4.458   0.776  12.909  0.3560  0.1714 -0.7393
  753TMC3    C611181   4.555   0.723  12.988  0.0865 -0.9510 -0.1200
  753TMC3     C11182   4.452   1.120  12.998  0.4229 -1.1943  0.5035
  753TMC3     O11183   4.374   1.153  12.910  0.1010 -0.2770  0.0565
  753TMC3     H11184   4.622   1.001  13.168 -1.8556  1.6546 -0.3611
  753TMC3    H111185   4.354   0.938  12.845  1.3449  2.6382  0.8834
  753TMC3    H211186   4.594   0.623  12.972 -0.3883 -1.0378 -0.7166
  753TMC3    C711187   4.380   0.696  12.818  0.2708  0.8615  0.2664
  753TMC3    C811188   4.698   0.743  13.171  0.0385 -0.3266 -0.8439
  753TMC3    O111189   4.293   0.753  12.758 -0.2103 -0.0206  0.0698
  753TMC3    O211190   4.715   0.621  13.163 -0.4676  0.5691 -0.4931
  754MPD2     C11191   3.578   4.301  12.796  0.2866  0.7931  0.4698
  754MPD2    C111192   3.526   4.179  12.758 -0.0078  0.0066  0.2020
  754MPD2    C211193   3.405   4.185  12.686  0.2182 -0.0839 -0.7621
  754MPD2    C311194   3.339   4.302  12.660 -0.7286 -0.4862  0.9851
  754MPD2    C411195   3.407   4.414  12.682  0.1014 -0.8373 -0.3209
  754MPD2    C511196   3.513   4.416  12.765  0.7019 -0.4075  0.7839
  754MPD2     H11197   3.357   4.088  12.678  1.1853 -0.3650 -3.0625
  754MPD2    H111198   3.370   4.513  12.659  0.7470 -0.6503 -0.5425
  754MPD2    H211199   3.673   4.309  12.848  0.0385 -1.0859  1.2180
  754MPD2    H311200   3.551   4.515  12.785 -2.3550  0.8017  0.5818
  754MPD2     N11201   3.203   4.307  12.615 -1.0410  0.6854  0.7218
  754MPD2    H511202   3.170   4.402  12.603 -0.3304  0.6037 -1.9567
  754MPD2    N111203   3.576   4.049  12.781  0.0065  0.6001  0.2268
  754MPD2    H711204   3.521   3.972  12.746 -0.8210  1.5855 -0.6476
  755MPD2     C11205   2.764   0.095  13.114 -1.1904  0.5247 -0.0281
  755MPD2    C111206   2.692   4.715  13.128 -0.2394  0.0650  0.2176
  755MPD2    C211207   2.723   4.612  13.043  0.7107  0.5449  0.2716
  755MPD2    C311208   2.831   4.618  12.960  0.2337  0.4260 -0.4788
  755MPD2    C411209   2.907   4.732  12.959 -0.0154  0.5082  0.0034
  755MPD2    C511210   2.865   0.102  13.028 -0.3005 -0.3874 -0.6495
  755MPD2     H11211   2.669   4.519  13.060  1.7945  0.2194  1.8937
  755MPD2    H111212   2.996   0.001  12.897  0.4971  2.1505  0.8827
  755MPD2    H211213   2.743   0.178  13.181 -0.4526  0.5275  0.2021
  755MPD2    H311214   2.916   0.198  13.026 -0.9737  0.0342  2.5184
  755MPD2     N11215   2.850   4.510  12.870  0.0248 -0.0843 -0.0695
  755MPD2    H511216   2.927   4.520  12.805  0.6456  0.9928  0.8201
  755MPD2    N111217   2.585   4.696  13.215 -0.1274 -0.0978  0.5105
  755MPD2    H711218   2.565   4.597  13.228  0.4048 -0.1575  0.8751
  756MPD2     C11219   3.883   1.116   9.898  0.0248 -0.0488  0.9047
  756MPD2    C111220   3.845   1.007   9.969 -0.2555 -0.1087 -0.2016
  756MPD2    C211221   3.889   0.876   9.937  0.1549  0.3038 -0.3458
  756MPD2    C311222   3.956   0.857   9.818 -0.3656 -0.0193 -0.1856
  756MPD2    C411223   3.998   0.974   9.756  0.4356 -0.2381 -0.3167
  756MPD2    C511224   3.963   1.105   9.794  0.3255  0.3868 -0.9178
  756MPD2     H11225   3.870   0.796  10.007 -1.4169 -1.8433 -3.2179
  756MPD2    H111226   4.056   0.972   9.664  0.4092 -1.0861 -0.3162
  756MPD2    H211227   3.853   1.213   9.935  0.9966  0.3689  0.5947
  756MPD2    H311228   4.000   1.185   9.732  2.6916  0.5994  0.7751
  756MPD2     N11229   4.007   0.736   9.768 -0.1772  0.4058  0.2038
  756MPD2    H511230   4.063   0.740   9.683  0.4287  0.4663  0.6015
  756MPD2    N111231   3.781   1.022  10.086 -0.0886  0.2105 -0.1337
  756MPD2    H711232   3.771   0.941  10.146  2.6655  1.0485  1.5065
  757MPD2     C11233   3.652   4.475   9.739 -0.2498 -0.0179  0.3745
  757MPD2    C111234   3.623   4.564   9.840 -0.7262  0.3715 -0.0596
  757MPD2    C211235   3.705   4.681   9.850  0.5244  0.0400  0.0465
  757MPD2    C311236   3.801   4.712   9.752  0.1415 -0.9880 -0.2267
  757MPD2    C411237   3.802   4.630   9.644  0.8427 -0.8764 -0.6133
  757MPD2    C511238   3.738   4.511   9.638  0.1639  0.3277 -0.0157
  757MPD2     H11239   3.686   0.005   9.937  0.1571 -1.3166  0.9168
  757MPD2    H111240   3.862   4.661   9.559  2.0652 -0.2880  0.4681
  757MPD2    H211241   3.609   4.376   9.738  1.7120 -0.8481 -1.4657
  757MPD2    H311242   3.754   4.436   9.562 -1.5404  0.5799 -0.6283
  757MPD2     N11243   3.880   0.095   9.770 -0.8812  0.6855  0.5738
  757MPD2    H511244   3.845   0.148   9.850 -0.2704 -1.2194  2.1182
  757MPD2    N111245   3.515   4.527   9.925  0.8255 -0.1637  0.1893
  757MPD2    H711246   3.464   4.445   9.895  0.6551 -0.3965  1.1151
  758MPD2     C11247   3.164   3.789  15.618 -0.3636 -0.6174  0.2194
  758MPD2    C111248   3.272   3.742  15.689 -1.0522 -0.3472 -0.2579
  758MPD2    C211249   3.269   3.771  15.826  0.4221  0.2563 -0.1212
  758MPD2    C311250   3.161   3.833  15.890  0.2920 -0.2162  0.4177
  758MPD2    C411251   3.058   3.885  15.814  0.6766  0.2695  0.4752
  758MPD2    C511252   3.059   3.855  15.681  0.1660 -0.4808 -0.4481
  758MPD2     H11253   3.355   3.753  15.889  0.5618  4.6128  0.9435
  758MPD2    H111254   2.974   3.942  15.852 -0.6192 -0.7562 -0.8647
  758MPD2    H211255   3.141   3.774  15.513  2.0794 -1.0559 -0.2548
  758MPD2    H311256   2.995   3.905  15.609  0.1492  0.4596  0.2125
  758MPD2     N11257   3.145   3.847  16.027  0.2711 -0.0442  0.2535
  758MPD2    H511258   3.079   3.917  16.061  3.0759  2.9848 -0.5976
  758MPD2    N111259   3.382   3.667  15.636 -0.6704 -0.1771 -0.0861
  758MPD2    H711260   3.387   3.655  15.536  1.3766 -1.6992  0.1974
  759MPD2     C11261   2.326   2.172  10.167 -0.5722 -0.0817 -0.3751
  759MPD2    C111262   2.196   2.124  10.196  0.1204  0.2170 -0.1087
  759MPD2    C211263   2.087   2.187  10.147 -0.6565  0.5913 -0.0217
  759MPD2    C311264   2.097   2.303  10.071  0.1631 -0.0679  0.1831
  759MPD2    C411265   2.222   2.346  10.039 -0.1780 -0.1488 -0.3928
  759MPD2    C511266   2.339   2.286  10.090  0.5610 -0.1479 -0.3463
  759MPD2     H11267   1.992   2.142  10.174  0.2663  0.3884  2.8111
  759MPD2    H111268   2.233   2.427   9.968  2.0875  0.9886  1.2333
  759MPD2    H211269   2.419   2.123  10.196 -1.6842 -1.1860  1.3456
  759MPD2    H311270   2.440   2.322  10.077  0.4630 -0.3737 -1.7908
  759MPD2     N11271   1.981   2.366  10.023  0.5946 -0.0949 -0.0184
  759MPD2    H511272   1.896   2.326  10.061  1.2520 -0.2966  1.2372
  759MPD2    N111273   2.166   2.011  10.266 -0.0145 -0.6401  0.1697
  759MPD2    H711274   2.068   1.984  10.265  0.0965 -1.0425  0.5258
  760MPD2     C11275   1.731   4.420  12.066 -0.4942  0.4756 -0.6344
  760MPD2    C111276   1.808   4.499  11.982  0.9474 -0.0197 -0.4958
  760MPD2    C211277   1.858   4.439  11.869  0.1364  0.2845 -0.3160
  760MPD2    C311278   1.824   4.310  11.831  0.2310 -0.1308 -0.6984
  760MPD2    C411279   1.741   4.240  11.912  0.2808  0.0439 -0.5680
  760MPD2    C511280   1.700   4.291  12.032  0.4621 -0.5874  0.2849
  760MPD2     H11281   1.924   4.505  11.815  0.6060 -1.0001 -1.3223
  760MPD2    H111282   1.710   4.137  11.904  2.4268 -0.6836  0.4235
  760MPD2    H211283   1.690   4.457  12.159 -1.3800  2.6038 -1.9061
  760MPD2    H311284   1.635   4.229  12.093  0.4309  1.1863  2.0812
  760MPD2     N11285   1.879   4.241  11.721 -0.3973  0.5030  0.1609
  760MPD2    H511286   1.845   4.151  11.687 -0.3946 -0.0407  1.6044
  760MPD2    N111287   1.851   4.626  12.018  0.0850  0.3287  0.1157
  760MPD2    H711288   1.909   4.674  11.950  0.9118 -3.5562 -1.8687
  761MPD2     C11289   3.667   4.131  11.248 -0.4733  0.2326 -0.5641
  761MPD2    C111290   3.727   4.180  11.134 -0.4547 -0.8688  0.0864
  761MPD2    C211291   3.754   4.317  11.120  0.1958 -0.4987  0.3282
  761MPD2    C311292   3.728   4.397  11.224 -0.0015  0.3715  0.3267
  761MPD2    C411293   3.654   4.353  11.334  0.0552  0.0923 -0.1810
  761MPD2    C511294   3.624   4.219  11.345 -0.5130  0.0647  0.0337
  761MPD2     H11295   3.787   4.356  11.024  0.6793  0.8486  1.0472
  761MPD2    H111296   3.615   4.428  11.401  2.4830  1.7644 -0.6340
  761MPD2    H211297   3.635   4.030  11.271  3.9962 -0.7698  1.2951
  761MPD2    H311298   3.574   4.178  11.432  1.5404  0.3539  1.3446
  761MPD2     N11299   3.758   4.538  11.225  0.4316  0.8517 -0.1478
  761MPD2    H511300   3.719   4.602  11.294 -1.6761 -1.3874  0.7582
  761MPD2    N111301   3.766   4.081  11.035 -0.2754 -0.3535  0.7624
  761MPD2    H711302   3.737   3.984  11.049 -0.8582 -0.2240  0.4188
  762MPD2     C11303   4.328   4.140  10.506  0.4231 -0.9207  0.0272
  762MPD2    C111304   4.241   4.046  10.458 -0.6298  0.3676 -0.0745
  762MPD2    C211305   4.259   3.992  10.331 -0.4957 -0.0948  0.5499
  762MPD2    C311306   4.372   4.031  10.260 -0.2042  0.0155 -0.0248
  762MPD2    C411307   4.463   4.123  10.311 -0.0903  0.0960  0.0411
  762MPD2    C511308   4.439   4.175  10.433 -0.1215 -0.6458 -0.1210
  762MPD2     H11309   4.183   3.930  10.287 -0.0010  0.0414 -0.5002
  762MPD2    H111310   4.556   4.152  10.263 -0.0943  1.9895  1.1950
  762MPD2    H211311   4.321   4.195  10.599  0.2755 -1.6273  0.4336
  762MPD2    H311312   4.508   4.245  10.479 -1.7296  2.0764 -1.8076
  762MPD2     N11313   4.391   3.976  10.134 -0.0615 -0.2466  0.2052
  762MPD2    H511314   4.326   3.902  10.109 -0.4683  0.2869 -0.3364
  762MPD2    N111315   4.137   4.012  10.546  0.2969 -0.1257  0.1613
  762MPD2    H711316   4.147   4.056  10.637  0.2969 -1.6078  0.8807
  763MPD2     C11317   0.550   3.969  16.049 -0.0228 -0.0044 -0.5930
  763MPD2    C111318   0.422   4.004  16.007 -0.1100  0.0448 -0.6008
  763MPD2    C211319   0.387   4.138  16.016  0.0879  0.3042 -0.3474
  763MPD2    C311320   0.470   4.235  16.074  0.4161 -0.1375 -0.3881
  763MPD2    C411321   0.600   4.198  16.106 -0.4193 -0.3866  0.2548
  763MPD2    C511322   0.635   4.064  16.093 -0.1753  0.3395 -0.0276
  763MPD2     H11323   0.285   4.159  15.985 -0.2216  2.2516  2.0677
  763MPD2    H111324   0.671   4.272  16.141  1.9020 -1.8901 -1.2531
  763MPD2    H211325   0.587   3.867  16.044 -1.5105 -0.5330 -0.8975
  763MPD2    H311326   0.732   4.025  16.118  0.2096  0.1902 -1.7421
  763MPD2     N11327   0.447   4.370  16.076  0.3485 -0.3216  0.1632
  763MPD2    H511328   0.517   4.421  16.129  1.5038 -1.6154 -0.0879
  763MPD2    N111329   0.341   3.909  15.948  0.2097 -0.4126 -0.2602
  763MPD2    H711330   0.256   3.945  15.905 -0.9913 -1.5969  1.1150
  764MPD2     C11331   3.467   0.356  17.199 -0.4521  0.2233 -0.1947
  764MPD2    C111332   3.339   0.383  17.157  0.0116 -0.2912  0.1679
  764MPD2    C211333   3.230   0.378  17.239  0.3295 -0.1346  0.3930
  764MPD2    C311334   3.249   0.343  17.376 -0.2208  0.4683  0.3751
  764MPD2    C411335   3.376   0.312  17.424  0.3399 -0.8342  0.5818
  764MPD2    C511336   3.480   0.315  17.336 -0.0393 -0.3596 -0.5740
  764MPD2     H11337   3.132   0.406  17.205 -0.4727 -1.4043  1.6408
  764MPD2    H111338   3.386   0.270  17.524  3.3020 -2.0728 -0.2375
  764MPD2    H211339   3.552   0.335  17.135  1.4924  3.4322  1.3326
  764MPD2    H311340   3.579   0.281  17.365  0.3442  0.1347 -1.3062
  764MPD2     N11341   3.140   0.350  17.458 -0.1164 -0.1550  0.2145
  764MPD2    H511342   3.055   0.383  17.412 -1.3961  0.6328  3.0526
  764MPD2    N111343   3.306   0.419  17.028 -0.0703  0.3314 -0.3129
  764MPD2    H711344   3.207   0.436  17.012 -0.4330 -1.5571 -0.1128
  765MPD2     C11345   2.480   3.088  15.483  0.0805 -0.0132 -0.5096
  765MPD2    C111346   2.552   3.202  15.497 -0.1678  0.1080 -0.1768
  765MPD2    C211347   2.684   3.186  15.537 -0.4750  0.4053 -0.2750
  765MPD2    C311348   2.743   3.067  15.554  0.1117  0.8106  0.0686
  765MPD2    C411349   2.671   2.949  15.527 -0.2575 -0.0080  0.1874
  765MPD2    C511350   2.540   2.967  15.499  0.4568 -0.7237 -0.0894
  765MPD2     H11351   2.747   3.271  15.563  1.9100 -2.0483  1.9205
  765MPD2    H111352   2.698   2.846  15.547  1.0832  0.0307 -1.4002
  765MPD2    H211353   2.378   3.101  15.448 -0.3586 -0.6508  0.5385
  765MPD2    H311354   2.476   2.879  15.490 -0.1706 -0.2759 -0.0331
  765MPD2     N11355   2.877   3.061  15.614 -0.2351  0.9756  0.0042
  765MPD2    H511356   2.931   3.148  15.620  0.3806  0.6416 -0.7076
  765MPD2    N111357   2.484   3.319  15.486 -0.2740  0.3200  0.5128
  765MPD2    H711358   2.388   3.315  15.452  0.0512 -0.5319 -0.2854
  766MPD2     C11359   2.218   3.549  14.912  0.1055  0.4644 -0.0343
  766MPD2    C111360   2.329   3.536  14.988  0.2364 -0.2270 -0.1910
  766MPD2    C211361   2.444   3.482  14.928 -0.5860 -0.1183 -0.3374
  766MPD2    C311362   2.438   3.429  14.796  0.1293 -0.8835 -0.3718
  766MPD2    C411363   2.322   3.444  14.731 -0.2431  0.1338 -0.1235
  766MPD2    C511364   2.212   3.506  14.785  0.3297 -0.5982  0.6810
  766MPD2     H11365   2.540   3.480  14.977 -0.9817  0.9691  0.4954
  766MPD2    H111366   2.318   3.412  14.627 -1.3427 -0.8319  0.2209
  766MPD2    H211367   2.129   3.600  14.949  1.5670  0.8529  2.9896
  766MPD2    H311368   2.115   3.512  14.736  0.7547  0.6823  0.0126
  766MPD2     N11369   2.552   3.364  14.733  0.0700 -0.5187 -0.1247
  766MPD2    H511370   2.544   3.331  14.637 -0.8085 -0.9081  0.0778
  766MPD2    N111371   2.332   3.589  15.123 -0.0989  0.1903  0.2341
  766MPD2    H711372   2.421   3.585  15.172 -0.4221 -0.5880  0.7515
  767MPD2     C11373   2.021   3.552  14.416  0.1420 -0.5516 -0.7010
  767MPD2    C111374   2.154   3.594  14.426 -0.5932  0.5838  0.3155
  767MPD2    C211375   2.252   3.508  14.373  0.4384  0.0033  0.1972
  767MPD2    C311376   2.216   3.375  14.333 -0.4407  0.1427 -0.8808
  767MPD2    C411377   2.089   3.339  14.339 -0.5134 -0.5555  0.2746
  767MPD2    C511378   1.992   3.428  14.366 -0.8211  1.0755 -0.7580
  767MPD2     H11379   2.351   3.551  14.363  1.5308 -2.0809  2.1292
  767MPD2    H111380   2.055   3.245  14.297 -0.4202 -1.2595  1.7717
  767MPD2    H211381   1.941   3.621  14.442  0.4491 -0.6219  0.4208
  767MPD2    H311382   1.885   3.419  14.350 -1.5488  3.0863  3.0604
  767MPD2     N11383   2.309   3.302  14.257  0.5148  0.4130  0.1811
  767MPD2    H511384   2.404   3.339  14.256  0.0207  1.6407 -0.3679
  767MPD2    N111385   2.198   3.713  14.483  0.2808 -0.2724  0.4417
  767MPD2    H711386   2.296   3.736  14.473 -0.3865  1.7266 -1.5602
  768MPD2     C11387   3.173   2.020  11.065  0.2186  0.3472 -0.0358
  768MPD2    C111388   3.237   2.141  11.054 -0.3500  0.1753  0.8540
  768MPD2    C211389   3.294   2.193  11.166 -0.5765  0.4654  0.0379
  768MPD2    C311390   3.308   2.121  11.281 -0.8299  0.7393  0.1901
  768MPD2    C411391   3.262   1.993  11.285 -0.3631 -0.0531  0.2838
  768MPD2    C511392   3.187   1.949  11.179 -0.1867  0.0189  0.4876
  768MPD2     H11393   3.334   2.294  11.172  0.1466 -0.0304  3.3693
  768MPD2    H111394   3.272   1.927  11.370 -0.5857  0.7129  0.9110
  768MPD2    H211395   3.139   1.968  10.976  0.4779 -1.0806  0.6944
  768MPD2    H311396   3.146   1.849  11.188 -0.0178 -0.1349 -0.4740
  768MPD2     N11397   3.367   2.174  11.397 -0.2537  0.3953  0.0055
  768MPD2    H511398   3.384   2.115  11.478  0.4198  0.7489  0.1182
  768MPD2    N111399   3.243   2.217  10.936 -0.6100  0.0519 -0.8912
  768MPD2    H711400   3.295   2.304  10.941 -1.1134  0.2027  1.9897
  769MPD2     C11401   4.573   0.102  14.684  0.0508  0.2451  0.1303
  769MPD2    C111402   4.497   0.026  14.767  0.6457 -0.5824 -0.4315
  769MPD2    C211403   4.474   0.064  14.900 -0.5251  0.4267  0.1237
  769MPD2    C311404   4.527   0.184  14.945 -0.2136 -0.7205  0.1856
  769MPD2    C411405   4.607   0.253  14.863  0.5814 -0.1213  0.0431
  769MPD2    C511406   4.631   0.214  14.733 -0.0199  0.1357 -0.2970
  769MPD2     H11407   4.409   0.007  14.965 -0.8686 -0.4084 -0.9574
  769MPD2    H111408   4.659   0.342  14.898  1.2013  0.4914 -2.3803
  769MPD2    H211409   4.602   0.065  14.586  1.2944  1.2563  0.1110
  769MPD2    H311410   4.697   0.277  14.674  1.1525  1.4480  2.3744
  769MPD2     N11411   4.507   0.212  15.079  0.3077  0.3313  0.4111
  769MPD2    H511412   4.466   0.149  15.147 -0.3380  0.4835  0.1588
  769MPD2    N111413   4.444   4.645  14.712 -0.1860  0.3774 -0.3541
  769MPD2    H711414   4.465   4.621  14.616 -0.5559  0.4533 -0.4523
  770MPD2     C11415   3.527   4.131  14.646  0.0953  1.2131  0.5649
  770MPD2    C111416   3.601   4.038  14.575  0.4118 -0.5073 -0.2798
  770MPD2    C211417   3.738   4.051  14.563  0.3342  0.1398  0.2981
  770MPD2    C311418   3.800   4.157  14.626 -0.4493 -0.5688  1.0666
  770MPD2    C411419   3.730   4.256  14.691  0.3036 -0.1205  0.2019
  770MPD2    C511420   3.587   4.247  14.692  0.3814  0.8966 -0.1931
  770MPD2     H11421   3.789   3.973  14.508 -1.0668 -1.5965  1.4686
  770MPD2    H111422   3.782   4.348  14.715  0.2693 -0.0653  0.0653
  770MPD2    H211423   3.420   4.117  14.658  0.4970 -0.6727  1.7966
  770MPD2    H311424   3.512   4.317  14.727 -0.6190 -0.4551  0.3853
  770MPD2     N11425   3.943   4.177  14.604 -0.5884  0.3280 -0.0400
  770MPD2    H511426   3.990   4.123  14.533 -1.4728  0.1805 -0.5093
  770MPD2    N111427   3.532   3.917  14.521  0.8832 -0.4894  0.4071
  770MPD2    H711428   3.589   3.855  14.464 -1.2376 -0.3481 -1.8194
  771MPD2     C11429   0.001   3.192  13.525 -0.5672  0.0752 -0.6052
  771MPD2    C111430   0.032   3.319  13.465 -0.2772 -0.2232 -0.3094
  771MPD2    C211431   4.719   3.344  13.336  0.1669  0.0662  0.9783
  771MPD2    C311432   4.653   3.246  13.264 -0.3888  0.1047  0.6697
  771MPD2    C411433   4.625   3.127  13.321 -0.0612  0.0715  0.1807
  771MPD2    C511434   4.668   3.103  13.451  0.3707 -0.1330 -0.1240
  771MPD2     H11435   4.731   3.445  13.299 -0.1264 -0.5919 -0.9001
  771MPD2    H111436   4.558   3.054  13.277  1.3017 -0.6467 -0.7372
  771MPD2    H211437   0.029   3.172  13.628  0.3251 -2.5357 -1.3449
  771MPD2    H311438   4.652   3.007  13.497  1.7860  0.5311  1.7506
  771MPD2     N11439   4.607   3.287  13.134 -0.5273  0.2053 -0.3798
  771MPD2    H511440   4.619   3.384  13.104 -3.0677  0.4536 -0.5786
  771MPD2    N111441   0.103   3.421  13.524  0.1932  0.3785 -0.4596
  771MPD2    H711442   0.132   3.500  13.468 -0.2022  1.6376  1.1035
  772MPD2     C11443   4.606   4.059  13.517  0.2687  0.1319  0.1753
  772MPD2    C111444   4.594   3.928  13.556 -0.1201 -1.0491  0.2608
  772MPD2    C211445   4.480   3.859  13.527 -0.5197  0.0569  0.2528
  772MPD2    C311446   4.371   3.922  13.464 -0.8920 -0.8266 -0.3441
  772MPD2    C411447   4.388   4.053  13.422 -0.1199 -0.3339 -0.8908
  772MPD2    C511448   4.505   4.122  13.443  0.7179 -0.3730  0.7044
  772MPD2     H11449   4.481   3.756  13.562  1.5775 -0.4378 -1.2485
  772MPD2    H111450   4.309   4.091  13.358 -0.0647  1.9212  0.3781
  772MPD2    H211451   4.696   4.117  13.533  2.1441 -2.5857 -0.3795
  772MPD2    H311452   4.514   4.224  13.407 -1.2232 -1.1851 -2.0830
  772MPD2     N11453   4.251   3.854  13.453 -0.2848 -0.0945  0.1463
  772MPD2    H511454   4.170   3.903  13.416  0.5508 -0.4171 -2.1317
  772MPD2    N111455   4.702   3.852  13.614 -0.0661 -0.2085  0.7386
  772MPD2    H711456   4.680   3.755  13.633  3.1037 -1.2255 -0.7958
  773MPD2     C11457   4.033   3.767  17.742  0.3406 -0.3110 -0.0158
  773MPD2    C111458   4.080   3.716  17.624  0.7541 -0.0648 -0.1529
  773MPD2    C211459   4.179   3.624  17.621  0.1933  0.3898  0.2057
  773MPD2    C311460   4.208   3.557  17.737  0.5303  0.3756  0.4785
  773MPD2    C411461   4.150   3.591   0.112  0.1304  0.3319 -0.1690
  773MPD2    C511462   4.060   3.693   0.113 -0.1907 -0.5617 -0.1692
  773MPD2     H11463   4.221   3.607  17.523 -1.2035 -0.0293 -0.3209
  773MPD2    H111464   4.174   3.545   0.207 -2.9818 -1.8107 -0.4149
  773MPD2    H211465   3.958   3.843   0.013 -1.0573 -1.6124 -0.3664
  773MPD2    H311466   4.012   3.715   0.207  0.6270 -0.3083  0.1838
  773MPD2     N11467   4.294   3.445  17.734 -0.0560  0.1771 -0.4295
  773MPD2    H511468   4.343   3.425  17.648  0.1388  2.1948 -0.7844
  773MPD2    N111469   4.030   3.764  17.501 -0.4173  0.2946 -0.1733
  773MPD2    H711470   3.973   3.848  17.505 -0.9408 -0.1211  1.2051
  774MPD2     C11471   3.328   3.130  12.598  0.3791 -0.1176 -0.2235
  774MPD2    C111472   3.347   3.140  12.736 -0.9183 -0.2576 -0.6730
  774MPD2    C211473   3.397   3.257  12.785 -0.6865 -0.7059 -0.1899
  774MPD2    C311474   3.419   3.369  12.711 -0.0809 -0.2230  0.9001
  774MPD2    C411475   3.394   3.366  12.574 -0.5038 -0.0624  0.2705
  774MPD2    C511476   3.352   3.244  12.527  0.1221 -0.0905 -0.0939
  774MPD2     H11477   3.415   3.257  12.892  4.3827 -1.7328 -1.0489
  774MPD2    H111478   3.412   3.450  12.507 -0.6339 -0.3284 -0.0967
  774MPD2    H211479   3.295   3.040  12.548 -2.8219  0.7186  0.3784
  774MPD2    H311480   3.352   3.245  12.418 -0.5721 -0.1467 -0.0937
  774MPD2     N11481   3.471   3.471  12.795 -0.0086 -0.7362  0.1584
  774MPD2    H511482   3.519   3.449  12.882 -1.2730  1.1060  1.3316
  774MPD2    N111483   3.319   3.029  12.822  0.3607 -0.3176 -0.3435
  774MPD2    H711484   3.308   2.941  12.772 -2.6052 -0.2374  0.1981
  775MPD2     C11485   4.500   4.490  15.559  0.5864  0.2443 -0.0676
  775MPD2    C111486   4.520   4.610  15.621 -0.1651  0.3524 -0.3120
  775MPD2    C211487   4.602   4.709  15.570  0.3331 -0.1834  0.3307
  775MPD2    C311488   4.681   4.682  15.455 -0.6176 -0.5026  0.4306
  775MPD2    C411489   4.673   4.554  15.397  0.2750 -0.2102  0.9466
  775MPD2    C511490   4.578   4.465  15.450  0.1936 -0.1772 -0.0582
  775MPD2     H11491   4.609   0.074  15.606  0.3114  0.4328 -1.4274
  775MPD2    H111492   0.001   4.523  15.316  0.0539 -0.2309  0.7786
  775MPD2    H211493   4.435   4.410  15.595  0.5229  0.2875 -0.0852
  775MPD2    H311494   4.581   4.363  15.412 -0.2179  0.0959 -0.8319
  775MPD2     N11495   0.038   0.042  15.411  0.4373 -0.1346 -0.0041
  775MPD2    H511496   0.090   0.015  15.328  3.0845 -1.6056  2.1642
  775MPD2    N111497   4.446   4.632  15.739 -0.6892  0.1910 -0.3994
  775MPD2    H711498   4.376   4.562  15.760  0.1315 -0.8457 -1.1248
  776MPD2     C11499   2.781   0.370  11.995  0.2470  0.5945 -0.3230
  776MPD2    C111500   2.890   0.454  12.001 -0.3615  0.8827  0.4538
  776MPD2    C211501   2.864   0.585  11.966  0.0694 -0.9954 -0.0573
  776MPD2    C311502   2.737   0.630  11.938 -0.3966 -0.1908  0.1552
  776MPD2    C411503   2.629   0.546  11.954  0.8447 -0.6182  0.3046
  776MPD2    C511504   2.651   0.411  11.972 -0.1253 -0.1593  1.3376
  776MPD2     H11505   2.945   0.658  11.955 -1.7827  1.2691  1.3591
  776MPD2    H111506   2.529   0.584  11.934  1.2842  0.3211 -0.1313
  776MPD2    H211507   2.788   0.264  12.016 -0.8288  0.2755 -1.5433
  776MPD2    H311508   2.566   0.343  11.977 -0.3899  0.2438  2.1697
  776MPD2     N11509   2.717   0.760  11.885  0.2533  0.2242 -0.1915
  776MPD2    H511510   2.622   0.796  11.892 -0.2715 -1.3768  0.9477
  776MPD2    N111511   3.023   0.397  12.009  0.0764 -0.0452  0.7071
  776MPD2    H711512   3.035   0.296  12.013  0.2189 -0.1358 -1.6100
  777MPD2     C11513   3.931   1.820   0.893 -0.8694  0.2737 -0.5653
  777MPD2    C111514   3.929   1.913   0.790 -0.0837  0.2680  0.7298
  777MPD2    C211515   3.873   1.878   0.669  0.4456 -0.3714 -0.2199
  777MPD2    C311516   3.832   1.749   0.645 -0.5541  0.6554 -0.6201
  777MPD2    C411517   3.829   1.667   0.750  0.5261  0.4920 -0.4181
  777MPD2    C511518   3.876   1.702   0.880 -0.1644 -0.1269  0.1348
  777MPD2     H11519   3.847   1.946   0.589  0.8836  1.0355  0.8315
  777MPD2    H111520   3.794   1.565   0.747  0.6226  0.4037  1.1246
  777MPD2    H211521   3.956   1.842   0.996  0.6286 -1.5805 -0.5332
  777MPD2    H311522   3.874   1.634   0.964 -0.9707 -0.7119 -0.3552
  777MPD2     N11523   3.797   1.717   0.515  0.6685  0.0917 -0.1354
  777MPD2    H511524   3.737   1.637   0.497 -0.5040  0.6636  1.2335
  777MPD2    N111525   3.969   2.043   0.829 -0.3195  0.2734 -0.0781
  777MPD2    H711526   4.021   2.052   0.916  1.5635  1.5870 -1.3067
  778MPD2     C11527   0.246   2.928  15.091  0.1776  0.4772  0.3456
  778MPD2    C111528   0.246   2.841  14.983 -0.1252 -0.0634 -0.1043
  778MPD2    C211529   0.250   2.894  14.861 -0.0799  0.8067  0.2143
  778MPD2    C311530   0.267   3.034  14.838 -1.0503  0.6507 -1.0268
  778MPD2    C411531   0.258   3.122  14.946  0.1575 -0.8759 -0.1351
  778MPD2    C511532   0.248   3.065  15.072 -0.1990  0.3996  0.7734
  778MPD2     H11533   0.256   2.827  14.776 -2.5525  0.7271  0.1203
  778MPD2    H111534   0.257   3.231  14.941  2.3421 -0.8154  0.9612
  778MPD2    H211535   0.227   2.887  15.190  0.9068 -1.2127 -0.2161
  778MPD2    H311536   0.241   3.139  15.151 -0.0491  1.4010 -0.1516
  778MPD2     N11537   0.300   3.074  14.714  0.3258 -0.6697  0.3816
  778MPD2    H511538   0.288   3.003  14.642  2.2074 -0.7263  0.1102
  778MPD2    N111539   0.223   2.700  14.992  0.1022 -0.0145 -0.2920
  778MPD2    H711540   0.204   2.650  14.906  0.7150  1.2994 -1.1906
  779MPD2     C11541   0.028   1.663  13.704 -0.2360  0.1820  0.4662
  779MPD2    C111542   0.121   1.656  13.806  0.3006 -0.4673 -1.1211
  779MPD2    C211543   0.146   1.768  13.881 -0.1405 -0.5766 -0.3955
  779MPD2    C311544   0.090   1.880  13.845  0.3897  0.3714  0.5881
  779MPD2    C411545   0.006   1.892  13.735  0.3563  0.6763 -0.1080
  779MPD2    C511546   4.713   1.780  13.662 -0.6558 -0.1682  0.3718
  779MPD2     H11547   0.223   1.768  13.957 -0.9603  2.6079  0.4447
  779MPD2    H111548   4.699   1.984  13.699  0.3911  1.1131  0.9907
  779MPD2    H211549   4.726   1.574  13.655  1.0786  0.2889 -0.7764
  779MPD2    H311550   4.645   1.786  13.578 -0.6906  2.2926  0.5731
  779MPD2     N11551   0.126   1.999  13.914  0.0617 -0.0320  0.1740
  779MPD2    H511552   0.177   1.984  14.001 -2.4091 -1.8729  1.3122
  779MPD2    N111553   0.163   1.524  13.831  0.2386 -0.0768 -0.3507
  779MPD2    H711554   0.142   1.451  13.763 -0.1311 -0.3627  0.0703
  780MPD2     C11555   4.416   1.271   0.882  0.2847 -0.3274 -0.5527
  780MPD2    C111556   4.345   1.219   0.773 -0.7362 -0.0010 -0.3394
  780MPD2    C211557   4.362   1.278   0.657  0.0859  0.4406  0.3769
  780MPD2    C311558   4.436   1.395   0.647  0.3329  0.0594 -0.7027
  780MPD2    C411559   4.495   1.455   0.757  0.4334  0.6807 -0.1943
  780MPD2    C511560   4.488   1.387   0.877  0.5638  0.4062  0.5704
  780MPD2     H11561   4.305   1.250   0.569 -0.3959  0.0515  0.8128
  780MPD2    H111562   4.538   1.554   0.753 -4.6155  2.8591  0.4796
  780MPD2    H211563   4.424   1.212   0.973  2.3587 -0.0299 -0.5444
  780MPD2    H311564   4.545   1.422   0.963  1.7169  0.0847 -0.0728
  780MPD2     N11565   4.448   1.460   0.520  0.1870 -0.9226 -0.3063
  780MPD2    H511566   4.385   1.438   0.444 -0.0139 -1.1707 -0.0673
  780MPD2    N111567   4.260   1.101   0.791 -0.2365 -0.1188  0.6527
  780MPD2    H711568   4.270   1.056   0.881 -2.1603 -1.4580  0.1952
  781MPD2     C11569   1.276   3.201  12.005  0.3801 -0.1333 -0.2990
  781MPD2    C111570   1.337   3.327  12.013 -0.5610 -0.2558 -0.7087
  781MPD2    C211571   1.402   3.385  11.899  0.0333 -0.3031  0.9079
  781MPD2    C311572   1.397   3.321  11.776  0.2392  0.4184 -0.2152
  781MPD2    C411573   1.328   3.204  11.766 -0.3681  0.4338  0.2468
  781MPD2    C511574   1.266   3.148  11.880 -0.1886  0.1559  0.3341
  781MPD2     H11575   1.455   3.478  11.915  0.8640 -0.4518 -0.9499
  781MPD2    H111576   1.314   3.141  11.679 -3.1838  0.5392  0.6075
  781MPD2    H211577   1.248   3.139  12.090  0.7583  1.7149  1.1679
  781MPD2    H311578   1.216   3.054  11.863 -1.4126  0.8727 -0.0331
  781MPD2     N11579   1.451   3.378  11.660 -0.3642 -0.1271  0.2407
  781MPD2    H511580   1.511   3.459  11.676  0.5141 -0.9142  0.9272
  781MPD2    N111581   1.362   3.391  12.138 -0.1752 -0.3590  0.9015
  781MPD2    H711582   1.410   3.481  12.140 -0.8577  0.0796 -2.5271
  782MPD2     C11583   0.086   0.631  10.541 -0.6882  0.0592  0.6876
  782MPD2    C111584   0.081   0.589  10.413  0.5493  0.4160 -0.3830
  782MPD2    C211585   0.187   0.522  10.350 -0.5733 -0.0790 -0.3192
  782MPD2    C311586   0.289   0.485  10.427  0.1140 -0.4340  0.1702
  782MPD2    C411587   0.298   0.543  10.555 -0.0690  0.1153 -0.4141
  782MPD2    C511588   0.194   0.602  10.620 -0.4819 -0.2260  0.8474
  782MPD2     H11589   0.180   0.471  10.254 -1.4951  0.6938 -0.6601
  782MPD2    H111590   0.388   0.525  10.612 -0.4586 -0.7244 -0.0694
  782MPD2    H211591   0.009   0.689  10.591 -1.0954 -0.0695  0.2037
  782MPD2    H311592   0.198   0.624  10.726  0.7043 -0.7782  0.9210
  782MPD2     N11593   0.391   0.406  10.363  0.1645  0.1653 -0.0563
  782MPD2    H511594   0.372   0.365  10.272 -3.0683 -1.1536  1.2561
  782MPD2    N111595   4.695   0.603  10.349  0.5381 -0.0495  0.2506
  782MPD2    H711596   4.615   0.610  10.412 -1.0343 -1.2794 -1.6213
  783MPD2     C11597   3.908   0.571  10.773  0.1638  0.3669 -0.3624
  783MPD2    C111598   3.981   0.459  10.794 -0.2564 -1.1844  0.0867
  783MPD2    C211599   4.070   0.419  10.699 -0.5810 -0.5368  0.2406
  783MPD2    C311600   4.086   0.493  10.584  0.5819 -0.3926  0.6086
  783MPD2    C411601   4.010   0.609  10.568  0.2832  0.0493 -0.7013
  783MPD2    C511602   3.921   0.641  10.662  0.6693 -0.4903  0.4514
  783MPD2     H11603   4.120   0.324  10.709  1.0470  0.5485  2.3781
  783MPD2    H111604   4.010   0.665  10.475 -4.1602  0.5510 -0.3766
  783MPD2    H211605   3.836   0.604  10.847 -1.5689 -1.7989 -1.0988
  783MPD2    H311606   3.846   0.717  10.641 -0.4042 -1.3337  1.2380
  783MPD2     N11607   4.180   0.457  10.483 -0.1727  1.1148  1.0084
  783MPD2    H511608   4.223   0.366  10.489 -1.1568  0.6396  0.8519
  783MPD2    N111609   3.945   0.384  10.912  0.2316 -0.1390 -0.0655
  783MPD2    H711610   3.858   0.411  10.956  0.1143  2.8650 -2.1135
  784MPD2     C11611   2.308   4.262   0.567  0.6879 -0.5399  0.4841
  784MPD2    C111612   2.308   4.345   0.677 -0.0540  0.4812 -0.5831
  784MPD2    C211613   2.214   4.448   0.675  0.4589 -0.8719  0.3170
  784MPD2    C311614   2.126   4.469   0.567  0.2986 -0.5688 -1.0157
  784MPD2    C411615   2.126   4.375   0.464 -0.1263  0.8444  0.2708
  784MPD2    C511616   2.216   4.274   0.464 -0.4934 -0.0725  1.0009
  784MPD2     H11617   2.214   4.514   0.761  0.8629 -1.3005  0.6477
  784MPD2    H111618   2.062   4.380   0.377 -2.6388  0.2580  2.0530
  784MPD2    H211619   2.379   4.184   0.542 -2.2371 -2.4689 -1.8267
  784MPD2    H311620   2.220   4.209   0.377  1.4783  1.4548 -0.0515
  784MPD2     N11621   2.044   4.586   0.569  0.1674  0.1553 -0.5344
  784MPD2    H511622   2.065   4.655   0.641  0.8054  0.2980 -0.8616
  784MPD2    N111623   2.406   4.332   0.784 -0.3796 -0.1065  0.5228
  784MPD2    H711624   2.400   4.404   0.854 -0.5067 -1.9242  2.3941
  785MPD2     C11625   2.411   2.944  10.685 -0.4852  0.2563  0.4710
  785MPD2    C111626   2.282   2.982  10.691  0.4090 -0.1575  0.0385
  785MPD2    C211627   2.190   2.919  10.609 -0.4721 -0.2494  0.3638
  785MPD2    C311628   2.231   2.813  10.530  1.1156  0.8381 -0.4011
  785MPD2    C411629   2.362   2.770  10.537 -0.4190  0.2888  0.3465
  785MPD2    C511630   2.450   2.838  10.611 -0.7287  0.4064  0.5227
  785MPD2     H11631   2.084   2.940  10.607 -0.4715 -0.2316  0.6049
  785MPD2    H111632   2.395   2.688  10.474  0.8640 -0.0421  1.4487
  785MPD2    H211633   2.483   2.994  10.750  0.3399  0.3802 -0.5304
  785MPD2    H311634   2.552   2.802  10.603 -1.0620 -0.2008 -0.9956
  785MPD2     N11635   2.139   2.764  10.442  0.1837  0.1995 -0.4758
  785MPD2    H511636   2.046   2.806  10.444  1.0715  2.0706  0.8204
  785MPD2    N111637   2.247   3.087  10.773  0.0997  0.3162 -0.0056
  785MPD2    H711638   2.318   3.121  10.836  1.0086  1.6790 -1.7591
  786MPD2     C11639   0.758   1.370  14.393 -0.0945  0.8242 -0.2253
  786MPD2    C111640   0.854   1.271  14.389 -0.4642 -0.0229 -0.7335
  786MPD2    C211641   0.969   1.298  14.457  0.4843  0.1457 -0.2048
  786MPD2    C311642   0.989   1.408  14.539 -0.2732 -0.0475  0.5257
  786MPD2    C411643   0.883   1.506  14.548  0.3829 -0.1764  0.7199
  786MPD2    C511644   0.772   1.483  14.468  0.1943  0.2209 -0.2549
  786MPD2     H11645   1.058   1.241  14.432 -0.2376 -1.9315  1.9906
  786MPD2    H111646   0.898   1.589  14.615  1.7823 -0.4934  0.8050
  786MPD2    H211647   0.665   1.367  14.338 -1.3526  1.0771  1.8879
  786MPD2    H311648   0.690   1.550  14.491 -2.3827 -2.7795 -0.6918
  786MPD2     N11649   1.115   1.427  14.609  0.1413  0.5112  0.2497
  786MPD2    H511650   1.133   1.521  14.644 -1.4513  0.2152  1.8849
  786MPD2    N111651   0.863   1.160  14.301 -0.0657 -0.0733 -0.4466
  786MPD2    H711652   0.945   1.102  14.317  0.1269 -0.3487 -2.4179
  787MPD2     C11653   1.091   0.566  14.432  0.7699 -0.0713 -0.3856
  787MPD2    C111654   1.109   0.585  14.303  0.1621  0.6884  0.1039
  787MPD2    C211655   1.190   0.494  14.231  0.5687  0.4581  0.6331
  787MPD2    C311656   1.241   0.381  14.295 -0.3801 -0.5142  0.1273
  787MPD2    C411657   1.222   0.367  14.426  0.6461  0.0644  0.0343
  787MPD2    C511658   1.151   0.459  14.492 -0.4007  0.0860 -0.0813
  787MPD2     H11659   1.211   0.507  14.125 -1.2413  1.0717  0.3579
  787MPD2    H111660   1.249   0.275  14.477  0.1435  0.4114  0.9270
  787MPD2    H211661   1.029   0.619  14.503  1.4930  0.1985  0.0439
  787MPD2    H311662   1.146   0.452  14.600  0.9890  1.8818  0.0844
  787MPD2     N11663   1.319   0.295  14.217 -0.4679  0.2588 -0.1405
  787MPD2    H511664   1.318   0.303  14.116  2.0876  1.7937 -0.0231
  787MPD2    N111665   1.045   0.699  14.251  0.4564 -0.2365 -0.1656
  787MPD2    H711666   0.996   0.755  14.319  1.3040  1.0463 -0.6236
  788MPD2     C11667   3.035   4.081   0.914 -0.0137 -0.4444  1.0278
  788MPD2    C111668   2.991   4.013   0.798  0.7187 -0.0970 -0.1400
  788MPD2    C211669   2.925   4.089   0.703  0.1646 -0.5275 -0.2606
  788MPD2    C311670   2.904   4.223   0.718  0.0388  0.1554 -0.5562
  788MPD2    C411671   2.969   4.288   0.822 -0.0700  0.6028  0.0064
  788MPD2    C511672   3.027   4.215   0.924 -0.3538  0.6753 -0.4877
  788MPD2     H11673   2.885   4.045   0.612  0.0897 -0.8395 -0.0779
  788MPD2    H111674   2.957   4.394   0.840  0.8705  0.6313  0.4363
  788MPD2    H211675   3.087   4.023   0.990  0.3584 -1.3396  0.0902
  788MPD2    H311676   3.046   4.267   1.017 -1.0935 -1.4076  0.8347
  788MPD2     N11677   2.836   4.301   0.623 -0.1404 -0.3878 -0.3540
  788MPD2    H511678   2.828   4.401   0.641 -1.0323 -0.9382  2.3423
  788MPD2    N111679   2.992   3.871   0.775 -0.0237 -0.5095  0.6347
  788MPD2    H711680   2.960   3.844   0.683 -0.3808 -2.1165  1.2181
  789MPD2     C11681   3.247   3.369  16.397 -0.1965 -0.3491  0.4173
  789MPD2    C111682   3.132   3.385  16.325  0.0501 -0.0361 -0.5534
  789MPD2    C211683   3.063   3.501  16.348  0.1186 -0.5399  0.3026
  789MPD2    C311684   3.085   3.586  16.453  0.5640 -0.4922 -0.0576
  789MPD2    C411685   3.200   3.561  16.527  0.7534  0.1462  0.0662
  789MPD2    C511686   3.278   3.453  16.499 -0.1654  0.0805 -0.0673
  789MPD2     H11687   2.980   3.522  16.282  0.3965  1.7074  0.6961
  789MPD2    H111688   3.212   3.634  16.606  0.2260  1.0482 -0.6857
  789MPD2    H211689   3.315   3.285  16.389  1.0793  0.9083 -2.0697
  789MPD2    H311690   3.368   3.430  16.554  0.6208  1.4142 -0.8026
  789MPD2     N11691   3.003   3.685  16.494  0.3697 -0.3451  0.0065
  789MPD2    H511692   3.029   3.724  16.584  0.9860 -4.5365  1.6281
  789MPD2    N111693   3.094   3.293  16.227 -0.3993 -0.8047  0.1212
  789MPD2    H711694   3.001   3.310  16.190 -0.1597 -0.8293 -0.4864
  790MPD2     C11695   4.200   0.290  13.134  0.2955  0.5965  0.8907
  790MPD2    C111696   4.152   0.417  13.112  0.2348 -0.0745  0.5764
  790MPD2    C211697   4.054   0.434  13.015  0.2966 -0.1136  0.8534
  790MPD2    C311698   3.992   0.332  12.952 -0.1141  0.4766 -0.2667
  790MPD2    C411699   4.034   0.205  12.981 -0.2742 -0.4981 -0.0214
  790MPD2    C511700   4.142   0.185  13.067 -0.2741  0.5401  0.1870
  790MPD2     H11701   4.011   0.531  12.994 -1.1909 -0.7438  1.0027
  790MPD2    H111702   3.989   0.124  12.926 -0.8960  0.1266 -0.4356
  790MPD2    H211703   4.260   0.269  13.222 -1.2124 -3.4660  0.9621
  790MPD2    H311704   4.172   0.083  13.083 -0.5352  0.4875  0.3485
  790MPD2     N11705   3.889   0.361  12.860  0.0974 -0.1979 -0.2059
  790MPD2    H511706   3.870   0.456  12.830  0.2302 -0.4037 -0.9579
  790MPD2    N111707   4.205   0.541  13.161 -0.2493 -0.2277  0.1092
  790MPD2    H711708   4.161   0.624  13.123 -0.5017  0.2397  1.4232
  791MPD2     C11709   3.157   0.677  12.802  0.0793  0.7677  0.1189
  791MPD2    C111710   3.201   0.557  12.733 -0.2478  0.6586  0.6033
  791MPD2    C211711   3.113   0.454  12.714  0.4632  0.3682  0.9590
  791MPD2    C311712   2.983   0.466  12.747 -0.0789 -0.2887  0.2825
  791MPD2    C411713   2.943   0.585  12.810 -0.0716 -0.2497  0.0284
  791MPD2    C511714   3.021   0.685  12.833  0.0374 -0.4177 -0.1055
  791MPD2     H11715   3.148   0.361  12.670  1.5659  0.3211  1.9260
  791MPD2    H111716   2.843   0.590  12.850  0.6920  2.1715  1.5864
  791MPD2    H211717   3.224   0.758  12.828 -1.6813  1.5976  2.0383
  791MPD2    H311718   2.986   0.773  12.885  1.1607  1.8631 -3.2699
  791MPD2     N11719   2.889   0.359  12.718  0.6053  0.0345  0.1782
  791MPD2    H511720   2.930   0.273  12.683  1.3917  0.0375  1.0854
  791MPD2    N111721   3.339   0.534  12.702  0.1324  0.1891 -0.4662
  791MPD2    H711722   3.398   0.615  12.716 -0.9622  1.3016 -2.3171
  792MPD2     C11723   4.109   1.354  11.618 -0.2527 -0.1072 -0.1993
  792MPD2    C111724   4.057   1.381  11.494  0.3887  0.0253  0.0369
  792MPD2    C211725   3.921   1.343  11.483  0.3767  0.3994 -0.2448
  792MPD2    C311726   3.852   1.265  11.573  0.4915  1.1967 -0.5781
  792MPD2    C411727   3.912   1.229  11.687  0.4492 -0.3876  0.5833
  792MPD2    C511728   4.041   1.276  11.713  0.5036 -0.1170  0.2876
  792MPD2     H11729   3.872   1.362  11.388  1.4519  1.5421 -0.5554
  792MPD2    H111730   3.869   1.162  11.761 -2.2248 -0.4805 -1.0565
  792MPD2    H211731   4.207   1.385  11.655 -0.1655 -1.5483  0.7691
  792MPD2    H311732   4.092   1.256  11.806 -0.4622  0.6610  0.9793
  792MPD2     N11733   3.724   1.220  11.543 -0.2077 -0.4604  0.0833
  792MPD2    H511734   3.685   1.155  11.611 -0.6761 -1.9635 -1.6297
  792MPD2    N111735   4.131   1.454  11.401 -0.0027 -0.5289 -0.3306
  792MPD2    H711736   4.227   1.470  11.430  0.5616 -2.1934 -1.2914
  793MPD2     C11737   3.233   1.375  10.707 -0.7266  0.6811  0.8627
  793MPD2    C111738   3.365   1.348  10.745  0.0285 -0.6085 -0.3615
  793MPD2    C211739   3.394   1.340  10.879 -1.2521 -0.5722  0.2558
  793MPD2    C311740   3.298   1.328  10.977 -0.5166 -0.4028  0.0618
  793MPD2    C411741   3.170   1.351  10.942  0.4370 -0.6890 -0.5041
  793MPD2    C511742   3.141   1.378  10.809 -0.5535 -0.3376  0.2315
  793MPD2     H11743   3.497   1.318  10.903 -1.1738  0.5340  0.9166
  793MPD2    H111744   3.084   1.356  11.008 -0.3830 -3.1624 -1.3764
  793MPD2    H211745   3.204   1.380  10.602 -0.1320 -0.0292  0.6593
  793MPD2    H311746   3.040   1.415  10.793  0.6779  3.0562  0.4587
  793MPD2     N11747   3.335   1.289  11.110 -0.3350  0.1708 -0.1159
  793MPD2    H511748   3.435   1.288  11.122 -0.4349  0.6364  0.7517
  793MPD2    N111749   3.475   1.322  10.658  0.8653 -0.0578  0.6436
  793MPD2    H711750   3.568   1.318  10.698 -0.2287 -1.4637  3.0514
  794MPD2     C11751   3.847   4.321  16.991 -0.2733 -0.1859 -0.1423
  794MPD2    C111752   3.771   4.219  16.943 -0.1820  0.1173  0.1462
  794MPD2    C211753   3.684   4.232  16.833 -0.2314  0.0583  0.3269
  794MPD2    C311754   3.665   4.357  16.776  0.0766 -0.6130  0.4621
  794MPD2    C411755   3.742   4.461  16.817 -0.6258 -0.0538  0.6773
  794MPD2    C511756   3.835   4.448  16.925 -0.1936 -0.0627  0.5190
  794MPD2     H11757   3.615   4.154  16.800 -0.1795 -1.2423  3.2367
  794MPD2    H111758   3.731   4.565  16.789  0.2193  0.1851  1.2120
  794MPD2    H211759   3.931   4.314  17.059  1.0922  1.0610 -1.6903
  794MPD2    H311760   3.898   4.533  16.951  2.0320 -0.6709 -2.9087
  794MPD2     N11761   3.566   4.389  16.676  0.6273  0.0639 -0.0781
  794MPD2    H511762   3.568   4.486  16.643 -2.2465 -0.7488 -2.6533
  794MPD2    N111763   3.786   4.094  16.999  0.0523 -0.3425 -0.1881
  794MPD2    H711764   3.740   4.021  16.946  0.4972 -0.5042 -0.3531
  795MPD2     C11765   1.181   2.106  13.680 -0.0556 -0.3199  0.3581
  795MPD2    C111766   1.154   2.010  13.582  1.0023 -0.5760 -0.2764
  795MPD2    C211767   1.229   1.895  13.591 -0.1830  0.5054 -0.7483
  795MPD2    C311768   1.328   1.875  13.688  0.2459  0.2681 -0.3827
  795MPD2    C411769   1.346   1.964  13.791 -0.7019 -0.1065  1.1343
  795MPD2    C511770   1.272   2.083  13.780  0.1239 -0.2175  0.2973
  795MPD2     H11771   1.213   1.813  13.522  0.8885 -0.3152 -0.0291
  795MPD2    H111772   1.419   1.952  13.870 -0.4358  0.0773  0.9130
  795MPD2    H211773   1.129   2.201  13.687  1.5371  0.5402  0.5462
  795MPD2    H311774   1.294   2.167  13.844  0.5853  0.2761 -0.5077
  795MPD2     N11775   1.393   1.756  13.690 -0.1158  0.1670  0.5572
  795MPD2    H511776   1.351   1.674  13.647  0.8816 -0.4902  0.8501
  795MPD2    N111777   1.065   2.024  13.475 -0.0825  0.2488  0.2728
  795MPD2    H711778   1.053   1.950  13.406  0.8630 -0.8128  1.2593
  796MPD2     C11779   0.835   3.186  15.861 -0.4844 -0.6842 -0.1621
  796MPD2    C111780   0.877   3.273  15.963  0.2247 -0.1894 -0.5109
  796MPD2    C211781   0.858   3.411  15.950 -0.1217  0.6488  0.2209
  796MPD2    C311782   0.782   3.460  15.842 -0.7345  0.3456  0.4567
  796MPD2    C411783   0.746   3.368  15.744  0.7616  0.2742 -0.0195
  796MPD2    C511784   0.774   3.236  15.746  0.3622 -0.5056  0.5679
  796MPD2     H11785   0.911   3.485  16.009  4.3864 -1.3749 -1.2342
  796MPD2    H111786   0.717   3.408  15.648 -2.3587  1.3348  1.3724
  796MPD2    H211787   0.857   3.080  15.868  1.1702 -0.3698 -0.8258
  796MPD2    H311788   0.755   3.163  15.668  1.2781 -0.2105  0.0612
  796MPD2     N11789   0.763   3.599  15.829 -0.2967 -0.1950 -0.6150
  796MPD2    H511790   0.793   3.653  15.910  3.1980 -1.4969 -1.0737
  796MPD2    N111791   0.943   3.210  16.070 -0.0605 -0.4795 -0.2786
  796MPD2    H711792   0.949   3.109  16.061 -0.1565 -0.3866 -1.3652
  797MPD2     C11793   1.779   2.379  17.198  0.0868  0.1001 -0.0158
  797MPD2    C111794   1.856   2.464  17.274  0.3238  0.5487 -0.0911
  797MPD2    C211795   1.927   2.566  17.213 -0.0883  0.0938 -0.2787
  797MPD2    C311796   1.905   2.578  17.077  0.0516 -0.3172  0.7561
  797MPD2    C411797   1.826   2.502  17.000  0.4975  0.0824  0.7700
  797MPD2    C511798   1.761   2.398  17.060  0.3565 -0.0750  0.7969
  797MPD2     H11799   1.975   2.641  17.275  1.7638 -0.5535 -0.9198
  797MPD2    H111800   1.813   2.527  16.895  3.1601  2.6253  1.0404
  797MPD2    H211801   1.726   2.298  17.247  0.6226 -0.1421  0.1729
  797MPD2    H311802   1.685   2.349  17.001  2.4714  0.8551 -2.6809
  797MPD2     N11803   1.973   2.692  17.017  0.1505  0.7520 -0.4098
  797MPD2    H511804   2.028   2.740  17.088 -0.6558 -0.7152  1.2200
  797MPD2    N111805   1.853   2.479  17.419  0.0042 -0.1647  0.8050
  797MPD2    H711806   1.905   2.562  17.448 -1.6464  0.6547  1.3959
  798MPD2     C11807   1.996   3.238  17.417  0.2617 -0.3298  0.2342
  798MPD2    C111808   2.039   3.115  17.370  0.2934  0.0910 -0.2204
  798MPD2    C211809   1.994   3.003  17.440  0.1504  0.1442  0.7542
  798MPD2    C311810   1.895   3.007  17.539 -0.4587 -0.0923 -0.9912
  798MPD2    C411811   1.860   3.130  17.576 -0.4421 -1.0818  0.4653
  798MPD2    C511812   1.913   3.245  17.529 -0.3630 -0.6673  0.2852
  798MPD2     H11813   2.013   2.904  17.398 -0.7286  0.1292  0.3843
  798MPD2    H111814   1.800   3.140  17.666 -0.2381 -0.5373  0.5397
  798MPD2    H211815   2.031   3.330  17.371 -1.8319  0.2976 -0.0957
  798MPD2    H311816   1.882   3.341  17.571 -0.8357 -0.6962  0.0015
  798MPD2     N11817   1.845   2.885  17.589  0.3617 -0.3565  0.1219
  798MPD2    H511818   1.892   2.801  17.555 -0.4052 -0.5908 -0.3671
  798MPD2    N111819   2.107   3.116  17.246 -0.3460 -0.6216  0.2733
  798MPD2    H711820   2.120   3.206  17.201 -0.6486 -0.8954 -0.3565
  799MPD2     C11821   0.963   4.645  14.403  0.4015 -0.3304 -0.4141
  799MPD2    C111822   0.862   4.582  14.327  0.1501 -0.1985 -0.1308
  799MPD2    C211823   0.798   4.651  14.227  0.5146 -0.3315  0.4053
  799MPD2    C311824   0.836   0.041  14.197 -0.3125  0.2211  0.6469
  799MPD2    C411825   0.937   0.101  14.271  0.0366  0.1693 -0.3077
  799MPD2    C511826   0.993   0.037  14.382  0.2905  0.0774 -0.5196
  799MPD2     H11827   0.717   4.611  14.168 -1.5259  2.2051  1.4596
  799MPD2    H111828   0.971   0.198  14.236 -0.3353  0.7042  0.8012
  799MPD2    H211829   1.011   4.595  14.486 -0.0281  0.3618  0.2518
  799MPD2    H311830   1.066   0.093  14.439 -0.4347 -0.9152  1.3854
  799MPD2     N11831   0.792   0.109  14.080  0.6779  0.6497 -0.5301
  799MPD2    H511832   0.831   0.199  14.054  1.7916  0.8097  1.7393
  799MPD2    N111833   0.825   4.449  14.340 -0.0711  0.2344  0.4824
  799MPD2    H711834   0.751   4.416  14.279 -1.0530  0.7110  1.4230
  800MPD2     C11835   1.105   1.198  13.934  0.5228  0.5463 -0.1143
  800MPD2    C111836   1.188   1.091  13.913 -0.1846  0.8318 -0.1446
  800MPD2    C211837   1.150   0.996  13.815  0.3077 -0.3972 -0.7253
  800MPD2    C311838   1.036   1.023  13.732 -0.2699  0.0684 -0.0747
  800MPD2    C411839   0.965   1.142  13.751 -0.0538  0.1259 -0.7285
  800MPD2    C511840   0.990   1.219  13.859 -1.0583  0.6898  0.2728
  800MPD2     H11841   1.211   0.907  13.812  1.1747  0.1829 -0.3801
  800MPD2    H111842   0.886   1.185  13.692 -2.2735  1.3288  3.0924
  800MPD2    H211843   1.143   1.271  14.005 -0.3633  1.7132 -0.8276
  800MPD2    H311844   0.933   1.311  13.858  0.1809  1.4799  1.5619
  800MPD2     N11845   1.003   0.933  13.625 -0.6865  0.3090  0.5708
  800MPD2    H511846   1.059   0.848  13.624  0.0128  0.7572  1.4795
  800MPD2    N111847   1.308   1.091  13.998 -0.2537 -0.2418  0.3980
  800MPD2    H711848   1.320   1.165  14.066  0.8946  0.6482 -0.7801
  801MPD2     C11849   1.565   1.635  14.147 -0.1403  0.8468 -0.0800
  801MPD2    C111850   1.489   1.531  14.200 -0.3195  0.4062 -0.4240
  801MPD2    C211851   1.353   1.551  14.213 -0.2762  0.0199  0.0531
  801MPD2    C311852   1.298   1.671  14.198  0.3085 -0.1023  0.2061
  801MPD2    C411853   1.371   1.776  14.152 -0.0862 -0.1053  0.6031
  801MPD2    C511854   1.503   1.754  14.118  0.4731 -0.5294 -0.8600
  801MPD2     H11855   1.298   1.469  14.258  1.3743 -0.4691  1.1795
  801MPD2    H111856   1.332   1.877  14.142 -0.9991 -0.5331 -0.2945
  801MPD2    H211857   1.669   1.630  14.117 -0.7523  1.5782 -2.2839
  801MPD2    H311858   1.556   1.834  14.066 -0.6942  0.6314 -0.2502
  801MPD2     N11859   1.159   1.690  14.228 -0.0323  0.5688  0.0773
  801MPD2    H511860   1.125   1.786  14.231 -0.1893  0.6854 -4.1482
  801MPD2    N111861   1.533   1.398  14.210 -0.0477 -0.3037  0.6932
  801MPD2    H711862   1.456   1.333  14.223 -0.9867  0.4996 -0.8700
  802MPD2     C11863   0.894   1.822   0.183  0.1415  0.0730 -0.5623
  802MPD2    C111864   0.809   1.910   0.108 -1.1756  0.2167 -0.4216
  802MPD2    C211865   0.804   1.910  17.713 -0.3073 -0.3228  0.3247
  802MPD2    C311866   0.866   1.813  17.635 -0.2840 -0.0814  0.6375
  802MPD2    C411867   0.933   1.715  17.705  0.5306  0.1220  0.0791
  802MPD2    C511868   0.950   1.721   0.102  0.3563  0.4335  0.1036
  802MPD2     H11869   0.746   1.985  17.662 -0.0180 -0.2463  0.1091
  802MPD2    H111870   0.975   1.632  17.651 -0.5131  0.1821 -0.8231
  802MPD2    H211871   0.900   1.812   0.290  1.3253 -2.2445 -0.8381
  802MPD2    H311872   1.019   1.649   0.143  0.9385  1.2910  0.6251
  802MPD2     N11873   0.862   1.817  17.493 -0.2112  0.2351  0.0155
  802MPD2    H511874   0.810   1.890  17.447 -2.0009 -0.5444  0.7648
  802MPD2    N111875   0.737   2.017   0.174  0.2027 -0.5108  0.0436
  802MPD2    H711876   0.716   2.098   0.116 -0.5137  0.3205  1.4694
  803MPD2     C11877   1.174   0.895  12.531 -0.4336  0.8462  0.3842
  803MPD2    C111878   1.246   0.788  12.472  0.1119  0.4328 -0.4291
  803MPD2    C211879   1.303   0.696  12.558  0.5124  0.3475 -0.6670
  803MPD2    C311880   1.278   0.698  12.696 -0.8540  0.3798  0.4318
  803MPD2    C411881   1.207   0.799  12.750  0.0701 -0.1898  0.2098
  803MPD2    C511882   1.157   0.896  12.666 -0.1845 -0.2406  0.1664
  803MPD2     H11883   1.351   0.610  12.512 -2.5391 -1.3542 -0.6528
  803MPD2    H111884   1.186   0.806  12.856 -1.6035  0.6612 -0.1826
  803MPD2    H211885   1.121   0.967  12.469 -0.8101  0.8832  0.7464
  803MPD2    H311886   1.096   0.976  12.707 -0.0519 -0.5888  1.0309
  803MPD2     N11887   1.318   0.595  12.785  0.0058  0.9153 -0.0488
  803MPD2    H511888   1.287   0.611  12.880  0.9962  2.1694  0.0794
  803MPD2    N111889   1.264   0.776  12.339  0.1561  0.3126 -0.6762
  803MPD2    H711890   1.314   0.696  12.303  0.7101  0.4283 -0.1791
  804MPD2     C11891   1.308   1.719  16.854 -0.7229  0.8454  0.9483
  804MPD2    C111892   1.327   1.640  16.967 -0.5361 -0.0149  0.2526
  804MPD2    C211893   1.402   1.689  17.071  0.3135 -0.0708 -0.1453
  804MPD2    C311894   1.453   1.814  17.052 -0.6858 -0.8519  0.4260
  804MPD2    C411895   1.424   1.892  16.939 -0.5786  0.0055  0.2557
  804MPD2    C511896   1.359   1.842  16.840 -0.0609  0.0333  0.1164
  804MPD2     H11897   1.417   1.618  17.152 -0.2349 -0.0211  0.0024
  804MPD2    H111898   1.467   1.990  16.918  0.3133 -0.0430  1.8639
  804MPD2    H211899   1.232   1.692  16.782  0.2844  0.0905  0.1710
  804MPD2    H311900   1.326   1.908  16.760 -2.4167 -2.7658 -1.2357
  804MPD2     N11901   1.522   1.869  17.162  0.3170 -0.3876  0.1196
  804MPD2    H511902   1.526   1.812  17.246 -2.1005 -0.5539  0.1312
  804MPD2    N111903   1.275   1.510  16.975  0.3668  0.7565  0.5728
  804MPD2    H711904   1.291   1.456  17.059 -1.7025 -0.8870 -0.0720
  805MPD2     C11905   0.677   4.425  15.165 -0.0666  0.0389 -0.2955
  805MPD2    C111906   0.713   4.557  15.145  0.6650  0.1262 -0.1222
  805MPD2    C211907   0.807   4.613  15.235 -0.8271 -0.1934 -0.1037
  805MPD2    C311908   0.863   4.529  15.331 -0.7597  0.2922  0.0909
  805MPD2    C411909   0.822   4.405  15.342 -0.5497  0.0137  0.0851
  805MPD2    C511910   0.732   4.350  15.263  0.4478 -0.7793 -0.4984
  805MPD2     H11911   0.851   4.710  15.216 -0.9576 -0.1139 -0.0032
  805MPD2    H111912   0.850   4.339  15.423 -0.2472 -0.1171 -0.1250
  805MPD2    H211913   0.598   4.379  15.106  0.2791 -1.1634  0.1767
  805MPD2    H311914   0.699   4.248  15.279 -0.0070 -0.6128 -0.3737
  805MPD2     N11915   0.963   4.585  15.415  0.4383 -0.3612 -0.0772
  805MPD2    H511916   0.998   4.675  15.383  0.6847 -0.5392 -0.3071
  805MPD2    N111917   0.650   4.624  15.042  0.4551 -0.3793  0.2221
  805MPD2    H711918   0.585   4.580  14.977  2.1556  1.8553 -3.0106
  806MPD2     C11919   1.602   4.183   0.013  0.4199  0.0314 -0.1474
  806MPD2    C111920   1.537   4.282   0.085 -0.6398  0.4176 -0.7987
  806MPD2    C211921   1.611   4.396   0.109 -0.2118 -0.3670  0.6785
  806MPD2    C311922   1.745   4.406   0.068 -0.3143  0.2041  0.5019
  806MPD2    C411923   1.814   4.292   0.022  0.1454  0.2169  0.5146
  806MPD2    C511924   1.739   4.185  17.741  0.1299  0.0020  0.4176
  806MPD2     H11925   1.564   4.485   0.149 -0.2582 -1.2151  2.5536
  806MPD2    H111926   1.920   4.291  17.745 -0.2620  0.9271 -1.4148
  806MPD2    H211927   1.540   4.101  17.727  0.1802 -0.1865  0.8888
  806MPD2    H311928   1.792   4.103  17.694  0.5833  1.5874 -1.8432
  806MPD2     N11929   1.806   4.524   0.089  0.0179  0.3981 -0.0163
  806MPD2    H511930   1.752   4.594   0.139  1.1787  2.1652 -1.2092
  806MPD2    N111931   1.399   4.261   0.110  0.1081  0.3006  0.0248
  806MPD2    H711932   1.350   4.177   0.083 -0.5187  0.7711 -0.2880
  807MPD2     C11933   0.797   4.475   0.714  0.2275 -0.1700 -0.3868
  807MPD2    C111934   0.762   4.363   0.647 -0.5518  0.7333 -0.8436
  807MPD2    C211935   0.654   4.286   0.689  0.5414  0.0385  0.1453
  807MPD2    C311936   0.579   4.331   0.796 -0.6350  0.5481 -0.4723
  807MPD2    C411937   0.616   4.443   0.872  0.6404 -0.3754  0.3987
  807MPD2    C511938   0.727   4.512   0.832 -0.1692  0.5761 -0.1666
  807MPD2     H11939   0.625   4.203   0.626  1.7477  0.0136 -0.3791
  807MPD2    H111940   0.576   4.474   0.968 -1.7637 -2.9627  0.2137
  807MPD2    H211941   0.885   4.530   0.684  1.2297 -0.4141  2.0762
  807MPD2    H311942   0.762   4.602   0.881  0.9317 -1.4512  2.7329
  807MPD2     N11943   0.466   4.257   0.830 -0.4073 -0.0572 -0.0269
  807MPD2    H511944   0.450   4.171   0.779  0.9159 -1.6698  2.2689
  807MPD2    N111945   0.830   4.318   0.531  0.8355 -0.5148 -0.3697
  807MPD2    H711946   0.801   4.231   0.487 -1.1075  1.6813 -3.4206
  808MPD2     C11947   2.101   0.317   9.423 -0.0986  0.1658 -0.8067
  808MPD2    C111948   2.043   0.410   9.515 -0.3256  0.5916 -0.2101
  808MPD2    C211949   2.106   0.523   9.561 -0.3924 -0.1464  0.0451
  808MPD2    C311950   2.234   0.558   9.513  0.4743  0.0390 -0.0901
  808MPD2    C411951   2.294   0.467   9.426  0.8865  0.0514  0.8147
  808MPD2    C511952   2.228   0.344   9.390 -0.8717 -0.2545  0.3440
  808MPD2     H11953   2.058   0.582   9.638 -1.3562  0.0170 -0.6745
  808MPD2    H111954   2.399   0.476   9.402  0.3511  2.0778 -0.7121
  808MPD2    H211955   2.059   0.225   9.386 -0.1223 -0.4732  0.8437
  808MPD2    H311956   2.291   0.270   9.341 -0.1957 -0.6181  1.7616
  808MPD2     N11957   2.306   0.671   9.560 -0.0649  0.0491 -0.4533
  808MPD2    H511958   2.398   0.696   9.527  0.7779  0.9790  2.5407
  808MPD2    N111959   1.913   0.394   9.562  0.6305 -0.5209 -0.4377
  808MPD2    H711960   1.876   0.472   9.616 -1.2490 -1.9526  0.3377
  809MPD2     C11961   3.203   0.835   9.700  0.5747  0.5674 -0.2979
  809MPD2    C111962   3.130   0.734   9.762  0.2627 -0.0037  0.1937
  809MPD2    C211963   2.987   0.736   9.751  0.3417 -0.3092  0.0339
  809MPD2    C311964   2.921   0.846   9.684 -0.2336  0.3184 -0.0644
  809MPD2    C411965   2.996   0.943   9.617 -0.6859  0.2918  0.3213
  809MPD2    C511966   3.135   0.926   9.624  0.1898 -0.0719  0.2449
  809MPD2     H11967   2.922   0.658   9.790 -0.1447  0.3638  0.5910
  809MPD2    H111968   2.947   1.014   9.551 -1.9154 -1.7774 -0.9989
  809MPD2    H211969   3.311   0.843   9.707  0.3093  2.0986  1.7956
  809MPD2    H311970   3.189   1.002   9.568 -0.6966  1.3756  1.3665
  809MPD2     N11971   2.778   0.856   9.689 -0.3876 -0.2072 -0.0348
  809MPD2    H511972   2.731   0.777   9.732 -0.5714 -1.2180 -2.0547
  809MPD2    N111973   3.201   0.627   9.822 -0.0449  0.1326 -0.5014
  809MPD2    H711974   3.144   0.566   9.879 -1.1451  2.0593  0.4532
  810MPD2     C11975   0.940   4.572  10.348 -0.1898  0.1279  0.3560
  810MPD2    C111976   0.952   4.681  10.257 -0.0799  0.5181 -0.5779
  810MPD2    C211977   0.941   0.068  10.320 -0.1289  0.3088 -0.1203
  810MPD2    C311978   0.910   0.090  10.456 -0.1640  0.3927  0.0787
  810MPD2    C411979   0.884   4.716  10.535 -0.6980  0.0914 -0.0508
  810MPD2    C511980   0.911   4.587  10.484 -0.1339  0.3584  0.8886
  810MPD2     H11981   0.950   0.156  10.257 -0.7765  1.1084  0.9009
  810MPD2    H111982   0.855   4.718  10.639 -1.0582  1.5982 -0.1845
  810MPD2    H211983   0.963   4.478  10.299 -0.8131  0.7921 -1.2159
  810MPD2    H311984   0.900   4.503  10.552 -0.2221  0.9002  1.5436
  810MPD2     N11985   0.889   0.223  10.515  0.0151  0.5816  0.1468
  810MPD2    H511986   0.854   0.229  10.610  0.2047  0.6724  0.2096
  810MPD2    N111987   0.975   4.650  10.124 -0.6463 -0.1608  0.2051
  810MPD2    H711988   0.973   4.552  10.099 -0.3183  0.4751 -2.3488
  811MPD2     C11989   1.448   0.120   9.366  0.1460  0.3894 -0.8535
  811MPD2    C111990   1.334   0.170   9.426 -0.4915  0.3308  0.2757
  811MPD2    C211991   1.315   0.307   9.415  0.5333  0.4188  0.1480
  811MPD2    C311992   1.401   0.390   9.347  0.2069 -0.1979 -0.5509
  811MPD2    C411993   1.520   0.342   9.292  0.0646  0.0536 -0.4757
  811MPD2    C511994   1.536   0.202   9.297 -0.2733 -0.3353 -0.6070
  811MPD2     H11995   1.229   0.339   9.472  0.7957  1.4318 -0.0354
  811MPD2    H111996   1.599   0.398   9.244  1.8652 -4.3416 -2.5771
  811MPD2    H211997   1.469   0.014   9.365  2.1629  0.7941 -1.3465
  811MPD2    H311998   1.621   0.160   9.245  1.2572  1.2863  0.5847
  811MPD2     N11999   1.362   0.527   9.343 -0.2433 -0.6994 -0.8744
  811MPD2    H512000   1.277   0.557   9.391  0.2620 -0.2980 -0.2345
  811MPD2    N112001   1.245   0.086   9.512 -0.1077  0.5089  0.2740
  811MPD2    H712002   1.263   4.723   9.508 -1.3050  0.1991  2.5476
  812MPD2     C12003   3.900   0.657  11.913 -0.4567  0.3340  0.3964
  812MPD2    C112004   3.936   0.740  12.023 -0.4027 -0.6890  0.3155
  812MPD2    C212005   4.035   0.689  12.109  0.0023 -0.5746 -0.1225
  812MPD2    C312006   4.086   0.559  12.098  0.2792 -0.3243 -0.3010
  812MPD2    C412007   4.039   0.484  11.995 -0.3787 -0.7683 -0.2901
  812MPD2    C512008   3.950   0.534  11.903 -0.0871 -0.0254 -0.1010
  812MPD2     H12009   4.062   0.752  12.193 -1.2058  0.4532 -0.5080
  812MPD2    H112010   4.082   0.386  11.980  0.5358  0.2435 -4.2407
  812MPD2    H212011   3.825   0.700  11.848  0.6361 -1.1980 -1.8646
  812MPD2    H312012   3.913   0.481  11.817 -0.4790 -3.7480  2.3541
  812MPD2     N12013   4.189   0.516  12.178 -0.4297 -0.2521  0.3260
  812MPD2    H512014   4.218   0.586  12.245  1.2558  1.7479 -2.5030
  812MPD2    N112015   3.883   0.870  12.034 -0.6690 -0.1786  0.1975
  812MPD2    H712016   3.813   0.885  11.962 -1.8768  1.4801  1.6989
  813MPD2     C12017   3.802   2.397  12.171  0.1083 -0.4649  0.5931
  813MPD2    C112018   3.849   2.457  12.280  0.1852 -0.3167  0.2301
  813MPD2    C212019   3.779   2.455  12.398 -0.8823  0.1639  0.4496
  813MPD2    C312020   3.664   2.386  12.407  0.2234  0.7604 -0.2453
  813MPD2    C412021   3.617   2.313  12.296 -0.3536 -0.0177 -0.2565
  813MPD2    C512022   3.687   2.322  12.180  0.4368 -0.1746 -0.0702
  813MPD2     H12023   3.823   2.500  12.487 -1.9822  0.7588  0.6835
  813MPD2    H112024   3.528   2.251  12.289  0.1602 -0.9154  1.0791
  813MPD2    H212025   3.845   2.388  12.072  0.1376  1.3342  0.4334
  813MPD2    H312026   3.666   2.254  12.098 -1.0375 -1.6457  1.5284
  813MPD2     N12027   3.592   2.394  12.532 -0.0588 -0.4079 -0.0633
  813MPD2    H512028   3.615   2.468  12.598 -2.3630  0.2724 -0.0304
  813MPD2    N112029   3.985   2.508  12.283  0.2392  0.7406 -0.5888
  813MPD2    H712030   4.016   2.559  12.365  1.2923  0.4446 -0.7998
  814MPD2     C12031   4.363   3.305  12.136 -0.5928 -0.2715  0.5723
  814MPD2    C112032   4.314   3.387  12.039  0.2350  0.1231  0.6005
  814MPD2    C212033   4.351   3.517  12.040 -0.8561 -0.2822 -0.2901
  814MPD2    C312034   4.441   3.566  12.133 -0.2888  0.2595  0.0805
  814MPD2    C412035   4.496   3.481  12.226  0.8983 -0.1368 -0.8776
  814MPD2    C512036   4.454   3.346  12.227 -0.1063  0.2551 -0.5177
  814MPD2     H12037   4.311   3.584  11.965  2.0108 -0.2931 -1.8413
  814MPD2    H112038   4.565   3.526  12.297 -0.8572  0.9518  0.1754
  814MPD2    H212039   4.338   3.200  12.133  0.4110 -0.5125  0.6856
  814MPD2    H312040   4.492   3.276  12.300 -1.0744  0.5273  0.2361
  814MPD2     N12041   4.479   3.703  12.127  0.3606  0.0646  0.0423
  814MPD2    H512042   4.558   3.724  12.186 -0.2752 -1.5273  1.4660
  814MPD2    N112043   4.244   3.343  11.925 -0.0513 -0.5333 -0.1035
  814MPD2    H712044   4.233   3.404  11.846 -1.3946 -1.6935 -0.8147
  815MPD2     C12045   0.094   2.151  11.855  0.2613  0.2019  0.8772
  815MPD2    C112046   0.006   2.076  11.780 -0.1645  0.1605  0.5233
  815MPD2    C212047   4.636   2.014  11.838 -0.0885 -0.1952 -0.2131
  815MPD2    C312048   4.603   2.044  11.973  0.7159  0.5706 -0.5986
  815MPD2    C412049   4.682   2.128  12.038 -0.7934  0.6418  0.3491
  815MPD2    C512050   0.065   2.174  11.983 -0.3359  0.5993  0.3341
  815MPD2     H12051   4.563   1.965  11.773 -1.4350  1.7317 -0.1507
  815MPD2    H112052   4.654   2.166  12.136 -0.5761  1.9635 -0.0994
  815MPD2    H212053   0.181   2.194  11.806  0.9592 -1.7089  0.4716
  815MPD2    H312054   0.135   2.238  12.036 -0.3048 -0.4789  1.5878
  815MPD2     N12055   4.476   1.997  12.017  0.0999  0.2588  1.0239
  815MPD2    H512056   4.431   1.946  11.942  1.7187 -0.7943  0.7799
  815MPD2    N112057   0.040   2.059  11.639 -0.1364 -0.4636 -0.1072
  815MPD2    H712058   0.137   2.080  11.614 -0.1588 -0.1627  0.0681
  816MPD2     C12059   0.362   1.316  17.281 -0.0928  1.3708 -0.2803
  816MPD2    C112060   0.276   1.281  17.178  0.1673  0.4208  0.2975
  816MPD2    C212061   0.330   1.219  17.059 -0.9759  0.7853 -0.4290
  816MPD2    C312062   0.463   1.193  17.059  0.6544 -0.0396  0.2652
  816MPD2    C412063   0.549   1.230  17.165 -0.8923  0.2394 -0.7908
  816MPD2    C512064   0.494   1.289  17.278 -1.4224 -0.4282  0.6636
  816MPD2     H12065   0.269   1.195  16.973  0.1431  0.0848 -1.0315
  816MPD2    H112066   0.657   1.227  17.161 -0.9688 -0.8983 -1.8990
  816MPD2    H212067   0.323   1.373  17.365 -0.4777 -1.6179  1.5772
  816MPD2    H312068   0.564   1.315  17.357 -0.0807  0.4300 -0.8059
  816MPD2     N12069   0.512   1.131  16.939 -0.0078  0.2202  0.1328
  816MPD2    H512070   0.443   1.119  16.865  1.2154 -1.0008 -0.8091
  816MPD2    N112071   0.142   1.311  17.191 -0.2119  0.8509 -0.0954
  816MPD2    H712072   0.111   1.365  17.271  2.2608 -0.0658  1.4544
  817MPD2     C12073   4.039   2.602   9.919  0.2136 -0.1821  0.4979
  817MPD2    C112074   4.062   2.714   9.988  0.1969 -0.2256  0.0371
  817MPD2    C212075   3.968   2.817   9.988 -0.3708  0.1054 -0.3296
  817MPD2    C312076   3.850   2.795   9.919  0.5018 -0.2195  0.1929
  817MPD2    C412077   3.830   2.674   9.859  0.2617  0.8407  0.3830
  817MPD2    C512078   3.927   2.586   9.847  0.1952 -0.2075 -0.0441
  817MPD2     H12079   3.980   2.908  10.045  0.9369 -1.5084  1.9960
  817MPD2    H112080   3.745   2.661   9.794  0.1666  1.3734  0.3967
  817MPD2    H212081   4.112   2.523   9.910 -0.0617 -0.3675 -0.0785
  817MPD2    H312082   3.915   2.495   9.790  1.1009 -0.0680 -0.4576
  817MPD2     N12083   3.767   2.911   9.893 -0.2436  0.0414 -0.7243
  817MPD2    H512084   3.790   3.001   9.936 -3.2412  1.7287 -2.6523
  817MPD2    N112085   4.184   2.737  10.045  0.1588 -0.3032  0.0274
  817MPD2    H712086   4.184   2.810  10.116 -2.6248  0.6331 -0.9504
  818MPD2     C12087   2.401   2.471   9.611 -0.1030  0.6609  0.0105
  818MPD2    C112088   2.456   2.452   9.737  0.7121 -0.0515  0.5029
  818MPD2    C212089   2.509   2.326   9.770  0.8392  0.2252  0.0515
  818MPD2    C312090   2.504   2.221   9.679 -0.7826 -0.1918  0.1300
  818MPD2    C412091   2.464   2.251   9.551  0.4257  0.6277  0.5044
  818MPD2    C512092   2.399   2.366   9.514  0.0219  0.2281  0.6563
  818MPD2     H12093   2.562   2.303   9.862 -0.1690  1.5105  0.9448
  818MPD2    H112094   2.481   2.181   9.470 -3.3978 -0.0591  0.2748
  818MPD2    H212095   2.360   2.563   9.570  2.3759  1.0068 -1.6874
  818MPD2    H312096   2.359   2.388   9.417  2.9349  0.7183 -0.4448
  818MPD2     N12097   2.560   2.097   9.701  0.2651  0.1431  0.0018
  818MPD2    H512098   2.570   2.034   9.622 -1.8530 -0.6182  0.3518
  818MPD2    N112099   2.467   2.557   9.831 -0.2413 -0.2989 -0.0051
  818MPD2    H712100   2.527   2.544   9.912  1.0239  2.7789 -0.4551
  819MPD2     C12101   1.480   4.495  15.354 -0.4911  0.0575  0.5426
  819MPD2    C112102   1.429   4.376  15.386  0.0055 -0.4946  0.4910
  819MPD2    C212103   1.501   4.300  15.472 -0.0295 -0.6505  1.2256
  819MPD2    C312104   1.622   4.344  15.526  0.2699 -0.3420  0.5687
  819MPD2    C412105   1.679   4.461  15.487  0.1458 -0.0640 -0.4288
  819MPD2    C512106   1.602   4.537  15.402 -0.0582  0.2944 -0.5699
  819MPD2     H12107   1.458   4.215  15.523  0.8092 -0.5848  2.0473
  819MPD2    H112108   1.775   4.501  15.518 -1.9529  1.8532  3.6354
  819MPD2    H212109   1.435   4.571  15.291  1.0638  0.3043 -0.2727
  819MPD2    H312110   1.649   4.630  15.374  0.0016  0.2021 -0.7738
  819MPD2     N12111   1.681   4.260  15.625  0.3231  0.0371 -0.2619
  819MPD2    H512112   1.627   4.181  15.659  3.3124 -1.4187  1.1228
  819MPD2    N112113   1.305   4.348  15.325  0.2617 -0.2255 -0.4410
  819MPD2    H712114   1.282   4.404  15.244  0.2189 -0.2957 -0.4774
  820MPD2     C12115   0.507   4.301  14.715  0.6715  0.2802  0.5794
  820MPD2    C112116   0.620   4.388  14.726 -0.1190  0.0352 -0.3854
  820MPD2    C212117   0.727   4.335  14.796  0.8073 -0.2569  0.4660
  820MPD2    C312118   0.731   4.209  14.841  0.0107 -0.3651 -1.1753
  820MPD2    C412119   0.618   4.131  14.830  0.0219 -1.2625  0.1017
  820MPD2    C512120   0.499   4.178  14.769  0.3724 -0.4954  0.4921
  820MPD2     H12121   0.818   4.392  14.807  1.0040 -0.7340  1.2548
  820MPD2    H112122   0.616   4.030  14.871 -0.3019 -0.8582  1.0873
  820MPD2    H212123   0.421   4.346  14.668  0.4334 -0.5165  0.2669
  820MPD2    H312124   0.411   4.116  14.761  1.2526 -1.6707 -0.1273
  820MPD2     N12125   0.840   4.155  14.913 -0.0386  0.2478  0.0434
  820MPD2    H512126   0.826   4.059  14.943 -0.0240  0.6894  1.4846
  820MPD2    N112127   0.610   4.517  14.677 -0.1839 -0.3219 -0.4997
  820MPD2    H712128   0.512   4.538  14.664 -0.0834 -0.8739 -2.1546
  821MPD2     C12129   0.966   1.149  12.865 -0.4854 -0.0022 -0.1740
  821MPD2    C112130   1.048   1.108  12.975  0.0239  0.1823 -0.5655
  821MPD2    C212131   1.177   1.150  12.975 -0.1348  0.6302  0.1902
  821MPD2    C312132   1.234   1.232  12.887 -0.5006 -0.5255  0.5792
  821MPD2    C412133   1.154   1.288  12.789  0.2033  0.8647  0.5493
  821MPD2    C512134   1.029   1.235  12.769 -0.1895 -0.0423 -0.8634
  821MPD2     H12135   1.241   1.130  13.060  0.8331 -2.2805 -1.2129
  821MPD2    H112136   1.200   1.356  12.718 -1.1362  1.9948  0.7887
  821MPD2    H212137   0.866   1.111  12.848 -0.9202 -0.5983  3.6338
  821MPD2    H312138   0.973   1.257  12.679 -1.0309  0.3075 -0.2478
  821MPD2     N12139   1.370   1.279  12.911  0.2983  0.1326 -0.3577
  821MPD2    H512140   1.402   1.361  12.862 -0.7862 -0.2881 -1.7832
  821MPD2    N112141   1.015   1.011  13.072 -1.0690  0.5599  0.1614
  821MPD2    H712142   1.090   0.983  13.134 -0.5754 -0.4260 -0.8932
  822MPD2     C12143   1.603   1.275  15.533 -0.3254  0.2181 -0.1944
  822MPD2    C112144   1.726   1.292  15.592  0.2393 -0.0655  0.5366
  822MPD2    C212145   1.736   1.373  15.703 -0.4052  0.3710  0.1260
  822MPD2    C312146   1.627   1.448  15.745  0.2997 -0.8081  0.1845
  822MPD2    C412147   1.507   1.426  15.684 -0.4811 -0.0110 -1.1673
  822MPD2    C512148   1.493   1.342  15.580 -0.4294 -0.4434  0.3907
  822MPD2     H12149   1.828   1.376  15.761 -1.2355  0.3883  1.4275
  822MPD2    H112150   1.422   1.487  15.712 -0.6723 -1.0362  0.4980
  822MPD2    H212151   1.587   1.191  15.466 -1.3221 -0.2355  0.6267
  822MPD2    H312152   1.396   1.304  15.550 -0.9473  1.3733 -0.2332
  822MPD2     N12153   1.642   1.530  15.862 -0.2474 -0.2676 -0.9073
  822MPD2    H512154   1.555   1.558  15.906  1.2133  0.5997  1.4243
  822MPD2    N112155   1.845   1.224  15.565  0.2350 -0.2938  0.5644
  822MPD2    H712156   1.916   1.224  15.638 -0.4262  0.9561  1.2087
  823MPD2     C12157   1.601   1.542  16.723 -0.2482 -0.2924  0.0691
  823MPD2    C112158   1.631   1.496  16.598 -0.2762 -0.0223 -0.3477
  823MPD2    C212159   1.636   1.358  16.585  0.2308 -0.0306 -0.0463
  823MPD2    C312160   1.617   1.264  16.686  0.2828  0.2180 -0.0007
  823MPD2    C412161   1.581   1.319  16.809  0.1613  0.2012  0.1548
  823MPD2    C512162   1.571   1.454  16.822 -0.4870 -0.5680  0.0244
  823MPD2     H12163   1.643   1.322  16.483 -1.3071 -1.7687  0.4610
  823MPD2    H112164   1.561   1.250  16.891 -1.5150  0.1549 -0.2994
  823MPD2    H212165   1.602   1.648  16.746  1.4626 -0.2637 -0.1944
  823MPD2    H312166   1.545   1.500  16.917  2.1809 -1.0463  1.0010
  823MPD2     N12167   1.631   1.124  16.667  0.0357  0.1250 -0.2157
  823MPD2    H512168   1.617   1.069  16.752  3.6620 -3.1878 -1.7800
  823MPD2    N112169   1.659   1.581  16.489 -0.4526  0.1944  0.2521
  823MPD2    H712170   1.690   1.676  16.504  1.9427 -0.4582 -0.5109
  824MPD2     C12171   2.101   0.401  15.299  0.0486  0.3460 -0.4775
  824MPD2    C112172   2.170   0.460  15.401  0.8350 -0.4473  0.8733
  824MPD2    C212173   2.271   0.387  15.457 -0.0977 -0.4084  0.4266
  824MPD2    C312174   2.289   0.255  15.421 -0.7212  0.3000 -0.6426
  824MPD2    C412175   2.216   0.197  15.325  0.5659 -0.1442  0.5243
  824MPD2    C512176   2.123   0.274  15.259 -0.2852  0.2234  0.2686
  824MPD2     H12177   2.338   0.420  15.535  2.3379 -0.1101 -1.8021
  824MPD2    H112178   2.229   0.100  15.279 -0.2292 -0.0415  0.0671
  824MPD2    H212179   2.021   0.451  15.245 -0.6632 -2.0300 -1.6036
  824MPD2    H312180   2.066   0.228  15.179 -0.4980  0.1868  0.4410
  824MPD2     N12181   2.384   0.186  15.491  0.3427 -0.5479  0.4115
  824MPD2    H512182   2.444   0.246  15.547  1.4642 -0.2754 -1.0921
  824MPD2    N112183   2.148   0.596  15.444  0.7428 -0.4666  0.7906
  824MPD2    H712184   2.210   0.619  15.520  0.3539  2.0531  0.3553
  825MPD2     C12185   3.167   0.199  15.794  0.1493 -0.5916 -0.2105
  825MPD2    C112186   3.074   0.244  15.705  0.0836 -0.2808  0.2315
  825MPD2    C212187   3.097   0.357  15.627 -0.0745 -0.7384 -0.2230
  825MPD2    C312188   3.213   0.428  15.649  0.1803  0.0611  0.1106
  825MPD2    C412189   3.310   0.384  15.735 -0.1541 -0.1847 -0.0313
  825MPD2    C512190   3.287   0.261  15.796  0.1693 -0.4683 -0.6720
  825MPD2     H12191   3.026   0.392  15.553  1.9573 -0.2772 -1.9438
  825MPD2    H112192   3.411   0.420  15.750  0.8254 -2.3569 -1.4974
  825MPD2    H212193   3.150   0.105  15.846  0.8030 -0.1968  0.7060
  825MPD2    H312194   3.360   0.228  15.869  1.8138 -0.9792 -2.5446
  825MPD2     N12195   3.243   0.556  15.603 -0.5428  0.3034  1.2012
  825MPD2    H512196   3.331   0.595  15.634 -1.0690  0.3137  2.6703
  825MPD2    N112197   2.960   0.155  15.694 -0.3013 -0.0556 -0.2326
  825MPD2    H712198   2.958   0.077  15.759  2.3466  1.5138  1.7285
  826MPD2     C12199   2.654   4.666  13.855 -0.6706 -0.0820 -0.8510
  826MPD2    C112200   2.682   0.002  13.741  0.2461  0.1189 -0.2073
  826MPD2    C212201   2.632   0.128  13.736  0.4149  0.7876  0.5207
  826MPD2    C312202   2.565   0.172  13.848  0.1388  0.0143  0.7441
  826MPD2    C412203   2.533   0.096  13.955  0.2249 -0.8162  0.3315
  826MPD2    C512204   2.581   4.708  13.964 -0.0419 -0.3793  0.4759
  826MPD2     H12205   2.665   0.192  13.655 -1.1591 -2.7035 -2.9374
  826MPD2    H112206   2.473   0.146  14.030  1.5024 -0.0446  0.8400
  826MPD2    H212207   2.694   4.566  13.865 -0.8882 -0.1321 -0.4826
  826MPD2    H312208   2.567   4.644  14.050 -0.8620 -1.8394 -0.7529
  826MPD2     N12209   2.525   0.302  13.859  0.1206  0.3844 -0.2312
  826MPD2    H512210   2.496   0.340  13.949 -1.1281  0.3504 -0.6310
  826MPD2    N112211   2.766   4.684  13.636  0.1191 -0.4288  0.3141
  826MPD2    H712212   2.800   4.590  13.656 -1.3459 -1.4086 -1.7525
  827MPD2     C12213   3.517   2.105  10.022 -0.2867  0.7137  0.0870
  827MPD2    C112214   3.556   1.982  10.078 -1.0232 -0.6934  0.4473
  827MPD2    C212215   3.496   1.859  10.044  0.2526 -0.5693  0.3475
  827MPD2    C312216   3.412   1.866   9.939 -0.8152 -0.6230 -0.0909
  827MPD2    C412217   3.363   1.987   9.891 -0.2102 -0.0290  0.6554
  827MPD2    C512218   3.416   2.103   9.934  0.0558  0.7862  0.3719
  827MPD2     H12219   3.520   1.764  10.090  1.9203  0.0275  0.7114
  827MPD2    H112220   3.296   1.986   9.806 -0.0864  0.4800  0.5505
  827MPD2    H212221   3.549   2.203  10.055 -0.3406  0.2480  1.5504
  827MPD2    H312222   3.381   2.197   9.894 -0.9498  0.0302 -0.5296
  827MPD2     N12223   3.363   1.740   9.894  0.1723  0.3594  0.2380
  827MPD2    H512224   3.417   1.659   9.922 -1.0964 -0.6449 -0.2416
  827MPD2    N112225   3.658   1.997  10.175 -0.1071  0.0626 -0.0587
  827MPD2    H712226   3.711   2.081  10.197  0.1144 -0.0417 -0.1973
  828MPD2     C12227   2.068   1.442  12.275 -0.3479 -0.5821 -0.4950
  828MPD2    C112228   2.004   1.515  12.177 -0.6424  0.2002  0.1788
  828MPD2    C212229   2.058   1.513  12.050 -0.4565  0.2288  0.0498
  828MPD2    C312230   2.163   1.439  12.017 -0.2759  0.1486 -0.0817
  828MPD2    C412231   2.245   1.390  12.116  0.1471 -0.1062  0.1442
  828MPD2    C512232   2.193   1.383  12.247 -0.5400  0.5188 -0.2143
  828MPD2     H12233   2.011   1.569  11.970  0.4695  0.6775 -0.1799
  828MPD2    H112234   2.343   1.345  12.097  0.6347  0.9781  0.0888
  828MPD2    H212235   2.018   1.447  12.371  1.8955 -1.2783  0.6999
  828MPD2    H312236   2.252   1.335  12.324 -2.3403  0.9282  1.4290
  828MPD2     N12237   2.201   1.431  11.881  0.1957 -0.3955 -0.8413
  828MPD2    H512238   2.287   1.381  11.866  0.9461  0.5790  0.2014
  828MPD2    N112239   1.885   1.588  12.188  0.0688  0.4938 -1.0347
  828MPD2    H712240   1.860   1.627  12.098 -0.6964 -0.1826 -1.1215
  829MPD2     C12241   1.551   2.415  11.831  0.2498 -0.4854 -0.1675
  829MPD2    C112242   1.651   2.326  11.797 -0.5566  0.5360  0.0017
  829MPD2    C212243   1.654   2.210  11.867 -0.2353 -0.2556 -0.3453
  829MPD2    C312244   1.572   2.189  11.982 -0.5163  0.3588 -0.0797
  829MPD2    C412245   1.488   2.288  12.011 -0.9186  0.0062  0.0013
  829MPD2    C512246   1.469   2.400  11.933  0.4014 -0.9119  0.3545
  829MPD2     H12247   1.713   2.130  11.824 -1.7357 -1.7043  0.2497
  829MPD2    H112248   1.408   2.269  12.083 -0.9331 -1.5733 -0.4317
  829MPD2    H212249   1.544   2.503  11.768 -0.7219 -1.2718 -1.1670
  829MPD2    H312250   1.384   2.467  11.944  0.7190 -0.4736  0.0837
  829MPD2     N12251   1.558   2.064  12.050 -0.0455 -0.1823  0.4144
  829MPD2    H512252   1.499   2.064  12.132 -0.7486  1.1904 -0.1067
  829MPD2    N112253   1.728   2.349  11.683  0.0616 -0.1013  0.1449
  829MPD2    H712254   1.693   2.417  11.616  2.0935 -0.3336 -1.1639
  830MPD2     C12255   1.557   3.886  15.481  1.1786 -0.2891  0.4698
  830MPD2    C112256   1.686   3.880  15.533 -0.5746  0.4777  0.3244
  830MPD2    C212257   1.782   3.955  15.473 -0.2527 -0.7128  0.5130
  830MPD2    C312258   1.760   4.046  15.374  0.7374 -0.2386 -0.2917
  830MPD2    C412259   1.631   4.059  15.332 -0.3689  0.4283  0.2873
  830MPD2    C512260   1.534   3.973  15.379 -0.2465  0.4834  0.8079
  830MPD2     H12261   1.876   3.957  15.527 -1.2739 -0.6994  2.3030
  830MPD2    H112262   1.603   4.137  15.263 -0.5944 -0.7577 -0.9571
  830MPD2    H212263   1.481   3.828  15.531 -0.6408 -1.3244 -3.4463
  830MPD2    H312264   1.441   3.992  15.326 -0.6773  1.5516  1.9517
  830MPD2     N12265   1.848   4.151  15.334  0.4605 -0.7329 -0.0098
  830MPD2    H512266   1.814   4.210  15.259  1.3463 -1.9708 -1.3664
  830MPD2    N112267   1.705   3.791  15.644 -0.0734 -0.2727  0.2890
  830MPD2    H712268   1.646   3.709  15.642  0.0784 -0.4026  1.0084
  831MPD2     C12269   2.070   1.362  16.233  0.2071 -0.2693 -0.1596
  831MPD2    C112270   2.083   1.317  16.100  0.5866 -1.0298  0.0258
  831MPD2    C212271   1.969   1.275  16.034  0.8488 -0.6232  0.0265
  831MPD2    C312272   1.843   1.261  16.098 -0.1660  0.0273 -0.7511
  831MPD2    C412273   1.838   1.291  16.230  0.0139 -0.1137  0.7008
  831MPD2    C512274   1.945   1.351  16.298 -0.6657 -0.8217  0.0620
  831MPD2     H12275   1.974   1.232  15.935 -0.2133 -0.3063 -0.1643
  831MPD2    H112276   1.745   1.268  16.280  0.0830 -0.0994  0.8375
  831MPD2    H212277   2.154   1.414  16.276  0.4927  0.6633 -1.8176
  831MPD2    H312278   1.923   1.384  16.398  1.1524 -1.6814  0.7423
  831MPD2     N12279   1.731   1.196  16.046  1.0153  0.1759 -0.1696
  831MPD2    H512280   1.650   1.186  16.106  0.6901 -2.4070 -1.0607
  831MPD2    N112281   2.205   1.297  16.032 -0.1684 -0.2405 -0.2119
  831MPD2    H712282   2.201   1.269  15.934 -1.1450 -1.1298  0.0843
  832MPD2     C12283   0.691   2.009  17.114 -0.1029  0.4064  0.0926
  832MPD2    C112284   0.670   2.140  17.073  0.1337 -0.5325  0.1206
  832MPD2    C212285   0.559   2.167  17.000  0.3010 -0.0514  0.0757
  832MPD2    C312286   0.465   2.064  16.979 -0.3606  0.5801  0.7148
  832MPD2    C412287   0.493   1.932  17.025 -0.3834 -0.6196  0.4301
  832MPD2    C512288   0.609   1.904  17.089 -0.3271 -0.6586  0.4723
  832MPD2     H12289   0.539   2.270  16.973 -1.8415 -0.7170 -0.8819
  832MPD2    H112290   0.416   1.857  17.009 -1.0244  0.3159 -0.9991
  832MPD2    H212291   0.779   1.990  17.175 -0.3635 -0.4967  0.1854
  832MPD2    H312292   0.632   1.800  17.110  1.3530 -0.1258  1.2994
  832MPD2     N12293   0.337   2.080  16.923 -0.5268 -0.0038  0.1630
  832MPD2    H512294   0.269   2.004  16.919  0.1229 -0.6833  2.0919
  832MPD2    N112295   0.762   2.240  17.115 -0.3024 -1.3355  0.0680
  832MPD2    H712296   0.822   2.221  17.195 -0.7391 -0.6322  0.5607
  833MPD2     C12297   2.680   4.566  11.972 -0.6897 -0.1494 -0.3240
  833MPD2    C112298   2.622   4.449  11.919  0.2680 -0.5535 -0.0602
  833MPD2    C212299   2.593   4.436  11.782 -0.1346  0.3689 -0.1061
  833MPD2    C312300   2.640   4.536  11.702  0.0477 -0.0803  1.0993
  833MPD2    C412301   2.696   4.646  11.751 -0.1156  0.4422 -0.5563
  833MPD2    C512302   2.713   4.665  11.887 -0.5559  0.0815 -0.0813
  833MPD2     H12303   2.562   4.341  11.742 -0.7212  0.7947 -0.6634
  833MPD2    H112304   2.723   4.726  11.683 -2.1005  0.6179 -1.1232
  833MPD2    H212305   2.709   4.572  12.077 -1.8691 -0.7783  0.0289
  833MPD2    H312306   2.770   0.018  11.910 -1.9094  0.4914  1.7040
  833MPD2     N12307   2.625   4.507  11.564  0.1903 -0.3337  0.8147
  833MPD2    H512308   2.580   4.420  11.536 -0.0922 -0.9860  3.3454
  833MPD2    N112309   2.606   4.346  12.007  0.4975  0.1608  0.5750
  833MPD2    H712310   2.589   4.381  12.101  2.1003 -0.0932  0.9674
  834MPD2     C12311   3.019   3.955  10.789 -0.2437 -0.0608  0.5614
  834MPD2    C112312   2.888   3.939  10.812  0.2167  0.8649  0.7693
  834MPD2    C212313   2.827   4.047  10.870  0.2322  0.7538 -0.3371
  834MPD2    C312314   2.896   4.142  10.933  0.3303 -0.4433  0.2352
  834MPD2    C412315   3.032   4.146  10.930  0.7086 -0.0611  0.1179
  834MPD2    C512316   3.097   4.054  10.853 -0.4997 -0.2773  0.0609
  834MPD2     H12317   2.719   4.051  10.878  0.3753  1.6354  1.0762
  834MPD2    H112318   3.090   4.223  10.981  1.3110 -0.5332  0.1450
  834MPD2    H212319   3.088   3.887  10.741 -1.3743 -1.8841  1.5100
  834MPD2    H312320   3.203   4.048  10.831 -0.6374  0.0962 -0.7103
  834MPD2     N12321   2.818   4.221  11.017 -0.2254 -0.1621  0.3440
  834MPD2    H512322   2.718   4.204  11.019 -0.0292 -1.3213  0.4140
  834MPD2    N112323   2.820   3.823  10.777  0.1435 -0.6046  1.2822
  834MPD2    H712324   2.875   3.743  10.748  0.3371 -1.0467  2.8710
  835MPD2     C12325   2.729   2.304  10.864  0.0866  0.1786 -0.0642
  835MPD2    C112326   2.619   2.229  10.886  0.0275 -0.2752 -0.4758
  835MPD2    C212327   2.635   2.124  10.968  0.9089 -0.3679 -0.2071
  835MPD2    C312328   2.751   2.098  11.041 -0.3030 -0.8228  0.1950
  835MPD2    C412329   2.859   2.180  11.016 -0.1462  0.1420 -0.2245
  835MPD2    C512330   2.853   2.281  10.927 -0.1706 -0.4620  0.3247
  835MPD2     H12331   2.546   2.062  10.979  1.1956 -0.7764 -0.2163
  835MPD2    H112332   2.950   2.166  11.073 -0.9308  0.1685  1.0396
  835MPD2    H212333   2.723   2.390  10.797 -1.6011  0.3234  0.2549
  835MPD2    H312334   2.939   2.341  10.899 -0.9398  0.4669 -0.0322
  835MPD2     N12335   2.756   2.008  11.150  0.0888 -0.1732 -0.1734
  835MPD2    H512336   2.838   2.010  11.210  1.4742  2.9450 -2.1668
  835MPD2    N112337   2.491   2.253  10.823 -0.3026  0.1365  0.2971
  835MPD2    H712338   2.412   2.190  10.837 -0.2577  0.3902  1.6713
  836MPD2     C12339   2.151   1.888  11.518 -0.9908  0.2158  0.7123
  836MPD2    C112340   2.240   1.905  11.617 -0.8475 -0.2070 -0.3119
  836MPD2    C212341   2.185   1.933  11.742 -0.7645  0.4150 -0.0862
  836MPD2    C312342   2.048   1.943  11.770  0.1809 -0.2898  0.8483
  836MPD2    C412343   1.968   1.920  11.662 -0.1371 -0.2595 -0.8412
  836MPD2    C512344   2.018   1.885  11.542 -0.3404 -0.4292  0.4696
  836MPD2     H12345   2.258   1.938  11.822 -1.0330 -0.4057  0.2087
  836MPD2    H112346   1.860   1.917  11.670 -0.0729  1.3206  0.7218
  836MPD2    H212347   2.181   1.878  11.414  2.5669 -0.0027  1.7613
  836MPD2    H312348   1.944   1.861  11.466 -0.9825 -0.1636  1.0057
  836MPD2     N12349   1.989   1.979  11.896  0.2940 -1.0742 -0.4876
  836MPD2    H512350   1.888   1.992  11.900  0.3093 -0.7825 -1.1110
  836MPD2    N112351   2.373   1.906  11.582  0.1537 -0.9743 -0.0331
  836MPD2    H712352   2.387   1.901  11.481 -0.4244  1.2897 -0.2207
  837MPD2     C12353   1.579   1.421   9.402 -0.4337  0.4847 -0.0402
  837MPD2    C112354   1.457   1.360   9.430  0.0364 -0.4715  0.3175
  837MPD2    C212355   1.357   1.435   9.481  0.0985  0.1949 -0.0789
  837MPD2    C312356   1.371   1.569   9.516 -0.0075  0.1356 -0.2554
  837MPD2    C412357   1.497   1.627   9.505 -0.5265 -0.1867  0.3912
  837MPD2    C512358   1.600   1.554   9.447  0.2088  0.1499 -0.5407
  837MPD2     H12359   1.258   1.392   9.496  0.8523 -0.3319  3.3093
  837MPD2    H112360   1.523   1.722   9.551 -2.4787  1.2731 -1.5359
  837MPD2    H212361   1.667   1.372   9.362  0.6296  2.0145  0.4439
  837MPD2    H312362   1.699   1.595   9.426 -0.0743 -0.1544 -2.5199
  837MPD2     N12363   1.256   1.639   9.558  0.2450 -0.3072 -0.6133
  837MPD2    H512364   1.171   1.587   9.578  1.4702 -2.5336 -1.2053
  837MPD2    N112365   1.430   1.216   9.418  0.4046 -0.2341 -0.2590
  837MPD2    H712366   1.338   1.185   9.447  1.1613  0.1636  2.5403
  838MPD2     C12367   4.261   0.168  11.269 -0.0098 -0.1520 -0.2380
  838MPD2    C112368   4.297   0.039  11.241  0.2122 -0.1538 -0.0872
  838MPD2    C212369   4.223   4.674  11.294  0.6295  0.6451 -0.1750
  838MPD2    C312370   4.110   4.695  11.370  0.3401  0.6223  0.3739
  838MPD2    C412371   4.069   0.092  11.402 -0.4497 -0.9687 -0.7827
  838MPD2    C512372   4.145   0.193  11.341  0.3869  0.4559 -0.8371
  838MPD2     H12373   4.252   4.575  11.261  0.4759  2.2278 -5.0668
  838MPD2    H112374   3.992   0.112  11.475 -1.5747 -1.9156 -1.6923
  838MPD2    H212375   4.329   0.249  11.245  2.1889 -1.7240  0.7877
  838MPD2    H312376   4.109   0.292  11.368  1.6262  0.8301 -0.5634
  838MPD2     N12377   4.045   4.580  11.425  0.4105  0.0934  0.4724
  838MPD2    H512378   3.967   4.600  11.487 -0.9125  2.2348 -1.8775
  838MPD2    N112379   4.420   0.000  11.189  0.0224  0.7894 -0.6656
  838MPD2    H712380   4.435   4.637  11.189  1.0976  0.9590  0.2532
  839MPD2     C12381   4.378   4.135  11.566 -0.1174 -0.4638 -0.2352
  839MPD2    C112382   4.371   4.113  11.434 -0.6422  1.4717  1.1994
  839MPD2    C212383   4.438   4.205  11.352  0.2412 -0.3289  0.3057
  839MPD2    C312384   4.503   4.322  11.400  0.3407 -0.7726  0.5645
  839MPD2    C412385   4.487   4.351  11.538  0.5862 -0.4412  0.3486
  839MPD2    C512386   4.423   4.254  11.612 -1.0581 -1.0442  0.3534
  839MPD2     H12387   4.447   4.205  11.244  0.0680 -3.4197  0.2802
  839MPD2    H112388   4.539   4.435  11.581  1.5189 -1.9593  2.2079
  839MPD2    H212389   4.329   4.064  11.633 -2.0543 -1.1713 -2.4033
  839MPD2    H312390   4.400   4.273  11.717 -0.1077 -1.2993  0.6066
  839MPD2     N12391   4.578   4.416  11.317  0.5098 -0.4384 -0.4934
  839MPD2    H512392   4.608   4.497  11.370 -0.3020 -1.5634  1.7158
  839MPD2    N112393   4.307   4.003  11.373 -0.0633  0.1563  0.2242
  839MPD2    H712394   4.304   4.007  11.272  2.7794 -1.1309  0.0769
  840MPD2     C12395   4.255   2.284  10.133  0.0546  0.0905  0.4359
  840MPD2    C112396   4.224   2.236  10.259  0.2618 -0.1268 -0.2006
  840MPD2    C212397   4.332   2.232  10.348 -0.6014  0.0454  0.4614
  840MPD2    C312398   4.456   2.283  10.313  0.1228  0.4261  0.6399
  840MPD2    C412399   4.477   2.331  10.190  0.4393 -0.2280 -1.0382
  840MPD2    C512400   4.375   2.328  10.095  0.6170 -0.4196  0.1607
  840MPD2     H12401   4.326   2.184  10.444  0.6652 -0.4458  0.2952
  840MPD2    H112402   4.575   2.366  10.157  0.9477 -0.3626  0.3475
  840MPD2    H212403   4.178   2.285  10.057  0.0193 -0.1822  0.4667
  840MPD2    H312404   4.403   2.363   9.996  0.1816 -1.0484 -0.1791
  840MPD2     N12405   4.568   2.282  10.392 -0.2079  0.0086  0.2783
  840MPD2    H512406   4.652   2.316  10.346 -0.8641 -0.7918 -1.5266
  840MPD2    N112407   4.091   2.190  10.297 -0.3046  0.4236  0.2982
  840MPD2    H712408   4.021   2.161  10.230 -1.0024  1.0156  0.7749
  841MPD2     C12409   3.793   1.219  15.395  0.4279 -0.7047  0.7263
  841MPD2    C112410   3.828   1.204  15.262  0.0266 -0.1631  0.5302
  841MPD2    C212411   3.813   1.309  15.179  0.8802  0.2870 -0.0274
  841MPD2    C312412   3.790   1.437  15.233 -0.8931 -0.3297 -0.2055
  841MPD2    C412413   3.773   1.454  15.369 -0.3287 -0.3218  0.5090
  841MPD2    C512414   3.777   1.346  15.444  0.1086  0.7239 -0.3553
  841MPD2     H12415   3.833   1.299  15.073  1.4565  1.5785 -0.0426
  841MPD2    H112416   3.750   1.548  15.417  0.0641  0.3290 -0.5694
  841MPD2    H212417   3.794   1.137  15.465 -0.7960 -0.3060  1.2003
  841MPD2    H312418   3.749   1.355  15.549 -0.3970 -0.2973 -0.3945
  841MPD2     N12419   3.788   1.541  15.137 -0.5300  0.5198  0.4340
  841MPD2    H512420   3.793   1.502  15.044  0.5433 -1.1447  1.1926
  841MPD2    N112421   3.863   1.077  15.206  0.3528 -0.1154  0.0774
  841MPD2    H712422   3.868   1.081  15.105  1.8517 -0.2398  0.1425
  842MPD2     C12423   4.559   2.453  16.776 -0.1711 -0.0135  0.2049
  842MPD2    C112424   4.432   2.427  16.830 -0.4306  0.4311 -0.1326
  842MPD2    C212425   4.428   2.419  16.967 -0.1697  0.7701 -0.1369
  842MPD2    C312426   4.539   2.443  17.044 -0.4078 -0.1361 -0.1508
  842MPD2    C412427   4.664   2.460  16.989  0.5749  0.0188  0.1762
  842MPD2    C512428   4.673   2.455  16.854  0.0117 -0.0844 -0.0148
  842MPD2     H12429   4.331   2.432  17.013 -0.4115  0.8708 -0.6745
  842MPD2    H112430   0.018   2.462  17.049  1.8310  0.7651 -1.7396
  842MPD2    H212431   4.583   2.457  16.670  2.8344  1.9034  0.9651
  842MPD2    H312432   0.032   2.459  16.803  0.9426 -1.5714  1.6447
  842MPD2     N12433   4.528   2.445  17.183 -0.0247  0.6283 -0.5293
  842MPD2    H512434   4.610   2.475  17.236  1.3113 -1.5550 -1.3858
  842MPD2    N112435   4.317   2.432  16.746  0.3590  0.0185 -0.4724
  842MPD2    H712436   4.323   2.457  16.648  1.4423 -1.3256 -0.7452
  843MPD2     C12437   2.046   3.149   0.514 -0.4002 -0.6548 -0.4755
  843MPD2    C112438   2.179   3.175   0.504 -0.3805  0.2669 -0.6418
  843MPD2    C212439   2.234   3.252   0.404  0.3931 -0.6036 -0.1881
  843MPD2    C312440   2.148   3.298   0.307 -0.1112 -0.6252 -0.0090
  843MPD2    C412441   2.013   3.273   0.318  0.0104 -0.3060  0.4186
  843MPD2    C512442   1.964   3.193   0.418  0.2928  0.7206  0.4632
  843MPD2     H12443   2.340   3.267   0.393  0.5253 -2.1207 -1.0244
  843MPD2    H112444   1.942   3.308   0.243 -0.3863 -0.0477  0.9153
  843MPD2    H212445   2.011   3.089   0.597  0.6462  0.5278  0.8339
  843MPD2    H312446   1.856   3.185   0.425  0.0490  1.5933 -2.6502
  843MPD2     N12447   2.197   3.367   0.190  0.1792  0.0561 -0.4406
  843MPD2    H512448   2.134   3.378   0.111 -0.4327  2.3803  0.3585
  843MPD2    N112449   2.255   3.109   0.605  0.1798  0.2183 -0.5309
  843MPD2    H712450   2.198   3.069   0.678  1.2440 -0.8610 -0.2976
  844MPD2     C12451   0.604   2.006  16.533  0.4094 -0.0157  0.7840
  844MPD2    C112452   0.666   2.058  16.417 -0.0473  0.1108 -0.1147
  844MPD2    C212453   0.723   2.175  16.421  0.3848 -0.0991  0.2969
  844MPD2    C312454   0.734   2.260  16.533 -0.9570  0.2243  0.0897
  844MPD2    C412455   0.669   2.213  16.653  0.2258 -0.3126  0.8343
  844MPD2    C512456   0.604   2.088  16.640 -0.5227  0.0909 -0.3948
  844MPD2     H12457   0.778   2.216  16.337 -1.2050  0.9355 -0.2249
  844MPD2    H112458   0.663   2.279  16.739  1.4853 -0.9844  1.4353
  844MPD2    H212459   0.560   1.907  16.534 -0.4372  0.3371 -1.2970
  844MPD2    H312460   0.559   2.052  16.732 -1.1757 -0.1915 -0.8273
  844MPD2     N12461   0.811   2.382  16.527  0.1406 -0.5730 -0.5751
  844MPD2    H512462   0.866   2.396  16.443  1.9699  2.2835  1.1104
  844MPD2    N112463   0.661   1.997  16.288  0.2429  0.1612  0.3378
  844MPD2    H712464   0.683   2.051  16.205 -0.2332  1.2061  0.9029
  845MPD2     C12465   0.734   3.320  16.876  0.3758 -0.7006 -0.1303
  845MPD2    C112466   0.643   3.217  16.895  0.8352  0.0691 -0.4873
  845MPD2    C212467   0.692   3.092  16.876 -0.1941  0.6295 -0.2353
  845MPD2    C312468   0.814   3.064  16.836  0.2317  0.1245 -0.3538
  845MPD2    C412469   0.903   3.170  16.807  0.2427  0.1876  0.3656
  845MPD2    C512470   0.859   3.300  16.836 -0.1491  0.0014  0.0633
  845MPD2     H12471   0.631   3.006  16.903  1.3218 -1.0901 -2.3689
  845MPD2    H112472   1.000   3.156  16.759 -0.5734  0.3987 -1.3381
  845MPD2    H212473   0.702   3.423  16.885 -0.4440 -1.0921  1.5410
  845MPD2    H312474   0.936   3.376  16.831 -1.0269  0.9409  0.8399
  845MPD2     N12475   0.843   2.929  16.812  0.0515 -0.2549  0.3601
  845MPD2    H512476   0.763   2.867  16.819 -0.0276 -0.1508  0.3599
  845MPD2    N112477   0.514   3.246  16.943  0.2175  0.1963 -0.5286
  845MPD2    H712478   0.495   3.345  16.944 -3.9293 -0.6627  2.3466
  846MPD2     C12479   1.946   3.368  13.872  0.4073 -0.4112  0.0177
  846MPD2    C112480   1.883   3.398  13.759  0.7080 -0.7878  0.0827
  846MPD2    C212481   1.757   3.460  13.761 -0.4443 -0.4348  0.3861
  846MPD2    C312482   1.700   3.493  13.885 -0.3167  0.2659 -0.6223
  846MPD2    C412483   1.769   3.474  13.998 -0.1425  0.6347 -0.2604
  846MPD2    C512484   1.896   3.422  13.989 -0.2740  0.0735  0.8102
  846MPD2     H12485   1.702   3.484  13.670  0.6853  0.8305  0.0254
  846MPD2    H112486   1.744   3.503  14.099  0.7736  0.7437 -0.0618
  846MPD2    H212487   2.044   3.322  13.874  0.4575 -0.3929 -1.7791
  846MPD2    H312488   1.960   3.426  14.077  1.8267  0.4215 -0.7161
  846MPD2     N12489   1.576   3.552  13.879 -0.1969  0.8894  0.4171
  846MPD2    H512490   1.529   3.537  13.790  2.4857  1.5566 -1.1353
  846MPD2    N112491   1.955   3.357  13.645  0.5068  0.3932 -0.3627
  846MPD2    H712492   2.051   3.327  13.658 -0.7904 -2.9126  1.6383
  847MPD2     C12493   1.324   4.426  14.631  0.3891 -0.6380  0.5717
  847MPD2    C112494   1.441   4.350  14.635 -0.9993 -0.9301  0.4171
  847MPD2    C212495   1.439   4.218  14.673 -0.2328  0.4616 -0.2848
  847MPD2    C312496   1.322   4.147  14.697  0.4787  0.0071  0.5247
  847MPD2    C412497   1.207   4.229  14.695  0.4212  0.3931 -0.4442
  847MPD2    C512498   1.208   4.365  14.665 -0.1352  0.4410 -0.0708
  847MPD2     H12499   1.535   4.169  14.681 -0.4414 -0.1874 -1.7989
  847MPD2    H112500   1.113   4.177  14.708 -0.9044  2.6921 -0.8212
  847MPD2    H212501   1.313   4.531  14.604  1.5754 -0.5324  0.5270
  847MPD2    H312502   1.114   4.419  14.660  0.3153  0.9285 -3.1833
  847MPD2     N12503   1.307   4.011  14.738  0.1896  0.6561  0.3513
  847MPD2    H512504   1.218   3.973  14.769  1.4732 -2.0709  0.7047
  847MPD2    N112505   1.567   4.395  14.601  0.4692 -0.2890  0.4405
  847MPD2    H712506   1.645   4.330  14.601 -0.2177 -1.1189  1.0356
  848MPD2     C12507   0.083   2.292  16.156  0.5846 -0.0139 -0.0390
  848MPD2    C112508   0.087   2.380  16.267  0.0215 -0.1580 -0.5468
  848MPD2    C212509   0.064   2.519  16.237  0.3903  0.0494 -1.2068
  848MPD2    C312510   0.049   2.568  16.104 -0.2687 -0.2145 -0.0824
  848MPD2    C412511   0.047   2.472  16.006  0.7328 -0.7665  0.0850
  848MPD2    C512512   0.067   2.340  16.025 -0.0412  0.1415 -0.0129
  848MPD2     H12513   0.059   2.587  16.321 -0.8831 -2.2767  0.6207
  848MPD2    H112514   0.034   2.487  15.899 -0.4059 -0.4887  0.2572
  848MPD2    H212515   0.092   2.185  16.172  0.7963 -0.0851 -0.6276
  848MPD2    H312516   0.054   2.268  15.945 -2.2326 -1.7600  2.0185
  848MPD2     N12517   0.023   2.700  16.077  0.2653  0.3942 -0.4521
  848MPD2    H512518   4.734   2.709  15.979 -2.8093  0.0580  0.3289
  848MPD2    N112519   0.091   2.342  16.403 -0.0612 -0.5722 -0.6713
  848MPD2    H712520   0.077   2.416  16.471 -0.7317 -1.6276  0.3270
  849MPD2     C12521   3.703   2.315  13.799 -0.5787 -1.0021 -0.0415
  849MPD2    C112522   3.820   2.345  13.739  0.1546  1.0091  0.3527
  849MPD2    C212523   3.927   2.279  13.796  0.2582 -0.5265  0.2492
  849MPD2    C312524   3.925   2.199  13.905  0.2483 -0.8232  0.0460
  849MPD2    C412525   3.803   2.184  13.965 -0.2654 -0.4339  0.1509
  849MPD2    C512526   3.691   2.247  13.919  0.1016 -0.0503 -0.2444
  849MPD2     H12527   4.022   2.278  13.743 -0.6879  0.2723 -1.4628
  849MPD2    H112528   3.786   2.128  14.056  0.0160 -2.5431 -1.0733
  849MPD2    H212529   3.614   2.367  13.766 -0.8081 -0.6818  1.0892
  849MPD2    H312530   3.599   2.236  13.974 -0.2168  4.0718  0.0440
  849MPD2     N12531   4.048   2.140  13.946 -0.1598  0.8078 -0.3317
  849MPD2    H512532   4.130   2.163  13.891 -0.4383  0.3370 -0.9423
  849MPD2    N112533   3.822   2.430  13.624 -0.0540 -0.0627 -0.2591
  849MPD2    H712534   3.733   2.467  13.592 -0.7125  0.8969  2.7151
  850MPD2     C12535   2.147   4.704  14.845 -0.4903 -1.4121 -0.7121
  850MPD2    C112536   2.150   0.104  14.872  0.7133 -0.1218 -0.2671
  850MPD2    C212537   2.260   0.169  14.931  0.7566 -0.0422  0.3885
  850MPD2    C312538   2.369   0.097  14.979  0.5510 -0.6685  0.0586
  850MPD2    C412539   2.370   4.700  14.953 -0.0893  0.1715 -0.3929
  850MPD2    C512540   2.262   4.638  14.882 -0.7297  0.7687  0.4823
  850MPD2     H12541   2.249   0.276  14.941 -0.7783 -0.5016  3.7758
  850MPD2    H112542   2.465   4.651  14.972 -0.2389  0.9979  2.6198
  850MPD2    H212543   2.070   4.655  14.787  0.2397 -0.3461 -2.6044
  850MPD2    H312544   2.281   4.533  14.861  0.3701  1.1312 -0.3304
  850MPD2     N12545   2.478   0.155  15.051 -0.2629  1.0508 -0.3581
  850MPD2    H512546   2.550   0.095  15.091  0.1623  1.2997 -0.7526
  850MPD2    N112547   2.032   0.189  14.863 -0.5255  0.3004  0.6532
  850MPD2    H712548   2.044   0.285  14.895  0.2499  0.2999  0.3747
  851MPD2     C12549   1.749   0.318  15.425  0.4386 -0.0157 -0.2972
  851MPD2    C112550   1.728   0.256  15.307 -0.2928  0.2912 -0.8645
  851MPD2    C212551   1.785   0.133  15.296  0.2308 -0.1297  0.1726
  851MPD2    C312552   1.863   0.072  15.389 -0.1975 -0.0455 -0.3752
  851MPD2    C412553   1.885   0.142  15.509 -0.2195  0.3055  0.1659
  851MPD2    C512554   1.828   0.263  15.526  0.3718  0.4027  0.7430
  851MPD2     H12555   1.774   0.073  15.206 -1.5918  2.5016 -1.3762
  851MPD2    H112556   1.961   0.105  15.577  0.4482  0.0353 -0.7376
  851MPD2    H212557   1.698   0.412  15.441  0.1325  0.2661 -3.0668
  851MPD2    H312558   1.849   0.328  15.610  0.2254  1.8774 -0.3630
  851MPD2     N12559   1.925   4.690  15.357  0.5530  0.9053 -0.4814
  851MPD2    H512560   1.915   4.648  15.266  1.1816  3.0590 -1.5561
  851MPD2    N112561   1.681   0.319  15.193  0.6078 -0.3392  0.6233
  851MPD2    H712562   1.660   0.418  15.203  0.3176 -0.4906  1.5196
  852MPD2     C12563   2.121   3.065   9.736  0.1530 -1.0145  0.3991
  852MPD2    C112564   2.174   3.067   9.860  0.6098  0.4872  0.1604
  852MPD2    C212565   2.269   3.167   9.889  0.2162 -0.0328 -0.6370
  852MPD2    C312566   2.307   3.266   9.790 -0.3501  0.6408 -1.1818
  852MPD2    C412567   2.251   3.259   9.666 -0.5549  0.0063 -0.4006
  852MPD2    C512568   2.152   3.162   9.643 -0.4152  0.3271 -0.1774
  852MPD2     H12569   2.309   3.186   9.988  2.0514  0.0891 -1.4040
  852MPD2    H112570   2.262   3.345   9.601  0.5084  0.4723  0.3817
  852MPD2    H212571   2.046   2.990   9.710 -0.5674 -0.8664  2.0424
  852MPD2    H312572   2.091   3.161   9.553  1.1873 -1.5531 -1.2667
  852MPD2     N12573   2.403   3.353   9.835 -0.1786  0.0798  0.3266
  852MPD2    H512574   2.424   3.352   9.934 -2.4838  1.3248  0.8400
  852MPD2    N112575   2.134   2.969   9.959  0.2628 -0.0971 -0.3127
  852MPD2    H712576   2.184   2.970  10.047  2.1938 -0.4556 -1.4270
  853MPD2     C12577   3.755   3.826  12.214  0.9040 -0.6187 -0.2430
  853MPD2    C112578   3.719   3.695  12.231  0.0980 -0.1264  0.5213
  853MPD2    C212579   3.668   3.620  12.123  0.0513  0.0051  0.1159
  853MPD2    C312580   3.649   3.678  12.000 -0.4455 -0.3822 -0.0311
  853MPD2    C412581   3.684   3.814  11.980  0.2147  0.7405 -0.1080
  853MPD2    C512582   3.734   3.889  12.086 -0.4307 -0.1315  0.8035
  853MPD2     H12583   3.659   3.513  12.140  0.9530 -0.4013 -1.9980
  853MPD2    H112584   3.673   3.865  11.885 -0.4624 -0.0933 -0.4767
  853MPD2    H212585   3.791   3.899  12.285  0.4682 -0.6364 -0.0032
  853MPD2    H312586   3.774   3.988  12.071 -2.1558  0.5349  0.7159
  853MPD2     N12587   3.585   3.612  11.887 -0.1863 -0.2216 -0.8161
  853MPD2    H512588   3.582   3.656  11.795 -1.3039  0.1164 -0.6154
  853MPD2    N112589   3.734   3.639  12.361  0.1911  0.5944  0.7024
  853MPD2    H712590   3.753   3.714  12.427 -0.7982  0.2139  1.4194
  854MPD2     C12591   0.152   3.346  12.904 -0.2358 -0.2791  0.1052
  854MPD2    C112592   0.172   3.288  12.786  0.6425 -0.4577 -0.2511
  854MPD2    C212593   0.181   3.149  12.779  0.0293 -0.3275  0.4695
  854MPD2    C312594   0.198   3.077  12.898 -0.4272 -0.8306 -0.1758
  854MPD2    C412595   0.189   3.149  13.014  0.6368  0.4576  0.2092
  854MPD2    C512596   0.175   3.278  13.018  0.1532 -0.5284 -0.3423
  854MPD2     H12597   0.163   3.105  12.681  1.0576  0.9575 -0.2926
  854MPD2    H112598   0.208   3.099  13.108 -0.2489  1.6047  1.0089
  854MPD2    H212599   0.132   3.453  12.911  0.7622 -0.0288 -0.8984
  854MPD2    H312600   0.183   3.324  13.116  4.9974  1.9130 -1.9059
  854MPD2     N12601   0.211   2.933  12.906 -0.8658  0.0525  0.5088
  854MPD2    H512602   0.210   2.896  13.001 -2.6980 -0.6055  0.2286
  854MPD2    N112603   0.183   3.377  12.676  0.1917 -0.1763 -0.1823
  854MPD2    H712604   0.173   3.475  12.698  1.4487 -0.6330  2.4436
  855MPD2     C12605   0.240   2.480  13.656  0.0119  0.4004 -0.1436
  855MPD2    C112606   0.319   2.404  13.567  0.0044 -0.0162 -0.5363
  855MPD2    C212607   0.304   2.426  13.430  0.5222  0.0612 -0.1413
  855MPD2    C312608   0.228   2.532  13.385  0.2445 -0.0586  0.2064
  855MPD2    C412609   0.139   2.594  13.471 -0.1757  0.6024 -0.0435
  855MPD2    C512610   0.146   2.569  13.605  0.9997 -0.4432  0.2194
  855MPD2     H12611   0.357   2.354  13.368 -1.5218  1.9111 -4.0223
  855MPD2    H112612   0.067   2.672  13.447  0.0423  0.8033 -0.0467
  855MPD2    H212613   0.237   2.469  13.764  0.4421 -0.1829 -0.1919
  855MPD2    H312614   0.073   2.619  13.668  2.4151  0.7559  0.9001
  855MPD2     N12615   0.215   2.562  13.245 -0.4184  0.3105 -0.0415
  855MPD2    H512616   0.141   2.622  13.209 -2.1717 -2.6064 -1.3681
  855MPD2    N112617   0.404   2.292  13.600 -0.4643 -0.0664 -0.5002
  855MPD2    H712618   0.457   2.245  13.527 -1.4039  1.8658 -2.4249
  856MPD2     C12619   3.650   2.860  13.889  0.4885 -0.1835 -0.1349
  856MPD2    C112620   3.628   2.991  13.907  0.5247 -0.1425  0.3957
  856MPD2    C212621   3.506   3.045  13.869  0.0907  0.0940  0.3186
  856MPD2    C312622   3.404   2.959  13.830 -0.6352  0.1105 -0.0769
  856MPD2    C412623   3.429   2.828  13.807 -0.2013 -0.1447 -0.3331
  856MPD2    C512624   3.555   2.776  13.838  0.0186  0.2914  0.3468
  856MPD2     H12625   3.487   3.152  13.870  0.9379  0.2367  1.4980
  856MPD2    H112626   3.365   2.764  13.748 -0.5842  0.0903 -0.1724
  856MPD2    H212627   3.742   2.813  13.921  1.0967  1.0321 -0.1236
  856MPD2    H312628   3.588   2.673  13.828 -2.0453 -0.4211  0.9916
  856MPD2     N12629   3.269   2.997  13.820  0.2792 -0.0594 -0.3347
  856MPD2    H512630   3.208   2.922  13.786  1.7130 -1.4444  0.1509
  856MPD2    N112631   3.731   3.085  13.942 -0.0368  0.6783 -0.1182
  856MPD2    H712632   3.703   3.180  13.919  0.2097  0.9120  0.5495
  857MPD2     C12633   0.051   1.663  11.984 -0.0379 -0.2095 -0.2778
  857MPD2    C112634   4.703   1.644  12.093  0.0547 -0.1144 -0.0529
  857MPD2    C212635   4.725   1.733  12.200  0.2515  0.0799  0.3552
  857MPD2    C312636   0.074   1.839  12.184 -0.4548 -0.2480 -0.0231
  857MPD2    C412637   0.151   1.862  12.072 -0.8497  0.8626 -0.2091
  857MPD2    C512638   0.133   1.771  11.976  0.8527  0.6877  0.5499
  857MPD2     H12639   4.668   1.712  12.290  0.8162 -1.6155  0.3132
  857MPD2    H112640   0.209   1.952  12.050 -1.0158 -0.0024 -4.3013
  857MPD2    H212641   0.041   1.601  11.895  0.2506 -0.2129 -0.3070
  857MPD2    H312642   0.182   1.788  11.880 -0.2506  1.8911  0.1992
  857MPD2     N12643   0.082   1.929  12.287  0.6084 -0.2491 -0.5223
  857MPD2    H512644   0.004   1.927  12.352  0.5596  2.1398 -0.5248
  857MPD2    N112645   4.611   1.533  12.097 -0.1495 -0.2551  0.4453
  857MPD2    H712646   4.607   1.483  12.009  0.5261  0.5911 -0.0784
  858MPD2     C12647   0.104   0.129  16.492 -0.6007  0.6885 -0.2248
  858MPD2    C112648   0.241   0.125  16.480 -0.1158 -0.7372 -0.9961
  858MPD2    C212649   0.318   0.181  16.573 -0.5513 -0.0378 -0.0971
  858MPD2    C312650   0.271   0.255  16.680 -0.5273 -0.2920 -0.1750
  858MPD2    C412651   0.135   0.264  16.691  0.2617  0.3232 -0.1413
  858MPD2    C512652   0.052   0.203  16.596 -0.0757  0.0027  0.9751
  858MPD2     H12653   0.426   0.167  16.566 -0.9483 -2.0321 -1.9203
  858MPD2    H112654   0.089   0.325  16.767 -0.8188 -0.9578  0.2295
  858MPD2    H212655   0.042   0.081  16.418 -0.2690 -1.9744  1.2375
  858MPD2    H312656   4.681   0.218  16.601  0.0007  1.0006 -0.5290
  858MPD2     N12657   0.356   0.320  16.770 -0.5844  0.1864  0.0811
  858MPD2    H512658   0.305   0.379  16.835 -0.1428 -1.0411  1.5361
  858MPD2    N112659   0.292   0.068  16.363 -0.2469 -0.5594  0.0923
  858MPD2    H712660   0.222   0.044  16.293 -0.7480  1.4063 -0.0819
  859MPD2     C12661   3.900   1.915  15.573 -0.0037 -0.2897  0.3606
  859MPD2    C112662   3.985   1.921  15.462  0.0901 -0.3035  0.5825
  859MPD2    C212663   4.056   1.807  15.435  0.6084  0.2817  0.1671
  859MPD2    C312664   4.034   1.683  15.500  0.2378 -0.6754 -0.5294
  859MPD2    C412665   3.945   1.677  15.601  0.0917  0.3452 -0.4281
  859MPD2    C512666   3.881   1.794  15.637  0.1020 -0.4389 -0.2664
  859MPD2     H12667   4.129   1.805  15.355  0.5328 -0.2526  0.1138
  859MPD2    H112668   3.920   1.585  15.652 -0.1225  1.2627  1.1535
  859MPD2    H212669   3.856   2.008  15.608 -0.7556 -0.4018 -0.2955
  859MPD2    H312670   3.827   1.798  15.731  1.5513  0.0980  0.5345
  859MPD2     N12671   4.092   1.561  15.459 -0.1281 -0.6616  0.0064
  859MPD2    H512672   4.055   1.481  15.509  0.2767 -2.6284 -2.8138
  859MPD2    N112673   4.030   2.037  15.398 -0.1301  0.7580  0.0297
  859MPD2    H712674   4.118   2.031  15.348  0.6956 -1.9664  1.7717
  860MPD2     C12675   1.445   2.693  11.434  0.2133 -0.1421 -0.5359
  860MPD2    C112676   1.460   2.785  11.535  0.1465 -0.2557  0.0142
  860MPD2    C212677   1.386   2.766  11.649  0.1149  0.3012 -0.4014
  860MPD2    C312678   1.299   2.661  11.666  0.4988 -0.7373 -0.0797
  860MPD2    C412679   1.277   2.570  11.562  1.0334  0.1128  0.6969
  860MPD2    C512680   1.356   2.589  11.448 -0.1541 -0.4916 -0.1009
  860MPD2     H12681   1.403   2.841  11.726 -0.0517  0.8985 -0.9526
  860MPD2    H112682   1.190   2.506  11.562  0.4262  0.9414 -0.0814
  860MPD2    H212683   1.500   2.692  11.341  1.5913 -0.6214  0.2767
  860MPD2    H312684   1.342   2.526  11.361  0.7812 -0.2993 -0.3907
  860MPD2     N12685   1.214   2.654  11.778 -0.2504  0.0269 -0.2039
  860MPD2    H512686   1.228   2.730  11.844 -0.3424 -0.9187  0.9025
  860MPD2    N112687   1.550   2.898  11.528 -0.5358 -0.1856  0.1909
  860MPD2    H712688   1.563   2.949  11.614 -1.3327  3.9914 -2.1499
  861MPD2     C12689   0.919   1.470  10.647  0.6915  0.6560 -0.2680
  861MPD2    C112690   0.810   1.469  10.741 -0.5161  0.5758 -0.1462
  861MPD2    C212691   0.685   1.509  10.695 -0.2540 -0.5382 -0.1950
  861MPD2    C312692   0.668   1.544  10.556  0.4330 -0.1470  0.0217
  861MPD2    C412693   0.779   1.539  10.468 -0.0568 -0.2571 -0.1250
  861MPD2    C512694   0.902   1.513  10.515  0.5582  0.1730 -0.5259
  861MPD2     H12695   0.598   1.515  10.760 -0.7152 -0.8707 -0.7819
  861MPD2    H112696   0.774   1.559  10.362  2.4241  2.1623  0.2088
  861MPD2    H212697   1.023   1.449  10.668  0.6756  0.6721 -0.1729
  861MPD2    H312698   0.980   1.512  10.440  0.6007  0.0496 -0.4790
  861MPD2     N12699   0.543   1.578  10.500  0.0096 -0.2346  0.0321
  861MPD2    H512700   0.541   1.630  10.413 -0.7112 -0.3485 -0.0211
  861MPD2    N112701   0.825   1.428  10.877  0.3994 -0.0238 -0.0603
  861MPD2    H712702   0.748   1.453  10.939 -0.1422  1.1007 -1.2040
  862MPD2     C12703   4.529   1.251  10.350 -0.3096  0.3688  0.4975
  862MPD2    C112704   4.645   1.244  10.430 -0.1226 -0.6697  0.1400
  862MPD2    C212705   4.662   1.132  10.509  0.0090 -0.7773  0.4242
  862MPD2    C312706   4.562   1.036  10.523 -0.2249  0.3171  0.5522
  862MPD2    C412707   4.454   1.040  10.437  0.3328 -0.5933  0.1430
  862MPD2    C512708   4.435   1.149  10.356 -0.8044  0.1834 -0.0594
  862MPD2     H12709   0.006   1.141  10.581 -0.7976  0.0784  1.2113
  862MPD2    H112710   4.377   0.964  10.448  1.2936 -1.4313  1.1795
  862MPD2    H212711   4.500   1.339  10.295 -1.0865 -0.4578 -0.4100
  862MPD2    H312712   4.351   1.149  10.287 -1.3653 -0.4478  0.6152
  862MPD2     N12713   4.554   0.945  10.632  0.2919  0.0643 -0.2805
  862MPD2    H512714   4.463   0.903  10.645 -0.1191  1.3440  1.0329
  862MPD2    N112715   0.003   1.353  10.439 -0.4780 -0.1888  0.1558
  862MPD2    H712716   0.076   1.333  10.506 -0.0973  1.0890  0.1167
  863MPD2     C12717   3.724   3.519  16.370  0.6094 -0.4014 -0.0635
  863MPD2    C112718   3.679   3.610  16.460 -0.1393  0.0145  0.7398
  863MPD2    C212719   3.754   3.629  16.571 -0.2449  0.0633  0.2992
  863MPD2    C312720   3.864   3.549  16.594 -0.2522  0.2888 -0.0950
  863MPD2    C412721   3.909   3.462  16.498  0.6958  0.4301  0.4622
  863MPD2    C512722   3.836   3.443  16.391 -0.3171 -0.0760  0.2245
  863MPD2     H12723   3.720   3.694  16.651  2.5765  1.8484  0.0298
  863MPD2    H112724   3.994   3.399  16.521  1.7268  1.6494 -0.0273
  863MPD2    H212725   3.668   3.509  16.277 -0.2076  1.1658  0.2551
  863MPD2    H312726   3.873   3.372  16.319 -2.5466 -0.0665 -0.9593
  863MPD2     N12727   3.930   3.552  16.716 -0.0143 -0.2459 -0.8605
  863MPD2    H512728   3.990   3.472  16.732  0.4884  0.0726 -1.1544
  863MPD2    N112729   3.567   3.683  16.422  0.0995 -0.9514 -0.2163
  863MPD2    H712730   3.533   3.654  16.331  0.5748 -0.6775 -0.4838
  864MPD2     C12731   4.183   0.527  17.119 -0.3623  0.2034 -0.0317
  864MPD2    C112732   4.274   0.430  17.069 -0.5973 -0.3889  0.6822
  864MPD2    C212733   4.381   0.474  16.996  0.1460 -0.5055 -0.2606
  864MPD2    C312734   4.395   0.614  16.972  0.5874  0.2552  0.4241
  864MPD2    C412735   4.312   0.710  17.016 -0.3356 -0.3118 -0.2621
  864MPD2    C512736   4.210   0.660  17.097  0.0218 -0.1591 -0.4344
  864MPD2     H12737   4.458   0.406  16.963  0.5988 -1.1853  2.1622
  864MPD2    H112738   4.323   0.816  16.997 -0.2769 -0.1725  0.5351
  864MPD2    H212739   4.095   0.513  17.181  0.7762  2.9830  2.2130
  864MPD2    H312740   4.140   0.733  17.135  0.5950  0.4480 -0.5499
  864MPD2     N12741   4.489   0.672  16.881  0.2073  0.5599  0.2948
  864MPD2    H512742   4.487   0.773  16.882 -0.5569  0.5634 -2.0806
  864MPD2    N112743   4.241   0.292  17.088  0.1896  0.3049  0.5326
  864MPD2    H712744   4.149   0.264  17.120  1.0890 -0.5196  2.3578
  865MPD2     C12745   4.341   0.617  15.956 -0.4541 -0.9640 -0.0391
  865MPD2    C112746   4.377   0.538  16.067  0.3022  0.3193 -0.2168
  865MPD2    C212747   4.427   0.606  16.185  0.2150  0.1714 -0.0922
  865MPD2    C312748   4.435   0.741  16.178  0.2861 -0.7114  0.0125
  865MPD2    C412749   4.395   0.820  16.070  0.6296  0.6852 -0.3465
  865MPD2    C512750   4.350   0.755  15.957 -0.3348  0.8160  0.3532
  865MPD2     H12751   4.452   0.545  16.271 -1.2991  1.1910  1.0844
  865MPD2    H112752   4.411   0.928  16.075  0.4501  0.6483  0.9860
  865MPD2    H212753   4.305   0.563  15.869  0.2075  0.2578 -1.0709
  865MPD2    H312754   4.323   0.801  15.863  0.9745  1.1442  0.1334
  865MPD2     N12755   4.493   0.811  16.287  0.2544  0.1691 -0.5702
  865MPD2    H512756   4.536   0.901  16.271  2.7244 -0.8243  0.5025
  865MPD2    N112757   4.363   0.403  16.055  0.1244  0.0038  0.0331
  865MPD2    H712758   4.342   0.374  15.960  1.9338 -2.3768  0.3434
  866MPD2     C12759   1.218   1.613  11.386 -0.5000 -0.4845  0.2854
  866MPD2    C112760   1.224   1.586  11.251  0.3937  0.5257 -0.5078
  866MPD2    C212761   1.143   1.649  11.163 -0.0596  0.1619 -0.0339
  866MPD2    C312762   1.051   1.746  11.207  0.2193 -0.4001  0.2882
  866MPD2    C412763   1.053   1.769  11.342  0.9053  0.8304 -0.2970
  866MPD2    C512764   1.126   1.702  11.431 -0.0610 -0.0605 -0.1192
  866MPD2     H12765   1.137   1.626  11.058  0.0027 -0.8542  0.1819
  866MPD2    H112766   0.993   1.850  11.384  0.3907  1.4966 -2.3310
  866MPD2    H212767   1.291   1.565  11.450  0.5127 -0.7982 -1.0840
  866MPD2    H312768   1.128   1.722  11.537  3.1428  1.3473 -0.4468
  866MPD2     N12769   0.952   1.820  11.132  0.2477 -0.5219  0.2434
  866MPD2    H512770   0.896   1.888  11.181  0.6128 -0.5916  0.7604
  866MPD2    N112771   1.309   1.482  11.205  0.1304 -0.4921 -0.3012
  866MPD2    H712772   1.364   1.436  11.277  0.7820 -1.4822 -1.4314
  867MPD2     C12773   3.157   0.173  16.155 -0.9009  1.1910 -0.7812
  867MPD2    C112774   3.174   0.132  16.282  0.1905  0.2756 -0.0428
  867MPD2    C212775   3.134   0.211  16.390  0.9922  0.1552  0.4589
  867MPD2    C312776   3.085   0.338  16.365 -0.7091 -0.3786  0.3167
  867MPD2    C412777   3.071   0.375  16.230  0.1297 -0.9001  0.3870
  867MPD2    C512778   3.102   0.294  16.125  0.0576 -0.5448  0.3909
  867MPD2     H12779   3.146   0.175  16.491  0.2026  0.6862  0.7324
  867MPD2    H112780   3.034   0.473  16.200 -1.6312 -1.6381  0.1551
  867MPD2    H212781   3.186   0.103  16.077  0.1141  1.4342 -0.6184
  867MPD2    H312782   3.086   0.329  16.023  4.1647  1.3522  0.4002
  867MPD2     N12783   3.061   0.430  16.472  0.3488  0.1704  0.4300
  867MPD2    H512784   3.054   0.528  16.445  0.1629  0.4413  1.4531
  867MPD2    N112785   3.229   0.005  16.297  0.4672  0.2121 -0.2496
  867MPD2    H712786   3.259   4.701  16.210  1.1856  2.0526 -0.8733
  868MPD2     C12787   4.432   4.406  12.648  0.7729  0.9758 -0.4359
  868MPD2    C112788   4.526   4.385  12.744  0.7864  0.8691 -0.1064
  868MPD2    C212789   4.491   4.412  12.876  0.3614 -0.1590  0.2169
  868MPD2    C312790   4.358   4.439  12.911 -0.1849 -1.3039  0.6550
  868MPD2    C412791   4.265   4.455  12.808 -0.2520  0.2747 -0.0314
  868MPD2    C512792   4.306   4.431  12.681  0.5175  0.5034 -0.3504
  868MPD2     H12793   4.558   4.400  12.960  2.6820  1.5190 -1.4031
  868MPD2    H112794   4.159   4.475  12.823  0.2206  2.4228  0.4378
  868MPD2    H212795   4.446   4.392  12.541  1.4295  0.7938 -0.3289
  868MPD2    H312796   4.231   4.436  12.604 -1.7068  1.3993  1.8716
  868MPD2     N12797   4.323   4.460  13.048  0.0302 -0.3702  0.3724
  868MPD2    H512798   4.404   4.449  13.108  1.0887  1.8353 -0.6718
  868MPD2    N112799   4.651   4.331  12.699  0.7456 -0.3217 -0.4702
  868MPD2    H712800   4.666   4.328  12.599 -0.8606  0.1332 -0.7316
  869MPD2     C12801   1.466   1.540   0.678  0.5284  0.5112 -0.7440
  869MPD2    C112802   1.572   1.591   0.608  0.0642  0.0411  0.4171
  869MPD2    C212803   1.663   1.673   0.683  0.3060 -0.2574  0.3031
  869MPD2    C312804   1.631   1.701   0.819  0.8464  0.4358  0.0662
  869MPD2    C412805   1.528   1.633   0.880 -0.1500  0.3794  0.2940
  869MPD2    C512806   1.447   1.554   0.812 -0.0391 -0.4044 -0.8881
  869MPD2     H12807   1.738   1.730   0.630  0.7847  0.4760  1.7619
  869MPD2    H112808   1.519   1.646   0.988 -1.4356 -0.9690  0.3452
  869MPD2    H212809   1.396   1.482   0.618 -0.2106 -0.9069  1.5144
  869MPD2    H312810   1.374   1.501   0.873  0.0553  0.3854 -0.1003
  869MPD2     N12811   1.683   1.819   0.887 -0.5442 -0.2820 -0.0127
  869MPD2    H512812   1.642   1.829   0.979  1.3032 -0.0994  0.7897
  869MPD2    N112813   1.588   1.559   0.476 -0.4176  0.6400 -0.0506
  869MPD2    H712814   1.512   1.513   0.428  0.5788  0.0947 -1.1102
  870MPD2     C12815   1.624   1.042   1.481 -0.0289  0.2673 -0.5805
  870MPD2    C112816   1.592   0.985   1.359 -0.5039 -0.6371  0.6756
  870MPD2    C212817   1.466   1.004   1.308 -0.1430  0.1287  0.4821
  870MPD2    C312818   1.368   1.079   1.373 -0.0973  0.0514  0.4283
  870MPD2    C412819   1.408   1.137   1.490 -0.6641 -0.3376 -0.2717
  870MPD2    C512820   1.533   1.126   1.539  0.3570 -0.5007  0.3414
  870MPD2     H12821   1.444   0.957   1.213  1.2542  0.2683  0.0908
  870MPD2    H112822   1.337   1.193   1.550  0.3209  0.1107  0.4672
  870MPD2    H212823   1.722   1.036   1.527 -0.8515  0.8124  1.2354
  870MPD2    H312824   1.556   1.164   1.637 -0.2858  0.7540  0.0002
  870MPD2     N12825   1.236   1.080   1.321  0.0974 -0.1643 -0.6586
  870MPD2    H512826   1.225   1.006   1.251 -2.2729 -0.7178  0.3017
  870MPD2    N112827   1.693   0.901   1.292 -0.1395 -0.4276  0.1999
  870MPD2    H712828   1.765   0.871   1.357 -0.0825 -1.9443 -0.5597
  871MPD2     C12829   1.863   0.740  15.972  0.5274  0.0049 -0.9282
  871MPD2    C112830   1.860   0.650  16.082  0.3203 -0.0298  1.5498
  871MPD2    C212831   1.887   0.513  16.055  0.0003 -0.7773  0.3904
  871MPD2    C312832   1.942   0.472  15.939  0.0180  0.3275  0.4563
  871MPD2    C412833   1.945   0.564  15.834  0.3659 -0.0390  0.5103
  871MPD2    C512834   1.906   0.695  15.851 -0.3121 -0.2530  0.5105
  871MPD2     H12835   1.883   0.445  16.139 -2.0396 -2.1694 -0.8163
  871MPD2    H112836   1.988   0.536  15.739  0.3486 -2.1722  1.1317
  871MPD2    H212837   1.848   0.847  15.974 -0.9268 -0.2160 -0.3641
  871MPD2    H312838   1.918   0.766  15.770  2.1635 -1.1012  0.1643
  871MPD2     N12839   2.003   0.346  15.938  0.2822  0.3783  0.1397
  871MPD2    H512840   1.993   0.300  16.028 -0.3518 -2.8898 -1.5960
  871MPD2    N112841   1.823   0.699  16.206 -0.2226  0.2124 -0.5343
  871MPD2    H712842   1.823   0.800  16.208  0.3524  0.2008  0.0801
  872MPD2     C12843   2.902   2.418  13.115  0.0921 -0.0649 -0.6649
  872MPD2    C112844   2.922   2.524  13.198 -0.4924  0.2104  0.1146
  872MPD2    C212845   2.828   2.559  13.294 -0.0373 -0.4736 -0.1635
  872MPD2    C312846   2.711   2.483  13.307  0.5542  0.5264 -0.9126
  872MPD2    C412847   2.695   2.380  13.220  0.0663 -0.0762  0.4724
  872MPD2    C512848   2.790   2.340  13.129  0.3216  0.0268  0.5346
  872MPD2     H12849   2.831   2.656  13.343  1.1170  0.1416 -1.4481
  872MPD2    H112850   2.604   2.322  13.230 -0.0473  0.2694  1.4655
  872MPD2    H212851   2.982   2.383  13.050  1.5497  2.1359 -0.0351
  872MPD2    H312852   2.779   2.250  13.069 -2.5466  2.1757 -2.1532
  872MPD2     N12853   2.613   2.515  13.406  0.5785  0.2168 -0.0494
  872MPD2    H512854   2.520   2.477  13.391  0.6268  0.2414 -0.4104
  872MPD2    N112855   3.036   2.606  13.181 -0.4495 -0.5007  0.7001
  872MPD2    H712856   3.039   2.670  13.260  3.0205  1.1110 -0.7492
  873MPD2     C12857   4.238   2.325   0.481  0.6609  0.4516  0.2936
  873MPD2    C112858   4.296   2.282   0.593  0.5696 -0.3925  0.0626
  873MPD2    C212859   4.281   2.148   0.626 -0.0185 -0.1041  0.0248
  873MPD2    C312860   4.210   2.064   0.538 -0.7348  0.4793  0.7580
  873MPD2    C412861   4.146   2.124   0.426 -0.0853  0.1702 -0.1291
  873MPD2    C512862   4.165   2.253   0.396 -0.2032 -0.8271  0.8006
  873MPD2     H12863   4.328   2.109   0.715 -2.1448  1.8546  2.0013
  873MPD2    H112864   4.085   2.067   0.357  1.8383 -1.9611 -0.0777
  873MPD2    H212865   4.242   2.427   0.445 -0.1408  0.0172 -1.0579
  873MPD2    H312866   4.111   2.299   0.313  0.3500  0.3106  1.0645
  873MPD2     N12867   4.202   1.923   0.555  0.0818 -0.8023  0.6064
  873MPD2    H512868   4.130   1.879   0.499 -0.0017  0.4756 -0.2838
  873MPD2    N112869   4.363   2.377   0.673 -0.2394  0.5102 -0.1265
  873MPD2    H712870   4.358   2.477   0.655  0.9957  0.7543  0.9219
  874MPD2     C12871   3.874   2.894  16.183  0.1689  0.4889  0.2123
  874MPD2    C112872   3.976   2.800  16.219 -0.1145  0.4265  0.2694
  874MPD2    C212873   4.096   2.816  16.158  1.2120 -0.4067 -0.8837
  874MPD2    C312874   4.106   2.917  16.054 -0.0057  0.2302 -0.4685
  874MPD2    C412875   4.002   2.996  16.014  0.3703 -0.1131 -0.4447
  874MPD2    C512876   3.886   2.985  16.083 -0.5666  0.3656 -0.5666
  874MPD2     H12877   4.175   2.751  16.192 -1.4853 -2.4722  1.4335
  874MPD2    H112878   4.018   3.080  15.948  0.4762  0.9979  1.0022
  874MPD2    H212879   3.786   2.898  16.246  0.8144  1.2157  1.0687
  874MPD2    H312880   3.804   3.054  16.070 -2.1838 -1.3321  0.5666
  874MPD2     N12881   4.235   2.941  15.993 -0.2482  0.4186  0.0875
  874MPD2    H512882   4.235   3.016  15.924  1.0720 -1.4417 -1.9117
  874MPD2    N112883   3.947   2.716  16.331 -0.2303 -0.3175 -0.1879
  874MPD2    H712884   3.852   2.714  16.368 -0.7732  0.4190 -1.5530
  875MPD2     C12885   0.514   0.963  14.415 -0.5163 -0.1517 -0.4039
  875MPD2    C112886   0.461   1.094  14.396  0.3826 -0.0082  0.7643
  875MPD2    C212887   0.463   1.171  14.512  0.0930 -0.7933 -0.4235
  875MPD2    C312888   0.518   1.134  14.636 -0.5051  0.2184  0.1014
  875MPD2    C412889   0.582   1.009  14.635  0.0291  0.3139 -0.3771
  875MPD2    C512890   0.564   0.919  14.533  0.2769 -0.5569 -0.2457
  875MPD2     H12891   0.402   1.261  14.510 -0.8016 -1.3627  1.0816
  875MPD2    H112892   0.643   0.969  14.715  0.4736  0.4724 -0.6357
  875MPD2    H212893   0.501   0.886  14.340 -2.3639 -1.6158  1.4033
  875MPD2    H312894   0.610   0.821  14.534 -0.3040 -0.8002  2.1876
  875MPD2     N12895   0.514   1.207  14.756 -0.7674  0.0973  0.5288
  875MPD2    H512896   0.574   1.173  14.830  0.8238 -0.8218 -1.1891
  875MPD2    N112897   0.400   1.146  14.279  0.4485  0.2932  0.2298
  875MPD2    H712898   0.357   1.238  14.288  0.4473  0.4021 -0.8687
  876MPD2     C12899   4.006   2.423  16.134 -0.3594  0.3855 -0.0422
  876MPD2    C112900   4.127   2.384  16.072  0.9268 -0.1374  0.0616
  876MPD2    C212901   4.195   2.270  16.125 -0.0884  0.0344  0.0416
  876MPD2    C312902   4.158   2.207  16.237  0.4673  0.2128 -0.6989
  876MPD2    C412903   4.038   2.247  16.296 -0.3465  0.2142  0.5787
  876MPD2    C512904   3.958   2.346  16.235  0.8149  0.2721  0.9864
  876MPD2     H12905   4.281   2.226  16.075 -0.7849 -1.0701 -0.1874
  876MPD2    H112906   4.005   2.206  16.391  0.0512 -1.1343  0.1282
  876MPD2    H212907   3.958   2.506  16.084 -0.7527  0.5029  0.5269
  876MPD2    H312908   3.860   2.359  16.278  1.0268  1.6197  1.0562
  876MPD2     N12909   4.232   2.099  16.284 -0.5497 -0.3727  0.2742
  876MPD2    H512910   4.325   2.083  16.245 -1.2290 -2.1677 -0.6132
  876MPD2    N112911   4.162   2.466  15.960  0.4246 -0.4978  0.2546
  876MPD2    H712912   4.104   2.545  15.933  0.8340 -0.4567 -0.4991
  877MPD2     C12913   4.075   2.812  15.272  0.7655  0.2818 -0.2620
  877MPD2    C112914   4.211   2.829  15.306 -0.2573 -0.0338  0.2803
  877MPD2    C212915   4.295   2.860  15.198  0.1859  0.0445 -0.3563
  877MPD2    C312916   4.254   2.864  15.063  0.4026  0.4115  0.4621
  877MPD2    C412917   4.125   2.834  15.035 -0.3146  0.2975 -0.0305
  877MPD2    C512918   4.036   2.807  15.139 -0.0029  0.0897  0.2062
  877MPD2     H12919   4.398   2.882  15.224 -0.7924  1.0208  2.7544
  877MPD2    H112920   4.095   2.842  14.931 -1.4726  0.6272  0.3285
  877MPD2    H212921   3.998   2.795  15.346  0.6155 -0.3917 -0.5658
  877MPD2    H312922   3.934   2.782  15.114 -0.4787  3.1072 -0.9160
  877MPD2     N12923   4.344   2.897  14.957 -0.0800 -0.6652 -0.0590
  877MPD2    H512924   4.318   2.869  14.863  1.3519  1.9670 -1.2563
  877MPD2    N112925   4.263   2.824  15.437 -0.4651  0.1554 -0.1782
  877MPD2    H712926   4.363   2.835  15.451 -0.4586  0.2219 -0.2726
  878MPD2     C12927   3.969   2.276  12.648 -0.4655 -0.1713 -0.3367
  878MPD2    C112928   4.060   2.373  12.669 -0.2891  0.4765 -1.1050
  878MPD2    C212929   4.054   2.448  12.786 -0.2720  0.0254  0.2541
  878MPD2    C312930   3.958   2.423  12.878 -0.3312  0.1695 -0.2913
  878MPD2    C412931   3.875   2.317  12.858  0.6654 -0.4979  0.2092
  878MPD2    C512932   3.873   2.255  12.742  0.0513 -0.0789  0.5003
  878MPD2     H12933   4.125   2.529  12.804 -0.4498 -0.1062  1.5731
  878MPD2    H112934   3.798   2.305  12.934 -0.6416 -2.2897 -1.4205
  878MPD2    H212935   3.958   2.222  12.555  1.9150 -2.1213  0.5320
  878MPD2    H312936   3.800   2.175  12.729 -1.6399  1.5609  0.0281
  878MPD2     N12937   3.958   2.496  13.005  0.2080 -0.4016  0.4778
  878MPD2    H512938   4.018   2.578  12.997  1.2437 -1.5223 -3.3362
  878MPD2    N112939   4.156   2.392  12.570  0.8381 -0.0957 -0.4328
  878MPD2    H712940   4.153   2.325  12.494  1.3107  0.2514 -0.7531
  879MPD2     C12941   4.325   3.971  16.770  0.0310 -0.2488 -0.2043
  879MPD2    C112942   4.416   3.864  16.786  0.6287 -0.1791  0.1239
  879MPD2    C212943   4.394   3.743  16.719  0.1128 -0.0838 -0.5544
  879MPD2    C312944   4.282   3.730  16.629  0.0759  0.2848  0.1507
  879MPD2    C412945   4.199   3.835  16.612 -0.7800  0.5221  0.4849
  879MPD2    C512946   4.222   3.951  16.681 -0.3874  0.4994 -0.0636
  879MPD2     H12947   4.474   3.669  16.723 -0.1295 -0.3795 -1.2537
  879MPD2    H112948   4.105   3.830  16.558  0.3744 -2.0018 -1.3009
  879MPD2    H212949   4.332   4.063  16.827  1.0434  0.4446 -1.4252
  879MPD2    H312950   4.164   4.037  16.650  0.1906  0.9541  0.1080
  879MPD2     N12951   4.255   3.613  16.558  0.2276 -0.0276  0.2312
  879MPD2    H512952   4.191   3.615  16.479  2.5281 -0.7349 -1.6548
  879MPD2    N112953   4.537   3.889  16.855  0.4609  0.4939  0.5276
  879MPD2    H712954   4.562   3.981  16.890 -0.9189  0.3557  1.8681
  880MPD2     C12955   1.261   0.376   0.014  0.4639 -0.3928  0.3530
  880MPD2    C112956   1.327   0.466   0.096  1.0074 -0.0635  0.1271
  880MPD2    C212957   1.415   0.414   0.183  0.9745 -0.4403  0.4600
  880MPD2    C312958   1.442   0.276   0.198 -0.3188  0.5997  0.1268
  880MPD2    C412959   1.392   0.195   0.102  0.1039 -0.6467 -0.5828
  880MPD2    C512960   1.303   0.242   0.013 -0.0264 -0.0560 -0.5902
  880MPD2     H12961   1.485   0.467   0.246  0.6140  1.1856 -0.5087
  880MPD2    H112962   1.404   0.087   0.101  0.8908 -0.5366 -2.5892
  880MPD2    H212963   1.182   0.400  17.690 -1.2939 -3.1028  1.4123
  880MPD2    H312964   1.264   0.175  17.683  0.2012 -0.1791 -0.5959
  880MPD2     N12965   1.538   0.235   0.294 -0.2510 -0.4730 -0.2235
  880MPD2    H512966   1.558   0.303   0.366 -2.0697  2.0262 -2.0616
  880MPD2    N112967   1.295   0.605   0.104 -0.4751 -0.3647  0.0233
  880MPD2    H712968   1.234   0.649   0.037  0.7135  0.1648 -0.7072
  881MPD2     C12969   0.748   0.905  17.304  0.1166 -0.0498  0.3530
  881MPD2    C112970   0.849   0.996  17.311  0.5689  0.2943  0.6061
  881MPD2    C212971   0.915   1.013  17.437 -0.6690  0.4014  0.3670
  881MPD2    C312972   0.862   0.947  17.551 -0.1789 -0.1884 -0.3661
  881MPD2    C412973   0.745   0.883  17.543 -0.6883 -0.7418  0.6077
  881MPD2    C512974   0.685   0.862  17.418  0.7975 -0.6794 -0.3800
  881MPD2     H12975   1.000   1.079  17.433 -0.9631  0.6332 -2.5312
  881MPD2    H112976   0.700   0.857  17.639 -1.7153 -2.0775 -0.2278
  881MPD2    H212977   0.688   0.902  17.214  2.6876  1.5180 -1.4053
  881MPD2    H312978   0.592   0.812  17.395  0.6394 -1.1234  1.2314
  881MPD2     N12979   0.926   0.957  17.676  0.1999 -0.2233 -0.2237
  881MPD2    H512980   0.869   0.931   0.011  0.2449  0.8243  0.1552
  881MPD2    N112981   0.900   1.047  17.189 -0.3411  0.3014 -0.0248
  881MPD2    H712982   0.844   1.037  17.105  1.2653  0.9534 -1.1640
  882MPD2     C12983   4.392   2.898  14.147  0.3717 -0.3095 -0.1629
  882MPD2    C112984   4.360   2.899  14.278  0.6682 -0.7898  0.7525
  882MPD2    C212985   4.232   2.859  14.311 -0.1554  0.3785  0.0311
  882MPD2    C312986   4.142   2.826  14.214 -0.2756  0.2056 -0.0593
  882MPD2    C412987   4.182   2.807  14.086  0.3591 -0.2137  0.1356
  882MPD2    C512988   4.305   2.853  14.048  0.3316  0.1824  0.2816
  882MPD2     H12989   4.205   2.861  14.416  1.7395 -1.4354  0.5507
  882MPD2    H112990   4.113   2.786  14.006  0.0590 -1.6425  0.7754
  882MPD2    H212991   4.486   2.947  14.122  0.7432 -0.2683  1.3163
  882MPD2    H312992   4.329   2.851  13.942  1.6017  0.7676  0.5576
  882MPD2     N12993   4.009   2.799  14.240 -0.5777 -0.1087  0.2836
  882MPD2    H512994   3.955   2.757  14.164 -2.7220  1.1047  1.1478
  882MPD2    N112995   4.456   2.932  14.382 -0.0392  0.0754 -0.4098
  882MPD2    H712996   4.553   2.929  14.354  0.6345  1.5494  1.8102
  883MPD2     C12997   1.249   3.138  15.764 -0.0663  0.0946 -0.7940
  883MPD2    C112998   1.349   3.049  15.722 -1.2592 -0.4719 -0.3665
  883MPD2    C212999   1.444   3.015  15.814  0.0315 -0.4500 -1.0619
  883MPD2    C313000   1.448   3.059  15.942  0.4859 -0.1183 -0.3591
  883MPD2    C413001   1.344   3.138  15.986  0.1926 -0.0533 -0.3556
  883MPD2    C513002   1.244   3.175  15.901  0.2692  0.2073  1.1689
  883MPD2     H13003   1.527   2.952  15.786  0.6703  0.2145 -0.6505
  883MPD2    H113004   1.335   3.176  16.087 -0.8951  0.1180 -0.5141
  883MPD2    H213005   1.163   3.155  15.700 -0.7989 -0.5158  0.0230
  883MPD2    H313006   1.162   3.236  15.935  1.8500  1.5399  2.5705
  883MPD2     N13007   1.566   3.046  16.014  0.4238 -0.1638 -0.1517
  883MPD2    H513008   1.644   2.996  15.974  0.4975 -1.2999  1.4110
  883MPD2    N113009   1.367   2.993  15.591  0.3918 -0.3163 -0.6425
  883MPD2    H713010   1.452   2.946  15.563  1.8037  2.4195 -0.9785
  884MPD2     C13011   2.962   3.646  14.923  0.1883  0.9646  0.1512
  884MPD2    C113012   2.953   3.654  14.786 -0.0043 -0.2450  0.0509
  884MPD2    C213013   2.841   3.701  14.730  0.5335 -0.5300  0.4350
  884MPD2    C313014   2.734   3.744  14.807  0.3674 -0.2468 -0.0158
  884MPD2    C413015   2.744   3.731  14.944 -0.1048  0.0255  0.1939
  884MPD2    C513016   2.857   3.674  14.998 -0.1527 -0.4817 -0.4140
  884MPD2     H13017   2.835   3.703  14.622  0.9853 -1.4390  0.3947
  884MPD2    H113018   2.668   3.740  15.020  0.7203 -0.4353  1.0809
  884MPD2    H213019   3.049   3.613  14.978  0.4010 -0.0646 -0.8098
  884MPD2    H313020   2.873   3.662  15.104  1.6375  1.0648 -0.5261
  884MPD2     N13021   2.625   3.803  14.736  0.0053 -0.0079  0.3254
  884MPD2    H513022   2.646   3.819  14.638 -0.7100 -1.9981 -0.1505
  884MPD2    N113023   3.061   3.616  14.704 -0.3878  0.0012 -0.4556
  884MPD2    H713024   3.052   3.619  14.603  1.3624 -0.8097 -0.6336
  885MPD2     C13025   2.100   3.953   0.233 -0.3867  0.8408  0.6846
  885MPD2    C113026   2.052   3.835   0.180 -0.9856  0.2061 -0.3438
  885MPD2    C213027   2.014   3.835   0.049 -0.4079  0.4638  0.4284
  885MPD2    C313028   2.031   3.939  17.708  0.0002 -1.0638  0.6173
  885MPD2    C413029   2.085   4.057   0.010 -0.0984 -0.3682 -0.4688
  885MPD2    C513030   2.114   4.058   0.147 -0.0377  0.0142 -0.2696
  885MPD2     H13031   1.975   3.739   0.015 -0.7455  0.5521  0.5599
  885MPD2    H113032   2.098   4.151  17.704 -0.5926 -0.1786 -0.2439
  885MPD2    H213033   2.131   3.961   0.337  2.0275  1.6841 -0.0844
  885MPD2    H313034   2.157   4.149   0.186 -1.7633  0.1875  1.2006
  885MPD2     N13035   1.992   3.926  17.573  0.1271 -0.2220  0.2648
  885MPD2    H513036   1.982   3.830  17.543  0.3317 -0.1154 -0.1385
  885MPD2    N113037   2.015   3.719   0.254 -0.0084  0.4514 -0.0146
  885MPD2    H713038   1.963   3.645   0.207  1.8919  0.1451 -1.6491
  886MPD2     C13039   3.128   1.956  14.997  0.3751  0.4954  0.5787
  886MPD2    C113040   3.110   2.046  15.103 -0.2071  1.0481  0.0721
  886MPD2    C213041   3.076   2.176  15.077 -0.7143 -0.6166  0.3159
  886MPD2    C313042   3.062   2.215  14.943  0.2620  0.9392  0.0108
  886MPD2    C413043   3.072   2.125  14.839 -1.0964  0.2511  0.2575
  886MPD2    C513044   3.097   1.992  14.867  0.5066  0.0446  0.2561
  886MPD2     H13045   3.045   2.242  15.157 -0.9589 -2.3995  1.6802
  886MPD2    H113046   3.057   2.154  14.736  1.0362 -0.4192 -0.2348
  886MPD2    H213047   3.134   1.848  15.011 -1.7672  0.2566 -0.3123
  886MPD2    H313048   3.109   1.912  14.795  0.8843 -0.3715  0.7769
  886MPD2     N13049   3.035   2.351  14.908  0.4879  0.1250 -0.3282
  886MPD2    H513050   3.033   2.375  14.809 -0.7457  0.9302 -0.1128
  886MPD2    N113051   3.130   1.998  15.236  0.5836  0.2753 -0.2784
  886MPD2    H713052   3.098   2.065  15.305  0.6245 -0.4459  0.4401
  887MPD2     C13053   3.419   2.259  15.835 -0.4835  0.4748  0.5759
  887MPD2    C113054   3.316   2.271  15.740  0.5473 -0.0550 -0.4462
  887MPD2    C213055   3.284   2.404  15.701 -0.5521 -0.2873  0.0018
  887MPD2    C313056   3.349   2.517  15.745 -0.9681 -0.1925 -0.1829
  887MPD2    C413057   3.454   2.496  15.840  0.3920 -0.8214 -0.3390
  887MPD2    C513058   3.492   2.369  15.873 -0.4055  0.1624 -0.3171
  887MPD2     H13059   3.206   2.424  15.628 -1.0837  0.0320  0.6491
  887MPD2    H113060   3.501   2.577  15.894  1.3849 -1.7239  0.1569
  887MPD2    H213061   3.446   2.161  15.873  0.6890  0.2207 -0.9096
  887MPD2    H313062   3.570   2.352  15.946  0.1030 -0.9405 -1.1109
  887MPD2     N13063   3.297   2.649  15.718  0.6084  0.5642 -0.2037
  887MPD2    H513064   3.209   2.656  15.668  0.0415  3.3756  1.1418
  887MPD2    N113065   3.248   2.160  15.683  0.2149 -0.0290 -0.8082
  887MPD2    H713066   3.187   2.179  15.604  0.2276 -0.5265 -0.9382
  888MPD2     C13067   0.465   2.522  14.671 -0.1909 -0.0814  0.4285
  888MPD2    C113068   0.498   2.550  14.803  0.1138  0.0848  0.4386
  888MPD2    C213069   0.538   2.670  14.851  0.2821  0.8179  0.1446
  888MPD2    C313070   0.565   2.765  14.754  0.1965 -0.4394 -0.3769
  888MPD2    C413071   0.534   2.748  14.623 -0.1736  0.3160 -0.3027
  888MPD2    C513072   0.482   2.626  14.580  0.1199 -0.7687 -0.0556
  888MPD2     H13073   0.551   2.700  14.954  0.5084 -1.3169  0.7466
  888MPD2    H113074   0.547   2.825  14.547 -2.4402  0.2549 -0.7802
  888MPD2    H213075   0.463   2.419  14.638  0.9294 -1.2163  3.9220
  888MPD2    H313076   0.478   2.622  14.472 -0.9091 -2.3129  0.0315
  888MPD2     N13077   0.629   2.884  14.795  0.3553 -0.2769  0.5152
  888MPD2    H513078   0.634   2.900  14.896  1.7524  0.0969  0.3928
  888MPD2    N113079   0.470   2.454  14.902 -0.3093  0.1157  0.4487
  888MPD2    H713080   0.507   2.472  14.995 -1.1639  1.8312  0.4598
  889MPD2     C13081   4.733   2.729  12.285 -0.0294  0.2117 -0.5575
  889MPD2    C113082   4.727   2.689  12.422 -0.4403 -0.2049 -0.5391
  889MPD2    C213083   4.667   2.781  12.504  0.4677 -0.6589 -0.6020
  889MPD2    C313084   4.639   2.915  12.468  0.0554 -0.0670  0.2348
  889MPD2    C413085   4.640   2.944  12.331 -0.2131  0.4455  0.5875
  889MPD2    C513086   4.683   2.849  12.246 -0.4380  0.1843  0.7991
  889MPD2     H13087   4.677   2.749  12.607  1.9092 -0.0221 -0.5547
  889MPD2    H113088   4.613   3.042  12.293 -0.8593 -0.2933 -0.8576
  889MPD2    H213089   0.026   2.666  12.202  0.1749  2.3165 -2.1054
  889MPD2    H313090   4.687   2.864  12.139 -1.8177  0.7340  0.8206
  889MPD2     N13091   4.608   3.007  12.572  0.0960  0.0716 -0.2318
  889MPD2    H513092   4.602   2.975  12.668 -2.1101  0.5759 -0.2006
  889MPD2    N113093   0.008   2.556  12.470  0.4437  0.3773 -0.2209
  889MPD2    H713094   4.727   2.538  12.568 -0.4680  2.4542 -0.0027
  890MPD2     C13095   4.381   3.463  14.522 -0.6853  0.0879  0.1752
  890MPD2    C113096   4.402   3.540  14.634  0.1508 -0.2532 -0.1890
  890MPD2    C213097   4.395   3.485  14.762 -0.9828 -0.0880 -0.3256
  890MPD2    C313098   4.339   3.362  14.778  0.5846 -0.0564  0.3148
  890MPD2    C413099   4.317   3.280  14.664  0.4307 -0.1752 -0.3450
  890MPD2    C513100   4.344   3.334  14.541  0.5346  0.6850 -0.5959
  890MPD2     H13101   4.405   3.537  14.857 -0.2351 -0.3271 -0.2797
  890MPD2    H113102   4.278   3.180  14.679 -0.7671  0.5696  1.6104
  890MPD2    H213103   4.375   3.502  14.421  0.1674  0.2142  0.1720
  890MPD2    H313104   4.301   3.279  14.458 -2.5704 -0.0399  1.5031
  890MPD2     N13105   4.312   3.320  14.913 -0.0128  0.2050 -0.3205
  890MPD2    H513106   4.327   3.387  14.988 -1.2980 -0.9635  0.9747
  890MPD2    N113107   4.427   3.673  14.606 -1.1449 -0.5069  0.4927
  890MPD2    H713108   4.419   3.712  14.513 -0.7053  0.4583  0.8515
  891MPD2     C13109   2.543   2.565  16.494  0.0087 -0.3181  0.1813
  891MPD2    C113110   2.458   2.469  16.536  0.4021  0.2308  0.1782
  891MPD2    C213111   2.490   2.382  16.637  0.1391  0.4292 -0.5154
  891MPD2    C313112   2.619   2.397  16.699 -0.5969 -0.2133  0.3920
  891MPD2    C413113   2.699   2.505  16.670 -0.0322  0.0612 -0.4480
  891MPD2    C513114   2.656   2.589  16.570  0.3085  0.3328  0.5118
  891MPD2     H13115   2.429   2.296  16.661 -1.4223  1.1555 -1.9447
  891MPD2    H113116   2.789   2.534  16.723 -0.9468 -1.7942  2.1564
  891MPD2    H213117   2.523   2.632  16.411 -0.8176  0.9809  1.4462
  891MPD2    H313118   2.713   2.680  16.553  1.2954 -0.1769  1.1064
  891MPD2     N13119   2.643   2.302  16.799  0.2260  0.3270 -0.8078
  891MPD2    H513120   2.563   2.255  16.839  1.8537 -1.8868 -0.1913
  891MPD2    N113121   2.337   2.440  16.462  0.2427 -0.0404 -0.1201
  891MPD2    H713122   2.274   2.363  16.485  0.2737  0.1480  0.5922
  892MPD2     C13123   3.286   3.068  14.995 -0.4478  0.0952 -0.1783
  892MPD2    C113124   3.266   3.098  14.862  0.1431  0.1541 -0.3929
  892MPD2    C213125   3.356   3.047  14.766  0.5716 -0.7076  1.0004
  892MPD2    C313126   3.467   2.977  14.804 -0.0942  0.4824  0.4922
  892MPD2    C413127   3.493   2.975  14.940  0.4790  0.0573  0.4674
  892MPD2    C513128   3.410   3.015  15.036 -0.1876  0.2883 -0.3748
  892MPD2     H13129   3.338   3.052  14.659  0.2485  0.5994  1.1113
  892MPD2    H113130   3.592   2.944  14.973 -0.2517 -2.3499  0.4454
  892MPD2    H213131   3.216   3.110  15.066 -0.0815 -0.0359  0.2610
  892MPD2    H313132   3.431   3.002  15.142 -1.1679 -0.2443 -0.2449
  892MPD2     N13133   3.557   2.920  14.702  0.2832 -0.3451 -0.0987
  892MPD2    H513134   3.646   2.892  14.740  1.2424  0.9079 -1.4391
  892MPD2    N113135   3.145   3.166  14.822 -0.6825  0.1670 -0.6422
  892MPD2    H713136   3.072   3.185  14.890 -2.0625  0.8381 -2.3147
  893MPD2     C13137   0.169   1.129   0.764  0.5685  0.5272 -0.1869
  893MPD2    C113138   0.249   1.116   0.655  0.6379 -0.0651 -0.4877
  893MPD2    C213139   0.206   1.039   0.551  0.5808 -0.6749  0.2360
  893MPD2    C313140   0.071   0.999   0.554 -0.3244 -0.0510  0.3133
  893MPD2    C413141   4.726   1.028   0.660 -0.1156  0.0182 -0.1789
  893MPD2    C513142   0.042   1.100   0.761 -0.2448  0.4715 -0.6792
  893MPD2     H13143   0.267   1.016   0.465 -0.3994 -0.5221 -0.4931
  893MPD2    H113144   4.620   1.005   0.663  0.1731 -1.3330 -0.2404
  893MPD2    H213145   0.209   1.179   0.851  0.2306  1.4792 -0.5804
  893MPD2    H313146   4.715   1.123   0.845 -0.1247  2.2800 -1.0934
  893MPD2     N13147   0.015   0.920   0.452  0.2292 -0.1759 -0.1180
  893MPD2    H513148   4.663   0.879   0.479 -0.6281  2.1103  0.5126
  893MPD2    N113149   0.384   1.149   0.669  0.1557 -0.6157 -0.4430
  893MPD2    H713150   0.420   1.182   0.759  0.4662  0.5238 -0.9734
  894MPD2     C13151   3.365   3.748   0.636  0.6937 -0.0379  0.4773
  894MPD2    C113152   3.369   3.793   0.767  0.5586  0.0053 -0.4708
  894MPD2    C213153   3.340   3.932   0.798  0.6113  0.4469  0.4235
  894MPD2    C313154   3.324   4.026   0.690  0.4561  0.1879  0.1791
  894MPD2    C413155   3.323   3.975   0.559 -0.2435 -0.2472  0.1983
  894MPD2    C513156   3.341   3.841   0.535  0.6311 -0.3583 -0.2601
  894MPD2     H13157   3.343   3.965   0.901 -0.2243 -0.5654  0.7739
  894MPD2    H113158   3.302   4.033   0.470  1.0512 -2.2847 -1.4121
  894MPD2    H213159   3.395   3.647   0.612 -0.9632 -0.8140  1.7068
  894MPD2    H313160   3.332   3.805   0.434 -1.4943 -0.1518 -0.1537
  894MPD2     N13161   3.321   4.162   0.720 -0.2558 -0.0618 -0.2073
  894MPD2    H513162   3.338   4.187   0.817  0.2287 -3.2687  0.5301
  894MPD2    N113163   3.388   3.708   0.883 -0.3705 -0.2563 -0.2979
  894MPD2    H713164   3.395   3.755   0.973  0.0906 -0.0968 -0.4153
  895MPD2     C13165   2.905   2.075  12.818 -0.0303  0.5218  0.0763
  895MPD2    C113166   2.776   2.129  12.822 -0.1234  0.1922 -0.5618
  895MPD2    C213167   2.672   2.053  12.875  0.2184 -0.1167  0.5895
  895MPD2    C313168   2.697   1.934  12.943 -0.4188 -0.2208 -0.3458
  895MPD2    C413169   2.826   1.895  12.955  0.3868  0.7379 -0.5181
  895MPD2    C513170   2.932   1.960  12.888 -0.4265  0.1380 -0.2314
  895MPD2     H13171   2.576   2.102  12.880  0.5956  0.6624  0.0756
  895MPD2    H113172   2.853   1.810  13.018  1.7750  0.3781 -1.5796
  895MPD2    H213173   2.987   2.124  12.768 -0.1362  0.9107  0.2787
  895MPD2    H313174   3.034   1.924  12.889  0.0224  1.4676  2.1268
  895MPD2     N13175   2.608   1.847  13.002 -0.3934  0.2018 -0.2384
  895MPD2    H513176   2.648   1.767  13.050  2.4639  1.3427 -0.7010
  895MPD2    N113177   2.744   2.257  12.775  0.2941 -0.5073  0.3665
  895MPD2    H713178   2.648   2.283  12.798 -0.6462 -2.4031 -1.4497
  896MPD2     C13179   0.471   0.481   0.983  0.1940 -0.1962 -0.3494
  896MPD2    C113180   0.476   0.424   0.863  0.1816  0.0860 -0.2274
  896MPD2    C213181   0.372   0.343   0.819  0.1644 -0.3297 -0.0010
  896MPD2    C313182   0.261   0.325   0.902  0.5537 -0.0193  1.3918
  896MPD2    C413183   0.263   0.386   1.024 -0.0283  0.8957  0.2913
  896MPD2    C513184   0.369   0.456   1.073 -0.7079 -0.3095  0.0105
  896MPD2     H13185   0.369   0.286   0.728 -0.0561  0.7987 -0.7080
  896MPD2    H113186   0.186   0.368   1.098 -0.8556  1.1947 -0.4930
  896MPD2    H213187   0.547   0.549   1.019  0.0735 -0.0113 -0.4479
  896MPD2    H313188   0.370   0.500   1.172 -2.0684  1.9950 -1.0102
  896MPD2     N13189   0.152   0.254   0.845  0.2378 -0.0917  0.1103
  896MPD2    H513190   0.169   0.214   0.753  0.7383 -0.6837  0.4641
  896MPD2    N113191   0.590   0.449   0.788  0.5129 -0.5196  0.3098
  896MPD2    H713192   0.665   0.494   0.840  1.9721 -2.4861 -0.0793
  897MPD2     C13193   1.446   2.055   9.949 -0.2048 -0.0635 -0.5849
  897MPD2    C113194   1.379   2.173   9.962 -0.3538  0.2960  0.0753
  897MPD2    C213195   1.332   2.215  10.088 -0.3034 -0.2670  0.4155
  897MPD2    C313196   1.344   2.126  10.194  0.4240  0.0868  0.2746
  897MPD2    C413197   1.418   2.010  10.183  0.0623  0.3992 -0.1693
  897MPD2    C513198   1.468   1.979  10.060 -0.4708  0.1883 -0.1207
  897MPD2     H13199   1.260   2.295  10.103  0.1029  0.4175 -1.2616
  897MPD2    H113200   1.445   1.947  10.268  1.3060 -0.7586 -1.4185
  897MPD2    H213201   1.480   2.015   9.854  0.9662 -0.2063 -0.1101
  897MPD2    H313202   1.520   1.885  10.049  0.2624  0.7165 -1.1752
  897MPD2     N13203   1.261   2.145  10.312  0.0450  0.4572  0.0838
  897MPD2    H513204   1.194   2.222  10.308  0.3224  0.6054 -1.4378
  897MPD2    N113205   1.345   2.242   9.843  0.1108  0.1449 -0.3589
  897MPD2    H713206   1.373   2.205   9.753 -1.2852  1.6730 -1.4314
  898MPD2     C13207   2.823   2.504   0.077 -0.2300  0.4694  0.5379
  898MPD2    C113208   2.915   2.540  17.725  0.5902 -0.6705 -0.1053
  898MPD2    C213209   2.911   2.664  17.673 -0.2870 -0.9676 -0.4073
  898MPD2    C313210   2.826   2.764  17.714  0.2022 -0.5036  0.4305
  898MPD2    C413211   2.741   2.734   0.067  0.1784 -0.5909 -0.2981
  898MPD2    C513212   2.732   2.606   0.118  0.0264  0.0741 -0.0663
  898MPD2     H13213   2.979   2.694  17.595  1.7351 -0.0434  1.7263
  898MPD2    H113214   2.665   2.802   0.104  1.6646 -0.1036  1.8778
  898MPD2    H213215   2.815   2.408   0.127 -2.1425  0.3383 -0.0112
  898MPD2    H313216   2.661   2.577   0.195  2.0622 -1.6158  1.1650
  898MPD2     N13217   2.831   2.888  17.642  0.8130 -0.0359 -0.3480
  898MPD2    H513218   2.910   2.913  17.584  0.7617 -0.4389 -0.5941
  898MPD2    N113219   3.005   2.449  17.677  0.0452 -0.1248  0.0795
  898MPD2    H713220   3.044   2.477  17.588  0.2060  0.8202  0.4516
  899MPD2     C13221   4.167   3.219  17.468  0.4987 -0.1450 -0.5419
  899MPD2    C113222   4.108   3.207  17.342 -0.2809  0.1110  0.1609
  899MPD2    C213223   4.016   3.101  17.323  0.2680  0.7784 -0.0211
  899MPD2    C313224   3.973   3.023  17.430  0.2614 -0.7946 -0.1622
  899MPD2    C413225   4.027   3.045  17.552  0.0050  0.8453 -0.3021
  899MPD2    C513226   4.129   3.138  17.571 -0.2870 -0.0319  0.0246
  899MPD2     H13227   3.981   3.069  17.226  2.0669  1.6233 -0.9414
  899MPD2    H113228   3.986   2.996  17.639 -0.3019  0.0949 -0.8755
  899MPD2    H213229   4.239   3.298  17.485  1.0263 -0.2168 -2.4738
  899MPD2    H313230   4.160   3.151  17.675  0.7426  0.7070 -0.3673
  899MPD2     N13231   3.872   2.927  17.428 -0.3271  0.0364 -1.0989
  899MPD2    H513232   3.836   2.903  17.519 -0.7365  1.9568 -0.7470
  899MPD2    N113233   4.139   3.309  17.246 -0.4262 -0.3393  0.3486
  899MPD2    H713234   4.196   3.389  17.274 -1.3723  0.6046 -0.4107
  900MPD2     C13235   3.755   0.490  12.267  0.7289  0.4603  0.5256
  900MPD2    C113236   3.678   0.386  12.317  0.2253  0.2207 -0.1505
  900MPD2    C213237   3.551   0.417  12.349 -0.6448 -0.2016  1.0842
  900MPD2    C313238   3.491   0.548  12.329 -0.4351  0.0276 -0.7429
  900MPD2    C413239   3.571   0.642  12.283 -0.3392  0.3382 -0.0637
  900MPD2    C513240   3.698   0.609  12.255 -0.5198 -0.2776 -0.4282
  900MPD2     H13241   3.488   0.340  12.392 -0.9777  0.4193  1.7112
  900MPD2    H113242   3.537   0.744  12.266 -0.7944  0.6861  3.0227
  900MPD2    H213243   3.860   0.478  12.240  0.5204 -0.7260  0.2093
  900MPD2    H313244   3.764   0.686  12.215 -0.0090 -0.2058  0.5638
  900MPD2     N13245   3.352   0.565  12.354  0.2124  0.0520  0.1489
  900MPD2    H513246   3.299   0.479  12.366  0.0371 -0.1369 -1.9685
  900MPD2    N113247   3.735   0.254  12.327 -0.7422 -0.7088 -0.3678
  900MPD2    H713248   3.832   0.240  12.300 -1.3393 -2.4857 -1.5465
  901MPD2     C13249   4.074   4.101  12.794 -0.4545  0.3860  0.0270
  901MPD2    C113250   4.064   4.084  12.657 -0.8425  0.3969 -0.2629
  901MPD2    C213251   4.016   4.192  12.583  0.0441  0.3098 -0.6471
  901MPD2    C313252   3.959   4.301  12.645 -0.2281  0.4944  0.5789
  901MPD2    C413253   3.943   4.301  12.782  0.0352  0.2598 -0.5362
  901MPD2    C513254   4.003   4.202  12.853 -0.7058 -0.2789  0.4128
  901MPD2     H13255   4.011   4.197  12.475  2.5489 -2.4274 -0.9190
  901MPD2    H113256   3.886   4.370  12.845  0.9207 -0.7213  1.3279
  901MPD2    H213257   4.123   4.030  12.860  2.9096  0.4592 -2.4108
  901MPD2    H313258   4.001   4.210  12.961  0.3064 -0.6954  0.4690
  901MPD2     N13259   3.884   4.387  12.555  0.0494 -0.4135 -0.1606
  901MPD2    H513260   3.892   4.373  12.455 -1.1966 -1.1746 -0.1534
  901MPD2    N113261   4.101   3.958  12.601 -0.2940  0.1969 -0.2034
  901MPD2    H713262   4.118   3.883  12.667  0.0893  0.9038  0.5168
  902MPD2     C13263   2.939   3.018  12.330  0.1294  0.2393 -0.5798
  902MPD2    C113264   2.802   3.030  12.339  0.3318 -0.6959  0.1494
  902MPD2    C213265   2.732   2.912  12.369 -0.2895 -0.3312  0.0166
  902MPD2    C313266   2.800   2.791  12.403 -0.0082 -0.0676  0.0473
  902MPD2    C413267   2.934   2.792  12.413 -0.0655 -0.2013  0.4856
  902MPD2    C513268   3.003   2.901  12.370  0.1315 -0.9741 -0.1331
  902MPD2     H13269   2.624   2.916  12.376 -0.4375  0.6151 -2.9974
  902MPD2    H113270   2.990   2.703  12.437  0.5800 -0.0912 -0.6412
  902MPD2    H213271   3.000   3.104  12.304 -0.5551  0.3739 -1.7622
  902MPD2    H313272   3.111   2.894  12.366  0.2491  0.8507 -0.2227
  902MPD2     N13273   2.728   2.666  12.424  0.6192 -0.4379  0.4450
  902MPD2    H513274   2.790   2.589  12.399  0.7511 -0.1618 -0.0665
  902MPD2    N113275   2.729   3.144  12.290  0.1980 -0.1545 -0.4668
  902MPD2    H713276   2.784   3.230  12.291 -1.2938  0.7700  1.1121
  903MPD2     C13277   2.515   2.700  11.647 -0.1146  0.6103  0.4967
  903MPD2    C113278   2.425   2.720  11.754 -0.6257 -0.1238 -0.0487
  903MPD2    C213279   2.317   2.801  11.737  0.3416  0.1220  0.5378
  903MPD2    C313280   2.278   2.851  11.617 -0.4449 -0.1514 -0.0693
  903MPD2    C413281   2.370   2.841  11.514  0.5816  0.0176 -0.7401
  903MPD2    C513282   2.479   2.756  11.526 -0.8283  0.3173 -0.2123
  903MPD2     H13283   2.236   2.807  11.809 -0.2774  0.6847 -0.2022
  903MPD2    H113284   2.346   2.880  11.416  3.0058  3.3894  0.0368
  903MPD2    H213285   2.610   2.647  11.653 -0.3541  0.1505  0.2180
  903MPD2    H313286   2.550   2.740  11.446 -1.4126 -0.0023 -0.6726
  903MPD2     N13287   2.151   2.922  11.600  0.1701  0.0211  0.1382
  903MPD2    H513288   2.101   2.940  11.686  0.0076 -1.5529  0.3780
  903MPD2    N113289   2.454   2.651  11.869 -0.3628  0.0626 -0.0679
  903MPD2    H713290   2.541   2.598  11.871 -0.5546 -0.2968 -1.1469
  904MPD2     C13291   2.383   1.764  14.044  0.2024 -0.0155  0.1665
  904MPD2    C113292   2.343   1.805  13.925 -0.0466  0.3773 -0.2718
  904MPD2    C213293   2.437   1.820  13.823  0.0780 -0.1794  0.2918
  904MPD2    C313294   2.570   1.787  13.841  0.2353  0.0113 -0.1474
  904MPD2    C413295   2.613   1.751  13.971 -0.1868  0.1468 -0.1883
  904MPD2    C513296   2.517   1.725  14.063  0.4836 -0.9584 -0.0401
  904MPD2     H13297   2.407   1.873  13.733 -0.1165  0.8850  0.9866
  904MPD2    H113298   2.715   1.720  13.991  0.1349  1.4784  0.2506
  904MPD2    H213299   2.315   1.745  14.126 -1.1317  2.1560 -0.4372
  904MPD2    H313300   2.545   1.668  14.151  0.4413 -0.2409  0.4362
  904MPD2     N13301   2.668   1.827  13.742  0.4981 -0.2228 -0.4810
  904MPD2    H513302   2.637   1.859  13.651 -0.5088 -1.9793 -0.7604
  904MPD2    N113303   2.202   1.844  13.897 -0.3014 -0.3544  0.8090
  904MPD2    H713304   2.174   1.868  13.802 -0.2280 -0.9359  0.6386
  905MPD2     C13305   1.756   2.101  13.263 -0.2607  0.3748  0.3654
  905MPD2    C113306   1.822   2.006  13.346 -0.2565  0.1768 -0.3673
  905MPD2    C213307   1.880   1.894  13.285 -0.2165 -0.6272  0.5382
  905MPD2    C313308   1.892   1.889  13.150  0.0754  0.4393  0.3088
  905MPD2    C413309   1.836   1.986  13.069  0.6022  0.1936  0.5504
  905MPD2    C513310   1.762   2.092  13.126  0.4797  0.4426 -0.5242
  905MPD2     H13311   1.926   1.810  13.336  1.4429 -0.3814 -0.5462
  905MPD2    H113312   1.855   1.982  12.962 -0.6307 -2.9671  0.4419
  905MPD2    H213313   1.700   2.185  13.303  0.2143  0.5255  0.7070
  905MPD2    H313314   1.727   2.168  13.058 -0.2001 -0.0994 -0.7737
  905MPD2     N13315   1.977   1.795  13.078 -0.9791 -0.8561 -0.1288
  905MPD2    H513316   2.005   1.832  12.988 -0.4188 -3.8996 -1.2071
  905MPD2    N113317   1.827   2.024  13.484 -0.6616 -0.0059 -0.3229
  905MPD2    H713318   1.792   2.112  13.522  0.7299 -0.5633  2.2267
  906MPD2     C13319   0.106   2.351  11.227  0.0769  0.2316 -0.9648
  906MPD2    C113320   4.719   2.345  11.163  0.1555  0.4579 -0.0250
  906MPD2    C213321   4.601   2.362  11.239 -0.0060 -0.0216  0.2688
  906MPD2    C313322   4.602   2.376  11.381 -0.0241 -0.1270 -0.2742
  906MPD2    C413323   4.728   2.386  11.435  0.2507  0.4447 -0.3623
  906MPD2    C513324   0.111   2.367  11.364 -0.3162 -0.2692  0.0714
  906MPD2     H13325   4.511   2.343  11.182  0.8582 -0.7726 -0.8340
  906MPD2    H113326   4.734   2.385  11.543  1.1010 -0.8356 -0.4130
  906MPD2    H213327   0.200   2.339  11.175 -0.7090  0.4513 -2.4210
  906MPD2    H313328   0.205   2.373  11.418 -1.2424  2.0352  1.4480
  906MPD2     N13329   4.486   2.385  11.470 -0.1044 -0.1043  0.2100
  906MPD2    H513330   4.498   2.359  11.568  1.4557  0.7717  0.2577
  906MPD2    N113331   4.696   2.295  11.024 -0.3162 -0.3368 -0.0106
  906MPD2    H713332   4.602   2.305  10.988 -0.3143  1.7982  0.5419
  907MPD2     C13333   3.579   1.171  15.735 -0.2563 -0.7617  0.0447
  907MPD2    C113334   3.569   1.039  15.726 -0.0015 -0.6604  0.3584
  907MPD2    C213335   3.641   0.962  15.816  0.0949 -0.1737  0.0994
  907MPD2    C313336   3.725   1.020  15.910 -0.2444 -0.1371 -0.4205
  907MPD2    C413337   3.727   1.157  15.922  0.3121 -0.3029 -0.1810
  907MPD2    C513338   3.656   1.229  15.829 -0.0069 -0.3649 -0.0165
  907MPD2     H13339   3.641   0.854  15.807  2.0549 -0.2235  0.8552
  907MPD2    H113340   3.778   1.207  16.004 -0.7297 -1.1228  0.9521
  907MPD2    H213341   3.517   1.240  15.678  0.8595  0.2482  0.0617
  907MPD2    H313342   3.670   1.336  15.820  1.1185 -0.3861  1.5522
  907MPD2     N13343   3.803   0.933  15.987  0.1222  0.4608  0.4984
  907MPD2    H513344   3.789   0.833  15.977 -0.0010  0.2462  2.8658
  907MPD2    N113345   3.496   0.969  15.628 -0.0424 -0.0436  0.2461
  907MPD2    H713346   3.484   0.868  15.639  2.5753 -0.4030 -0.2522
  908MPD2     C13347   1.011   1.895   9.202  0.1580 -0.6119 -0.7440
  908MPD2    C113348   1.140   1.920   9.240 -0.0725  0.0883 -0.4420
  908MPD2    C213349   1.179   2.039   9.300  0.5436 -0.3926  0.0472
  908MPD2    C313350   1.080   2.130   9.335 -0.2101 -0.2030 -0.2317
  908MPD2    C413351   0.953   2.092   9.315  0.0003 -0.1946  0.0389
  908MPD2    C513352   0.918   1.977   9.244  0.2905 -0.5712 -0.3973
  908MPD2     H13353   1.284   2.055   9.323  0.2293  0.9423  0.5286
  908MPD2    H113354   0.866   2.154   9.336  0.7331  0.8875 -0.1247
  908MPD2    H213355   0.988   1.798   9.160 -1.6751 -0.5429  0.0983
  908MPD2    H313356   0.813   1.957   9.223  0.1186  1.3850 -1.4835
  908MPD2     N13357   1.120   2.239   9.414  0.0734  0.0527  0.0775
  908MPD2    H513358   1.218   2.264   9.419  0.0878 -0.3984  2.3730
  908MPD2    N113359   1.232   1.821   9.200 -0.8111  0.2642 -0.2538
  908MPD2    H713360   1.192   1.740   9.153  0.9595  0.8400 -2.7886
  909MPD2     C13361   1.543   0.357  12.036 -0.6542  0.8335  0.0614
  909MPD2    C113362   1.507   0.426  11.925 -0.3699 -0.0701 -0.2397
  909MPD2    C213363   1.381   0.408  11.884  0.4549 -0.3464  0.2117
  909MPD2    C313364   1.290   0.329  11.946  0.1547  0.1667 -0.4141
  909MPD2    C413365   1.327   0.265  12.065 -0.4717 -0.9776  0.0737
  909MPD2    C513366   1.462   0.274  12.102  0.3551  0.5768 -0.0262
  909MPD2     H13367   1.349   0.469  11.800  1.6084 -0.2051 -0.1222
  909MPD2    H113368   1.254   0.214  12.127 -0.8966 -2.6535 -1.7922
  909MPD2    H213369   1.634   0.382  12.090 -0.8901  1.9410 -0.0427
  909MPD2    H313370   1.499   0.223  12.190 -0.3631 -0.1174 -0.1342
  909MPD2     N13371   1.168   0.319  11.883  0.2924 -0.1772 -0.2140
  909MPD2    H513372   1.156   0.376  11.800 -1.1765 -0.9046 -0.5122
  909MPD2    N113373   1.590   0.517  11.855  0.0120  0.4442 -0.5471
  909MPD2    H713374   1.551   0.559  11.772 -0.2901 -1.7209 -1.4938
  910MPD2     C13375   2.526   1.721  15.914 -0.0939 -0.2777 -0.0124
  910MPD2    C113376   2.589   1.615  15.856  0.5410  0.4899 -0.2507
  910MPD2    C213377   2.550   1.586  15.723  0.2585 -0.1185  0.9523
  910MPD2    C313378   2.454   1.661  15.653  0.3055 -0.8386 -0.2002
  910MPD2    C413379   2.400   1.769  15.724 -0.1012 -0.8009  0.3743
  910MPD2    C513380   2.442   1.799  15.847 -0.1750 -0.3316 -0.6181
  910MPD2     H13381   2.597   1.503  15.669 -1.8231 -0.9325  0.4003
  910MPD2    H113382   2.332   1.831  15.667  1.5341  1.3432  0.7541
  910MPD2    H213383   2.554   1.759  16.012  1.4320 -1.9814  0.2142
  910MPD2    H313384   2.401   1.888  15.893 -1.9872 -2.7250  2.4098
  910MPD2     N13385   2.422   1.645  15.516  0.7702  0.0644 -0.7140
  910MPD2    H513386   2.338   1.694  15.489  0.5715  0.1143  0.0025
  910MPD2    N113387   2.669   1.527  15.925  0.4955  0.9126  0.2306
  910MPD2    H713388   2.725   1.468  15.863  0.2103  1.0829 -0.1939
  911MPD2     C13389   0.835   2.147  15.940 -0.0277  0.4571 -0.6926
  911MPD2    C113390   0.886   2.189  16.061  0.0820  0.4734 -0.4418
  911MPD2    C213391   0.871   2.313  16.109  0.2075  0.5705  0.1612
  911MPD2    C313392   0.797   2.409  16.034 -0.0866 -0.0398  0.3182
  911MPD2    C413393   0.744   2.364  15.911 -0.3651  0.5326  0.1279
  911MPD2    C513394   0.756   2.234  15.870  0.0346 -0.6693 -0.1465
  911MPD2     H13395   0.920   2.356  16.196 -2.9885  3.5870  0.4524
  911MPD2    H113396   0.680   2.423  15.847  1.2939 -0.2252 -2.1950
  911MPD2    H213397   0.842   2.048  15.896  0.8866 -0.5173  1.6399
  911MPD2    H313398   0.706   2.205  15.779  3.5268  0.7355 -2.5153
  911MPD2     N13399   0.764   2.549  16.068  0.0614  0.3565 -0.0876
  911MPD2    H513400   0.724   2.604  15.993 -0.9008 -1.7398 -1.1160
  911MPD2    N113401   0.976   2.099  16.120 -0.7416 -0.8618 -0.7841
  911MPD2    H713402   0.982   2.004  16.085 -0.9293 -0.8017 -0.9765
  912MPD2     C13403   0.313   2.526  15.752 -0.2298 -0.2849  0.8683
  912MPD2    C113404   0.351   2.515  15.889 -0.1998  0.3727 -0.4525
  912MPD2    C213405   0.382   2.390  15.936  0.0532 -0.0376 -0.2291
  912MPD2    C313406   0.382   2.282  15.850  0.1076 -0.4513  0.5729
  912MPD2    C413407   0.345   2.292  15.718 -0.2460 -0.5013  0.0905
  912MPD2    C513408   0.299   2.413  15.674  0.3617  0.2651 -0.5002
  912MPD2     H13409   0.398   2.379  16.042  0.2673  3.7443  0.1382
  912MPD2    H113410   0.347   2.212  15.645 -3.0928  0.4240 -0.9997
  912MPD2    H213411   0.265   2.614  15.711 -0.7053 -1.3063 -0.7214
  912MPD2    H313412   0.260   2.419  15.573 -0.8766  0.6229 -0.0013
  912MPD2     N13413   0.406   2.156  15.913  0.5534  0.2504  0.4854
  912MPD2    H513414   0.412   2.154  16.014  0.5260  2.3873  0.5153
  912MPD2    N113415   0.372   2.633  15.968 -0.1510  0.4419  0.2123
  912MPD2    H713416   0.360   2.724  15.924  2.3371 -0.4093 -2.1765
  913MPD2     C13417   1.265   3.169  10.178 -0.3743 -0.1264  0.8063
  913MPD2    C113418   1.281   3.281  10.254  0.4339  0.2450 -1.1259
  913MPD2    C213419   1.279   3.402  10.178 -1.0734  0.1795 -0.0623
  913MPD2    C313420   1.279   3.407  10.042 -0.1165  0.3765  0.2294
  913MPD2    C413421   1.265   3.287   9.971 -0.0736 -0.7245 -0.3701
  913MPD2    C513422   1.248   3.170  10.044  0.1123 -0.4851 -0.2361
  913MPD2     H13423   1.301   3.490  10.236 -0.2295  0.8585 -1.3920
  913MPD2    H113424   1.262   3.293   9.862 -0.9438  1.3406 -0.2393
  913MPD2    H213425   1.259   3.072  10.228 -1.4508  0.3491  1.5920
  913MPD2    H313426   1.233   3.077   9.991  0.7377  0.4034 -1.9829
  913MPD2     N13427   1.278   3.527   9.969  0.1735 -0.2568  0.0424
  913MPD2    H513428   1.256   3.507   9.872 -1.3759 -1.4040  0.6238
  913MPD2    N113429   1.291   3.263  10.397 -0.3868  0.1176 -0.2994
  913MPD2    H713430   1.294   3.169  10.435 -0.0594 -0.7760 -2.5314
  914MPD2     C13431   3.867   3.730  11.657  0.0928  0.8213  0.8704
  914MPD2    C113432   3.942   3.835  11.721  0.1967 -0.9223  0.0321
  914MPD2    C213433   4.005   3.812  11.841 -0.4306  0.2887  0.1278
  914MPD2    C313434   3.993   3.691  11.894  0.1085 -0.6814 -0.2283
  914MPD2    C413435   3.934   3.580  11.831  0.1005  0.1102  0.5254
  914MPD2    C513436   3.872   3.608  11.720  0.3027  0.1033 -0.3044
  914MPD2     H13437   4.054   3.897  11.888 -0.6706 -0.0747  1.0372
  914MPD2    H113438   3.923   3.481  11.874 -1.7998  1.2318  2.6103
  914MPD2    H213439   3.811   3.744  11.566  2.6346 -0.6766 -0.9086
  914MPD2    H313440   3.823   3.528  11.665  0.8135 -1.0715  0.9338
  914MPD2     N13441   4.055   3.685  12.022 -0.4281  0.5466 -0.4807
  914MPD2    H513442   4.120   3.759  12.045 -0.2454  0.3559 -0.3765
  914MPD2    N113443   3.940   3.972  11.678  0.0444  0.1705 -0.2574
  914MPD2    H713444   3.981   4.047  11.733 -0.7330 -0.5322  1.2819
  915MPD2     C13445   1.716   3.282  15.332  0.3968  0.5964 -0.2505
  915MPD2    C113446   1.586   3.315  15.310 -0.0461 -0.4023 -0.2189
  915MPD2    C213447   1.511   3.364  15.420 -0.0909  0.0830 -0.2984
  915MPD2    C313448   1.568   3.382  15.544  0.5759 -0.2335 -0.2848
  915MPD2    C413449   1.699   3.350  15.560  0.5544  0.4139  0.1555
  915MPD2    C513450   1.769   3.288  15.459  0.3246 -0.2171 -0.0052
  915MPD2     H13451   1.406   3.381  15.398 -0.5270 -0.7102  1.2348
  915MPD2    H113452   1.753   3.367  15.653  1.6645  1.0902 -0.6131
  915MPD2    H213453   1.772   3.247  15.246 -2.6818 -1.4664 -1.4220
  915MPD2    H313454   1.871   3.258  15.481  0.5926  1.1506  0.6361
  915MPD2     N13455   1.487   3.427  15.651  0.1365  0.4121 -0.0582
  915MPD2    H513456   1.393   3.459  15.630 -0.7631 -1.9336  0.3063
  915MPD2    N113457   1.537   3.305  15.175  0.2404 -0.2368  0.7687
  915MPD2    H713458   1.589   3.252  15.105  0.0399  2.8960 -1.7412
  916MPD2     C13459   4.705   1.974  15.962 -0.2174 -0.8628 -0.3652
  916MPD2    C113460   4.662   1.852  16.006  0.0516  0.9427 -0.1121
  916MPD2    C213461   4.726   1.739  15.955  0.2645  0.0895 -0.0842
  916MPD2    C313462   0.081   1.749  15.852 -0.0093  0.7880 -0.4830
  916MPD2    C413463   0.116   1.868  15.803 -0.5064 -0.1604  0.5952
  916MPD2    C513464   0.066   1.980  15.864  0.3721 -0.3668  0.5689
  916MPD2     H13465   4.683   1.641  15.973  2.5033 -1.0678 -1.0504
  916MPD2    H113466   0.183   1.887  15.720  1.3757  1.1832  2.4167
  916MPD2    H213467   4.665   2.067  16.002  0.9543 -0.2222 -0.6849
  916MPD2    H313468   0.093   2.075  15.820 -0.6778 -0.4014 -0.1455
  916MPD2     N13469   0.120   1.625  15.791  0.1138 -0.1054  0.4118
  916MPD2    H513470   0.105   1.539  15.843  3.0494 -0.1468  1.2238
  916MPD2    N113471   4.564   1.846  16.111  0.7387  0.4134  0.5775
  916MPD2    H713472   4.519   1.933  16.136 -0.8808 -0.6436  1.4132
  917MPD2     C13473   0.054   4.096  10.809 -0.1130  0.2086  0.6185
  917MPD2    C113474   0.112   4.115  10.928 -0.0481  0.9006  0.0500
  917MPD2    C213475   0.208   4.214  10.943  0.3171  0.0229  0.0846
  917MPD2    C313476   0.241   4.296  10.843 -0.0624 -0.3056 -0.1738
  917MPD2    C413477   0.199   4.264  10.719 -0.4036  0.0791 -0.2083
  917MPD2    C513478   0.104   4.169  10.703 -0.4816 -0.9634 -0.5354
  917MPD2     H13479   0.248   4.230  11.043 -0.4057  1.5839  0.1272
  917MPD2    H113480   0.223   4.325  10.632 -4.2101  0.4487 -1.0262
  917MPD2    H213481   4.718   4.016  10.797 -0.1858  0.2701  0.6543
  917MPD2    H313482   0.063   4.159  10.603  0.7775  0.2187 -1.1917
  917MPD2     N13483   0.322   4.413  10.863  0.3554 -0.5104  0.3075
  917MPD2    H513484   0.333   4.469  10.779  0.2027 -0.0388  0.6055
  917MPD2    N113485   0.064   4.037  11.035  0.2125 -0.3412  0.1610
  917MPD2    H713486   4.720   3.977  11.025  0.8276 -1.7234  3.6874
  918MPD2     C13487   0.192   4.562  11.824  0.0337 -0.6222  0.2673
  918MPD2    C113488   0.286   4.535  11.726  0.3240 -0.1948 -0.6350
  918MPD2    C213489   0.265   4.421  11.648  0.4662  0.7143  0.3077
  918MPD2    C313490   0.149   4.345  11.666 -0.3004 -0.1274 -0.7420
  918MPD2    C413491   0.054   4.378  11.762  0.5517 -0.1469 -0.3141
  918MPD2    C513492   0.082   4.485  11.840 -0.3422  0.2241 -0.2740
  918MPD2     H13493   0.341   4.387  11.579 -0.6237 -1.9766  0.4308
  918MPD2    H113494   4.693   4.334  11.774 -0.2719  2.0313  0.9068
  918MPD2    H213495   0.205   4.639  11.900  1.2943 -1.5889  1.0239
  918MPD2    H313496   0.010   4.511  11.916 -0.1785 -0.3802  0.0813
  918MPD2     N13497   0.134   4.225  11.593  0.3077 -0.3837 -0.6528
  918MPD2    H513498   0.190   4.211  11.510  1.8027 -0.8710  0.4423
  918MPD2    N113499   0.418   4.591  11.738 -0.0900  0.5299 -0.1670
  918MPD2    H713500   0.493   4.534  11.699  0.4218  1.3984 -0.4594
  919MPD2     C13501   1.313   3.575  11.122 -0.1296 -0.1980 -0.3247
  919MPD2    C113502   1.226   3.478  11.085 -1.1419 -0.1099  0.0966
  919MPD2    C213503   1.161   3.487  10.961  0.7118 -0.0209  0.4639
  919MPD2    C313504   1.194   3.585  10.865 -0.5203 -0.1726  0.5253
  919MPD2    C413505   1.294   3.682  10.895  0.1202 -0.1687 -0.1962
  919MPD2    C513506   1.344   3.673  11.025  0.3975  0.5277 -0.4037
  919MPD2     H13507   1.075   3.422  10.946  1.6198 -0.2663 -3.4860
  919MPD2    H113508   1.335   3.759  10.831  1.1938 -1.4312 -1.0321
  919MPD2    H213509   1.354   3.582  11.222  2.1753  1.5274 -1.3922
  919MPD2    H313510   1.422   3.741  11.056  0.5529  0.3022 -0.3020
  919MPD2     N13511   1.132   3.600  10.738  0.1398 -0.1440  0.3736
  919MPD2    H513512   1.155   3.681  10.680 -1.2007 -0.0522 -0.0464
  919MPD2    N113513   1.189   3.367  11.169  0.3500 -0.5705  0.0286
  919MPD2    H713514   1.126   3.301  11.125 -0.9773  0.5215  0.2561
  920MPD2     C13515   1.116   4.106   9.915 -0.2540 -0.4044  0.1821
  920MPD2    C113516   1.018   4.021   9.875  0.3043  0.4452  0.7618
  920MPD2    C213517   0.980   3.918   9.960  0.1128  0.6789  0.4178
  920MPD2    C313518   1.049   3.902  10.073  0.1686  0.0615  0.5304
  920MPD2    C413519   1.160   3.976  10.104  0.2641 -0.5589 -0.0197
  920MPD2    C513520   1.188   4.078  10.024 -0.2170 -0.2187 -0.6655
  920MPD2     H13521   0.905   3.847   9.930  0.5142  0.0733  0.8567
  920MPD2    H113522   1.230   3.961  10.185  0.8809  1.5108 -0.1717
  920MPD2    H213523   1.145   4.196   9.861 -0.8226  0.4834  1.3521
  920MPD2    H313524   1.268   4.140  10.064 -0.5578 -0.2353  0.0280
  920MPD2     N13525   1.003   3.794  10.152  0.2130  0.5341 -0.1913
  920MPD2    H513526   0.939   3.723  10.117 -0.5838 -0.7255  3.8007
  920MPD2    N113527   0.943   4.040   9.757 -0.1251  0.1857  0.3056
  920MPD2    H713528   0.859   3.984   9.748 -0.3268  0.7767 -1.4495
  921MPD2     C13529   1.673   2.433  16.673 -0.3138  0.5722 -0.4554
  921MPD2    C113530   1.716   2.339  16.580 -0.4028  1.1205  0.0626
  921MPD2    C213531   1.639   2.233  16.560  0.2124  0.2826 -0.0120
  921MPD2    C313532   1.515   2.218  16.627 -0.4904  0.2437 -0.0530
  921MPD2    C413533   1.474   2.313  16.718 -0.8725 -0.1905  0.4031
  921MPD2    C513534   1.550   2.427  16.731  0.4354 -0.8765 -0.0845
  921MPD2     H13535   1.670   2.162  16.484  0.5962  1.7828 -1.2557
  921MPD2    H113536   1.375   2.307  16.760 -0.4964  1.2010  1.5120
  921MPD2    H213537   1.730   2.525  16.681 -0.1697  0.4487 -0.0518
  921MPD2    H313538   1.520   2.508  16.796 -1.1322 -0.6356 -1.1068
  921MPD2     N13539   1.428   2.114  16.589  0.1433 -0.4150 -0.2571
  921MPD2    H513540   1.343   2.110  16.644 -0.0636  0.8719 -0.4702
  921MPD2    N113541   1.837   2.363  16.503  0.5204  0.4748 -0.1743
  921MPD2    H713542   1.895   2.440  16.534 -0.4422  1.0835  0.1172
  922MPD2     C13543   2.323   0.342  16.572 -0.6896  0.3226 -0.1115
  922MPD2    C113544   2.291   0.349  16.707 -0.0832 -0.7343  0.0999
  922MPD2    C213545   2.252   0.227  16.766  0.1386  0.6688  0.2782
  922MPD2    C313546   2.248   0.106  16.695  0.2851  0.4175  0.5453
  922MPD2    C413547   2.278   0.108  16.563 -0.0643  0.3126  0.8408
  922MPD2    C513548   2.317   0.221  16.499  0.1408  0.8435  0.1677
  922MPD2     H13549   2.225   0.230  16.871  3.8533  0.8240  1.2362
  922MPD2    H113550   2.254   0.019  16.505 -1.7550  1.4773 -0.2465
  922MPD2    H213551   2.363   0.432  16.527 -2.3426 -0.2780 -2.7874
  922MPD2    H313552   2.337   0.220  16.392  1.3620 -0.7103  0.4095
  922MPD2     N13553   2.209   4.731  16.775  0.4387 -0.5814 -0.4602
  922MPD2    H513554   2.198   0.013  16.874  1.9419 -2.0498 -0.0136
  922MPD2    N113555   2.303   0.467  16.787  0.1287 -0.2506  0.4315
  922MPD2    H713556   2.299   0.448  16.886  1.5068  0.8390  0.7063
  923MPD2     C13557   2.814   2.785   8.853 -0.1521 -0.5396  0.8391
  923MPD2    C113558   2.756   2.818   8.977 -0.3415 -0.7573 -0.3851
  923MPD2    C213559   2.840   2.815   9.090 -0.1518  0.0108  0.6691
  923MPD2    C313560   2.975   2.794   9.078 -0.2387 -0.7227 -0.3904
  923MPD2    C413561   3.031   2.770   8.951  0.3435  0.1202 -0.2675
  923MPD2    C513562   2.950   2.765   8.840  0.2068 -0.3269 -0.4277
  923MPD2     H13563   2.790   2.835   9.185 -2.7430  2.4772 -1.2279
  923MPD2    H113564   3.139   2.764   8.937  0.3028 -0.6507 -0.2922
  923MPD2    H213565   2.753   2.784   8.763  3.2622  6.2501 -1.6104
  923MPD2    H313566   2.997   2.743   8.745  0.1496 -1.6110 -0.1560
  923MPD2     N13567   3.068   2.797   9.186 -0.8814 -0.2450 -0.8200
  923MPD2    H513568   3.164   2.771   9.166  0.3872  0.2740  4.4872
  923MPD2    N113569   2.617   2.852   8.982  0.1636 -0.3652  0.2282
  923MPD2    H713570   2.573   2.855   8.891  0.6841  1.3057  0.0313
  924MPD2     C13571   3.612   0.142  15.944  0.9659  0.1370  0.1241
  924MPD2    C113572   3.624   0.184  16.079  0.5183 -0.6555 -0.4171
  924MPD2    C213573   3.711   0.280  16.113  0.0866  0.6030 -0.0625
  924MPD2    C313574   3.786   0.344  16.015 -0.4155 -0.3402 -1.3925
  924MPD2    C413575   3.769   0.302  15.884  0.4805  0.2778 -0.3989
  924MPD2    C513576   3.682   0.212  15.847 -0.3196 -0.8110 -0.1624
  924MPD2     H13577   3.727   0.299  16.219 -1.7159  1.0528  0.1217
  924MPD2    H113578   3.820   0.351  15.802 -1.0952  3.0207  0.2562
  924MPD2    H213579   3.543   0.066  15.909 -0.3141  1.6146 -0.5423
  924MPD2    H313580   3.665   0.184  15.744  1.7177  0.4273 -0.8543
  924MPD2     N13581   3.880   0.450  16.043  0.8714  0.1209  0.0209
  924MPD2    H513582   3.929   0.485  15.961  0.7058  0.3151  0.0055
  924MPD2    N113583   3.546   0.117  16.175  0.2192  0.1007  0.4907
  924MPD2    H713584   3.492   0.036  16.147 -0.9440  0.0431  2.8937
  925MPD2     C13585   2.613   2.789  14.200  0.2892 -0.5521  0.0563
  925MPD2    C113586   2.484   2.800  14.159 -0.4764 -0.5404  0.3112
  925MPD2    C213587   2.386   2.775  14.256  0.2533  0.7992 -0.3837
  925MPD2    C313588   2.422   2.732  14.381  1.3805  0.1197 -0.1027
  925MPD2    C413589   2.552   2.719  14.420 -0.0745 -0.2192 -0.5407
  925MPD2    C513590   2.644   2.752  14.327  0.7491  0.7230  0.3799
  925MPD2     H13591   2.281   2.781  14.229  0.8273  2.3527 -2.2675
  925MPD2    H113592   2.585   2.692  14.520 -2.2716 -3.5715 -0.7090
  925MPD2    H213593   2.704   2.792  14.140  1.4370  1.8302  1.8707
  925MPD2    H313594   2.750   2.744  14.348  0.6710  0.2447  0.6016
  925MPD2     N13595   2.334   2.683  14.480  0.1285  0.4407  0.0083
  925MPD2    H513596   2.375   2.640  14.563  1.9855 -0.0363 -1.1553
  925MPD2    N113597   2.448   2.805  14.018 -0.0657 -0.2364  0.5357
  925MPD2    H713598   2.354   2.781  13.988 -0.1849  3.3024 -1.9862
  926MPD2     C13599   1.403   1.439  13.315  0.3998 -0.4169  1.2214
  926MPD2    C113600   1.303   1.524  13.276  0.4173 -0.8152 -0.3338
  926MPD2    C213601   1.334   1.661  13.287 -0.2764 -0.9843  0.6285
  926MPD2    C313602   1.446   1.710  13.346 -0.6529  0.1009 -0.0279
  926MPD2    C413603   1.533   1.620  13.404  0.0470 -0.1227 -0.7671
  926MPD2    C513604   1.516   1.491  13.367 -0.1059 -0.0619 -0.1403
  926MPD2     H13605   1.268   1.732  13.239  0.9856  0.8223  1.5751
  926MPD2    H113606   1.615   1.655  13.465 -0.5051 -0.7993  0.3492
  926MPD2    H213607   1.386   1.333  13.296  0.4138 -0.1166 -0.4725
  926MPD2    H313608   1.587   1.415  13.396  3.2123  2.5992 -1.2051
  926MPD2     N13609   1.471   1.856  13.360 -0.0038  0.0080  0.0778
  926MPD2    H513610   1.549   1.887  13.418 -0.9525 -1.9720  2.4234
  926MPD2    N113611   1.180   1.484  13.214  0.0845 -0.1188 -0.1512
  926MPD2    H713612   1.119   1.544  13.160 -0.9091 -0.9303  0.0485
  927MPD2     C13613   1.484   2.679  17.360 -0.6279 -1.0458  0.6124
  927MPD2    C113614   1.425   2.790  17.417  0.0878  0.2084 -0.1166
  927MPD2    C213615   1.486   2.915  17.407 -0.3636 -0.4738  0.3317
  927MPD2    C313616   1.594   2.932  17.326 -0.6460 -0.3191  0.1644
  927MPD2    C413617   1.642   2.822  17.263  0.5405 -0.0370  0.0530
  927MPD2    C513618   1.593   2.695  17.288  0.4136  0.3187  0.8508
  927MPD2     H13619   1.447   2.997  17.466 -1.8217  0.3868 -1.8447
  927MPD2    H113620   1.731   2.819  17.201  2.1524 -1.6099  2.4929
  927MPD2    H213621   1.444   2.581  17.382 -0.1160 -1.7609 -1.6159
  927MPD2    H313622   1.634   2.611  17.233 -0.3414 -0.2737  1.1816
  927MPD2     N13623   1.632   3.063  17.296 -0.1647 -0.4363 -0.1578
  927MPD2    H513624   1.582   3.136  17.345  1.0082 -0.7182  1.4549
  927MPD2    N113625   1.320   2.763  17.501 -0.3744 -0.1158 -0.4252
  927MPD2    H713626   1.284   2.668  17.509 -1.4374  0.4740  1.5967
  928MPD2     C13627   3.197   1.125   0.165  0.0699 -0.6724 -0.7215
  928MPD2    C113628   3.200   1.233   0.259  0.2544  0.2184  0.1969
  928MPD2    C213629   3.306   1.328   0.248 -1.2358  0.2348 -0.0408
  928MPD2    C313630   3.386   1.331   0.134  0.0613 -0.0802  0.1033
  928MPD2    C413631   3.361   1.235   0.036  0.3739 -0.3084  0.4751
  928MPD2    C513632   3.273   1.134   0.057  0.1750  0.1962 -0.3370
  928MPD2     H13633   3.317   1.405   0.324  0.4198  0.2267 -0.2782
  928MPD2    H113634   3.421   1.218  17.693  1.9790 -0.8090  1.6362
  928MPD2    H213635   3.140   1.034   0.180  0.1544 -0.5769  0.2239
  928MPD2    H313636   3.265   1.049  17.737  0.0433  0.3618 -0.5356
  928MPD2     N13637   3.494   1.416   0.114  0.3695  0.8025  0.7796
  928MPD2    H513638   3.522   1.432   0.018  4.3585  0.5513  1.8947
  928MPD2    N113639   3.120   1.227   0.378 -0.1678 -0.8351 -0.3491
  928MPD2    H713640   3.063   1.145   0.394  0.8124 -1.2627  0.9988
  929MPD2     C13641   2.760   2.132   9.377 -0.2395 -0.2185  0.6054
  929MPD2    C113642   2.816   2.088   9.497  0.0805 -0.3926 -0.6643
  929MPD2    C213643   2.830   1.953   9.519 -0.8305 -0.1777  0.2949
  929MPD2    C313644   2.761   1.863   9.438  0.4238 -0.8437 -0.8695
  929MPD2    C413645   2.705   1.907   9.324  0.4282 -0.0963 -0.5607
  929MPD2    C513646   2.702   2.039   9.295  0.1085  0.3253 -0.5310
  929MPD2     H13647   2.864   1.920   9.617 -0.1556 -1.8353 -0.4953
  929MPD2    H113648   2.650   1.839   9.260 -0.4838  0.4933 -0.4104
  929MPD2    H213649   2.756   2.238   9.354  1.1116 -0.8370 -2.5131
  929MPD2    H313650   2.646   2.068   9.207 -0.8122  0.9773  0.2728
  929MPD2     N13651   2.741   1.726   9.465  0.4529 -0.1811  0.2253
  929MPD2    H513652   2.696   1.673   9.391  1.3263  0.2380 -0.6055
  929MPD2    N113653   2.858   2.187   9.594 -0.0740  0.1468  0.3480
  929MPD2    H713654   2.827   2.282   9.575  0.4481 -0.2479 -2.5243
  930MPD2     C13655   0.523   4.218  13.883 -0.5672  0.4620  0.6165
  930MPD2    C113656   0.648   4.220  13.828  0.0156 -0.0001  0.7467
  930MPD2    C213657   0.664   4.165  13.705  0.1674 -0.7118 -0.2019
  930MPD2    C313658   0.561   4.140  13.618 -1.2999  0.4232  0.4311
  930MPD2    C413659   0.433   4.158  13.673  0.1271 -0.5521 -0.5333
  930MPD2    C513660   0.415   4.188  13.802 -0.1404 -0.4509 -0.2687
  930MPD2     H13661   0.766   4.156  13.669 -0.0753 -1.4339 -0.6999
  930MPD2    H113662   0.342   4.145  13.616 -1.5456 -0.1132  2.0688
  930MPD2    H213663   0.499   4.254  13.982 -0.1735  2.0149  0.1513
  930MPD2    H313664   0.314   4.191  13.841  0.2450 -0.9808  0.7764
  930MPD2     N13665   0.584   4.105  13.483 -0.1971  0.3615 -0.2796
  930MPD2    H513666   0.508   4.118  13.417 -0.5902  0.0575  0.1055
  930MPD2    N113667   0.768   4.267  13.891 -0.1587 -0.1315  0.1483
  930MPD2    H713668   0.847   4.280  13.828  0.1910  0.2411  0.6617
  931MPD2     C13669   1.339   2.319   0.213 -0.2730 -0.0847 -0.0521
  931MPD2    C113670   1.212   2.363   0.201 -0.3667  0.2592 -0.4980
  931MPD2    C213671   1.118   2.304   0.288  0.8589  0.1762  0.2145
  931MPD2    C313672   1.155   2.210   0.383 -0.5396  0.5224 -0.3531
  931MPD2    C413673   1.284   2.162   0.382 -0.2945  0.4948  0.0770
  931MPD2    C513674   1.378   2.219   0.305  0.0057  0.0454 -0.3172
  931MPD2     H13675   1.018   2.345   0.289  1.8678  2.6734 -0.4661
  931MPD2    H113676   1.309   2.089   0.458  0.9990 -1.5492 -2.3413
  931MPD2    H213677   1.412   2.353   0.141 -0.1463 -0.7620 -0.2428
  931MPD2    H313678   1.477   2.177   0.293  1.3353  2.6559  1.4977
  931MPD2     N13679   1.065   2.159   0.484 -0.4521  0.5065 -0.0804
  931MPD2    H513680   1.102   2.080   0.535 -0.3056  0.7904  0.2520
  931MPD2    N113681   1.175   2.459   0.110  0.3316 -0.0112 -0.0503
  931MPD2    H713682   1.250   2.510   0.066  0.9506  1.8267  3.1196
  932MPD2     C13683   2.429   3.131  11.078  0.4555 -0.1620 -0.1014
  932MPD2    C113684   2.559   3.114  11.021  0.5227 -1.0139 -0.1570
  932MPD2    C213685   2.626   2.995  11.029 -0.1718 -0.4323 -0.1411
  932MPD2    C313686   2.573   2.882  11.097  0.1308 -0.1074  0.3303
  932MPD2    C413687   2.443   2.900  11.142 -0.3345  0.1311  0.4745
  932MPD2    C513688   2.382   3.017  11.132 -0.6874  0.0118 -0.0620
  932MPD2     H13689   2.726   2.987  10.987  0.4693  1.9923  0.9467
  932MPD2    H113690   2.379   2.824  11.184  0.1577 -0.2193  0.5861
  932MPD2    H213691   2.366   3.219  11.087  0.5842 -0.1695  0.8650
  932MPD2    H313692   2.280   3.011  11.169 -0.8330 -0.8624 -0.5831
  932MPD2     N13693   2.641   2.764  11.102 -0.2382 -0.6778  0.0704
  932MPD2    H513694   2.595   2.689  11.154 -1.8879 -2.2283 -3.6060
  932MPD2    N113695   2.622   3.223  10.957  0.0413 -0.1676  0.2682
  932MPD2    H713696   2.701   3.188  10.902 -1.4189 -1.3771 -1.0592
  933MPD2     C13697   2.679   1.487   1.167 -0.3573 -0.2431 -0.1900
  933MPD2    C113698   2.739   1.541   1.055 -0.1343  0.5651  0.8072
  933MPD2    C213699   2.723   1.675   1.039  0.4031 -0.2889 -0.1895
  933MPD2    C313700   2.687   1.756   1.149  0.5308  0.3462 -0.0902
  933MPD2    C413701   2.647   1.701   1.265  0.1770 -0.5346 -0.1579
  933MPD2    C513702   2.634   1.564   1.272  0.2128 -0.0619 -0.1191
  933MPD2     H13703   2.750   1.725   0.947 -0.4680  0.0885 -0.2387
  933MPD2    H113704   2.621   1.750   1.359 -1.7793 -1.0467 -0.4444
  933MPD2    H213705   2.684   1.380   1.181  3.5796  0.0751  0.7583
  933MPD2    H313706   2.596   1.520   1.363 -1.8251  2.6951  0.3502
  933MPD2     N13707   2.675   1.898   1.129  0.0890  0.4182 -0.2418
  933MPD2    H513708   2.710   1.931   1.040 -0.0210  2.1468  0.3592
  933MPD2    N113709   2.791   1.457   0.960  0.3781  0.2033 -0.2549
  933MPD2    H713710   2.794   1.360   0.992 -0.3217  0.2751  0.0217
  934MPD2     C13711   0.090   4.567   0.811  0.0846  0.1955 -0.0073
  934MPD2    C113712   0.135   4.495   0.698  0.1161 -0.4446 -1.1457
  934MPD2    C213713   0.062   4.383   0.657 -0.0123  0.0089  0.6132
  934MPD2    C313714   4.669   4.360   0.713 -0.0879 -0.3195  0.9068
  934MPD2    C413715   4.628   4.430   0.822  0.1088 -0.2603  0.0732
  934MPD2    C513716   4.707   4.532   0.870  0.1413 -1.3143  0.2404
  934MPD2     H13717   0.099   4.323   0.574 -1.1384  0.3906 -0.1814
  934MPD2    H113718   4.535   4.407   0.872 -1.5281  3.3037 -1.2964
  934MPD2    H213719   0.137   4.649   0.865 -0.0056  1.9962 -2.6942
  934MPD2    H313720   4.675   4.585   0.959  1.6565  1.3361 -0.7755
  934MPD2     N13721   4.582   4.263   0.672  0.2100 -0.5215 -0.4754
  934MPD2    H513722   4.503   4.251   0.734 -0.7308  2.1809 -1.1903
  934MPD2    N113723   0.267   4.523   0.648  0.3235  0.6585  0.2048
  934MPD2    H713724   0.307   4.448   0.593  0.6856  0.2249  1.0616
  935MPD2     C13725   4.628   3.381   0.347 -0.2612  0.4310 -0.2500
  935MPD2    C113726   4.494   3.397   0.392  0.0920  0.2444  0.6583
  935MPD2    C213727   4.427   3.519   0.389 -0.5613 -0.1733 -0.2987
  935MPD2    C313728   4.495   3.625   0.340 -0.1392  0.3746 -0.1614
  935MPD2    C413729   4.620   3.617   0.284 -0.1862 -1.1439 -0.7235
  935MPD2    C513730   4.684   3.493   0.290 -0.0720 -0.1033  0.0001
  935MPD2     H13731   4.335   3.531   0.446 -1.1102 -1.9016 -0.8160
  935MPD2    H113732   4.683   3.693   0.240  0.8186 -1.3523  0.3685
  935MPD2    H213733   4.678   3.285   0.341 -0.1359  0.3514  1.8927
  935MPD2    H313734   0.048   3.488   0.249 -0.2280 -0.0157 -0.3948
  935MPD2     N13735   4.457   3.756   0.347  0.5145 -0.2665  0.0615
  935MPD2    H513736   4.526   3.824   0.320 -0.2536  1.0403  1.3947
  935MPD2    N113737   4.416   3.289   0.440  0.0111  0.4571  0.1243
  935MPD2    H713738   4.321   3.304   0.474 -0.6874 -0.5726 -1.3271
  936MPD2     C13739   2.668   1.375  12.408 -0.0497 -0.6243 -0.5004
  936MPD2    C113740   2.740   1.302  12.499  0.2508  0.3543 -0.3188
  936MPD2    C213741   2.877   1.318  12.501  0.3270 -0.7269  0.2357
  936MPD2    C313742   2.942   1.411  12.415  0.1675  0.8283 -0.5049
  936MPD2    C413743   2.875   1.487  12.335  0.7573  0.4942 -0.1667
  936MPD2    C513744   2.737   1.478  12.337  0.2982  0.0996 -0.5169
  936MPD2     H13745   2.938   1.264  12.573  2.6335  2.0060  0.3386
  936MPD2    H113746   2.917   1.565  12.272  1.4181  0.2447 -0.0347
  936MPD2    H213747   2.561   1.380  12.391  0.1723 -2.5680 -2.4715
  936MPD2    H313748   2.681   1.541  12.269 -1.5007 -1.1601 -0.2080
  936MPD2     N13749   3.078   1.433  12.434  0.2593  0.0923 -0.0276
  936MPD2    H513750   3.122   1.358  12.485  1.4180  0.0206 -1.1406
  936MPD2    N113751   2.694   1.220  12.603  0.0335  0.6334 -0.2306
  936MPD2    H713752   2.761   1.170  12.661 -0.8107 -2.0225 -1.5810
  937MPD2     C13753   1.082   2.665  11.189 -0.4846 -0.3054  0.4230
  937MPD2    C113754   1.188   2.751  11.196 -0.3037  0.3161 -1.2301
  937MPD2    C213755   1.278   2.756  11.090 -0.1477 -0.0838 -0.1331
  937MPD2    C313756   1.280   2.660  10.990  0.0457  0.3192  0.7146
  937MPD2    C413757   1.180   2.558  11.001 -0.0505 -0.8840  0.2734
  937MPD2    C513758   1.080   2.563  11.094  0.8494  0.3476 -0.6171
  937MPD2     H13759   1.347   2.839  11.075 -2.2159  1.8417  1.0135
  937MPD2    H113760   1.158   2.494  10.917 -0.8739  0.2355 -0.3625
  937MPD2    H213761   1.001   2.666  11.260 -0.9952  2.2701 -0.2089
  937MPD2    H313762   0.996   2.496  11.083  1.2977 -0.4532  0.8009
  937MPD2     N13763   1.379   2.667  10.892 -0.1219  0.2203 -1.0309
  937MPD2    H513764   1.440   2.748  10.896  2.0674 -1.5105  0.4621
  937MPD2    N113765   1.179   2.865  11.280 -0.0078  0.3476 -0.1461
  937MPD2    H713766   1.254   2.932  11.270 -1.2731  1.7842  0.0166
  938MPD2     C13767   3.701   3.809  17.675  0.1716 -0.2242 -0.1561
  938MPD2    C113768   3.698   3.813   0.069  0.2421 -0.1999  0.2825
  938MPD2    C213769   3.638   3.706   0.141 -0.9692  0.1884 -0.3714
  938MPD2    C313770   3.591   3.593   0.074  0.2376  0.3085 -0.7856
  938MPD2    C413771   3.602   3.594  17.682  0.1129 -0.2473  0.1950
  938MPD2    C513772   3.653   3.698  17.610  0.3854 -0.2900 -0.6794
  938MPD2     H13773   3.632   3.717   0.249  0.0250  2.3622 -0.5305
  938MPD2    H113774   3.565   3.505  17.634 -0.8068  0.3911 -0.2966
  938MPD2    H213775   3.741   3.886  17.609 -0.1725 -0.3694 -0.5388
  938MPD2    H313776   3.645   3.693  17.502 -1.8756 -1.4729 -0.4649
  938MPD2     N13777   3.533   3.486   0.145  0.1068  0.0941  0.7886
  938MPD2    H513778   3.522   3.395   0.100 -0.6724  0.1208  0.9343
  938MPD2    N113779   3.736   3.916   0.147 -0.4394 -0.1180 -0.1780
  938MPD2    H713780   3.715   3.910   0.246 -1.0903 -1.7051 -0.4020
  939MPD2     C13781   0.134   4.513   0.284 -0.2660  0.3226 -0.5681
  939MPD2    C113782   0.193   4.614   0.232  0.1710 -0.3252 -0.6586
  939MPD2    C213783   0.260   4.585   0.113 -0.3372 -0.0751 -0.5469
  939MPD2    C313784   0.258   4.456   0.055 -0.0747 -0.2730 -0.0066
  939MPD2    C413785   0.183   4.358   0.117  0.5488  0.1843  0.1932
  939MPD2    C513786   0.127   4.387   0.234  0.1661 -0.0609 -0.2115
  939MPD2     H13787   0.304   4.670   0.063  0.8125 -2.2059 -3.1512
  939MPD2    H113788   0.171   4.255   0.086 -2.1497  0.2609  1.0578
  939MPD2    H213789   0.098   4.513   0.386 -2.0771 -2.0053 -1.1974
  939MPD2    H313790   0.053   4.324   0.282 -1.1623 -0.5360 -2.8878
  939MPD2     N13791   0.340   4.427  17.685  0.4270 -0.2157 -0.6120
  939MPD2    H513792   0.407   4.501  17.667  0.4138 -0.1787 -0.5134
  939MPD2    N113793   0.184   4.736   0.303  0.2623  0.1056  0.1949
  939MPD2    H713794   0.137   4.732   0.393  0.8531 -0.8149  0.4647
  940MPD2     C13795   3.882   1.284  13.565  0.1153  0.0658 -0.9512
  940MPD2    C113796   3.835   1.164  13.616  0.2938 -0.8655  0.2091
  940MPD2    C213797   3.779   1.079  13.521 -0.4365 -0.0007  0.5117
  940MPD2    C313798   3.746   1.116  13.392  0.3762 -0.3451 -0.6719
  940MPD2    C413799   3.807   1.231  13.349  0.0327  0.0573  0.7148
  940MPD2    C513800   3.877   1.310  13.435  0.5328 -0.3121 -0.0663
  940MPD2     H13801   3.743   0.981  13.551 -1.4262  0.1349 -0.2457
  940MPD2    H113802   3.789   1.277  13.253 -0.4148  0.5810  1.0440
  940MPD2    H213803   3.932   1.356  13.629 -0.4546 -0.8537  0.5317
  940MPD2    H313804   3.914   1.408  13.404 -1.6231  0.5134 -0.0155
  940MPD2     N13805   3.683   1.038  13.296 -0.1147  0.4048 -0.4936
  940MPD2    H513806   3.655   1.094  13.216 -0.3309 -1.0681 -1.4690
  940MPD2    N113807   3.853   1.135  13.750  0.8974 -0.4511 -0.2592
  940MPD2    H713808   3.900   1.210  13.799  0.6838  0.0065 -0.7569
  941MPD2     C13809   3.839   0.579   9.468  0.3097 -0.7565 -0.1359
  941MPD2    C113810   3.720   0.574   9.532 -0.6368 -0.3887  0.8280
  941MPD2    C213811   3.654   0.455   9.534  0.1419  0.9754  0.1826
  941MPD2    C313812   3.710   0.334   9.490  0.3814  0.5089 -0.0192
  941MPD2    C413813   3.827   0.345   9.425  0.1748  0.5103  0.0477
  941MPD2    C513814   3.895   0.465   9.417  0.3490  0.4977 -0.5277
  941MPD2     H13815   3.555   0.444   9.578  0.6153 -2.3868  0.3634
  941MPD2    H113816   3.875   0.259   9.381  1.6190  0.4109  1.8116
  941MPD2    H213817   3.904   0.665   9.458 -2.1343  1.2124  0.8699
  941MPD2    H313818   3.984   0.469   9.355 -1.4876 -2.2681 -3.3379
  941MPD2     N13819   3.651   0.207   9.502 -0.0852 -0.0559  0.0102
  941MPD2    H513820   3.683   0.137   9.436 -0.7573 -0.0921 -0.2841
  941MPD2    N113821   3.658   0.684   9.596  0.1952 -0.1694  0.3336
  941MPD2    H713822   3.580   0.658   9.656 -2.4794  0.4404 -2.9365
  942MPD2     C13823   1.993   2.730   8.843 -1.1668  0.5200 -0.9491
  942MPD2    C113824   1.993   2.690   8.976  0.0439 -0.5398 -0.2999
  942MPD2    C213825   2.111   2.643   9.026 -0.2554  0.3154  0.1312
  942MPD2    C313826   2.233   2.629   8.953  0.5709  0.1250  0.3202
  942MPD2    C413827   2.228   2.673   8.822  0.9105 -0.6548 -0.1562
  942MPD2    C513828   2.110   2.722   8.766  0.0903 -0.7493 -0.0614
  942MPD2     H13829   2.096   2.605   9.126  0.1045 -1.0081 -0.3182
  942MPD2    H113830   2.313   2.674   8.755 -1.0676 -1.3268 -2.6824
  942MPD2    H213831   1.905   2.769   8.793 -0.4748  1.7137 -1.2556
  942MPD2    H313832   2.105   2.752   8.662  2.6332 -2.7674 -0.7825
  942MPD2     N13833   2.344   2.562   9.002 -0.2273 -0.2586  0.0529
  942MPD2    H513834   2.419   2.557   8.934 -0.7733  1.1132 -0.6572
  942MPD2    N113835   1.881   2.692   9.068  0.4296  0.4962 -0.4331
  942MPD2    H713836   1.909   2.656   9.159  1.1679  2.4077  0.1022
  943MPD2     C13837   1.804   0.503   9.870 -0.5363  1.0423 -0.9283
  943MPD2    C113838   1.729   0.445   9.965 -0.0737 -0.0880  0.3323
  943MPD2    C213839   1.644   0.526  10.035 -0.9440  0.3598 -0.1229
  943MPD2    C313840   1.644   0.668  10.024 -0.1841 -0.1922 -0.6648
  943MPD2    C413841   1.729   0.722   9.935  0.5528 -0.7248 -0.2420
  943MPD2    C513842   1.805   0.639   9.852  0.5132  0.1976 -0.2850
  943MPD2     H13843   1.573   0.482  10.105 -0.6260  3.1152  1.9632
  943MPD2    H113844   1.734   0.826   9.906 -0.5895 -0.6884 -0.3258
  943MPD2    H213845   1.857   0.447   9.795 -1.2481 -0.8253 -0.0380
  943MPD2    H313846   1.868   0.688   9.779 -2.4812  2.3485 -1.4135
  943MPD2     N13847   1.554   0.758  10.082 -0.4063 -0.0587  0.1139
  943MPD2    H513848   1.561   0.857  10.064  0.6090 -0.1303  0.1212
  943MPD2    N113849   1.741   0.308  10.005 -0.4902 -0.7037  0.2096
  943MPD2    H713850   1.683   0.276  10.082  0.7187 -2.9256  0.1988
  944MPD2     C13851   1.601   0.070  10.672 -0.0657 -0.0741  0.5275
  944MPD2    C113852   1.582   4.716  10.769 -1.0568 -0.0911  0.4209
  944MPD2    C213853   1.531   0.015  10.890 -0.0940 -0.1621 -0.6878
  944MPD2    C313854   1.506   0.147  10.922  0.3916  0.3555  0.6309
  944MPD2    C413855   1.521   0.235  10.827  0.0231 -0.5130  0.2794
  944MPD2    C513856   1.577   0.200  10.705  0.0591  0.1083  0.3650
  944MPD2     H13857   1.508   4.677  10.965  0.1096  0.3407 -0.1242
  944MPD2    H113858   1.504   0.340  10.846 -0.3950 -0.5310 -0.0059
  944MPD2    H213859   1.632   0.047  10.571 -0.4754 -2.0504  0.8622
  944MPD2    H313860   1.572   0.274  10.626  3.0235  0.5836  0.6329
  944MPD2     N13861   1.458   0.188  11.055 -0.6589 -0.1472  0.7105
  944MPD2    H513862   1.446   0.108  11.117 -0.5190 -0.8971 -0.2259
  944MPD2    N113863   1.603   4.580  10.723  0.1762 -0.2861 -0.1835
  944MPD2    H713864   1.636   4.562  10.628 -1.9891  1.0292 -1.1819
    1TMC1    C113865   4.024   0.746  13.611 -0.1471  1.4781  0.8662
    1TMC1    C213866   4.003   0.728  13.482 -0.0043  0.0145  0.3272
    1TMC1    C313867   3.905   0.640  13.437  0.1609  0.8839 -0.2116
    1TMC1    C413868   3.947   0.674  13.700  0.0469  0.0743  0.4546
    1TMC1    C513869   3.849   0.589  13.656  0.4416  0.5522  0.0426
    1TMC1    C613870   3.825   0.566  13.522 -0.2338 -0.2174 -0.0195
    1TMC1     C13871   4.086   0.876  13.653  0.1513  0.6879  0.3084
    1TMC1     O13872   4.102   0.958  13.561 -0.2948  0.2554 -0.3306
    1TMC1     H13873   4.068   0.775  13.410  2.9217 -1.3682  2.0384
    1TMC1    H113874   3.943   0.695  13.806  0.8232  0.6232  0.3784
    1TMC1    H213875   3.747   0.495  13.498 -1.8936  1.7108 -0.3029
    1TMC1    C713876   3.809   0.478  13.741 -0.3767  0.2433  0.2887
    1TMC1    C813877   3.889   0.633  13.295 -0.4958 -0.1318 -0.2233
    1TMC1    O113878   3.875   0.428  13.831  0.2113 -0.0829 -0.3544
    1TMC1    O213879   3.947   0.702  13.215  0.1158 -0.0962 -0.2074
    1TMC1    O313880   3.674   0.487  13.745  0.4974  0.3933  0.4027
    1TMC1    H313881   3.638   0.553  13.682  2.9009 -0.5924 -2.0143
    1TMC1    O513882   3.884   0.497  13.271 -0.4412 -0.0023  0.1911
    1TMC1    H513883   3.905   0.438  13.347 -1.9851 -2.1773 -1.0700
    2MPD2     C13884   4.251   1.222  13.976 -0.4712  0.1169  0.4056
    2MPD2    C113885   4.268   1.097  14.032 -1.0749 -0.3769  0.1966
    2MPD2    C213886   4.234   0.985  13.968 -0.7581  0.0199 -0.9649
    2MPD2    C313887   4.189   0.995  13.839  0.2573 -0.5641  0.6661
    2MPD2    C413888   4.186   1.118  13.771  0.1580  0.8206  0.3994
    2MPD2    C513889   4.212   1.228  13.846  0.3221 -0.7154  0.7609
    2MPD2     H13890   4.224   0.887  14.012 -0.2702 -0.0258 -0.9554
    2MPD2    H113891   4.155   1.139  13.669  1.6767 -0.9670 -0.4279
    2MPD2    H213892   4.261   1.311  14.037  1.4304 -1.2153  2.0682
    2MPD2    H313893   4.185   1.323  13.802  0.9241 -1.4420 -1.1664
    2MPD2     N13894   4.133   0.881  13.779  0.3650  0.2038 -0.3322
    2MPD2    H513895   4.138   0.791  13.827 -0.5619  0.9089  1.0830
    2MPD2    N113896   4.301   1.098  14.171 -0.1554  0.5626  0.5228
    2MPD2    H713897   4.342   1.179  14.217  0.9888  0.6524 -0.6602
    3TMC2    C113898   4.282   1.043  14.396  0.1650 -0.3691 -0.8186
    3TMC2    C213899   4.290   0.951  14.498 -0.1270  0.0153 -0.1921
    3TMC2    C313900   4.291   0.997  14.624 -0.0437  0.2837  1.0284
    3TMC2    C413901   4.275   1.178  14.420  0.7363 -0.0408  0.0530
    3TMC2    C513902   4.270   1.217  14.551 -0.6692  0.1220 -0.0243
    3TMC2    C613903   4.281   1.130  14.657  0.7031  0.4501 -0.3965
    3TMC2     C13904   4.277   0.992  14.252 -0.8409  0.0198 -0.7296
    3TMC2     O13905   4.276   0.872  14.230 -0.1266 -0.1647 -0.5897
    3TMC2     H13906   4.293   0.844  14.479  3.3522 -0.1661  1.4205
    3TMC2    H113907   4.258   1.250  14.340 -4.7440 -3.2992 -1.6719
    3TMC2    H213908   4.278   1.164  14.760 -1.5571 -2.0559  0.3470
    3TMC2    C713909   4.249   1.353  14.583  0.4689  0.8415  0.1855
    3TMC2    C813910   4.318   0.901  14.721  0.0783  0.4563 -0.8638
    3TMC2    O113911   4.298   1.404  14.682 -0.5010  0.6025  0.0653
    3TMC2    O213912   4.290   0.783  14.709  0.2707 -0.3924  0.0708
    3TMC2    O513913   4.365   0.961  14.832  0.4317 -0.0358  0.3391
    3TMC2    H513914   4.412   1.047  14.822  0.2799  0.0716  0.5518
    4TMC2    C113915   3.577   1.752  13.953  0.2219 -1.0920  0.0457
    4TMC2    C213916   3.653   1.797  13.844  0.4227 -0.1721 -0.1485
    4TMC2    C313917   3.788   1.818  13.863  0.3314 -0.2977  0.5625
    4TMC2    C413918   3.632   1.725  14.073  0.2923  0.6539  0.1144
    4TMC2    C513919   3.768   1.758  14.089  0.6364 -0.5025  0.4954
    4TMC2    C613920   3.846   1.799  13.983 -0.6869 -0.4584  0.2001
    4TMC2     C13921   3.441   1.698  13.937 -0.0899 -0.4341  0.3275
    4TMC2     O13922   3.387   1.675  14.043  0.4271  0.0502  0.0337
    4TMC2     H13923   3.602   1.840  13.759  0.8949 -0.0209 -0.3503
    4TMC2    H113924   3.576   1.687  14.157  2.3828 -1.3851  0.5785
    4TMC2    H213925   3.953   1.788  13.996 -0.7502  0.9390  1.8004
    4TMC2    C713926   3.835   1.687  14.193 -0.0082 -0.6695 -0.5172
    4TMC2    C813927   3.873   1.860  13.750 -0.4301 -0.6280  0.4584
    4TMC2    O113928   3.786   1.578  14.224 -0.4469  0.2729 -0.1224
    4TMC2    O213929   3.983   1.908  13.761 -0.1748  0.5794 -0.4920
    4TMC2    O513930   3.814   1.840  13.631  0.1803  0.4860 -0.0452
    4TMC2    H513931   3.736   1.783  13.648  1.1013 -1.1664 -1.3547
    5MPD2     C13932   3.036   1.509  13.713  0.6425 -0.1825  0.3150
    5MPD2    C113933   3.134   1.520  13.614 -0.3573 -0.0248 -0.4259
    5MPD2    C213934   3.254   1.570  13.658 -0.2374 -0.3390 -0.1640
    5MPD2    C313935   3.270   1.616  13.785  0.0296  0.1096  0.0781
    5MPD2    C413936   3.164   1.609  13.880  0.8649  0.3405  0.1062
    5MPD2    C513937   3.048   1.559  13.840 -0.0542 -0.4118  0.6730
    5MPD2     H13938   3.345   1.591  13.602 -1.5264  1.2622 -1.6651
    5MPD2    H113939   3.179   1.649  13.979 -1.7990 -2.7482  1.7583
    5MPD2    H213940   2.941   1.469  13.681  0.0146 -0.7591  2.9042
    5MPD2    H313941   2.960   1.561  13.903 -1.9530  0.5683 -2.0027
    5MPD2     N13942   3.403   1.661  13.812  0.0042  0.4849  0.4145
    5MPD2    H513943   3.475   1.664  13.739 -0.3080  0.8211  0.1198
    5MPD2    N113944   3.100   1.489  13.477 -0.6737  1.0065  0.2916
    5MPD2    H713945   3.006   1.455  13.456  1.1790 -3.9537 -0.0476
    6MPD1     C13946   2.149   2.479  12.306 -0.2931 -0.0024 -0.5020
    6MPD1    C113947   2.237   2.482  12.416 -0.4700  0.6622  1.3213
    6MPD1    C213948   2.332   2.377  12.421  0.0535 -0.8962 -0.1623
    6MPD1    C313949   2.346   2.285  12.318  0.1008 -0.6320  0.5988
    6MPD1    C413950   2.276   2.305  12.201  0.5257  0.2703 -0.4491
    6MPD1    C513951   2.176   2.399  12.194  0.1909 -0.3658  0.2166
    6MPD1     H13952   2.405   2.377  12.501 -0.4272  2.5127  0.2872
    6MPD1    H113953   2.287   2.243  12.113  0.5650  0.5323 -0.6307
    6MPD1    H213954   2.057   2.536  12.297 -0.7114 -0.6537 -0.3260
    6MPD1    H313955   2.113   2.395  12.106 -0.6398  0.5732  0.7542
    6MPD1     N13956   2.445   2.186  12.311  0.5090  0.1450  0.5582
    6MPD1    H513957   2.445   2.117  12.237 -0.0218  1.0995 -0.3365
    6MPD1    N113958   2.195   2.536  12.534 -0.1042 -0.2131  1.0907
    6MPD1    H613959   2.272   2.564  12.594  0.7792  1.5581 -0.8663
    6MPD1    H713960   2.148   2.626  12.520  0.3178  0.4007  3.5774
    7MPD2     C13961   2.512   1.552  12.750 -0.3903 -0.3243  0.5439
    7MPD2    C113962   2.639   1.578  12.707  0.7246  0.5063  0.3797
    7MPD2    C213963   2.741   1.529  12.776 -0.2810  0.8272  0.3215
    7MPD2    C313964   2.722   1.459  12.898  0.3887 -0.2743 -0.1871
    7MPD2    C413965   2.594   1.423  12.935  0.7212 -0.1223  1.0993
    7MPD2    C513966   2.489   1.478  12.862 -0.1506 -0.0031 -0.2139
    7MPD2     H13967   2.845   1.540  12.747 -0.5451  0.8546 -0.6309
    7MPD2    H113968   2.574   1.386  13.035  3.3036 -1.5515  1.0997
    7MPD2    H213969   2.424   1.585  12.695 -0.7529  0.1264  1.3959
    7MPD2    H313970   2.389   1.466  12.902  0.2243  1.3393  1.1479
    7MPD2     N13971   2.836   1.417  12.968  0.0848 -0.2123 -0.9392
    7MPD2    H513972   2.924   1.455  12.932  0.5559 -0.6285 -0.2252
    7MPD2    N113973   2.658   1.668  12.592  0.0670 -0.4413  0.2997
    7MPD2    H713974   2.755   1.677  12.564  0.3726  2.2382  2.2531
    8TMC3    C113975   2.977   1.334  13.129  0.8881 -0.5807 -0.6397
    8TMC3    C213976   3.008   1.404  13.244  0.0643 -0.0584 -0.2293
    8TMC3    C313977   3.122   1.479  13.243  0.6909 -0.1805 -0.2453
    8TMC3    C413978   3.059   1.347  13.024 -0.8784  0.2929 -0.0791
    8TMC3    C513979   3.169   1.424  13.021 -0.8084 -0.0622  0.3485
    8TMC3    C613980   3.200   1.492  13.133  0.2927  0.2166  0.6609
    8TMC3     C13981   2.837   1.341  13.085 -0.3154 -0.1485 -0.6210
    8TMC3     O13982   2.748   1.306  13.162 -0.3100  0.6315  0.2508
    8TMC3     H13983   2.929   1.424  13.315 -1.3660 -0.3877 -1.7197
    8TMC3    H113984   3.047   1.279  12.940 -1.6178  0.9168 -0.4729
    8TMC3    H213985   3.299   1.538  13.137  1.7534 -2.7164 -1.4815
    8TMC3    C713986   3.165   1.502  12.898  1.2113 -0.4241  0.5869
    8TMC3    C813987   3.184   1.514  13.373  0.1892  0.3054 -0.2485
    8TMC3    O113988   3.073   1.473  12.827  0.3897  0.0581 -0.0211
    8TMC3    O213989   3.285   1.580  13.370 -0.6324  0.0259 -0.7093
    9TMC3    C113990   2.621   2.049  12.386 -0.3095  1.1749 -0.7517
    9TMC3    C213991   2.760   2.056  12.395 -0.3556 -0.3240 -0.0523
    9TMC3    C313992   2.830   1.941  12.415 -0.1780  0.1372 -0.0592
    9TMC3    C413993   2.556   1.933  12.396 -0.5023  0.7302  0.3156
    9TMC3    C513994   2.627   1.817  12.418  0.0311  0.2802 -0.3644
    9TMC3    C613995   2.761   1.823  12.436  0.1814 -0.3822 -0.3331
    9TMC3     C13996   2.549   2.170  12.405  0.2520  0.6197 -0.0493
    9TMC3     O13997   2.589   2.242  12.496  0.0799 -0.4932 -0.9900
    9TMC3     H13998   2.805   2.155  12.402 -0.1079 -0.3738 -1.0247
    9TMC3    H113999   2.448   1.929  12.409 -0.3023 -2.8782  1.1387
    9TMC3    H214000   2.818   1.732  12.428 -1.3987 -1.2693 -1.4470
    9TMC3    C714001   2.561   1.734  12.516  0.1830 -0.2627  0.4759
    9TMC3    C814002   2.973   1.959  12.464  0.3142 -0.7336 -0.2675
    9TMC3    O114003   2.441   1.735  12.524 -0.4924 -0.7813 -0.5247
    9TMC3    O214004   3.025   2.071  12.450 -0.4316  0.8902  0.1690
   10MPD2     C14005   3.335   1.813  12.800 -0.5241  0.1757 -1.4025
   10MPD2    C114006   3.232   1.721  12.803  0.2307 -0.3212 -0.5746
   10MPD2    C214007   3.123   1.741  12.725  0.3153  0.7507  0.5276
   10MPD2    C314008   3.124   1.845  12.626  0.3386  0.0950  0.2569
   10MPD2    C414009   3.229   1.935  12.621  0.3900  0.2919  0.0580
   10MPD2    C514010   3.329   1.917  12.713 -0.0423 -0.2457  0.4255
   10MPD2     H14011   3.032   1.685  12.743  0.7019 -0.5981 -1.7788
   10MPD2    H114012   3.238   2.025  12.561  1.3283  0.7618  0.9221
   10MPD2    H214013   3.410   1.795  12.875 -1.9855  1.0303  0.2469
   10MPD2    H314014   3.411   1.988  12.712  0.9358 -1.3984 -0.8211
   10MPD2     N14015   3.005   1.857  12.548 -0.0903 -0.1122 -1.1647
   10MPD2    H514016   2.943   1.777  12.552 -0.0742 -0.0369  0.7968
   10MPD2    N114017   3.243   1.613  12.894  0.4408 -0.2174  0.1957
   10MPD2    H714018   3.323   1.618  12.957 -1.0873 -3.9448  2.4040
   11MPD2     C14019   4.180   1.653  14.570 -0.3038  0.3587  0.4594
   11MPD2    C114020   4.120   1.551  14.496  0.3597  0.0196  0.8348
   11MPD2    C214021   4.030   1.587  14.396 -0.2002 -0.2274 -0.3968
   11MPD2    C314022   4.006   1.724  14.373 -0.1311 -0.6026  0.7057
   11MPD2    C414023   4.070   1.813  14.449  0.3142 -0.4542  1.0381
   11MPD2    C514024   4.163   1.781  14.543 -0.4748  0.2900  0.0398
   11MPD2     H14025   3.988   1.500  14.346  0.1543 -0.0266 -1.0500
   11MPD2    H114026   4.031   1.914  14.444  1.9279  0.2607  2.7926
   11MPD2    H214027   4.259   1.624  14.638  0.6070  4.1898  1.0793
   11MPD2    H314028   4.225   1.856  14.591  1.3939 -1.8819  1.0468
   11MPD2     N14029   3.926   1.762  14.266 -0.0074  0.0665 -0.1957
   11MPD2    H514030   3.941   1.859  14.241 -0.1202  0.2435  0.4234
   11MPD2    N114031   4.161   1.415  14.499 -0.2071 -0.1889  0.1682
   11MPD2    H714032   4.121   1.360  14.424  2.2631  1.3817 -2.2879
    1MPD1     C14033   2.340   2.454  17.255 -0.6187  0.9392  0.1033
    1MPD1    C114034   2.412   2.558  17.227  0.5612  0.1628  1.0567
    1MPD1    C214035   2.392   2.612  17.099 -0.0651 -0.0366 -0.0271
    1MPD1    C314036   2.312   2.553  17.000 -0.6071 -0.5757  0.0652
    1MPD1    C414037   2.238   2.443  17.038 -0.1748  0.8631  0.7755
    1MPD1    C514038   2.267   2.395  17.160 -0.1111  0.0309  0.3632
    1MPD1     H14039   2.432   2.712  17.085  1.2476 -0.2038  2.3525
    1MPD1    H114040   2.165   2.397  16.973  0.8989 -2.0829  1.6524
    1MPD1    H214041   2.328   2.399  17.348 -0.6020  0.2289 -0.3193
    1MPD1    H314042   2.212   2.307  17.191 -0.7774 -0.2736 -1.7147
    1MPD1     N14043   2.287   2.605  16.872 -0.2851 -0.2792 -0.2769
    1MPD1    H514044   2.232   2.548  16.809  1.0207 -0.3704 -1.3213
    1MPD1    N114045   2.497   2.623  17.322 -0.3972  0.2923  0.7993
    1MPD1    H614046   2.541   2.548  17.375  0.4283  1.4470  1.7370
    1MPD1    H714047   2.574   2.683  17.293 -0.1648  0.0385  0.8898
    2MPD1     C14048   2.700   3.388  16.345  0.1941 -0.5445 -0.1081
    2MPD1    C114049   2.715   3.350  16.472 -0.1649 -0.3830 -0.4516
    2MPD1    C214050   2.631   3.258  16.523 -0.6354 -0.1328 -0.8223
    2MPD1    C314051   2.541   3.194  16.445  0.1190  0.4328  0.5284
    2MPD1    C414052   2.532   3.230  16.315  0.2856 -0.4882 -0.7349
    2MPD1    C514053   2.603   3.335  16.271 -0.3163  0.2686  0.3687
    2MPD1     H14054   2.646   3.245  16.629  0.3589 -0.5135 -1.0066
    2MPD1    H114055   2.466   3.180  16.245 -0.1389  0.0163 -0.6967
    2MPD1    H214056   2.768   3.459  16.298  0.6092 -1.6575 -1.1839
    2MPD1    H314057   2.607   3.354  16.164  1.3259  0.8825  0.5476
    2MPD1     N14058   2.457   3.089  16.499 -0.4841 -0.1319  0.6167
    2MPD1    H514059   2.479   3.065  16.595  1.7901 -1.2428 -0.1688
    2MPD1    N114060   2.800   3.409  16.568 -0.1971 -0.6507 -0.2648
    2MPD1    H614061   2.828   3.354  16.648 -1.1793  0.3718  0.7814
    2MPD1    H714062   2.877   3.454  16.519 -0.3888  2.8315  2.5989
    3TMC3    C114063   2.296   2.914  16.519  0.4414 -0.2388 -0.0543
    3TMC3    C214064   2.174   2.866  16.468 -0.1707  0.1090  0.1887
    3TMC3    C314065   2.123   2.760  16.534  0.1439 -0.5208  0.5321
    3TMC3    C414066   2.348   2.871  16.637  0.6358 -0.2141 -0.8448
    3TMC3    C514067   2.283   2.769  16.703  0.1001  0.1253  0.3040
    3TMC3    C614068   2.171   2.706  16.651  0.0812  0.1860  0.1489
    3TMC3     C14069   2.360   3.023  16.436 -1.1618  0.4710 -0.7303
    3TMC3     O14070   2.315   3.039  16.321 -0.1662  0.1840  0.2237
    3TMC3     H14071   2.130   2.914  16.381 -3.4425 -2.0811  0.6788
    3TMC3    H114072   2.442   2.909  16.676  0.4794  1.7344 -2.3875
    3TMC3    H214073   2.112   2.628  16.698  1.8732 -1.3843 -0.2139
    3TMC3    C714074   2.346   2.717  16.822 -0.7081  0.4758  0.1925
    3TMC3    C814075   2.004   2.700  16.478  0.2273 -0.2475 -0.5127
    3TMC3    O114076   2.440   2.778  16.860  0.0014 -0.1811 -0.3285
    3TMC3    O214077   1.942   2.627  16.553  0.1870 -0.2502  0.0992
    4MPD1     C14078   1.623   2.685  16.120 -0.3442  0.2906  0.3221
    4MPD1    C114079   1.740   2.731  16.059 -0.3456  0.0090 -0.2057
    4MPD1    C214080   1.856   2.740  16.135 -0.3554 -0.2390  0.3105
    4MPD1    C314081   1.861   2.708  16.272  0.2391 -0.4784 -1.1193
    4MPD1    C414082   1.745   2.653  16.329 -0.0110 -0.4389 -0.4020
    4MPD1    C514083   1.628   2.653  16.254 -0.0649  0.3412 -0.1370
    4MPD1     H14084   1.953   2.758  16.090  0.2622  1.7541  2.4443
    4MPD1    H114085   1.748   2.623  16.433  3.7988 -0.3488 -0.4705
    4MPD1    H214086   1.524   2.686  16.075  0.1596 -0.3379 -0.7825
    4MPD1    H314087   1.534   2.633  16.303 -0.7083  2.0314 -0.6636
    4MPD1     N14088   1.987   2.723  16.344 -0.2216 -0.1432 -0.2256
    4MPD1    H514089   2.063   2.746  16.281 -0.0180  0.1617  0.1365
    4MPD1    N114090   1.733   2.786  15.931 -0.2902  0.0478 -0.5559
    4MPD1    H614091   1.823   2.788  15.883 -0.3168 -1.1838 -0.6612
    4MPD1    H714092   1.672   2.727  15.874  1.0817 -1.5976 -0.3074
    1TCq1    O114093   2.821   2.845  11.688  0.3487 -0.6662  0.4173
    1TCq1    C114094   2.873   2.974  11.667  0.2967  0.4486  0.4531
    1TCq1    O214095   2.847   3.072  11.741 -0.1675 -0.0908 -0.5742
    1TCq1    C214096   2.866   2.974  11.521  0.3747 -0.7570  0.1687
    1TCq1    C314097   2.951   2.899  11.447 -0.0396  0.3443  0.1738
    1TCq1    C414098   2.960   2.928  11.314  0.5033 -0.0448  0.5029
    1TCq1    C514099   2.907   3.044  11.270 -0.6506  0.0264  0.6195
    1TCq1    C614100   2.805   3.110  11.339 -0.3814 -0.2848 -0.0171
    1TCq1    C714101   2.793   3.078  11.473  0.5630 -0.1084 -0.2808
    1TCq1    C814102   2.769   3.250  11.314 -0.5524 -0.2480  0.0024
    1TCq1    O414103   2.671   3.292  11.380  0.1495 -0.0529  0.3460
    1TCq1    C914104   3.082   2.887  11.249 -0.3954  0.2038 -0.3843
    1TCq1    O514105   3.141   2.787  11.288 -0.2725  0.6379 -0.1000
    1TCq1    O614106   3.138   2.971  11.173 -0.0851  0.0137  0.1713
    1TCq1    H114107   2.833   2.786  11.611  2.2282 -0.3890  0.4843
    1TCq1    H214108   3.020   2.841  11.506  2.6029  0.8626 -2.4031
    1TCq1    H314109   2.928   3.061  11.165 -0.0671 -3.5524  0.1624
    1TCq1    H414110   2.730   3.133  11.543  0.1607 -1.4976  0.4627
    2MPD1     C14111   2.825   3.727  11.137  0.3065 -0.3149 -0.0454
    2MPD1    C114112   2.935   3.649  11.098  0.0585 -0.3895 -0.2135
    2MPD1    C214113   2.954   3.519  11.147  0.3613 -0.0619  0.1873
    2MPD1    C314114   2.851   3.458  11.218 -0.1409  0.8708 -0.1511
    2MPD1    C414115   2.746   3.534  11.254  0.2098  0.8553 -0.2328
    2MPD1    C514116   2.735   3.664  11.215  0.1649 -0.8848 -0.3128
    2MPD1     H14117   3.042   3.461  11.123  1.0546  0.8518  0.5244
    2MPD1    H114118   2.654   3.492  11.292 -0.5352 -0.2065 -3.1771
    2MPD1    H214119   2.808   3.826  11.095 -0.4534 -1.2460 -1.8932
    2MPD1    H314120   2.646   3.716  11.249 -0.6805 -1.0967 -2.2034
    2MPD1     N14121   2.862   3.320  11.248  0.1679 -0.3951  0.0087
    2MPD1    H514122   2.948   3.272  11.224 -0.5091 -1.1683 -0.9158
    2MPD1    N114123   3.045   3.713  11.030  0.3720 -0.2648 -0.7052
    2MPD1    H614124   2.998   3.783  10.973 -0.2703  0.4803  0.7270
    2MPD1    H714125   3.080   3.643  10.965  2.1492  0.0846 -0.1253
    1TMC1    C114126   2.259   3.766   1.026  0.3088  0.3573  0.1638
    1TMC1    C214127   2.337   3.772   0.913  0.4081  0.3485  0.3271
    1TMC1    C314128   2.473   3.768   0.943  0.2509 -0.3358 -0.1168
    1TMC1    C414129   2.310   3.765   1.151 -0.5857  0.6304  0.1911
    1TMC1    C514130   2.444   3.760   1.168  0.1284 -0.4793 -0.1761
    1TMC1    C614131   2.535   3.760   1.064  0.8847  0.8782  0.3919
    1TMC1     C14132   2.115   3.759   1.015  0.0638 -1.1439 -0.2339
    1TMC1     O14133   2.049   3.760   1.116 -0.1384 -0.7146  0.2882
    1TMC1     H14134   2.306   3.771   0.810 -0.8151 -0.7703  0.7116
    1TMC1    H114135   2.245   3.757   1.237  1.0522  2.5633  1.6263
    1TMC1    H214136   2.635   3.722   1.081  1.1678  0.5614 -2.0383
    1TMC1    C714137   2.493   3.714   1.293  0.0891 -0.1537  0.0340
    1TMC1    C814138   2.560   3.754   0.829 -0.0136  0.1168 -0.1591
    1TMC1    O114139   2.587   3.641   1.303 -0.3399 -0.1683  0.2301
    1TMC1    O214140   2.524   3.710   0.722 -0.0122 -0.6122  0.1171
    1TMC1    O314141   2.431   3.792   1.384  0.7449 -0.2979 -0.1150
    1TMC1    H314142   2.396   3.873   1.341  0.8967 -0.6040 -0.8311
    1TMC1    O514143   2.688   3.767   0.863 -0.3131  0.1400  0.0505
    1TMC1    H514144   2.706   3.830   0.936 -2.8017  0.7252  0.1495
    2MPD1     C14145   1.661   3.798   0.777 -0.0314 -0.4356  0.1531
    2MPD1    C114146   1.755   3.827   0.684  0.1106  0.4102  0.1336
    2MPD1    C214147   1.884   3.808   0.734  0.3921  0.0312  0.2995
    2MPD1    C314148   1.921   3.785   0.861  0.7178 -0.5205 -0.1804
    2MPD1    C414149   1.823   3.752   0.952  0.3132 -0.0359 -0.2809
    2MPD1    C514150   1.690   3.755   0.906 -0.1804 -0.9769  0.2095
    2MPD1     H14151   1.960   3.816   0.656 -0.5392 -1.3897 -0.7621
    2MPD1    H114152   1.838   3.728   1.056  0.8660  1.0569 -0.1064
    2MPD1    H214153   1.557   3.792   0.747  0.3358 -1.1625 -0.9677
    2MPD1    H314154   1.613   3.725   0.976 -0.7953 -0.4037 -0.2314
    2MPD1     N14155   2.062   3.775   0.893 -0.4117  0.1349 -0.3605
    2MPD1    H514156   2.129   3.802   0.822 -0.1241 -1.4169 -0.6889
    2MPD1    N114157   1.722   3.863   0.554 -0.5248 -0.1235 -0.0697
    2MPD1    H614158   1.799   3.919   0.518 -1.8176  1.2850 -0.6158
    2MPD1    H714159   1.647   3.930   0.563  0.4444  1.2962 -2.6044
    1MPD1     C14160   0.308   3.248  11.245 -0.0296 -0.4072  0.3913
    1MPD1    C114161   0.345   3.235  11.376 -0.3722  0.4876  0.7286
    1MPD1    C214162   0.406   3.345  11.435 -0.4959 -0.4675 -0.2158
    1MPD1    C314163   0.443   3.458  11.361  0.3716  0.4757  0.3274
    1MPD1    C414164   0.424   3.465  11.231  0.1430 -0.0230 -0.0225
    1MPD1    C514165   0.350   3.361  11.180 -0.3357  0.4720  0.1150
    1MPD1     H14166   0.444   3.358  11.536  0.3857 -2.0079 -0.3501
    1MPD1    H114167   0.441   3.548  11.163 -0.1278 -0.4892 -0.6649
    1MPD1    H214168   0.249   3.176  11.188 -1.9713  1.7327 -0.3097
    1MPD1    H314169   0.318   3.368  11.077  1.6525 -1.6947 -0.6560
    1MPD1     N14170   0.519   3.551  11.431 -0.6523 -0.1810 -0.2821
    1MPD1    H514171   0.549   3.530  11.526  0.2828  0.0627 -0.5196
    1MPD1    N114172   0.297   3.128  11.456  0.3403 -0.8473 -0.1458
    1MPD1    H614173   0.295   3.045  11.397 -3.2569 -0.6937 -0.1925
    1MPD1    H714174   0.352   3.099  11.536 -1.7988  0.3913  1.7850
    2MPD1     C14175   3.694   2.359  10.760 -0.5873  0.1175  0.2793
    2MPD1    C114176   3.782   2.398  10.862  0.5330 -1.0005 -0.3571
    2MPD1    C214177   3.873   2.500  10.838 -0.8807 -0.0557 -0.5205
    2MPD1    C314178   3.896   2.551  10.708  0.1730 -0.2765  0.2609
    2MPD1    C414179   3.829   2.491  10.600 -0.3558 -0.1187  0.1117
    2MPD1    C514180   3.732   2.401  10.633 -0.5803  0.1335 -0.3567
    2MPD1     H14181   3.923   2.535  10.927  1.3328 -1.7862 -1.0737
    2MPD1    H114182   3.834   2.532  10.500 -1.8482  3.4760  1.5016
    2MPD1    H214183   3.609   2.292  10.770 -0.4909  0.1108  1.0162
    2MPD1    H314184   3.672   2.371  10.548 -0.3043  2.4384 -1.3637
    2MPD1     N14185   3.995   2.646  10.675 -0.2139 -0.0295  0.2372
    2MPD1    H514186   4.004   2.661  10.575 -1.3667 -2.6555 -0.2642
    2MPD1    N114187   3.753   2.360  10.994  0.3775 -0.7453 -0.0540
    2MPD1    H614188   3.840   2.377  11.044  0.5497 -2.1248  0.1278
    2MPD1    H714189   3.732   2.260  11.000 -1.8861 -0.2657 -0.1011
    3MPD1     C14190   4.383   3.169   9.922 -0.0907 -0.5896  0.5750
    3MPD1    C114191   4.491   3.175  10.007 -0.5965 -0.2685  0.3727
    3MPD1    C214192   4.472   3.131  10.140 -0.8450  0.9347 -0.1201
    3MPD1    C314193   4.355   3.074  10.176 -0.7678 -0.7510 -0.0766
    3MPD1    C414194   4.247   3.069  10.087 -0.3719 -0.4636  0.3394
    3MPD1    C514195   4.259   3.126   9.962  0.4486  0.3351 -0.6783
    3MPD1     H14196   4.558   3.138  10.206 -0.5045 -1.8985 -0.2944
    3MPD1    H114197   4.153   3.024  10.115  0.2178 -1.3793  0.8425
    3MPD1    H214198   4.394   3.219   9.826 -0.4958  0.2494  0.9674
    3MPD1    H314199   4.175   3.121   9.894  0.6526 -3.0505 -0.6540
    3MPD1     N14200   4.341   3.028  10.309 -0.4034 -0.5188  0.2681
    3MPD1    H514201   4.422   3.047  10.366 -1.8839  1.9411  1.5100
    3MPD1    N114202   4.620   3.200   9.962  0.2358  0.0485  0.1502
    3MPD1    H614203   4.684   3.229  10.036 -1.2810  1.3742  0.9355
    3MPD1    H714204   4.626   3.267   9.885 -0.9581  0.1029  0.1100
    4MPD2     C14205   0.716   3.700  10.839  0.6994  0.2405 -0.1089
    4MPD2    C114206   0.741   3.596  10.925  0.2525  0.2813 -0.2876
    4MPD2    C214207   0.702   3.469  10.895 -1.2323 -0.4449 -0.5161
    4MPD2    C314208   0.639   3.436  10.778 -0.1409  1.2776 -0.0006
    4MPD2    C414209   0.606   3.543  10.696 -0.1434 -0.6839 -0.2455
    4MPD2    C514210   0.642   3.676  10.725 -0.5837 -0.2242  0.9281
    4MPD2     H14211   0.721   3.395  10.973 -0.3691 -0.8944 -1.1524
    4MPD2    H114212   0.546   3.520  10.609  0.5775  0.0024 -0.9159
    4MPD2    H214213   0.730   3.806  10.856  3.5723 -0.4160  1.4855
    4MPD2    H314214   0.613   3.761  10.665 -0.6585 -2.2088 -1.8273
    4MPD2     N14215   0.591   3.308  10.749 -0.1211 -0.3580  0.4772
    4MPD2    H514216   0.530   3.305  10.668  1.2514 -1.2056 -0.5337
    4MPD2    N114217   0.804   3.624  11.046  0.1153 -0.5772 -0.4584
    4MPD2    H714218   0.812   3.548  11.113  1.4738 -0.4808 -0.5140
    5TMC3    C114219   0.871   3.723  11.242  0.1659  0.4796 -0.4666
    5TMC3    C214220   0.763   3.769  11.313 -0.1317 -0.2417  0.2427
    5TMC3    C314221   0.707   3.692  11.412 -0.2904  0.9305  0.1354
    5TMC3    C414222   0.922   3.602  11.267 -0.3106 -0.4740 -0.7358
    5TMC3    C514223   0.864   3.527  11.365  0.8982 -0.4876 -0.2814
    5TMC3    C614224   0.768   3.571  11.446 -0.6531 -1.1037 -0.1398
    5TMC3     C14225   0.846   3.741  11.101 -0.2211 -0.4493 -0.1070
    5TMC3     O14226   0.839   3.857  11.062  0.2061 -0.5186 -0.0640
    5TMC3     H14227   0.721   3.865  11.288  0.3888 -0.3080 -0.9228
    5TMC3    H114228   1.002   3.565  11.204 -0.9527 -1.4376 -0.9856
    5TMC3    H214229   0.732   3.508  11.526  1.2017  0.2952  1.8022
    5TMC3    C714230   0.839   3.394  11.316  0.6599  0.3063  0.1521
    5TMC3    C814231   0.566   3.675  11.383 -0.0648 -0.3320 -0.2491
    5TMC3    O114232   0.871   3.370  11.197 -0.0961  0.3290 -0.2423
    5TMC3    O214233   0.518   3.738  11.288 -0.4238 -0.0066 -0.0525
    6TMC3    C114234   4.140   2.840  10.697  0.3328 -0.4266  0.1098
    6TMC3    C214235   4.151   2.846  10.558 -0.4147  0.3738 -0.1044
    6TMC3    C314236   4.245   2.938  10.511  0.5758  0.4715 -0.6621
    6TMC3    C414237   4.198   2.931  10.780 -0.1489  0.0475  0.2575
    6TMC3    C514238   4.285   3.025  10.719 -0.5184  0.6167  0.2319
    6TMC3    C614239   4.310   3.032  10.584 -0.5828  0.6646  0.0646
    6TMC3     C14240   4.055   2.739  10.762  0.4604  0.5510 -0.0514
    6TMC3     O14241   4.037   2.747  10.887 -0.1113 -0.3930  0.3744
    6TMC3     H14242   4.100   2.776  10.494 -0.9207  1.7359 -1.2004
    6TMC3    H114243   4.162   2.946  10.881 -0.0694  3.1827 -0.1710
    6TMC3    H214244   4.366   3.116  10.544 -0.7262  2.0274  2.7320
    6TMC3    C714245   4.402   3.070  10.802  0.1800  0.7367 -0.1894
    6TMC3    C814246   4.240   2.952  10.362  0.2654  0.5518  0.3774
    6TMC3    O114247   4.499   3.102  10.735 -0.0436  0.2944 -0.1461
    6TMC3    O214248   4.148   2.891  10.305 -0.2276  0.5758  0.6526
    7MPD2     C14249   0.628   2.920  11.338 -0.3838  0.0390 -1.1199
    7MPD2    C114250   0.670   3.001  11.234 -0.0259  0.0040  0.5777
    7MPD2    C214251   0.720   3.125  11.258  0.1013  0.8920  0.2024
    7MPD2    C314252   0.739   3.173  11.388 -0.6202  0.3167  0.6495
    7MPD2    C414253   0.696   3.091  11.491 -0.4903  0.2201  0.0229
    7MPD2    C514254   0.643   2.967  11.461 -0.0722 -0.3453 -0.4551
    7MPD2     H14255   0.755   3.180  11.171 -1.4703  1.3568 -0.1307
    7MPD2    H114256   0.695   3.127  11.593  2.3354  2.1048 -0.6460
    7MPD2    H214257   0.587   2.821  11.326 -4.1818  1.4110  0.4788
    7MPD2    H314258   0.598   2.901  11.534  0.5407 -0.8298 -0.5177
    7MPD2     N14259   0.788   3.305  11.410 -0.2257 -0.8874  0.2658
    7MPD2    H514260   0.795   3.327  11.509  0.8900  1.2557 -0.2928
    7MPD2    N114261   0.646   2.964  11.099 -0.1570  0.0332  0.3161
    7MPD2    H714262   0.665   3.036  11.030 -1.8461  1.2120  1.1132
    8TMC3    C114263   0.520   2.880  10.923 -0.4443  0.1911 -0.0692
    8TMC3    C214264   0.385   2.902  10.929  0.6103  0.6952 -0.0755
    8TMC3    C314265   0.331   3.009  10.869  0.2290 -0.4434  0.3579
    8TMC3    C414266   0.596   2.967  10.853 -0.1450 -0.0040 -0.5658
    8TMC3    C514267   0.545   3.083  10.800 -0.3415  0.7363 -0.6262
    8TMC3    C614268   0.413   3.098  10.810  0.3211 -0.1243 -0.1116
    8TMC3     C14269   0.576   2.853  11.056  0.2124  0.4176  0.3169
    8TMC3     O14270   0.519   2.762  11.120 -0.1257 -0.2685 -0.1861
    8TMC3     H14271   0.327   2.824  10.977  3.0333 -0.2674  1.3257
    8TMC3    H114272   0.703   2.952  10.853 -0.4734 -2.2095  4.0360
    8TMC3    H214273   0.358   3.189  10.786  1.3511  1.1439  2.3908
    8TMC3    C714274   0.632   3.199  10.818  0.2132  0.3385 -0.3360
    8TMC3    C814275   0.191   3.049  10.890 -0.4180  0.7505 -0.2109
    8TMC3    O114276   0.734   3.181  10.882  0.3999 -0.0343 -0.0173
    8TMC3    O214277   0.141   3.121  10.802  0.0239  0.4818  0.1641
    9MPD2     C14278   4.717   3.018  11.193  0.3899 -0.2118 -0.2376
    9MPD2    C114279   0.007   3.029  11.063  0.4327  0.3518 -0.0342
    9MPD2    C214280   4.641   3.053  10.977 -0.1573  1.0203  0.0995
    9MPD2    C314281   4.510   3.047  11.022  0.6839  0.0611  0.0015
    9MPD2    C414282   4.481   3.026  11.155 -0.2413  0.0845  0.5838
    9MPD2    C514283   4.588   3.014  11.234 -0.8205 -0.1587 -0.0952
    9MPD2     H14284   4.666   3.045  10.872  1.4780  1.6376  0.4307
    9MPD2    H114285   4.380   2.999  11.181 -0.9856  1.6174 -0.7291
    9MPD2    H214286   0.052   2.988  11.269  0.5910  1.0714  0.0715
    9MPD2    H314287   4.566   2.980  11.335  0.4539  0.1640  0.2948
    9MPD2     N14288   4.394   3.051  10.940  0.0409  0.7954  0.2890
    9MPD2    H514289   4.303   3.029  10.981  0.2370 -2.1843 -0.8426
    9MPD2    N114290   0.145   3.014  11.014 -0.1482  0.8193  0.2369
    9MPD2    H714291   0.215   2.981  11.081  0.0750 -0.0156 -0.3994
    1MPD1     C14292   4.238   1.141  16.533 -0.5711 -0.5962  0.8733
    1MPD1    C114293   4.369   1.135  16.484  0.5478  0.9929 -0.1492
    1MPD1    C214294   4.403   1.208  16.376  0.3414  0.8820 -0.0070
    1MPD1    C314295   4.307   1.269  16.299 -0.5181 -0.2456 -0.0052
    1MPD1    C414296   4.174   1.255  16.334  0.5289  0.1607  0.2345
    1MPD1    C514297   4.142   1.188  16.453  0.0155 -0.3379  0.0934
    1MPD1     H14298   4.505   1.237  16.355  0.7286 -0.2035  0.3992
    1MPD1    H114299   4.091   1.288  16.273 -0.6205 -1.1721  1.0637
    1MPD1    H214300   4.203   1.103  16.628 -0.0306 -1.3651  0.7634
    1MPD1    H314301   4.040   1.182  16.488 -1.1218  0.7258 -3.1139
    1MPD1     N14302   4.345   1.342  16.186  0.1964 -0.2455  0.2690
    1MPD1    H514303   4.277   1.396  16.134 -0.0706  0.4783  1.3592
    1MPD1    N114304   4.473   1.106  16.567 -0.0630 -0.0634  0.1738
    1MPD1    H614305   4.449   1.031  16.631 -2.4934  0.3338 -0.2956
    1MPD1    H714306   4.555   1.088  16.509  2.2008  1.0312  3.0311
    2TMC2    C114307   4.322   1.524  15.866 -0.0761 -0.2968 -0.4835
    2TMC2    C214308   4.355   1.459  15.748  0.0021  0.5133 -0.7278
    2TMC2    C314309   4.455   1.369  15.756 -0.2247 -0.9397  0.3539
    2TMC2    C414310   4.367   1.487  15.990  0.0862  0.4592  0.6400
    2TMC2    C514311   4.455   1.386  15.988  0.3358 -0.2274  0.0279
    2TMC2    C614312   4.517   1.327  15.878  0.1816  0.2232  0.3301
    2TMC2     C14313   4.265   1.656  15.851 -0.1471 -0.0807  0.2123
    2TMC2     O14314   4.316   1.726  15.767 -0.1643 -0.5383 -0.2808
    2TMC2     H14315   4.328   1.503  15.653  1.6096  1.2009 -0.8659
    2TMC2    H114316   4.362   1.549  16.078  0.3859  1.4374 -0.0326
    2TMC2    H214317   4.591   1.253  15.904  1.1167  0.9503 -0.2714
    2TMC2    C714318   4.469   1.321  16.117  0.4467 -0.3626 -0.1811
    2TMC2    C814319   4.541   1.361  15.635 -0.6514  0.3687  0.0760
    2TMC2    O114320   4.562   1.249  16.138  0.0183 -0.2492 -0.6378
    2TMC2    O214321   4.539   1.441  15.542  0.3950  0.0869  0.6471
    2TMC2    O514322   4.598   1.239  15.631 -0.1769  0.8020 -0.3151
    2TMC2    H514323   4.575   1.176  15.703 -0.3816  0.1835 -0.9182
    3MPD1     C14324   3.943   2.016  16.044 -0.3543  0.4290  0.1858
    3MPD1    C114325   3.934   1.907  16.128 -0.3479 -1.0746  0.4922
    3MPD1    C214326   4.015   1.797  16.093 -0.2743 -0.0726  0.4544
    3MPD1    C314327   4.110   1.801  15.989 -0.1974 -0.4143  0.2121
    3MPD1    C414328   4.108   1.910  15.910  0.5580 -0.1698  0.1848
    3MPD1    C514329   4.019   2.015  15.933  0.3173  0.1368 -0.0064
    3MPD1     H14330   4.007   1.708  16.154  2.1756 -1.1803 -0.8101
    3MPD1    H114331   4.178   1.925  15.829  0.7403 -0.9780  0.2017
    3MPD1    H214332   3.872   2.097  16.044  0.9962  1.6393 -1.2241
    3MPD1    H314333   4.014   2.102  15.869 -0.7426 -0.5114 -0.7992
    3MPD1     N14334   4.189   1.686  15.961  0.3167 -0.1670 -0.2284
    3MPD1    H514335   4.171   1.605  16.020  1.1622 -1.3432 -1.5922
    3MPD1    N114336   3.835   1.905  16.230 -0.0999  0.1751 -0.4524
    3MPD1    H614337   3.824   2.004  16.251 -0.2672  0.3660 -1.4420
    3MPD1    H714338   3.870   1.848  16.307  0.9684 -2.1356 -2.6404
    1TMC1    C114339   2.428   0.393  13.008  0.1752 -0.4220 -0.0620
    1TMC1    C214340   2.432   0.258  13.015  0.3295 -0.6048  0.1001
    1TMC1    C314341   2.314   0.188  13.008  0.0769 -0.1508 -0.2085
    1TMC1    C414342   2.310   0.463  12.985 -0.4196 -0.1788 -0.5698
    1TMC1    C514343   2.197   0.385  12.970 -0.1827  1.0666  0.0496
    1TMC1    C614344   2.198   0.250  12.989  0.0154  0.2572  0.4449
    1TMC1     C14345   2.538   0.473  13.050  0.4652 -0.3472  0.0872
    1TMC1     O14346   2.527   0.595  13.042  0.1870 -0.4857  0.1122
    1TMC1     H14347   2.526   0.203  13.017  1.0728  0.7908  2.9437
    1TMC1    H114348   2.299   0.571  12.988 -0.0673 -0.1658  0.2251
    1TMC1    H214349   2.108   0.190  12.975  1.0471 -1.4967  1.3209
    1TMC1    C714350   2.067   0.448  12.956 -0.3333 -0.3263 -0.1966
    1TMC1    C814351   2.330   0.046  12.973 -0.0205 -0.2504  0.3798
    1TMC1    O114352   2.007   0.430  12.856 -0.2150 -0.1388  0.2150
    1TMC1    O214353   2.433   0.015  12.910 -0.3850 -0.2466  0.4060
    1TMC1    O314354   2.013   0.397  13.073 -0.7962  0.0686 -0.4191
    1TMC1    H314355   2.076   0.416  13.145 -1.1254 -3.8567  0.8831
    1TMC1    O514356   2.267   4.706  13.063  0.4332  0.1944  0.4441
    1TMC1    H514357   2.219   0.025  13.128  0.5587 -0.4187  1.0774
    2MPD2     C14358   2.767   0.588  13.180 -0.1396  0.0051 -0.0993
    2MPD2    C114359   2.718   0.468  13.217 -1.1311 -0.4371  0.6451
    2MPD2    C214360   2.765   0.403  13.334 -0.8102  0.2217 -0.0896
    2MPD2    C314361   2.838   0.468  13.430 -0.1754  0.2486  0.4824
    2MPD2    C414362   2.883   0.597  13.394  1.0694  0.0148 -0.5490
    2MPD2    C514363   2.853   0.653  13.274 -0.0838 -0.2510  0.8273
    2MPD2     H14364   2.724   0.306  13.360  0.8194 -0.2132  0.8458
    2MPD2    H114365   2.946   0.662  13.455 -1.8603  0.8847  1.5428
    2MPD2    H214366   2.762   0.629  13.080  0.1095  1.5805  0.5406
    2MPD2    H314367   2.883   0.754  13.249 -1.0927  0.3593  2.0199
    2MPD2     N14368   2.888   0.401  13.540  0.7372  0.0348 -0.0949
    2MPD2    H514369   2.869   0.302  13.535  1.2723 -0.1583  1.4933
    2MPD2    N114370   2.615   0.403  13.140  0.1568 -0.2656  0.5221
    2MPD2    H714371   2.580   0.312  13.170  0.7913 -0.5602  0.3579
    3TCq1    O114372   2.928   0.053  14.078  0.1092 -0.2042  0.2958
    3TCq1    C114373   2.907   0.182  14.041 -0.4259 -0.0002  0.5523
    3TCq1    O214374   2.822   0.260  14.079  0.3409 -0.0114  0.1948
    3TCq1    C214375   2.968   0.204  13.907 -0.1988 -0.1834  0.6069
    3TCq1    C314376   3.029   0.098  13.841  0.9505 -0.0120  0.2608
    3TCq1    C414377   3.080   0.115  13.711 -0.6577 -0.4307  0.4335
    3TCq1    C514378   3.061   0.238  13.651 -0.1206 -0.8078 -0.1805
    3TCq1    C614379   3.003   0.339  13.726  0.3923  0.5509  0.4584
    3TCq1    C714380   2.973   0.333  13.855  0.1624 -0.1259 -0.3008
    3TCq1    C814381   2.949   0.450  13.649 -0.0740 -0.0843  0.3236
    3TCq1    O414382   2.957   0.563  13.687 -0.5308  0.0451  0.6438
    3TCq1    C914383   3.141   0.012  13.637 -0.2081 -0.4147 -0.4472
    3TCq1    O514384   3.165   4.638  13.692  0.2271  0.4590  0.2726
    3TCq1    O614385   3.206   0.049  13.537 -0.2175  0.8167  0.6407
    3TCq1    H114386   3.013   0.012  14.052 -0.2678 -1.8640  1.6594
    3TCq1    H214387   3.016   4.733  13.876  2.3498 -0.4375 -0.4633
    3TCq1    H314388   3.085   0.249  13.546  2.7539  0.8871  0.6402
    3TCq1    H414389   2.922   0.410  13.912  3.4852  1.7150  0.2236
    1MPD2     C14390   2.325   1.719  14.627  0.6342  0.0762 -0.1050
    1MPD2    C114391   2.200   1.659  14.635 -1.6768  0.0956  0.5776
    1MPD2    C214392   2.195   1.516  14.627 -0.4046  0.2943  0.3377
    1MPD2    C314393   2.309   1.445  14.605  0.1624 -0.3233  0.3142
    1MPD2    C414394   2.429   1.506  14.605 -0.1129  0.2507  0.4910
    1MPD2    C514395   2.439   1.641  14.628 -0.5101  0.8358 -0.9419
    1MPD2     H14396   2.104   1.460  14.645 -0.6340  0.4827 -0.2335
    1MPD2    H114397   2.525   1.455  14.605 -0.2671 -0.0393  0.9562
    1MPD2    H214398   2.342   1.826  14.633 -1.1496  0.4782 -2.2080
    1MPD2    H314399   2.539   1.685  14.627  0.6315 -1.7359  0.1641
    1MPD2     N14400   2.300   1.303  14.595  0.1499 -0.3139  0.0104
    1MPD2    H514401   2.388   1.255  14.608 -0.5113 -1.1366  1.5371
    1MPD2    N114402   2.089   1.738  14.667  0.4537  0.0504  0.2173
    1MPD2    H714403   2.098   1.839  14.657 -1.4883  0.1707 -0.1622
    2TMC3    C114404   1.861   1.787  14.712 -0.3945  0.0265  1.3982
    2TMC3    C214405   1.742   1.718  14.713 -0.0792  0.0802 -0.4724
    2TMC3    C314406   1.641   1.739  14.630 -0.4722 -0.5277  0.1455
    2TMC3    C414407   1.876   1.878  14.605  0.3994  0.5404  0.3195
    2TMC3    C514408   1.772   1.907  14.526 -0.2472 -0.0746 -0.6215
    2TMC3    C614409   1.655   1.843  14.543 -0.8723 -0.2609  0.8185
    2TMC3     C14410   1.967   1.691  14.708 -0.8457 -0.5586 -0.1003
    2TMC3     O14411   1.936   1.576  14.736 -0.4654 -0.0767  0.5585
    2TMC3     H14412   1.721   1.651  14.796 -1.1482  0.7311 -0.2189
    2TMC3    H114413   1.968   1.934  14.609  0.4560  0.5084 -0.4636
    2TMC3    H214414   1.572   1.866  14.477  0.2497  0.6297 -0.2668
    2TMC3    C714415   1.785   2.021  14.438 -0.0375  1.0292 -0.6169
    2TMC3    C814416   1.582   1.619  14.585  1.0626  0.0430 -0.0828
    2TMC3    O114417   1.678   2.065  14.394  0.1318  0.5822 -0.7603
    2TMC3    O214418   1.466   1.635  14.558  0.2045  0.2294  0.3664
    3TCq1    O114419   2.872   2.599  14.118 -0.3068 -0.2060  0.1762
    3TCq1    C114420   2.776   2.530  14.053 -1.1097 -0.2766  0.9281
    3TCq1    O214421   2.751   2.531  13.931 -0.0320  0.1226 -0.9912
    3TCq1    C214422   2.695   2.455  14.145 -0.0336  0.0861 -0.0901
    3TCq1    C314423   2.753   2.415  14.263  0.4533  0.1226  0.4186
    3TCq1    C414424   2.663   2.377  14.364 -0.3336 -0.0972 -0.0843
    3TCq1    C514425   2.525   2.368  14.339 -0.0859 -0.6674  0.0930
    3TCq1    C614426   2.476   2.415  14.216 -0.2911  0.3424 -0.1227
    3TCq1    C714427   2.567   2.466  14.125  0.3770  0.1329  0.2998
    3TCq1    C814428   2.334   2.423  14.184  0.2271 -0.1711  0.3872
    3TCq1    O414429   2.294   2.485  14.085  0.5151 -0.1072 -0.3565
    3TCq1    C914430   2.717   2.350  14.499 -0.2040 -0.3948 -0.0977
    3TCq1    O514431   2.631   2.321  14.587  0.3293 -0.1500 -0.0333
    3TCq1    O614432   2.833   2.388  14.508  0.1336 -0.3880 -0.2761
    3TCq1    H114433   2.882   2.588  14.214  0.2935 -0.1376  0.1239
    3TCq1    H214434   2.859   2.403  14.281  0.0255 -2.3461  1.3839
    3TCq1    H314435   2.458   2.364  14.424 -0.0281 -1.5737  0.1038
    3TCq1    H414436   2.541   2.493  14.023  0.7619 -1.5405 -0.2372
    4MPD2     C14437   2.049   2.395  14.214 -0.4673 -0.2386  0.2125
    4MPD2    C114438   2.132   2.295  14.254 -0.0333 -0.2633  0.3017
    4MPD2    C214439   2.087   2.177  14.298 -0.1861  0.2554  0.4869
    4MPD2    C314440   1.954   2.170  14.329 -0.4927  0.4249  0.4503
    4MPD2    C414441   1.864   2.263  14.292 -0.4438 -0.0500 -0.5112
    4MPD2    C514442   1.910   2.375  14.225 -0.7989  0.6316 -1.0758
    4MPD2     H14443   2.156   2.101  14.332  0.8956 -0.0616 -2.3770
    4MPD2    H114444   1.757   2.258  14.306 -0.7478  3.1346 -1.7699
    4MPD2    H214445   2.083   2.495  14.189 -1.9161  0.3073  0.4280
    4MPD2    H314446   1.848   2.460  14.197 -2.1522  0.0224  0.0519
    4MPD2     N14447   1.913   2.058  14.402  0.2042 -0.0011  0.5221
    4MPD2    H514448   1.982   1.987  14.427 -0.1524 -0.1980  0.9301
    4MPD2    N114449   2.275   2.316  14.246 -0.0819 -0.6331  0.3599
    4MPD2    H714450   2.338   2.241  14.275 -0.0512 -1.4860 -1.9634
    5TMC2    C114451   2.021   0.928  14.574  0.4339 -0.2904  0.1082
    5TMC2    C214452   2.081   0.879  14.689 -0.6643 -0.5017  0.0000
    5TMC2    C314453   2.197   0.930  14.739  0.3178  0.3195  0.3278
    5TMC2    C414454   2.086   1.022  14.507  1.0297 -0.5183 -0.1796
    5TMC2    C514455   2.197   1.080  14.563  0.3159 -0.1517 -0.2948
    5TMC2    C614456   2.257   1.033  14.680 -0.5889 -0.5495  0.5651
    5TMC2     C14457   1.882   0.954  14.580 -0.3079 -0.4957  0.2416
    5TMC2     O14458   1.792   0.872  14.595  0.8834 -0.8282  0.3235
    5TMC2     H14459   2.019   0.819  14.754  2.1562 -2.3721  1.0005
    5TMC2    H114460   2.044   1.061  14.415  2.2368 -0.6517 -0.7941
    5TMC2    H214461   2.348   1.083  14.711  0.2644 -0.8312 -1.5322
    5TMC2    C714462   2.186   1.227  14.558 -0.4511 -0.0415 -0.1119
    5TMC2    C814463   2.256   0.877  14.856 -0.0310  0.1146 -0.2731
    5TMC2    O114464   2.076   1.263  14.535 -0.7162  0.1818  0.2140
    5TMC2    O214465   2.343   0.939  14.913 -0.0012  0.1109 -0.1948
    5TMC2    O514466   2.246   0.739  14.854  0.0400  0.3260 -0.4199
    5TMC2    H514467   2.178   0.710  14.789  0.5740 -0.2516 -0.7134
    6MPD2     C14468   1.530   1.345  14.509  0.1336 -0.2957 -0.2634
    6MPD2    C114469   1.652   1.389  14.559 -0.3188 -0.2606  0.3453
    6MPD2    C214470   1.759   1.304  14.582  0.0865  0.1576 -0.3274
    6MPD2    C314471   1.750   1.169  14.557 -0.6726 -0.1486  0.3714
    6MPD2    C414472   1.625   1.124  14.508  0.2779 -0.3794  0.5037
    6MPD2    C514473   1.522   1.213  14.480  0.2416  0.2018 -0.6165
    6MPD2     H14474   1.858   1.337  14.611  0.2402  0.8785 -1.6638
    6MPD2    H114475   1.607   1.020  14.484  1.7262 -0.5924  0.3262
    6MPD2    H214476   1.448   1.406  14.473  0.0951  1.4475  2.7412
    6MPD2    H314477   1.429   1.173  14.441  0.8882  0.4688 -2.3958
    6MPD2     N14478   1.871   1.090  14.576 -0.9737 -0.4165 -0.1146
    6MPD2    H514479   1.964   1.128  14.591 -0.6741 -0.1529 -2.7646
    6MPD2    N114480   1.677   1.524  14.590 -0.0433  0.0790  0.1071
    6MPD2    H714481   1.766   1.554  14.626  0.3097  0.7603 -1.3232
  945NH3     N114482   0.165   1.508  12.902 -0.1133 -0.2073  0.2456
  945NH3     H214483   0.154   1.413  12.871  0.6933 -0.2872  0.2210
  945NH3     H314484   0.264   1.523  12.893 -0.3440 -0.1200 -2.0731
  945NH3     H414485   0.136   1.564  12.823  0.1749  0.7144  0.7883
  946SOD     NA14486   3.631   1.801  15.394 -0.0351  0.1425  0.4766
  947SOD     NA14487   3.697   3.042  12.191  0.4933 -0.3853 -0.1594
  948SOD     NA14488   1.902   2.826  12.306 -0.2448 -0.2902  0.5313
  949SOD     NA14489   2.568   3.006   9.433 -0.3989 -0.1462  0.0735
  950SOD     NA14490   0.470   2.553  11.122 -0.1038  0.2141  0.3994
  951SOD     NA14491   2.458   1.663   5.072  0.0580 -0.0080  0.4903
  952SOD     NA14492   0.401   1.414  16.560 -0.4624  0.0731 -0.2423
  953SOD     NA14493   4.413   0.278  13.461 -0.2580 -0.1728  0.0564
  954SOL     OW14494   2.980   2.005   4.701 -0.1848 -0.2023  0.0789
  954SOL    HW114495   2.929   1.952   4.761 -0.7481  0.0150 -0.2089
  954SOL    HW214496   2.917   2.072   4.678  0.3830  0.0239 -0.8242
  955SOL     OW14497   0.261   2.598   3.749 -0.3082  0.1399  0.4342
  955SOL    HW114498   0.279   2.669   3.811 -0.8947  0.1375  0.6081
  955SOL    HW214499   0.350   2.571   3.726 -1.7602 -3.1195 -1.2490
  956SOL     OW14500   4.017   0.206   0.070 -0.2148 -0.0676  0.3783
  956SOL    HW114501   3.960   0.176  17.745  0.5920 -0.2217 -0.2082
  956SOL    HW214502   4.089   0.145   0.089 -0.3300 -0.3224 -0.0228
  957SOL     OW14503   1.026   2.563  13.352 -0.3186  0.1321 -0.6176
  957SOL    HW114504   0.940   2.524  13.343 -1.0462  1.5290  0.1741
  957SOL    HW214505   1.014   2.636  13.291  2.2737  0.9893 -0.1558
  958SOL     OW14506   4.696   2.205   5.053 -0.1603 -0.0201  0.6254
  958SOL    HW114507   4.632   2.276   5.052 -1.0124 -0.8210 -1.2606
  958SOL    HW214508   4.726   2.207   4.962  2.0587  1.1811  1.3981
  959SOL     OW14509   4.521   0.801   9.207 -0.3740 -0.2501 -0.3600
  959SOL    HW114510   4.537   0.883   9.253  1.3952 -0.2542 -0.9823
  959SOL    HW214511   4.578   0.744   9.258  0.9645  0.3307 -1.2167
  960SOL     OW14512   3.495   1.084  14.895 -0.3968  0.8240 -0.3192
  960SOL    HW114513   3.466   1.024  14.964 -0.1336 -0.1146 -1.0219
  960SOL    HW214514   3.537   1.027  14.831  1.5483  1.3378  0.5150
  961SOL     OW14515   1.157   2.260   2.589 -0.3609  0.1385  0.9315
  961SOL    HW114516   1.090   2.309   2.541 -1.2857 -1.3634  0.6916
  961SOL    HW214517   1.138   2.179   2.541 -0.4004  0.3267  0.6313
  962SOL     OW14518   1.857   2.343   4.587  0.3260  0.1118  0.0624
  962SOL    HW114519   1.788   2.284   4.620  2.3457 -0.1658  3.7626
  962SOL    HW214520   1.813   2.427   4.572 -0.8411 -0.9964 -2.7911
  963SOL     OW14521   2.908   2.298   7.161 -0.2611  0.0260 -0.0017
  963SOL    HW114522   2.823   2.332   7.187 -1.0973 -1.7711 -0.3282
  963SOL    HW214523   2.894   2.203   7.161 -0.6760  0.0876 -1.5789
  964SOL     OW14524   3.692   2.527  15.275  0.3466  0.0782  0.0086
  964SOL    HW114525   3.603   2.494  15.265 -0.1292  0.4632  3.0127
  964SOL    HW214526   3.701   2.533  15.370 -1.2568  1.0963  0.0867
  965SOL     OW14527   0.877   3.136   5.797 -0.2458  0.0699 -0.2551
  965SOL    HW114528   0.868   3.071   5.727 -0.6703  1.5364 -1.5507
  965SOL    HW214529   0.954   3.102   5.843 -0.7160  0.2798  0.7060
  966SOL     OW14530   4.675   1.605   8.729  0.0112 -0.2678 -0.0496
  966SOL    HW114531   4.714   1.522   8.758 -2.9927 -1.5704  0.3227
  966SOL    HW214532   0.010   1.654   8.692 -0.1769 -0.4592 -0.6736
  967SOL     OW14533   2.958   0.734   4.054 -0.1243  0.3784  0.8722
  967SOL    HW114534   2.939   0.711   3.963 -0.7217  1.7394  0.6531
  967SOL    HW214535   2.899   0.670   4.093  0.7975 -0.2513  1.2475
  968SOL     OW14536   3.105   3.010   4.932 -0.4706 -0.1727  0.4033
  968SOL    HW114537   3.053   3.001   4.852  0.6317 -0.0944 -0.3153
  968SOL    HW214538   3.062   3.084   4.975  0.5363 -0.1424  1.3467
  969SOL     OW14539   1.178   1.449   2.442  0.1300 -0.3533 -0.0454
  969SOL    HW114540   1.270   1.473   2.440  0.1377 -0.3225  1.1109
  969SOL    HW214541   1.172   1.371   2.387 -1.0052  0.1392 -0.6308
  970SOL     OW14542   2.450   1.028  12.417 -0.4759  0.6971 -0.1919
  970SOL    HW114543   2.454   1.101  12.478 -0.4033  0.8125 -0.3337
  970SOL    HW214544   2.447   0.961  12.485 -0.7789  2.1810  1.2420
  971SOL     OW14545   0.368   3.307  13.290  0.1328  0.3554  0.3579
  971SOL    HW114546   0.444   3.257  13.260  1.3047  1.2632  1.7907
  971SOL    HW214547   0.355   3.280  13.381 -1.6175  1.8653  0.5757
  972SOL     OW14548   2.531   2.027   2.357 -0.5730  0.2087  0.2416
  972SOL    HW114549   2.542   2.022   2.452 -2.0344  1.3800  0.4728
  972SOL    HW214550   2.616   2.061   2.330 -1.0466  0.4770 -0.9272
  973SOL     OW14551   1.849   3.575   1.988 -0.1783 -0.3152 -0.4428
  973SOL    HW114552   1.855   3.559   2.083  0.2571 -1.7505 -0.7119
  973SOL    HW214553   1.893   3.495   1.958 -1.9783 -1.1948 -0.7410
  974SOL     OW14554   3.740   3.252  10.704 -0.4160 -0.0837  0.2646
  974SOL    HW114555   3.779   3.339  10.717  0.9091 -0.6589  0.1409
  974SOL    HW214556   3.648   3.272  10.723 -0.1675  0.8282  0.5303
  975SOL     OW14557   1.001   0.009  15.902  0.3120 -0.3302  0.1240
  975SOL    HW114558   0.913   4.710  15.919 -0.0272  0.2241 -0.4530
  975SOL    HW214559   1.054   4.669  15.923 -0.0103 -0.6358 -0.1701
  976SOL     OW14560   1.790   0.872   4.838 -0.6102  0.0115 -0.3619
  976SOL    HW114561   1.826   0.834   4.918 -0.8778 -0.0136 -0.2535
  976SOL    HW214562   1.856   0.848   4.773 -1.9448  0.6842 -1.9859
  977SOL     OW14563   0.799   2.677   3.501 -0.4720  0.7288 -0.1493
  977SOL    HW114564   0.859   2.661   3.429 -1.4466 -0.1626 -0.7523
  977SOL    HW214565   0.788   2.772   3.504  2.6892  1.1039 -0.1587
  978SOL     OW14566   2.478   0.804  12.077  0.0948  0.2667  0.1104
  978SOL    HW114567   2.393   0.805  12.121  0.3231  0.7370  0.5263
  978SOL    HW214568   2.525   0.863  12.135  1.0539  0.4377 -0.8408
  979SOL     OW14569   4.381   1.058   7.989  0.4828 -0.2684  0.1065
  979SOL    HW114570   4.296   1.080   7.952  2.1020  1.6847 -2.5154
  979SOL    HW214571   4.364   0.987   8.050  0.9354  2.1945  3.0820
  980SOL     OW14572   3.354   3.938   3.531  0.7991 -0.3539  0.2570
  980SOL    HW114573   3.405   4.018   3.518 -3.0976  1.6984 -2.5188
  980SOL    HW214574   3.417   3.879   3.573 -0.1235 -0.5702  1.3278
  981SOL     OW14575   1.621   3.044   8.384  0.2060 -0.4267 -0.5898
  981SOL    HW114576   1.526   3.034   8.394 -0.0827  2.1800 -0.8105
  981SOL    HW214577   1.646   2.985   8.455  0.4892  0.1390 -0.2221
  982SOL     OW14578   1.307   2.559   5.619  0.9465 -0.3584  0.2332
  982SOL    HW114579   1.265   2.572   5.704 -1.2565 -1.5632 -0.6687
  982SOL    HW214580   1.325   2.652   5.607  0.5117 -0.3891 -0.6876
  983SOL     OW14581   3.983   0.828  17.549 -0.1277  0.2589 -0.2211
  983SOL    HW114582   4.011   0.849  17.638 -0.6391  1.6019 -0.3875
  983SOL    HW214583   4.020   0.900  17.499  0.6793  0.9677  1.4009
  984SOL     OW14584   2.851   0.641   8.673 -0.7844  0.3494 -0.4064
  984SOL    HW114585   2.827   0.653   8.581 -2.4356 -1.4002 -0.1987
  984SOL    HW214586   2.852   0.545   8.668  1.8309  0.3951 -0.8414
  985SOL     OW14587   2.576   0.588  16.314  0.1064  0.1298 -0.1048
  985SOL    HW114588   2.520   0.523  16.270  0.1946 -0.7557  1.0862
  985SOL    HW214589   2.590   0.541  16.396  0.8664  0.0554 -0.2773
  986SOL     OW14590   2.957   1.385  17.283 -0.1077 -0.1735  0.0974
  986SOL    HW114591   3.014   1.461  17.297  0.6451 -0.7785  0.3246
  986SOL    HW214592   2.985   1.320  17.347  0.7775 -1.1056 -1.2306
  987SOL     OW14593   0.596   2.800   4.183  0.8700  0.9071  0.0112
  987SOL    HW114594   0.563   2.712   4.203  0.2330  0.5500 -2.6400
  987SOL    HW214595   0.561   2.854   4.253 -5.2163 -0.5400 -1.8595
  988SOL     OW14596   1.315   0.272   5.102 -0.0561 -0.1577 -0.0205
  988SOL    HW114597   1.389   0.330   5.121 -0.1529 -0.5946  1.7211
  988SOL    HW214598   1.256   0.303   5.170 -2.2980 -1.5381 -1.3316
  989SOL     OW14599   2.878   4.286   7.663  0.2677 -0.5984 -0.1539
  989SOL    HW114600   2.916   4.239   7.589  1.5303 -0.3227  0.3154
  989SOL    HW214601   2.833   4.360   7.622 -1.3915 -0.8428  1.2506
  990SOL     OW14602   3.855   1.389   3.921  0.5765 -0.0546 -0.1944
  990SOL    HW114603   3.779   1.380   3.864 -1.0961  2.3089  1.6833
  990SOL    HW214604   3.823   1.330   3.989 -2.8529  2.0450 -0.0299
  991SOL     OW14605   2.467   3.762  14.398  0.2614  0.1616 -0.5158
  991SOL    HW114606   2.559   3.785  14.384 -0.0796  2.3405  0.8538
  991SOL    HW214607   2.429   3.820  14.332  2.4635  2.1188 -0.0520
  992SOL     OW14608   1.665   3.453   4.621 -0.1601  0.1559  0.1788
  992SOL    HW114609   1.614   3.386   4.666  0.5993 -0.8050 -0.4060
  992SOL    HW214610   1.598   3.501   4.572 -0.4930 -1.7745 -1.2423
  993SOL     OW14611   0.248   2.595  11.077  0.5090  0.2465  0.3268
  993SOL    HW114612   0.197   2.579  10.998  0.6066 -1.1158  0.5378
  993SOL    HW214613   0.181   2.637  11.131 -1.0023 -2.1060  0.3009
  994SOL     OW14614   1.911   2.102   0.020  0.3196  0.8069  0.3634
  994SOL    HW114615   1.969   2.179   0.014  2.5162 -0.8740 -0.0982
  994SOL    HW214616   1.952   2.062   0.096 -1.2459 -1.7014 -0.1416
  995SOL     OW14617   0.520   3.153   8.621 -0.9756  0.1040  0.8419
  995SOL    HW114618   0.512   3.174   8.528  1.1700 -0.0062  0.6366
  995SOL    HW214619   0.590   3.212   8.651  0.4661 -1.2218  0.0572
  996SOL     OW14620   4.252   1.893  11.115  0.7513  0.2471  0.0204
  996SOL    HW114621   4.346   1.900  11.135  1.0974  0.9575 -1.8459
  996SOL    HW214622   4.224   1.878  11.205  1.0792 -0.4661  0.0061
  997SOL     OW14623   1.440   0.408   4.132  0.2717 -0.6228 -0.0157
  997SOL    HW114624   1.459   0.317   4.153 -0.4500 -0.4330  1.4284
  997SOL    HW214625   1.377   0.423   4.202  0.3051 -1.1194  0.1171
  998SOL     OW14626   2.370   0.347  14.389 -0.1172 -0.1455 -0.1567
  998SOL    HW114627   2.412   0.317  14.470  0.1393 -0.0046 -0.2371
  998SOL    HW214628   2.281   0.343  14.423  0.3390  2.4993  1.2991
  999SOL     OW14629   3.558   2.345   2.794  0.1137  0.2150  0.3225
  999SOL    HW114630   3.514   2.369   2.712  1.3692  1.2623 -0.0367
  999SOL    HW214631   3.613   2.273   2.763  0.1893  0.8261 -0.9761
 1000SOL     OW14632   3.864   0.023  13.262 -0.1316 -0.1909 -0.1211
 1000SOL    HW114633   3.907   0.073  13.194  1.5043 -1.9611 -0.3964
 1000SOL    HW214634   3.814   4.697  13.210 -0.8261 -0.9380  1.4293
 1001SOL     OW14635   4.646   4.223  16.574  0.4512 -0.4290  0.1386
 1001SOL    HW114636   4.646   4.311  16.611 -0.5763 -0.1731 -0.4607
 1001SOL    HW214637   4.572   4.230  16.514 -0.1028 -0.0921  0.8633
 1002SOL     OW14638   1.542   2.195   8.491  0.5720  0.0414 -0.1144
 1002SOL    HW114639   1.575   2.196   8.401  1.7743 -1.4190  0.3131
 1002SOL    HW214640   1.563   2.280   8.528  0.4078  0.4876 -1.0511
 1003SOL     OW14641   2.258   0.739   7.278 -0.2432 -0.1363 -0.5125
 1003SOL    HW114642   2.276   0.743   7.184 -0.2375 -0.2891 -0.5173
 1003SOL    HW214643   2.166   0.766   7.275 -0.5128 -0.9933 -0.0346
 1004SOL     OW14644   0.519   3.595   9.719 -0.0188  0.0147 -0.3215
 1004SOL    HW114645   0.596   3.641   9.752 -1.3497  1.8667  0.1753
 1004SOL    HW214646   0.442   3.648   9.737 -0.1830 -0.2769 -0.1516
 1005SOL     OW14647   3.139   1.311   8.874 -0.0530 -0.3427  0.1245
 1005SOL    HW114648   3.118   1.224   8.908 -1.4379 -0.9879 -2.3961
 1005SOL    HW214649   3.226   1.297   8.838 -0.4389  0.3686 -1.0830
 1006SOL     OW14650   1.634   3.581   7.668  0.3662 -0.2475  0.1581
 1006SOL    HW114651   1.612   3.603   7.577  0.8763  1.3753  0.4449
 1006SOL    HW214652   1.721   3.619   7.670 -0.6616  2.1383 -0.5825
 1007SOL     OW14653   0.690   3.499   3.936 -0.3804  0.2863 -0.2162
 1007SOL    HW114654   0.675   3.442   4.011  0.3833 -0.5618 -0.7026
 1007SOL    HW214655   0.611   3.552   3.932  0.8632  1.9653 -3.4838
 1008SOL     OW14656   1.520   3.474   0.871  0.1624  0.2965 -0.4020
 1008SOL    HW114657   1.542   3.429   0.789 -0.1471 -0.2293 -0.1956
 1008SOL    HW214658   1.600   3.524   0.890  1.2595 -1.2812 -0.8838
 1009SOL     OW14659   3.214   3.543   2.825  0.0561 -0.5320 -0.4328
 1009SOL    HW114660   3.298   3.508   2.798  0.2697 -0.2985 -0.0625
 1009SOL    HW214661   3.224   3.499   2.909 -0.1326  0.9276  0.3540
 1010SOL     OW14662   0.181   4.058   0.390  0.5163 -0.8978 -0.3826
 1010SOL    HW114663   0.093   4.096   0.401 -0.5699 -3.1845 -1.1264
 1010SOL    HW214664   0.159   3.978   0.437  1.6232 -0.8451  0.2109
 1011SOL     OW14665   3.838   1.759  17.064  0.1198  0.1081  0.0236
 1011SOL    HW114666   3.807   1.789  16.979  0.4391  2.7749  0.8390
 1011SOL    HW214667   3.878   1.842  17.090 -2.1864  0.9073  1.0873
 1012SOL     OW14668   0.561   3.940   8.263  0.4369 -0.2551  0.3157
 1012SOL    HW114669   0.637   3.962   8.210  0.1865 -0.9741 -0.3280
 1012SOL    HW214670   0.589   3.970   8.350  0.1652 -0.5290  0.5011
 1013SOL     OW14671   3.173   2.137  13.011  0.0615 -0.6096 -0.0787
 1013SOL    HW114672   3.254   2.088  12.994  0.4016  1.2795 -3.7237
 1013SOL    HW214673   3.165   2.195  12.936  0.6254  1.3629  1.3843
 1014SOL     OW14674   3.456   2.597   4.926 -0.4518 -0.0322  0.0088
 1014SOL    HW114675   3.518   2.601   4.999  1.1820 -0.4659 -1.3337
 1014SOL    HW214676   3.408   2.678   4.942  0.7632  0.6725  0.1213
 1015SOL     OW14677   0.299   1.274   4.096 -0.4526 -0.5065 -0.1775
 1015SOL    HW114678   0.350   1.200   4.061  0.7199  0.6943 -1.0089
 1015SOL    HW214679   0.358   1.314   4.160 -1.9635  2.1160 -0.4204
 1016SOL     OW14680   4.371   1.164   9.953  0.1051 -0.0462 -0.0479
 1016SOL    HW114681   4.301   1.105   9.979 -0.7654 -0.1469 -2.6137
 1016SOL    HW214682   4.449   1.123   9.991  0.1115 -0.4002 -0.4465
 1017SOL     OW14683   2.672   1.456  17.297 -0.5057 -0.1941 -0.0010
 1017SOL    HW114684   2.663   1.529  17.235  2.3951  1.3752  1.4010
 1017SOL    HW214685   2.764   1.432  17.305  0.5442  3.6796 -0.2032
 1018SOL     OW14686   2.772   1.135   7.028 -0.0037  0.2342  0.0678
 1018SOL    HW114687   2.729   1.052   7.050 -3.7092  2.2970  0.7395
 1018SOL    HW214688   2.858   1.120   7.067 -0.2317  0.1209  0.5301
 1019SOL     OW14689   1.197   0.478   2.979 -0.5393  0.3570  0.1682
 1019SOL    HW114690   1.187   0.416   2.907  2.1746 -1.4314  1.3207
 1019SOL    HW214691   1.157   0.428   3.050  0.2239 -0.7380 -0.1776
 1020SOL     OW14692   3.783   3.864   4.076  0.1808 -0.1443 -0.0946
 1020SOL    HW114693   3.830   3.946   4.059 -1.5892  1.0536  0.7382
 1020SOL    HW214694   3.702   3.870   4.024  1.3519 -2.3731 -2.1978
 1021SOL     OW14695   1.306   0.535   1.711 -0.2315  0.0432  0.2931
 1021SOL    HW114696   1.341   0.595   1.646  1.1142 -0.6075  0.4249
 1021SOL    HW214697   1.380   0.485   1.744  1.7188  3.7076  1.4846
 1022SOL     OW14698   1.458   2.122  12.316  0.2318 -0.4478  0.2865
 1022SOL    HW114699   1.544   2.160  12.337  0.5719 -1.8035  1.3293
 1022SOL    HW214700   1.411   2.139  12.397 -0.5427  2.2202 -0.7363
 1023SOL     OW14701   1.788   0.079   0.828  0.0410 -0.1854  0.4993
 1023SOL    HW114702   1.792   0.165   0.787 -2.3690 -0.5466 -0.4845
 1023SOL    HW214703   1.881   0.057   0.824  0.0470 -0.3815  1.5772
 1024SOL     OW14704   2.978   0.929   7.713 -0.5875  0.0372  0.0466
 1024SOL    HW114705   2.972   0.835   7.725 -0.3138 -0.1152 -0.9539
 1024SOL    HW214706   2.908   0.948   7.650  1.2682  0.6481 -1.8489
 1025SOL     OW14707   0.819   0.668   8.279 -0.4934 -0.0401  0.0189
 1025SOL    HW114708   0.735   0.712   8.264  0.6056  2.1072  0.2409
 1025SOL    HW214709   0.814   0.591   8.222  0.6033 -2.7461  3.5782
 1026SOL     OW14710   0.240   0.727   2.463  0.0922  0.9107 -0.6874
 1026SOL    HW114711   0.147   0.721   2.439 -0.2998  2.3555  0.5200
 1026SOL    HW214712   0.275   0.703   2.377 -0.4208 -1.3977 -0.2648
 1027SOL     OW14713   3.405   3.247  15.976  0.1657  0.3160 -0.2456
 1027SOL    HW114714   3.498   3.226  15.981  0.4711  1.7667  0.0914
 1027SOL    HW214715   3.398   3.332  16.019  1.5300 -0.6694  1.9425
 1028SOL     OW14716   0.680   3.898   1.011  0.4788 -0.5697  0.1089
 1028SOL    HW114717   0.719   3.899   1.098  1.2056  1.2308 -0.2521
 1028SOL    HW214718   0.625   3.819   1.003  1.5793 -1.1626 -1.5297
 1029SOL     OW14719   3.951   0.786   3.145 -0.5376  0.4252  0.4008
 1029SOL    HW114720   3.907   0.851   3.089  2.2956  1.7051 -0.3601
 1029SOL    HW214721   3.980   0.724   3.078 -1.0022  2.3467 -1.5634
 1030SOL     OW14722   2.091   0.780   0.242 -0.4593 -0.0921  0.1255
 1030SOL    HW114723   2.145   0.858   0.231 -0.3837 -0.1861 -0.1620
 1030SOL    HW214724   2.032   0.809   0.312  0.0689  3.1333 -0.7940
 1031SOL     OW14725   2.826   0.585   5.314  0.1572  0.5043  0.4973
 1031SOL    HW114726   2.831   0.660   5.255 -1.2417  0.6559  0.5664
 1031SOL    HW214727   2.893   0.610   5.377  1.2141  0.5599 -0.6579
 1032SOL     OW14728   3.702   1.309  17.327  0.3760 -0.4086  0.1102
 1032SOL    HW114729   3.701   1.405  17.332 -1.5066 -0.4742  0.8719
 1032SOL    HW214730   3.750   1.292  17.246  1.1650 -0.5634  0.6162
 1033SOL     OW14731   0.046   4.018  16.178 -0.8432  0.5406 -0.2478
 1033SOL    HW114732   0.071   4.097  16.228  3.6193 -1.5449  0.8554
 1033SOL    HW214733   0.123   3.962  16.188 -0.7976  0.8694  1.3428
 1034SOL     OW14734   3.429   3.331   3.667  0.1717  0.1435  0.2311
 1034SOL    HW114735   3.501   3.344   3.605  0.1334  0.7522  0.3100
 1034SOL    HW214736   3.438   3.243   3.704 -0.0590 -0.8700 -2.1643
 1035SOL     OW14737   0.975   2.406   1.794  0.0089 -0.1245  0.1833
 1035SOL    HW114738   1.066   2.415   1.766  0.4705  1.0080  2.0836
 1035SOL    HW214739   0.980   2.318   1.832 -0.6310 -0.3143 -0.1584
 1036SOL     OW14740   1.514   0.655   2.206 -1.0974  0.3590  0.0216
 1036SOL    HW114741   1.440   0.633   2.151 -0.3584  0.8744 -1.1737
 1036SOL    HW214742   1.480   0.729   2.256 -1.9354 -0.0131 -0.0123
 1037SOL     OW14743   1.969   1.822   5.840  0.2347 -0.0123 -0.0944
 1037SOL    HW114744   1.983   1.753   5.776 -1.9832 -0.5807  0.0481
 1037SOL    HW214745   1.879   1.794   5.857  1.0901 -2.1224  0.9626
 1038SOL     OW14746   0.521   2.924   2.021 -0.5651  0.4037  0.5855
 1038SOL    HW114747   0.525   2.912   2.116 -1.3842  2.6693  0.9092
 1038SOL    HW214748   0.445   2.869   2.002  0.0033  0.0381 -0.6490
 1039SOL     OW14749   3.075   4.627  12.066  0.0767  0.5549 -0.2349
 1039SOL    HW114750   3.146   4.665  12.117  0.1826 -0.7116  0.5846
 1039SOL    HW214751   3.043   4.694  12.006 -0.6415  1.1618  0.8240
 1040SOL     OW14752   0.853   1.440  14.873 -0.0532  0.0279  0.2581
 1040SOL    HW114753   0.829   1.348  14.864  2.0150 -0.7225  2.4475
 1040SOL    HW214754   0.943   1.439  14.839 -0.3067 -0.0786 -0.4228
 1041SOL     OW14755   0.381   4.486   7.312  1.1106  0.6102  0.3237
 1041SOL    HW114756   0.473   4.492   7.340  1.3522  0.2020 -0.3788
 1041SOL    HW214757   0.384   4.400   7.270  1.6419  1.5175 -1.4953
 1042SOL     OW14758   0.063   2.561  16.579  0.1099 -0.2715  0.1341
 1042SOL    HW114759   0.112   2.574  16.660  1.3849 -2.6790 -0.2451
 1042SOL    HW214760   4.719   2.612  16.587  1.6563  2.2124  0.1049
 1043SOL     OW14761   3.892   1.802  11.530 -0.3539 -0.2737 -0.3663
 1043SOL    HW114762   3.849   1.733  11.479 -0.8097  1.0744 -1.8039
 1043SOL    HW214763   3.828   1.872  11.526 -2.0093 -1.8606 -1.6148
 1044SOL     OW14764   0.211   1.535  17.681  0.0102 -0.3592  1.1707
 1044SOL    HW114765   0.185   1.525  17.589 -0.4550  2.2338  1.0341
 1044SOL    HW214766   0.151   1.603  17.711  0.3954  0.1649  0.7638
 1045SOL     OW14767   1.578   1.413   1.471 -0.6126  0.1656 -0.1742
 1045SOL    HW114768   1.525   1.361   1.411 -1.8816  1.9018 -0.5600
 1045SOL    HW214769   1.527   1.404   1.551 -2.2706 -0.5186 -1.3141
 1046SOL     OW14770   2.976   3.635   8.310  0.0746  0.0059 -0.1673
 1046SOL    HW114771   3.013   3.708   8.360 -1.2335  1.1125 -0.8328
 1046SOL    HW214772   3.015   3.555   8.346 -1.5749  0.6064  2.8951
 1047SOL     OW14773   2.060   3.120   3.192  0.0742  0.2769  0.1881
 1047SOL    HW114774   2.110   3.189   3.236  1.0217  0.5711 -1.3259
 1047SOL    HW214775   2.005   3.170   3.131 -1.5269 -2.5737 -0.6798
 1048SOL     OW14776   1.124   0.265  15.826 -0.0472  0.0039 -0.4735
 1048SOL    HW114777   1.210   0.237  15.856 -0.6423 -2.4098 -1.0021
 1048SOL    HW214778   1.073   0.187  15.849 -1.1701  0.5670 -1.0977
 1049SOL     OW14779   2.551   2.195   3.188  0.0317 -0.2767 -0.0863
 1049SOL    HW114780   2.594   2.231   3.266 -2.2898 -0.2664  1.1753
 1049SOL    HW214781   2.480   2.146   3.229  0.0497 -0.4131 -0.2197
 1050SOL     OW14782   2.217   3.983   0.722 -0.7015  0.4250  0.3599
 1050SOL    HW114783   2.250   4.070   0.744  1.7201 -0.0871 -1.2480
 1050SOL    HW214784   2.270   3.959   0.646  0.8145  1.4215  1.0937
 1051SOL     OW14785   1.123   0.465   4.030 -0.2913 -0.5845  0.0681
 1051SOL    HW114786   1.105   0.477   4.124 -0.7069 -1.2502  0.0676
 1051SOL    HW214787   1.061   0.529   3.996 -1.5174 -2.5464 -1.3381
 1052SOL     OW14788   1.568   1.217   6.874  0.0398  0.1076  0.4975
 1052SOL    HW114789   1.503   1.196   6.807 -1.0491  0.3983  1.4652
 1052SOL    HW214790   1.545   1.162   6.949  0.8029  0.7575  1.2080
 1053SOL     OW14791   0.085   2.672  11.615  0.0516 -0.3296  0.2881
 1053SOL    HW114792   0.053   2.753  11.656  0.1298  0.1102 -0.5271
 1053SOL    HW214793   0.058   2.605  11.678 -2.7523 -0.4448 -1.0395
 1054SOL     OW14794   0.226   2.506   5.641 -0.2904  0.1592 -0.5543
 1054SOL    HW114795   0.169   2.502   5.718 -0.3478  2.1090 -0.4962
 1054SOL    HW214796   0.308   2.526   5.685 -0.0702 -1.1290 -0.3804
 1055SOL     OW14797   3.702   4.060  17.431  0.0193  0.1712 -0.4404
 1055SOL    HW114798   3.730   4.147  17.403 -0.8521 -0.3141 -2.8141
 1055SOL    HW214799   3.784   4.017  17.457 -0.7026 -0.9682 -0.0530
 1056SOL     OW14800   0.248   1.250  17.732 -0.3314 -0.0932  0.0934
 1056SOL    HW114801   0.232   1.339  17.703 -0.8599  0.4889  2.1482
 1056SOL    HW214802   0.286   1.256   0.074  0.9531  1.1515 -0.5522
 1057SOL     OW14803   3.758   4.689   4.370 -0.5687  0.1048  0.4992
 1057SOL    HW114804   3.771   4.646   4.285 -0.6184 -1.4256  1.2572
 1057SOL    HW214805   3.687   4.632   4.401  0.3506 -1.8493 -0.9859
 1058SOL     OW14806   3.893   3.718   9.144  0.1254  0.7414 -0.1798
 1058SOL    HW114807   3.941   3.638   9.165  1.3954  1.9021  1.2744
 1058SOL    HW214808   3.811   3.682   9.110  0.9596 -0.7356 -0.6309
 1059SOL     OW14809   2.055   4.301   8.012 -0.0603 -0.6231  0.6153
 1059SOL    HW114810   2.136   4.315   8.062 -0.5248 -1.5067  1.6154
 1059SOL    HW214811   2.012   4.242   8.074 -0.6708 -0.6531  0.1616
 1060SOL     OW14812   4.061   2.819   8.407  0.3437 -0.5040  0.1390
 1060SOL    HW114813   4.083   2.909   8.384  2.7550 -0.6942  1.7000
 1060SOL    HW214814   4.102   2.804   8.493  0.0284 -0.5787  0.2798
 1061SOL     OW14815   1.988   4.709   8.721 -0.2999  0.0428  0.5799
 1061SOL    HW114816   1.989   4.714   8.816 -1.1041  0.3388  0.5720
 1061SOL    HW214817   2.011   0.060   8.691 -0.4494 -0.1028  0.0405
 1062SOL     OW14818   3.992   2.219  11.975 -0.3759 -0.5251 -0.0522
 1062SOL    HW114819   3.971   2.125  11.974 -1.0689 -0.3839  2.6902
 1062SOL    HW214820   3.961   2.253  11.891 -2.1521 -0.0141  0.8196
 1063SOL     OW14821   0.241   1.260  10.206  0.4922  0.3713 -0.4806
 1063SOL    HW114822   0.312   1.203  10.233 -1.3225 -1.8466 -0.4440
 1063SOL    HW214823   0.213   1.226  10.121  0.0452 -0.7550  0.1180
 1064SOL     OW14824   0.634   3.766   5.498  0.0915 -0.3603  0.2650
 1064SOL    HW114825   0.574   3.746   5.570  0.6906 -4.4731 -0.3657
 1064SOL    HW214826   0.681   3.682   5.494 -0.9298 -0.9269  0.2685
 1065SOL     OW14827   1.460   3.776   2.337  0.5389  0.3395  0.1349
 1065SOL    HW114828   1.499   3.714   2.398  2.1058  0.8850 -0.3052
 1065SOL    HW214829   1.504   3.740   2.259  0.1420  0.3541 -0.0972
 1066SOL     OW14830   0.129   0.835   7.982  0.1330 -0.0302  0.7000
 1066SOL    HW114831   0.148   0.742   7.991  0.1876 -0.0741  0.1680
 1066SOL    HW214832   0.091   0.842   7.894  0.2980 -0.5497  0.5940
 1067SOL     OW14833   4.584   3.535   9.884  0.6223 -0.2115  0.0364
 1067SOL    HW114834   4.614   3.524   9.794 -0.3967  0.8001 -0.4226
 1067SOL    HW214835   4.646   3.599   9.918  2.0791 -0.7803 -1.5171
 1068SOL     OW14836   0.528   2.311   5.041  0.4185  0.2209  0.0761
 1068SOL    HW114837   0.578   2.362   4.978  0.6042  0.5357  0.4842
 1068SOL    HW214838   0.494   2.384   5.093  0.2000  0.5822 -0.5661
 1069SOL     OW14839   2.852   2.452   6.737 -0.2445  0.9903 -0.0163
 1069SOL    HW114840   2.901   2.391   6.791 -0.0864  1.2932  0.1834
 1069SOL    HW214841   2.766   2.411   6.747  1.2153 -2.1921 -0.6882
 1070SOL     OW14842   0.856   2.939   5.488 -0.2061  0.2221 -0.1429
 1070SOL    HW114843   0.889   2.907   5.405 -1.7970  0.9987 -1.0693
 1070SOL    HW214844   0.776   2.986   5.463 -1.2901 -0.9543  1.0942
 1071SOL     OW14845   2.378   1.158   8.296 -0.6111 -0.4170 -0.1500
 1071SOL    HW114846   2.336   1.234   8.256  0.9095  0.4524 -0.0740
 1071SOL    HW214847   2.305   1.122   8.347  0.4251  1.1408  2.4160
 1072SOL     OW14848   0.538   3.406   4.220  0.1071 -0.4580  0.0158
 1072SOL    HW114849   0.496   3.464   4.283 -0.8196 -1.8611  0.6937
 1072SOL    HW214850   0.499   3.322   4.246 -1.4125 -0.0641 -0.9901
 1073SOL     OW14851   3.145   4.568  17.229  0.1550 -0.1497 -0.3401
 1073SOL    HW114852   3.169   4.646  17.180 -0.6182  1.4044  1.7788
 1073SOL    HW214853   3.233   4.542  17.256 -0.5979 -0.0178  2.2464
 1074SOL     OW14854   0.053   2.015   7.933  0.5498  0.0053 -0.3864
 1074SOL    HW114855   4.711   2.020   7.879 -0.6000  0.4943  1.3489
 1074SOL    HW214856   0.091   1.933   7.902  0.0102 -0.0809 -0.8142
 1075SOL     OW14857   0.993   1.583  13.536  0.0862 -0.6986 -0.7071
 1075SOL    HW114858   1.085   1.563  13.554 -0.2265 -2.2001 -0.7684
 1075SOL    HW214859   0.964   1.559  13.624 -0.3875  1.5378 -0.2545
 1076SOL     OW14860   4.092   4.056   1.342  0.6500 -0.3400  0.0930
 1076SOL    HW114861   4.123   3.986   1.284  0.8682 -0.3641  0.2400
 1076SOL    HW214862   4.112   4.030   1.432  0.0866 -1.3987 -0.0785
 1077SOL     OW14863   2.830   4.029  11.669 -0.2808  0.2407 -0.2794
 1077SOL    HW114864   2.816   3.948  11.718 -2.3049  1.3818  1.0359
 1077SOL    HW214865   2.767   4.089  11.709 -1.0577 -0.8365  0.1327
 1078SOL     OW14866   0.122   0.652  11.904 -0.1715 -0.7042  0.4302
 1078SOL    HW114867   0.107   0.599  11.982 -2.0589  1.3303  1.4703
 1078SOL    HW214868   0.216   0.671  11.906 -0.5460  1.1417  0.3782
 1079SOL     OW14869   2.149   1.048   0.730 -0.2929 -0.2397  0.7102
 1079SOL    HW114870   2.167   1.077   0.640  0.7875 -0.7667  0.7567
 1079SOL    HW214871   2.123   0.959   0.709  0.2677 -0.3264  0.3887
 1080SOL     OW14872   2.277   4.084   8.377  0.4168  0.1233 -0.2913
 1080SOL    HW114873   2.314   4.152   8.434  2.1048 -0.0470 -1.1845
 1080SOL    HW214874   2.323   4.007   8.412  0.5424 -0.3024 -1.3901
 1081SOL     OW14875   3.824   1.885   1.357  0.5193  0.1923  0.5593
 1081SOL    HW114876   3.742   1.912   1.313 -0.7429 -2.4037  1.3337
 1081SOL    HW214877   3.886   1.925   1.296  0.9350 -0.6337  0.4418
 1082SOL     OW14878   1.283   4.213   0.968 -0.4002 -0.3168 -0.1398
 1082SOL    HW114879   1.226   4.276   0.924  1.2853  2.5994  1.7573
 1082SOL    HW214880   1.299   4.257   1.052  2.1920  0.7182 -1.1676
 1083SOL     OW14881   2.002   0.790   4.642  0.2689 -0.0915  0.0323
 1083SOL    HW114882   2.049   0.844   4.579  1.1709  0.4455  1.1592
 1083SOL    HW214883   2.046   0.705   4.648 -1.0517 -0.9176 -1.9621
 1084SOL     OW14884   2.077   1.232   7.521 -0.2196  0.1621  0.7382
 1084SOL    HW114885   2.170   1.246   7.507 -0.0684  1.0912  2.7330
 1084SOL    HW214886   2.063   1.224   7.615 -2.1945 -0.8832  0.3708
 1085SOL     OW14887   1.591   2.434   2.946 -0.3377  0.0177 -0.4251
 1085SOL    HW114888   1.633   2.511   2.985  1.2058 -0.6423 -0.8221
 1085SOL    HW214889   1.499   2.461   2.951 -0.2432  0.1630  0.4663
 1086SOL     OW14890   2.591   1.525   5.208 -0.1439 -0.1937  0.6268
 1086SOL    HW114891   2.670   1.472   5.218 -1.4097 -1.7476  2.6023
 1086SOL    HW214892   2.533   1.458   5.246 -1.1559  0.9607  1.1169
 1087SOL     OW14893   4.133   1.077   6.540  0.2464  0.1005 -0.3246
 1087SOL    HW114894   4.229   1.070   6.540  0.3954  2.3856 -1.7742
 1087SOL    HW214895   4.135   1.170   6.518  1.0340  0.2272  0.2928
 1088SOL     OW14896   4.093   1.877   5.400  0.4245 -0.3790  0.6957
 1088SOL    HW114897   4.148   1.800   5.382 -0.1408 -0.5599 -0.2484
 1088SOL    HW214898   4.149   1.942   5.358 -0.6745  0.8178  1.1145
 1089SOL     OW14899   1.156   0.610   9.553  0.4080  0.9287 -0.7625
 1089SOL    HW114900   1.177   0.683   9.610 -0.5638  1.3764 -0.9829
 1089SOL    HW214901   1.117   0.546   9.613  1.8304  1.9131  1.2036
 1090SOL     OW14902   3.001   0.647   7.768  0.3356  0.7806  0.1086
 1090SOL    HW114903   3.096   0.640   7.757  0.0933 -0.3766 -1.1599
 1090SOL    HW214904   2.970   0.558   7.753 -0.7762  1.4711 -1.6873
 1091SOL     OW14905   0.896   3.129   2.937  0.3868 -0.3421  0.9267
 1091SOL    HW114906   0.803   3.145   2.920  0.7771 -0.5082 -1.2785
 1091SOL    HW214907   0.888   3.125   3.033  0.4609  0.5602  0.9731
 1092SOL     OW14908   2.583   3.046  11.855 -0.0804 -0.2752  0.1031
 1092SOL    HW114909   2.675   3.071  11.849 -0.5456  1.4702  0.2877
 1092SOL    HW214910   2.596   2.976  11.919  1.4080 -1.2413 -1.2839
 1093SOL     OW14911   3.869   4.243   4.757 -0.4870 -0.0739 -0.3378
 1093SOL    HW114912   3.953   4.285   4.739  0.3624 -2.1638 -1.2223
 1093SOL    HW214913   3.805   4.314   4.749  2.4706  2.4957 -0.8531
 1094SOL     OW14914   1.698   1.723   6.178  0.3783 -0.3277 -0.1342
 1094SOL    HW114915   1.644   1.647   6.160  0.2626 -0.5646  1.2252
 1094SOL    HW214916   1.724   1.758   6.092 -3.1989 -1.0879 -1.4998
 1095SOL     OW14917   1.981   1.466   2.454 -0.1719  0.4876  0.2598
 1095SOL    HW114918   2.059   1.411   2.448  0.1992  0.8274  1.9179
 1095SOL    HW214919   1.948   1.471   2.364  0.8927  0.6364 -0.1162
 1096SOL     OW14920   3.773   0.244   1.526  0.0092  0.7560  0.2369
 1096SOL    HW114921   3.759   0.160   1.484  0.8570  0.7541 -0.0353
 1096SOL    HW214922   3.824   0.291   1.460  2.6239 -1.1322  0.9525
 1097SOL     OW14923   1.632   1.675   3.186 -0.0854  0.1239 -0.5272
 1097SOL    HW114924   1.594   1.689   3.099 -0.7423 -1.0151 -0.4214
 1097SOL    HW214925   1.628   1.760   3.230  0.0844 -0.3841  0.4663
 1098SOL     OW14926   3.946   0.234  13.996  0.1274  0.1210  0.4607
 1098SOL    HW114927   3.938   0.310  13.938 -0.4461 -0.7476 -0.6134
 1098SOL    HW214928   3.948   0.169  13.926  0.3662  0.3800  0.2238
 1099SOL     OW14929   1.658   4.399   7.621 -0.4594  0.3834  0.5531
 1099SOL    HW114930   1.682   4.410   7.713 -0.5041 -0.5966  0.6840
 1099SOL    HW214931   1.565   4.424   7.621 -0.3603  0.7011  3.4207
 1100SOL     OW14932   1.875   3.038   7.651 -0.5180  0.3365 -0.3409
 1100SOL    HW114933   1.870   3.133   7.647  0.1762  0.4863  1.9434
 1100SOL    HW214934   1.903   3.023   7.742 -0.8959 -1.0706 -0.4447
 1101SOL     OW14935   0.683   0.539  11.321  0.3385  0.5960  0.8289
 1101SOL    HW114936   0.734   0.466  11.285 -0.2642 -1.0967  3.3788
 1101SOL    HW214937   0.598   0.495  11.321 -0.6888  2.5637 -1.2487
 1102SOL     OW14938   3.144   1.268   8.084 -0.7566  0.4007  0.3242
 1102SOL    HW114939   3.158   1.186   8.037  0.6751  0.4284  0.6839
 1102SOL    HW214940   3.130   1.318   8.004  1.0641 -0.1011 -0.3047
 1103SOL     OW14941   3.748   1.455  11.081 -0.5520 -0.0332 -0.2416
 1103SOL    HW114942   3.831   1.470  11.125 -0.2604  0.6136 -1.0114
 1103SOL    HW214943   3.752   1.520  11.011  3.7419  1.1867  1.1736
 1104SOL     OW14944   2.936   1.470   2.582 -0.4209  0.1038  0.0883
 1104SOL    HW114945   2.923   1.468   2.677  3.1821 -1.0363  0.5542
 1104SOL    HW214946   2.848   1.499   2.560 -0.4095  0.7018  0.8170
 1105SOL     OW14947   4.405   3.404  17.343 -0.1052  0.2131  0.0761
 1105SOL    HW114948   4.458   3.425  17.420  0.8210 -1.5082 -0.1091
 1105SOL    HW214949   4.442   3.319  17.320 -2.6279 -1.0206  0.5363
 1106SOL     OW14950   3.149   1.872   8.633 -0.0363  0.0227 -0.2169
 1106SOL    HW114951   3.172   1.785   8.667 -0.4404  0.7282  1.8243
 1106SOL    HW214952   3.226   1.873   8.576  1.2737  1.1854  1.5689
 1107SOL     OW14953   2.265   0.709  12.383 -0.4880 -0.0755 -0.1094
 1107SOL    HW114954   2.287   0.782  12.441 -1.9923 -2.0460  2.9224
 1107SOL    HW214955   2.173   0.702  12.411  0.0280  1.4090  1.9874
 1108SOL     OW14956   0.594   2.553   2.930 -0.0383 -0.6614  0.7354
 1108SOL    HW114957   0.524   2.592   2.981 -1.6817 -0.2616 -1.8003
 1108SOL    HW214958   0.603   2.619   2.861  1.0610  0.3739  1.8473
 1109SOL     OW14959   1.065   0.153   6.994  0.1843  0.2253 -0.0690
 1109SOL    HW114960   1.016   0.084   7.040  0.6931 -0.7717 -1.0386
 1109SOL    HW214961   1.065   0.215   7.068  1.9025  0.9018 -0.6361
 1110SOL     OW14962   1.839   4.295   5.109  0.3763 -0.4409 -0.0606
 1110SOL    HW114963   1.931   4.273   5.120 -0.3585 -3.3890  0.2092
 1110SOL    HW214964   1.839   4.386   5.080 -1.9748 -0.1437  0.8588
 1111SOL     OW14965   1.521   0.504   6.946 -0.1641  0.5498  0.3210
 1111SOL    HW114966   1.571   0.515   7.026 -0.5659  1.2286  0.4777
 1111SOL    HW214967   1.572   0.445   6.889 -1.2596 -2.8892  2.9151
 1112SOL     OW14968   3.709   1.727   3.778  0.2625  0.5437 -0.3664
 1112SOL    HW114969   3.791   1.713   3.826 -0.8065 -3.4217  0.2306
 1112SOL    HW214970   3.730   1.720   3.685  0.6805  0.3836 -0.2602
 1113SOL     OW14971   1.747   0.533   2.219  0.2879 -0.5229  0.0834
 1113SOL    HW114972   1.663   0.579   2.230  1.4020  1.3685  0.8667
 1113SOL    HW214973   1.772   0.521   2.311  1.9479  4.5192  0.3246
 1114SOL     OW14974   4.078   1.433   6.998 -0.5692 -0.3092  0.3806
 1114SOL    HW114975   4.096   1.340   7.013  1.1494 -0.0620 -0.0587
 1114SOL    HW214976   3.983   1.439   6.997 -0.6025 -1.1110 -1.3118
 1115SOL     OW14977   1.705   3.309   8.373  0.6019  0.9108  0.1746
 1115SOL    HW114978   1.680   3.218   8.393  1.1222  0.5084 -0.9870
 1115SOL    HW214979   1.798   3.312   8.395  1.0728 -2.0294 -1.3177
 1116SOL     OW14980   0.586   0.726   6.343  0.1976 -0.4593 -0.5526
 1116SOL    HW114981   0.660   0.772   6.385  0.9511 -0.5607 -1.7794
 1116SOL    HW214982   0.608   0.715   6.251 -0.5322  0.2993 -0.8124
 1117SOL     OW14983   0.389   3.510   2.962  0.0497  0.4135 -0.0883
 1117SOL    HW114984   0.390   3.561   3.043  1.5919  0.3582 -0.0841
 1117SOL    HW214985   0.400   3.421   2.993 -0.5985  0.4077  0.1397
 1118SOL     OW14986   0.046   1.467  16.306  0.1150  0.2422  0.3375
 1118SOL    HW114987   0.010   1.512  16.383 -1.9202  0.8204 -0.9553
 1118SOL    HW214988   4.724   1.507  16.242 -0.6814  0.3587  1.1410
 1119SOL     OW14989   3.124   0.246   4.083 -0.4020 -0.5642  0.2939
 1119SOL    HW114990   3.085   0.301   4.015 -1.4338  0.9003  2.0915
 1119SOL    HW214991   3.045   0.211   4.123  0.0790 -0.9476  0.9174
 1120SOL     OW14992   1.710   1.417   5.256  0.4885 -0.1568  0.0815
 1120SOL    HW114993   1.625   1.398   5.295 -0.2664 -0.6167 -1.7708
 1120SOL    HW214994   1.679   1.484   5.195 -1.9033 -1.5629 -0.2503
 1121SOL     OW14995   3.946   3.305   2.139 -0.3013  0.6587 -0.3464
 1121SOL    HW114996   3.968   3.268   2.053  1.0275 -1.6227  0.9617
 1121SOL    HW214997   3.889   3.376   2.111 -1.8514 -0.7532 -0.8232
 1122SOL     OW14998   1.896   1.027   1.721 -0.3604 -0.8095  0.0941
 1122SOL    HW114999   1.836   1.052   1.792  0.2734 -1.6516  0.9305
 1122SOL    HW215000   1.969   0.984   1.765 -2.2393 -0.2704  3.7688
 1123SOL     OW15001   3.133   3.823  16.757 -0.4667 -0.2534  0.6752
 1123SOL    HW115002   3.091   3.822  16.843 -0.0058 -1.6180  0.8756
 1123SOL    HW215003   3.223   3.815  16.787  0.0796  1.4545 -0.4962
 1124SOL     OW15004   3.167   1.921   1.349  0.2544 -0.3551  0.0772
 1124SOL    HW115005   3.096   1.862   1.324 -1.2057  0.9087  1.2433
 1124SOL    HW215006   3.241   1.861   1.360 -1.9602 -2.7867  1.6969
 1125SOL     OW15007   2.582   0.336   8.016  0.1256  0.6309 -1.3241
 1125SOL    HW115008   2.645   0.342   7.945 -1.5959  0.3921 -2.8725
 1125SOL    HW215009   2.541   0.250   8.004 -1.0565  0.4755  3.7969
 1126SOL     OW15010   0.707   3.511   5.142 -0.2787 -0.1312 -0.4589
 1126SOL    HW115011   0.713   3.601   5.110 -0.0984 -0.0475 -0.1916
 1126SOL    HW215012   0.794   3.483   5.171 -1.1861 -1.6156  0.8225
 1127SOL     OW15013   2.477   3.396   2.125 -0.0994 -0.1574 -0.4286
 1127SOL    HW115014   2.515   3.345   2.054 -1.5567 -1.8604  0.0395
 1127SOL    HW215015   2.446   3.479   2.089 -0.4800  0.2902  0.9182
 1128SOL     OW15016   4.068   3.976   5.843  0.0958 -0.3667  0.3237
 1128SOL    HW115017   4.012   3.934   5.777 -0.9901  0.0556  0.9710
 1128SOL    HW215018   4.027   3.952   5.926  1.2354  2.2269  1.6147
 1129SOL     OW15019   0.349   4.152   6.823 -0.1019  0.3181 -0.6630
 1129SOL    HW115020   0.316   4.064   6.840 -1.8498  1.1395  0.1650
 1129SOL    HW215021   0.329   4.151   6.729  0.4752 -0.4891 -0.7792
 1130SOL     OW15022   2.821   0.976   4.133  0.3928 -0.5893 -0.3496
 1130SOL    HW115023   2.887   1.041   4.109  0.6416 -0.5670  0.3701
 1130SOL    HW215024   2.873   0.907   4.092  0.2296 -1.1664  0.4039
 1131SOL     OW15025   4.448   3.921   9.412  0.3169  0.1426  0.2011
 1131SOL    HW115026   4.397   3.989   9.368  0.1672  0.2942  0.6018
 1131SOL    HW215027   4.377   3.870   9.452 -1.3050  1.0756 -1.4926
 1132SOL     OW15028   2.081   0.399   7.249  0.1973  0.1849  0.1695
 1132SOL    HW115029   2.151   0.334   7.243  1.4584  1.4530  1.0141
 1132SOL    HW215030   2.088   0.426   7.341 -0.6957  1.7871 -0.2330
 1133SOL     OW15031   1.747   1.933  16.804 -0.2868 -0.2647  0.4214
 1133SOL    HW115032   1.817   1.999  16.805  2.1804 -2.8934 -0.6851
 1133SOL    HW215033   1.697   1.961  16.881 -2.0645 -1.5570 -0.2750
 1134SOL     OW15034   0.996   4.006   2.526  0.4965 -0.7470  0.3032
 1134SOL    HW115035   0.938   3.984   2.453  0.8450 -0.0643 -0.1793
 1134SOL    HW215036   0.987   4.101   2.528  1.2383 -0.6389 -1.5245
 1135SOL     OW15037   0.592   0.876  11.776 -0.0548  0.3194  0.6783
 1135SOL    HW115038   0.648   0.925  11.716  1.4153 -1.6770  0.4328
 1135SOL    HW215039   0.629   0.892  11.863  0.6010 -2.0405  0.8105
 1136SOL     OW15040   2.149   2.192   1.328  0.3445  0.8399 -0.1261
 1136SOL    HW115041   2.148   2.261   1.394 -0.6219 -0.0310  0.7776
 1136SOL    HW215042   2.179   2.239   1.250 -1.3851  0.9439 -0.7291
 1137SOL     OW15043   3.860   4.067   1.046 -0.4786 -0.3635  0.5812
 1137SOL    HW115044   3.848   4.067   0.951 -1.2377  1.0506  0.6738
 1137SOL    HW215045   3.769   4.077   1.075 -0.3773 -0.2760  0.8677
 1138SOL     OW15046   1.483   1.151   5.436 -0.1811  0.2921  0.8087
 1138SOL    HW115047   1.508   1.243   5.434 -1.3967  0.6577  2.4500
 1138SOL    HW215048   1.399   1.141   5.390  0.5275 -3.4761  0.2844
 1139SOL     OW15049   2.932   2.907   7.746 -0.7380  0.4936  0.5909
 1139SOL    HW115050   3.004   2.903   7.808  0.5364 -3.0065 -1.0975
 1139SOL    HW215051   2.984   2.934   7.670 -1.1081 -0.1078  0.1238
 1140SOL     OW15052   3.564   4.197  17.686  0.2091  0.3507  0.2485
 1140SOL    HW115053   3.539   4.234  17.601 -0.0590 -1.0789 -0.2887
 1140SOL    HW215054   3.644   4.154  17.658  1.6090  1.9940  1.7511
 1141SOL     OW15055   1.470   2.376   6.315 -0.0712 -1.2925  0.1472
 1141SOL    HW115056   1.552   2.409   6.278  0.3240 -2.2147  0.2188
 1141SOL    HW215057   1.402   2.391   6.249  0.5659 -0.7474 -0.3821
 1142SOL     OW15058   1.448   2.526   8.070 -0.0772 -0.6560  0.3213
 1142SOL    HW115059   1.425   2.471   8.145 -0.8415  0.3809  0.8634
 1142SOL    HW215060   1.373   2.513   8.012  0.1966  0.4020 -0.2703
 1143SOL     OW15061   1.069   3.920  10.743  0.4410  0.3355 -0.3233
 1143SOL    HW115062   1.017   3.975  10.802  0.5008 -0.2809  0.3057
 1143SOL    HW215063   1.129   3.982  10.702 -0.4792  1.3246 -0.1676
 1144SOL     OW15064   1.628   4.645   4.149 -0.0834  0.2133 -0.4572
 1144SOL    HW115065   1.661   4.701   4.079  2.3050  0.1415  0.5931
 1144SOL    HW215066   1.695   4.578   4.164 -0.5624 -0.0086  0.7189
 1145SOL     OW15067   0.661   0.504  14.250 -0.4421 -0.3158 -0.1235
 1145SOL    HW115068   0.675   0.525  14.342 -0.8076  0.0449 -0.1487
 1145SOL    HW215069   0.747   0.477  14.218  0.2903 -1.3557  2.7533
 1146SOL     OW15070   4.429   2.696  13.749 -0.4334 -0.1454  0.5377
 1146SOL    HW115071   4.344   2.660  13.775 -0.8670 -0.7388 -1.6437
 1146SOL    HW215072   4.492   2.651  13.805  0.6722  0.0609 -0.5467
 1147SOL     OW15073   3.846   1.188  12.991  0.0059 -0.4367  0.3345
 1147SOL    HW115074   3.915   1.243  13.028 -0.8253  0.6314  0.3146
 1147SOL    HW215075   3.876   1.098  13.003  3.0423  0.7402  1.3992
 1148SOL     OW15076   2.113   0.437   5.970 -0.3493 -0.2575 -0.0663
 1148SOL    HW115077   2.085   0.514   5.922 -2.9607 -1.0953  0.0619
 1148SOL    HW215078   2.104   0.374   5.899  2.2827  0.3228 -0.8920
 1149SOL     OW15079   0.463   2.018   1.256 -0.1965  0.0040  0.5605
 1149SOL    HW115080   0.450   2.031   1.162  2.5386 -0.2377  0.1456
 1149SOL    HW215081   0.485   1.925   1.246 -1.0911 -0.0322 -1.0534
 1150SOL     OW15082   2.616   1.998   4.190 -0.2578 -0.1121 -0.2949
 1150SOL    HW115083   2.596   2.028   4.102 -0.4471 -0.6273 -0.4306
 1150SOL    HW215084   2.664   2.073   4.223  3.6842 -3.2686  1.2405
 1151SOL     OW15085   3.043   3.183   1.815  0.2219 -0.5425  0.3681
 1151SOL    HW115086   3.024   3.089   1.804 -2.0991 -0.1063  0.6107
 1151SOL    HW215087   3.132   3.176   1.849  0.2959  2.5649  0.8155
 1152SOL     OW15088   4.681   4.008   6.586 -0.2788  0.3796  0.6242
 1152SOL    HW115089   4.716   4.093   6.611  0.7166  0.5196 -1.2330
 1152SOL    HW215090   4.609   4.041   6.533 -0.3585  0.6020  0.8671
 1153SOL     OW15091   4.606   3.155   8.041 -0.2510  0.5209  0.1946
 1153SOL    HW115092   4.688   3.204   8.046 -0.5053  1.1038 -1.2776
 1153SOL    HW215093   4.619   3.079   8.097  1.0346  0.2090 -0.5063
 1154SOL     OW15094   0.710   4.417   1.919 -0.5605  0.2954  0.3337
 1154SOL    HW115095   0.704   4.342   1.978 -0.2206  0.1949  0.2416
 1154SOL    HW215096   0.792   4.454   1.952  1.2750 -1.0541 -2.6121
 1155SOL     OW15097   3.433   3.259  10.636  0.1819  0.2385  0.2423
 1155SOL    HW115098   3.359   3.201  10.651 -0.1860  1.1757  2.0655
 1155SOL    HW215099   3.480   3.209  10.570 -2.7739  0.5224 -2.0579
 1156SOL     OW15100   3.886   3.465   7.405 -0.4086  0.3398  0.3165
 1156SOL    HW115101   3.922   3.427   7.485  2.1617 -1.0639 -1.5003
 1156SOL    HW215102   3.881   3.558   7.427 -0.0976  0.9655 -2.2506
 1157SOL     OW15103   1.139   3.042   4.044 -0.3357  0.1078  0.2763
 1157SOL    HW115104   1.126   2.952   4.014 -0.0500  0.0981  0.1790
 1157SOL    HW215105   1.192   3.023   4.121  0.5134 -2.7512 -1.0203
 1158SOL     OW15106   1.894   3.963   8.855 -0.1690 -0.0634 -0.3832
 1158SOL    HW115107   1.922   3.943   8.945  0.9926 -1.6393 -1.1081
 1158SOL    HW215108   1.942   3.911   8.791  0.7961  0.4834 -0.0891
 1159SOL     OW15109   0.431   2.124   4.099  0.8021 -0.7563  0.2678
 1159SOL    HW115110   0.406   2.128   4.007  0.5580 -0.3485  0.3526
 1159SOL    HW215111   0.423   2.029   4.109  2.3063 -0.6320  2.7419
 1160SOL     OW15112   2.503   2.726   6.206  0.0671  0.0307  0.2426
 1160SOL    HW115113   2.461   2.764   6.283 -1.1014 -1.5287  0.3589
 1160SOL    HW215114   2.526   2.640   6.240  0.9541 -0.4012 -1.4586
 1161SOL     OW15115   2.053   0.443   5.138  0.2768 -0.3901 -0.2043
 1161SOL    HW115116   2.070   0.509   5.071  1.2654 -1.3218 -0.8696
 1161SOL    HW215117   2.041   0.374   5.072 -0.7877 -0.7340  0.3464
 1162SOL     OW15118   3.685   4.144   2.149  0.0306  0.4512 -0.0071
 1162SOL    HW115119   3.763   4.089   2.151 -1.0133 -1.0138  0.5862
 1162SOL    HW215120   3.696   4.196   2.070 -0.6436  1.1867  0.3746
 1163SOL     OW15121   3.831   3.608   5.665  0.1741 -0.3062 -0.4523
 1163SOL    HW115122   3.837   3.577   5.755  2.9372  0.3769 -0.4059
 1163SOL    HW215123   3.736   3.607   5.653  0.1890 -1.0167 -0.5237
 1164SOL     OW15124   2.316   4.329  15.097 -0.0682 -0.4103  0.3457
 1164SOL    HW115125   2.318   4.401  15.161  0.1275  0.2171 -0.3649
 1164SOL    HW215126   2.353   4.259  15.151 -0.9393 -0.7617  0.4869
 1165SOL     OW15127   1.559   1.662   5.558  0.2662  0.1358 -0.7060
 1165SOL    HW115128   1.524   1.649   5.646 -0.5371 -1.0262 -1.1953
 1165SOL    HW215129   1.653   1.671   5.575  0.4644 -0.6064 -1.3939
 1166SOL     OW15130   3.725   4.258   9.396 -0.4267  0.0752 -0.0981
 1166SOL    HW115131   3.632   4.279   9.407 -0.4873 -0.1454 -0.1931
 1166SOL    HW215132   3.733   4.170   9.433  0.2656  0.3892  0.5051
 1167SOL     OW15133   1.527   3.702   4.228 -0.6562 -0.5127  0.1573
 1167SOL    HW115134   1.575   3.638   4.175  0.9098 -0.2141  1.2050
 1167SOL    HW215135   1.452   3.714   4.170 -0.0090 -0.9599 -0.7693
 1168SOL     OW15136   4.634   3.573   5.302 -0.1904  0.0162  0.7001
 1168SOL    HW115137   4.704   3.610   5.247  0.0274  0.7164  1.4600
 1168SOL    HW215138   4.676   3.560   5.387 -0.0230 -0.3771  0.5597
 1169SOL     OW15139   2.672   4.428   4.385 -0.2450 -0.0715 -0.0363
 1169SOL    HW115140   2.634   4.415   4.472 -0.7282 -0.0593 -0.2454
 1169SOL    HW215141   2.641   4.518   4.381 -0.7148 -0.1593  1.7023
 1170SOL     OW15142   0.479   4.462  14.230 -0.0490  0.2396  0.7839
 1170SOL    HW115143   0.542   4.420  14.172  0.1616 -0.1492  1.2896
 1170SOL    HW215144   0.460   4.387  14.287 -0.3382 -0.7375 -0.6062
 1171SOL     OW15145   4.582   3.489   3.083 -0.0304 -0.2297  0.0170
 1171SOL    HW115146   4.617   3.457   3.166 -3.2436 -1.5395  0.8436
 1171SOL    HW215147   4.661   3.514   3.035 -0.4806 -0.8776 -1.0612
 1172SOL     OW15148   1.300   2.400   0.629  0.0617 -0.1219 -0.2518
 1172SOL    HW115149   1.206   2.407   0.650  0.2164 -3.8757  1.7000
 1172SOL    HW215150   1.297   2.420   0.536  2.6144  0.0371 -0.2862
 1173SOL     OW15151   1.759   0.522   2.481  0.0827  0.2309 -0.9482
 1173SOL    HW115152   1.728   0.582   2.549 -0.4801  0.2923 -1.2635
 1173SOL    HW215153   1.828   0.477   2.530  0.9558  1.1066 -1.3671
 1174SOL     OW15154   0.185   3.473   8.243  0.6341  0.2508  0.1247
 1174SOL    HW115155   0.120   3.523   8.293 -0.1963  0.1454 -0.8474
 1174SOL    HW215156   0.263   3.525   8.260  0.1150  0.9717  0.2777
 1175SOL     OW15157   4.523   1.314  16.735 -0.2115 -0.6449  0.3442
 1175SOL    HW115158   4.465   1.387  16.710  0.1638 -1.0750 -1.8128
 1175SOL    HW215159   4.477   1.241  16.694  0.3606 -0.0891 -1.3218
 1176SOL     OW15160   2.869   1.794   5.103 -0.0130  0.7270  0.3969
 1176SOL    HW115161   2.941   1.808   5.042  2.3374 -3.0823  2.2712
 1176SOL    HW215162   2.887   1.705   5.132 -0.0426  0.7683  0.5404
 1177SOL     OW15163   3.838   3.368   3.391  0.1724 -0.3117  0.6888
 1177SOL    HW115164   3.899   3.361   3.465  0.2113 -1.9125  0.4949
 1177SOL    HW215165   3.756   3.396   3.433 -0.1015  2.0430 -1.4067
 1178SOL     OW15166   3.837   0.622  15.469  0.1919 -0.0965  0.1947
 1178SOL    HW115167   3.840   0.572  15.388 -1.2195 -1.2741  0.8755
 1178SOL    HW215168   3.871   0.707  15.441 -0.9027  0.6562  1.1587
 1179SOL     OW15169   0.114   3.223   0.140 -0.4924  0.0942  0.1031
 1179SOL    HW115170   0.099   3.155   0.205 -0.5252 -1.6501 -1.7290
 1179SOL    HW215171   0.187   3.276   0.174  0.4727 -0.9265 -0.3728
 1180SOL     OW15172   0.290   4.711   4.144 -0.0418 -0.7258  0.0273
 1180SOL    HW115173   0.338   4.628   4.146  1.0866 -0.0625  0.2542
 1180SOL    HW215174   0.246   4.710   4.229  2.0695 -0.6597  1.1062
 1181SOL     OW15175   1.403   2.831   5.588 -0.1834 -0.0470  0.6464
 1181SOL    HW115176   1.397   2.908   5.644  0.6988  0.0545  0.6041
 1181SOL    HW215177   1.344   2.855   5.517 -1.0399 -0.3603  1.2567
 1182SOL     OW15178   3.402   0.752  13.960 -0.0404  0.0435  0.4062
 1182SOL    HW115179   3.337   0.685  13.938  0.8932 -0.2907 -1.3797
 1182SOL    HW215180   3.347   0.800  14.022 -0.4594 -0.2146  0.2297
 1183SOL     OW15181   0.367   4.273   0.482 -0.3801 -0.1984 -0.6828
 1183SOL    HW115182   0.281   4.237   0.459 -0.2027  0.4879 -2.4529
 1183SOL    HW215183   0.409   4.199   0.527  0.5934  0.1305 -1.0509
 1184SOL     OW15184   1.857   2.836   1.478 -0.8004 -0.2060  0.1102
 1184SOL    HW115185   1.896   2.923   1.475  0.3207 -0.6612  1.5045
 1184SOL    HW215186   1.810   2.826   1.396 -1.3323  0.2967  0.3500
 1185SOL     OW15187   2.516   1.933   8.918  0.8865 -0.9037  0.0539
 1185SOL    HW115188   2.468   1.946   8.837 -1.0188  0.9821  1.4768
 1185SOL    HW215189   2.570   2.012   8.918  0.6060 -0.7110  1.2064
 1186SOL     OW15190   2.932   3.168  15.058 -0.2911  0.3876 -0.1957
 1186SOL    HW115191   2.865   3.236  15.060  0.5987  1.2058  1.6434
 1186SOL    HW215192   2.974   3.184  15.143  0.0650  1.7169 -0.6162
 1187SOL     OW15193   4.705   1.646  17.037 -0.2318  0.0057 -0.8274
 1187SOL    HW115194   4.721   1.729  16.992 -2.0124  1.6681  1.5667
 1187SOL    HW215195   4.680   1.683  17.122 -0.3029  2.1913 -1.7826
 1188SOL     OW15196   1.340   1.256  16.507  0.2875 -0.4296 -0.3835
 1188SOL    HW115197   1.425   1.294  16.528 -0.4630  1.1578 -0.2299
 1188SOL    HW215198   1.296   1.334  16.474  1.9735  0.8160  0.3123
 1189SOL     OW15199   2.774   4.114   6.607 -0.0121 -0.8591  0.0079
 1189SOL    HW115200   2.693   4.139   6.652  0.1801 -1.1289  0.5022
 1189SOL    HW215201   2.809   4.200   6.584 -0.2287 -0.2212  2.0663
 1190SOL     OW15202   2.965   1.453   2.299 -0.0781  0.7251  0.4611
 1190SOL    HW115203   2.956   1.472   2.393  1.2562 -2.7664  1.3009
 1190SOL    HW215204   2.960   1.358   2.306 -2.7515  0.9469  1.6805
 1191SOL     OW15205   4.663   4.276   8.093 -0.4692  0.1198  0.3209
 1191SOL    HW115206   4.645   4.341   8.161  2.2654  1.1937  0.0474
 1191SOL    HW215207   4.706   4.336   8.031  0.8216  1.4873  2.5013
 1192SOL     OW15208   1.011   4.562   6.144  0.2678  0.5158  0.5454
 1192SOL    HW115209   0.986   4.654   6.145 -0.1007  0.3996  1.3737
 1192SOL    HW215210   0.962   4.531   6.220 -0.4923  0.0389 -0.1409
 1193SOL     OW15211   0.935   3.426   2.885 -0.3868  0.2586 -0.4673
 1193SOL    HW115212   0.859   3.421   2.827 -2.0402 -0.4784  1.7801
 1193SOL    HW215213   0.898   3.376   2.957 -1.1737  1.0435 -0.3282
 1194SOL     OW15214   1.073   3.161   3.799 -0.0011  0.2569  0.2340
 1194SOL    HW115215   1.100   3.133   3.887 -0.2760  0.0999  0.2675
 1194SOL    HW215216   1.119   3.101   3.739 -2.1085  0.5351 -1.6636
 1195SOL     OW15217   3.739   3.691   7.515 -0.5546 -0.3125  0.1953
 1195SOL    HW115218   3.707   3.743   7.442 -1.0567 -2.7440 -1.3356
 1195SOL    HW215219   3.662   3.676   7.570 -2.0843 -0.9091 -2.0942
 1196SOL     OW15220   0.936   3.699   6.796 -0.0250 -0.4465  0.9474
 1196SOL    HW115221   0.999   3.754   6.843 -1.1230  1.1234  0.5596
 1196SOL    HW215222   0.849   3.735   6.813 -0.1992 -0.6252  0.4280
 1197SOL     OW15223   1.538   2.652   6.147  0.3291  0.1976  0.7765
 1197SOL    HW115224   1.599   2.717   6.112  0.4110 -0.8099 -0.9589
 1197SOL    HW215225   1.529   2.660   6.242  3.3236 -2.0898  1.2417
 1198SOL     OW15226   0.172   1.369  13.483  0.3553  0.2597 -0.7285
 1198SOL    HW115227   0.181   1.284  13.526 -0.8423  0.2225 -0.5514
 1198SOL    HW215228   0.209   1.349  13.398  3.1352  0.8826  0.3420
 1199SOL     OW15229   3.837   0.696   7.578  0.1303  0.3574  0.5506
 1199SOL    HW115230   3.757   0.742   7.604 -0.0010 -0.2057  1.1381
 1199SOL    HW215231   3.900   0.766   7.595 -0.1360  0.9718 -1.0393
 1200SOL     OW15232   0.809   2.035  12.016 -0.1470  0.1017  0.1285
 1200SOL    HW115233   0.862   2.103  12.058  0.0379 -0.2904  0.5252
 1200SOL    HW215234   0.743   2.084  11.967 -0.2336  0.4480  0.5884
 1201SOL     OW15235   1.692   1.587  10.244  0.1577 -0.6071  0.3194
 1201SOL    HW115236   1.662   1.601  10.154  1.0041 -1.3302 -0.0820
 1201SOL    HW215237   1.738   1.503  10.241  1.9551  0.3026  1.9511
 1202SOL     OW15238   1.989   4.245   4.328  0.1129  0.1368  0.3369
 1202SOL    HW115239   1.930   4.196   4.270 -0.3290 -1.2547  1.9511
 1202SOL    HW215240   1.991   4.198   4.412  0.3562 -0.6550 -0.1067
 1203SOL     OW15241   0.033   4.326  14.464 -0.0960 -0.9991  0.1265
 1203SOL    HW115242   0.105   4.370  14.420  0.2319 -1.9380 -0.2657
 1203SOL    HW215243   0.080   4.251  14.499 -1.4170 -2.6038 -1.5642
 1204SOL     OW15244   0.906   2.522   5.137  0.4176 -0.4304  0.0633
 1204SOL    HW115245   0.992   2.563   5.129  0.2245 -0.0889 -0.2397
 1204SOL    HW215246   0.840   2.588   5.117  0.2747  0.1221  2.4108
 1205SOL     OW15247   1.337   3.442   4.216  0.2681  0.5075  0.2139
 1205SOL    HW115248   1.411   3.407   4.265  0.9486 -0.4155 -1.4549
 1205SOL    HW215249   1.358   3.420   4.125  1.1514  0.8788  0.3288
 1206SOL     OW15250   0.925   4.103   6.305  0.2352  0.3653  0.7099
 1206SOL    HW115251   0.919   4.010   6.326 -0.0426  0.2172 -0.0362
 1206SOL    HW215252   0.990   4.143   6.363  0.7115 -0.9486  1.0771
 1207SOL     OW15253   1.516   0.876   8.104 -0.2538 -0.5482  0.9909
 1207SOL    HW115254   1.446   0.817   8.133  0.9668 -2.4616  0.0128
 1207SOL    HW215255   1.539   0.844   8.017  1.8941  2.6315  0.3890
 1208SOL     OW15256   2.577   1.035  12.197 -0.3805  0.1426 -0.1691
 1208SOL    HW115257   2.666   1.057  12.223 -0.4591 -1.4134  1.4185
 1208SOL    HW215258   2.535   1.040  12.283 -0.0214 -1.3969  0.1105
 1209SOL     OW15259   1.559   1.959  10.873  0.3666 -0.2404 -0.2103
 1209SOL    HW115260   1.573   1.892  10.806 -1.2088  0.8635 -1.6476
 1209SOL    HW215261   1.466   1.939  10.880  0.2380  0.7959  0.9509
 1210SOL     OW15262   4.213   4.720   2.471 -0.5307  0.0434  0.2130
 1210SOL    HW115263   4.237   0.058   2.418 -1.2468  3.2263  4.3691
 1210SOL    HW215264   4.223   4.732   2.566  3.4763  1.4096 -0.4095
 1211SOL     OW15265   4.437   1.111   7.120 -0.4870 -0.1671  0.0711
 1211SOL    HW115266   4.493   1.177   7.159  0.2185  0.1023 -1.3919
 1211SOL    HW215267   4.492   1.033   7.107 -0.9252 -0.2950 -1.0402
 1212SOL     OW15268   3.763   0.518   4.395  0.5362 -0.2044  0.1414
 1212SOL    HW115269   3.835   0.555   4.446  0.6151 -0.0261 -0.0977
 1212SOL    HW215270   3.781   0.424   4.391 -0.2085 -0.3175 -0.5248
 1213SOL     OW15271   1.650   2.053  13.915 -0.1775 -0.2204 -0.2988
 1213SOL    HW115272   1.629   1.963  13.886  1.4586 -0.3502 -1.0369
 1213SOL    HW215273   1.638   2.092  13.829  0.1509 -0.7161 -0.5701
 1214SOL     OW15274   0.282   1.987   8.193 -0.0134  0.1873  0.1826
 1214SOL    HW115275   0.339   1.987   8.116 -0.4949 -1.1126 -0.1643
 1214SOL    HW215276   0.197   1.959   8.161  0.9283 -1.3717 -0.9099
 1215SOL     OW15277   0.011   2.909   6.077 -0.8106 -0.0870  0.1845
 1215SOL    HW115278   4.718   2.851   6.147 -0.5601  1.5928  1.6849
 1215SOL    HW215279   0.105   2.890   6.074 -0.9946 -0.7933 -1.2082
 1216SOL     OW15280   3.590   1.754   1.923  0.0055 -0.0536  0.3432
 1216SOL    HW115281   3.623   1.721   2.007 -1.9736  0.5230  1.3463
 1216SOL    HW215282   3.524   1.812   1.961 -0.4857 -0.3438 -0.0645
 1217SOL     OW15283   1.819   3.245   9.542  0.1206 -0.3436 -0.5286
 1217SOL    HW115284   1.797   3.178   9.607  0.1631  1.8684  1.7978
 1217SOL    HW215285   1.834   3.189   9.466  0.6734 -1.6141  0.5261
 1218SOL     OW15286   1.009   3.752   8.835 -0.4713 -0.1026  0.1542
 1218SOL    HW115287   1.076   3.821   8.827  0.6803 -1.0400  1.5700
 1218SOL    HW215288   1.054   3.698   8.900 -1.1455  0.6785  1.2653
 1219SOL     OW15289   0.850   2.456  15.205  0.4027 -0.4258 -0.3940
 1219SOL    HW115290   0.831   2.365  15.226  0.9650 -0.8249 -1.6312
 1219SOL    HW215291   0.897   2.486  15.283 -1.7712  0.0871  0.7301
 1220SOL     OW15292   3.050   3.355  10.621  0.2782 -0.3724  0.4355
 1220SOL    HW115293   3.044   3.291  10.692 -0.9532  0.2784  0.9117
 1220SOL    HW215294   3.044   3.287  10.553  0.2327 -0.9496  1.0185
 1221SOL     OW15295   1.259   4.306   1.213  0.3045  0.3195 -0.0335
 1221SOL    HW115296   1.310   4.339   1.286 -1.3177 -0.4152  1.4189
 1221SOL    HW215297   1.191   4.256   1.259  1.8233 -2.1855 -0.5089
 1222SOL     OW15298   2.870   1.542   5.177 -0.3304 -0.2088  0.7464
 1222SOL    HW115299   2.932   1.472   5.154 -1.8944 -0.9614 -1.1497
 1222SOL    HW215300   2.901   1.562   5.266 -1.3796  1.3561  0.7565
 1223SOL     OW15301   0.426   3.161  12.230  0.0920 -0.3050 -0.0143
 1223SOL    HW115302   0.351   3.208  12.195  0.8468  1.8798  1.3199
 1223SOL    HW215303   0.386   3.121  12.307  0.4587  0.0369  0.3505
 1224SOL     OW15304   1.853   2.254   8.878  0.0477 -0.0904  0.0410
 1224SOL    HW115305   1.943   2.282   8.863  0.7761 -2.5408 -0.2075
 1224SOL    HW215306   1.806   2.330   8.843  0.7983  0.3284 -0.0594
 1225SOL     OW15307   0.486   0.297   3.058  0.0275  0.0761  0.0321
 1225SOL    HW115308   0.493   0.385   3.021 -2.5197  0.4603  0.4346
 1225SOL    HW215309   0.394   0.277   3.040 -0.3517  0.9990  0.9304
 1226SOL     OW15310   3.363   0.982   4.676  0.2864  0.2469  0.0469
 1226SOL    HW115311   3.338   0.890   4.671 -1.8261  0.7410  1.8363
 1226SOL    HW215312   3.281   1.025   4.698 -1.0308 -1.4038 -1.7137
 1227SOL     OW15313   2.308   1.919   4.662  0.1058 -0.6501  0.1095
 1227SOL    HW115314   2.380   1.879   4.613  0.9203  0.8708  0.0582
 1227SOL    HW215315   2.282   1.841   4.711 -0.4493 -0.5322 -0.0060
 1228SOL     OW15316   2.509   0.072   9.445 -0.3751  0.9136  0.0236
 1228SOL    HW115317   2.487   0.147   9.499  1.1774  2.7224 -1.8575
 1228SOL    HW215318   2.548   0.015   9.512 -0.6939 -0.9791 -1.3891
 1229SOL     OW15319   1.658   4.217   4.383  0.2300  0.1224 -0.1720
 1229SOL    HW115320   1.618   4.274   4.449  2.8523 -0.6737  2.0785
 1229SOL    HW215321   1.580   4.181   4.341  0.9421  0.2992 -1.6290
 1230SOL     OW15322   2.899   0.408   7.554 -0.2168 -0.4478 -0.3368
 1230SOL    HW115323   2.911   0.314   7.567 -3.0558 -1.1113 -2.6590
 1230SOL    HW215324   2.985   0.424   7.514 -1.4606  0.6185 -2.5606
 1231SOL     OW15325   0.379   0.764   1.626  0.2561  0.4995  0.4901
 1231SOL    HW115326   0.315   0.832   1.645  1.0653  2.2335 -3.0488
 1231SOL    HW215327   0.442   0.815   1.574 -0.0331  0.9153  0.5523
 1232SOL     OW15328   2.335   3.559  17.149 -0.0969 -0.5364  0.0276
 1232SOL    HW115329   2.416   3.583  17.193  0.3474  0.0899 -1.1512
 1232SOL    HW215330   2.351   3.616  17.074 -0.1636  1.4871  1.5415
 1233SOL     OW15331   0.614   3.472   2.801 -0.4724  0.2070 -0.5347
 1233SOL    HW115332   0.535   3.487   2.853  1.6619 -0.4564  2.9686
 1233SOL    HW215333   0.623   3.562   2.770  1.7299 -0.5391 -2.0554
 1234SOL     OW15334   0.224   3.700   4.119 -0.3041 -0.2370  0.2690
 1234SOL    HW115335   0.314   3.719   4.146 -0.3271  0.7484 -0.3886
 1234SOL    HW215336   0.234   3.634   4.050 -0.7781 -1.1515  1.0617
 1235SOL     OW15337   1.370   3.368  13.778  0.8910  0.1516  0.3473
 1235SOL    HW115338   1.276   3.356  13.763  1.3205 -1.8866 -0.7630
 1235SOL    HW215339   1.397   3.326  13.696  0.0982  1.8874 -0.8323
 1236SOL     OW15340   0.347   0.740   1.942 -0.4945 -0.7634  0.0908
 1236SOL    HW115341   0.361   0.708   1.853  0.6997 -0.5089  0.1962
 1236SOL    HW215342   0.436   0.762   1.971 -0.7710 -0.1840  0.5249
 1237SOL     OW15343   1.454   1.094  17.626 -0.2277 -0.2623  0.0698
 1237SOL    HW115344   1.359   1.095  17.615  0.0856  3.2276 -2.2472
 1237SOL    HW215345   1.477   1.005  17.601 -1.3372 -1.0291  1.7468
 1238SOL     OW15346   2.390   2.140  16.861  0.1959 -0.7021 -0.0098
 1238SOL    HW115347   2.347   2.079  16.921 -0.3190 -0.0606  0.2794
 1238SOL    HW215348   2.324   2.140  16.792  0.5873 -1.4988 -0.3790
 1239SOL     OW15349   2.616   4.022   3.076 -0.1753  0.3869 -0.3051
 1239SOL    HW115350   2.584   3.940   3.115  0.3997 -0.0254 -0.6946
 1239SOL    HW215351   2.531   4.066   3.080  0.0981  0.8660  0.2481
 1240SOL     OW15352   3.316   2.856   4.422 -0.1303  0.1802 -0.4193
 1240SOL    HW115353   3.284   2.921   4.359 -0.3285  0.5040  0.0173
 1240SOL    HW215354   3.299   2.894   4.508  0.3352  1.8522 -1.0609
 1241SOL     OW15355   1.948   1.938   3.223 -0.7809 -0.1409 -0.0686
 1241SOL    HW115356   2.008   1.869   3.195  0.2373  1.1842 -1.1349
 1241SOL    HW215357   1.903   1.886   3.290 -1.9604 -1.6195 -2.0240
 1242SOL     OW15358   1.635   1.240   4.001  0.0190  0.4337 -0.4995
 1242SOL    HW115359   1.600   1.201   4.081 -1.4735  0.5154 -1.1117
 1242SOL    HW215360   1.630   1.163   3.945  0.9395  1.5516 -2.1345
 1243SOL     OW15361   1.341   0.837  14.885 -0.2429  0.0446 -0.4611
 1243SOL    HW115362   1.363   0.931  14.889  2.6089 -0.6790  0.8234
 1243SOL    HW215363   1.386   0.798  14.960 -1.1685 -0.5297 -0.2116
 1244SOL     OW15364   0.276   2.603   5.096  0.5902 -0.0127 -0.6427
 1244SOL    HW115365   0.242   2.576   5.182  2.5588 -0.1810  0.1007
 1244SOL    HW215366   0.194   2.602   5.048  0.8404 -1.7212 -1.0296
 1245SOL     OW15367   0.079   1.685   6.971 -0.1345  0.0361  0.3839
 1245SOL    HW115368   0.060   1.614   7.033 -0.9141 -0.6757 -0.6437
 1245SOL    HW215369   0.105   1.634   6.894  0.7818 -1.5376  1.7375
 1246SOL     OW15370   2.701   1.540  10.397  0.5611  0.4372  0.0439
 1246SOL    HW115371   2.643   1.464  10.404  0.9816  0.1574  0.5268
 1246SOL    HW215372   2.780   1.494  10.424 -1.4854 -1.6702  2.4351
 1247SOL     OW15373   2.149   1.182  17.341  0.4814 -0.4370  0.0917
 1247SOL    HW115374   2.145   1.227  17.426  0.4264  1.5475 -0.9832
 1247SOL    HW215375   2.210   1.226  17.283 -1.5507  0.5759 -1.2532
 1248SOL     OW15376   1.587   1.001   3.721 -0.3214 -0.4005 -0.6367
 1248SOL    HW115377   1.561   1.088   3.689  1.9619  0.1895 -0.8786
 1248SOL    HW215378   1.508   0.953   3.698 -1.1608  0.1087  1.2100
 1249SOL     OW15379   2.339   4.706   3.687 -0.1931 -0.0060  0.6026
 1249SOL    HW115380   2.286   4.683   3.611  2.2218  0.3198 -1.2060
 1249SOL    HW215381   2.401   4.633   3.690 -1.3626 -0.9563  1.9045
 1250SOL     OW15382   1.278   4.472   2.023 -0.0570  0.2605 -0.1609
 1250SOL    HW115383   1.251   4.425   2.103 -1.8335  1.1135 -0.2616
 1250SOL    HW215384   1.337   4.537   2.060  1.4274 -1.4156  0.3915
 1251SOL     OW15385   4.263   4.202   9.327  0.1942 -0.6717  0.1398
 1251SOL    HW115386   4.316   4.171   9.253 -2.6840 -0.1225 -2.1638
 1251SOL    HW215387   4.278   4.297   9.328 -1.2393 -0.4420 -0.6541
 1252SOL     OW15388   0.128   0.812   8.486  0.1373  0.1646 -0.6225
 1252SOL    HW115389   0.200   0.828   8.548  0.1157  0.2847 -0.6303
 1252SOL    HW215390   0.111   0.718   8.494 -0.2944  0.3467  0.5824
 1253SOL     OW15391   1.973   2.599   6.266 -0.4763 -0.0243  0.3695
 1253SOL    HW115392   2.066   2.578   6.274  0.0585  2.0342 -0.6007
 1253SOL    HW215393   1.973   2.670   6.330 -1.7122 -0.2981  0.6681
 1254SOL     OW15394   0.938   3.187   8.728  0.6811  0.1543 -0.4516
 1254SOL    HW115395   0.972   3.177   8.639  0.8587  1.4753 -0.5269
 1254SOL    HW215396   0.987   3.114   8.765 -0.2211 -1.3458 -2.2133
 1255SOL     OW15397   3.713   3.691   8.731 -0.2721  0.2270  0.0692
 1255SOL    HW115398   3.748   3.617   8.781 -1.7019 -0.2270  0.3992
 1255SOL    HW215399   3.698   3.761   8.795 -0.8915  1.0410 -0.9533
 1256SOL     OW15400   3.462   1.221   0.536  0.3655  0.0948 -0.2247
 1256SOL    HW115401   3.464   1.303   0.585 -0.5415 -0.3936  0.6371
 1256SOL    HW215402   3.506   1.252   0.457  0.7562 -1.2215 -0.5327
 1257SOL     OW15403   0.132   1.996   6.032  0.0035 -0.1133  0.1458
 1257SOL    HW115404   0.193   1.923   6.022 -1.6233 -1.4190 -0.2880
 1257SOL    HW215405   0.047   1.953   6.033  0.4374 -0.9355  1.1412
 1258SOL     OW15406   3.178   1.937   8.267 -0.2333  0.4548  0.1233
 1258SOL    HW115407   3.253   1.935   8.327  0.4348 -2.1053 -0.7921
 1258SOL    HW215408   3.101   1.922   8.321  1.3339 -1.0916  1.9532
 1259SOL     OW15409   1.889   3.410   6.628 -0.1623  0.2348  0.3825
 1259SOL    HW115410   1.954   3.462   6.580  1.2120 -3.3917 -1.6631
 1259SOL    HW215411   1.912   3.319   6.611 -2.7085 -0.2384 -0.6458
 1260SOL     OW15412   0.092   2.063   8.735  0.0020  0.2062  0.1200
 1260SOL    HW115413   0.012   2.081   8.784 -0.8609  1.0604 -1.5974
 1260SOL    HW215414   0.059   1.995   8.677  1.1601 -0.7154  0.5174
 1261SOL     OW15415   1.174   2.154   6.863  0.0563  0.2232 -0.3179
 1261SOL    HW115416   1.199   2.146   6.771 -2.2210 -0.2117 -0.9073
 1261SOL    HW215417   1.250   2.190   6.910 -1.5696  2.3861  0.6432
 1262SOL     OW15418   2.537   0.003   8.013  0.2451  0.1860  0.1689
 1262SOL    HW115419   2.596   4.664   8.010 -1.1499 -0.9711  1.9570
 1262SOL    HW215420   2.550   0.023   8.106 -0.3421  0.6674  0.1463
 1263SOL     OW15421   1.627   4.561  11.534 -0.5731  0.1686 -0.0798
 1263SOL    HW115422   1.532   4.568  11.545 -0.9157 -0.4115 -2.7130
 1263SOL    HW215423   1.629   4.484  11.478 -1.4398 -0.0630  0.2199
 1264SOL     OW15424   1.143   1.193  15.615  0.5717  0.1733 -0.1418
 1264SOL    HW115425   1.091   1.113  15.611  0.0389  0.4609  0.9812
 1264SOL    HW215426   1.151   1.212  15.522 -2.4289  0.2654 -0.3800
 1265SOL     OW15427   0.122   1.710   4.221  0.3279  0.1078  0.3706
 1265SOL    HW115428   0.158   1.797   4.206 -0.9331  0.4785 -0.4227
 1265SOL    HW215429   0.089   1.690   4.134  1.6301  0.6564 -0.2527
 1266SOL     OW15430   3.212   0.787   8.200  0.6663 -0.0215  0.2594
 1266SOL    HW115431   3.299   0.826   8.207  0.1098  0.9509  1.7735
 1266SOL    HW215432   3.171   0.846   8.263 -2.6346  0.6148 -2.5306
 1267SOL     OW15433   2.888   4.277   8.342  0.2148 -0.6598 -0.4929
 1267SOL    HW115434   2.975   4.301   8.311 -0.1346  1.0871 -0.0940
 1267SOL    HW215435   2.884   4.326   8.424  2.7822 -2.0497  0.4502
 1268SOL     OW15436   1.625   1.659   5.113 -0.5231  0.3571  0.1371
 1268SOL    HW115437   1.591   1.696   5.194  0.2052  1.1746  0.0747
 1268SOL    HW215438   1.577   1.706   5.045  2.0601 -0.0269 -1.9628
 1269SOL     OW15439   0.517   0.155  11.322  0.2177  0.6511  0.9233
 1269SOL    HW115440   0.457   0.089  11.356  0.4128 -0.2638 -0.5391
 1269SOL    HW215441   0.466   0.235  11.336 -0.5062 -0.0846  2.4577
 1270SOL     OW15442   0.295   3.846  10.254  0.0753  0.2503 -0.2565
 1270SOL    HW115443   0.203   3.821  10.244 -0.0453  0.8721 -0.7417
 1270SOL    HW215444   0.305   3.859  10.348  1.2286  1.7012 -0.5756
 1271SOL     OW15445   2.735   1.177   2.248 -0.3562  0.6580  0.0654
 1271SOL    HW115446   2.817   1.191   2.295  0.5720 -0.3358 -1.2714
 1271SOL    HW215447   2.703   1.125   2.322  1.2873 -4.0451 -2.5345
 1272SOL     OW15448   4.731   3.763   6.735  0.0734  0.0779 -0.1376
 1272SOL    HW115449   4.694   3.819   6.802  0.4973 -0.0290  0.1868
 1272SOL    HW215450   0.005   3.822   6.660  0.4025  0.2251  0.0253
 1273SOL     OW15451   2.995   4.190  15.481 -0.3796 -0.8237 -0.5193
 1273SOL    HW115452   2.989   4.196  15.385 -1.8910  0.2748 -0.3529
 1273SOL    HW215453   2.915   4.143  15.502 -0.0846 -0.9033  0.4177
 1274SOL     OW15454   4.415   3.468   7.169  0.3661 -0.5028  0.0313
 1274SOL    HW115455   4.448   3.558   7.175  2.6148 -1.2828 -0.6657
 1274SOL    HW215456   4.419   3.439   7.078 -1.6604  4.0886 -1.4739
 1275SOL     OW15457   4.498   1.653  12.640 -0.3002  0.8558  0.2161
 1275SOL    HW115458   4.423   1.678  12.586  1.9528  1.8802 -2.3996
 1275SOL    HW215459   4.468   1.565  12.664  0.8519  0.5740  0.6128
 1276SOL     OW15460   2.361   3.280   3.150 -0.1025  0.1698  0.2641
 1276SOL    HW115461   2.297   3.348   3.129  2.2144  2.5189  0.9314
 1276SOL    HW215462   2.443   3.322   3.125  0.3430  0.6929  2.6198
 1277SOL     OW15463   3.041   0.162   7.032  0.4663  0.0657 -0.3680
 1277SOL    HW115464   2.950   0.179   7.058  0.7838  2.7345 -1.0199
 1277SOL    HW215465   3.057   0.253   7.009 -3.8301  0.8344 -0.4274
 1278SOL     OW15466   0.069   3.896   5.530  0.2291 -0.0226 -0.2589
 1278SOL    HW115467   0.065   3.937   5.617 -0.2253  0.4549 -0.5061
 1278SOL    HW215468   0.128   3.824   5.551  0.5180  0.8581  1.9754
 1279SOL     OW15469   0.593   0.521   8.019  0.3288 -0.3362 -0.0129
 1279SOL    HW115470   0.512   0.519   7.968  0.4927 -0.2414 -0.2786
 1279SOL    HW215471   0.558   0.557   8.101 -1.8013  1.4931 -1.7261
 1280SOL     OW15472   2.103   3.381   2.206  0.1883  0.4281  0.1857
 1280SOL    HW115473   2.014   3.381   2.241  0.2760  1.7836  0.4054
 1280SOL    HW215474   2.147   3.335   2.278 -0.2138 -1.1180 -0.5407
 1281SOL     OW15475   4.695   0.720  11.675  0.1442 -0.2105 -0.2368
 1281SOL    HW115476   0.013   0.675  11.739 -0.9377 -0.5161  0.4809
 1281SOL    HW215477   0.002   0.805  11.674  0.2233 -0.2160  2.7154
 1282SOL     OW15478   1.747   0.968   5.972 -0.6713  0.1989  0.0666
 1282SOL    HW115479   1.831   1.014   5.978 -1.6710  2.0375  0.2324
 1282SOL    HW215480   1.685   1.007   6.034  0.1268 -0.3008  1.1559
 1283SOL     OW15481   1.323   0.866   4.920  0.0076  0.5007 -0.0174
 1283SOL    HW115482   1.400   0.918   4.944  0.1939  0.0499  0.3554
 1283SOL    HW215483   1.347   0.843   4.830 -0.0589  0.4030 -0.0106
 1284SOL     OW15484   2.845   4.164   3.843  0.5927  0.1141 -0.1302
 1284SOL    HW115485   2.934   4.195   3.824  1.5786 -1.3971  1.9086
 1284SOL    HW215486   2.835   4.115   3.761 -0.8809  3.1909 -1.7618
 1285SOL     OW15487   2.274   3.851   7.528 -0.5783  0.3792  0.0992
 1285SOL    HW115488   2.217   3.845   7.452  1.3263 -2.9806 -1.0621
 1285SOL    HW215489   2.221   3.892   7.596 -1.8908 -1.3665  0.1176
 1286SOL     OW15490   2.682   4.178  13.771  0.1166  0.7115  0.0258
 1286SOL    HW115491   2.679   4.266  13.734  1.5594  0.9557  0.4653
 1286SOL    HW215492   2.599   4.151  13.732  1.9383 -0.9406 -2.7479
 1287SOL     OW15493   4.496   2.972   7.437  0.1967 -0.8030 -0.5109
 1287SOL    HW115494   4.489   3.017   7.353 -0.5591  1.7543  0.9013
 1287SOL    HW215495   4.535   3.047   7.483  1.4919 -2.1298  0.5505
 1288SOL     OW15496   4.246   4.274   4.329  0.2026  0.4174  0.5777
 1288SOL    HW115497   4.292   4.294   4.410 -2.2252  0.2836  1.9804
 1288SOL    HW215498   4.157   4.294   4.357  1.2316  1.5051  3.0578
 1289SOL     OW15499   2.121   0.173   3.613 -0.2996  0.5271 -0.3530
 1289SOL    HW115500   2.180   0.198   3.683  2.6238  1.2502 -3.0658
 1289SOL    HW215501   2.099   0.086   3.647 -1.1305 -0.0918 -2.4152
 1290SOL     OW15502   4.116   1.150   5.309  0.1137 -0.4520  0.0568
 1290SOL    HW115503   4.124   1.117   5.399  0.2224  0.7269  0.4854
 1290SOL    HW215504   4.107   1.245   5.316  0.2951 -0.3546 -1.0449
 1291SOL     OW15505   4.613   0.775  11.403  0.6124  0.5492  0.3116
 1291SOL    HW115506   4.640   0.760  11.494 -0.2651  1.2211  0.6744
 1291SOL    HW215507   4.695   0.819  11.379  0.7219  0.3482  0.3140
 1292SOL     OW15508   4.502   2.429   5.042  0.1073 -0.1488 -0.2196
 1292SOL    HW115509   4.416   2.386   5.043 -0.7090  1.4689 -0.3855
 1292SOL    HW215510   4.489   2.496   5.110  1.7808  0.2075 -0.2595
 1293SOL     OW15511   2.856   3.721   5.395  0.0972 -0.1091  0.0485
 1293SOL    HW115512   2.906   3.790   5.352  0.4802 -0.3714  0.0730
 1293SOL    HW215513   2.873   3.650   5.333 -2.4127  1.0870 -2.0426
 1294SOL     OW15514   4.551   1.949   7.492 -0.1470  0.3633 -0.1941
 1294SOL    HW115515   4.456   1.938   7.486 -0.2587  1.0787  0.2469
 1294SOL    HW215516   4.587   1.876   7.442 -1.9702 -1.5064  1.2438
 1295SOL     OW15517   1.760   3.056   4.419 -0.1834 -0.1286 -0.0154
 1295SOL    HW115518   1.740   2.964   4.399  0.7781 -0.1878 -0.6924
 1295SOL    HW215519   1.777   3.053   4.513  1.2528  1.8982 -0.2076
 1296SOL     OW15520   0.643   1.644   4.741 -0.2101  0.3397 -0.0699
 1296SOL    HW115521   0.691   1.676   4.817  1.7659  1.6963 -1.8981
 1296SOL    HW215522   0.551   1.657   4.764 -0.3722  0.0345 -0.5361
 1297SOL     OW15523   3.594   1.923   8.049 -0.1029 -0.0582  0.1414
 1297SOL    HW115524   3.540   1.932   7.971 -2.6492  0.8931  1.9965
 1297SOL    HW215525   3.650   1.849   8.029  0.7101  1.5045 -3.4168
 1298SOL     OW15526   3.460   3.371   4.860  0.1720 -0.1256 -0.5674
 1298SOL    HW115527   3.381   3.410   4.897  0.8734  3.4360 -2.8500
 1298SOL    HW215528   3.525   3.441   4.855  0.1958 -0.2324 -1.6515
 1299SOL     OW15529   1.214   0.305   2.768 -0.4932 -0.7411 -0.3602
 1299SOL    HW115530   1.247   0.309   2.678  0.4302  2.2531  0.0924
 1299SOL    HW215531   1.237   0.215   2.789  0.6691 -0.4204 -0.2627
 1300SOL     OW15532   1.733   2.575   4.216 -0.1407 -0.2950 -0.4670
 1300SOL    HW115533   1.751   2.632   4.291 -0.5429 -0.1479 -0.4797
 1300SOL    HW215534   1.673   2.629   4.165  1.7459  0.4484 -1.8837
 1301SOL     OW15535   2.168   1.665   4.302  0.2438  0.2590  0.9957
 1301SOL    HW115536   2.238   1.686   4.364  3.3660 -2.7169 -1.4697
 1301SOL    HW215537   2.181   1.570   4.307  0.9354  0.3576  1.1537
 1302SOL     OW15538   3.521   4.611   4.578  0.1051 -0.0314  0.3407
 1302SOL    HW115539   3.463   4.552   4.530  0.5122 -0.7119  0.6869
 1302SOL    HW215540   3.459   4.666   4.626  0.5161  0.1869  0.6217
 1303SOL     OW15541   1.384   3.076  13.605 -1.6392  0.6806  0.5412
 1303SOL    HW115542   1.307   3.075  13.661 -1.8390  1.1044  0.2718
 1303SOL    HW215543   1.338   3.076  13.521 -1.1963 -1.0489  0.2920
 1304SOL     OW15544   2.362   3.831   1.733  0.1314 -0.1617  0.8060
 1304SOL    HW115545   2.354   3.769   1.806  1.1242 -0.5099  0.6100
 1304SOL    HW215546   2.376   3.765   1.665  2.7854  2.5675 -1.3091
 1305SOL     OW15547   3.849   2.807  11.088 -0.1438  0.0337 -0.4342
 1305SOL    HW115548   3.876   2.868  11.156  0.6651 -0.0308 -0.6933
 1305SOL    HW215549   3.915   2.814  11.019  0.8368  2.2781  0.7614
 1306SOL     OW15550   1.403   3.850  16.357 -0.2646 -0.1142  0.3438
 1306SOL    HW115551   1.389   3.789  16.430  1.5892  0.5547  1.2399
 1306SOL    HW215552   1.477   3.810  16.311 -0.2176 -1.0495  1.2251
 1307SOL     OW15553   1.257   2.544   4.542  0.6940 -0.6878 -0.1099
 1307SOL    HW115554   1.205   2.625   4.545  1.5730 -0.1293  0.2761
 1307SOL    HW215555   1.191   2.475   4.546 -0.3299  0.3847  2.1682
 1308SOL     OW15556   1.718   3.492   9.407 -0.2826 -0.3708 -0.2302
 1308SOL    HW115557   1.709   3.418   9.467  0.7469  0.8444  1.4089
 1308SOL    HW215558   1.630   3.530   9.403 -1.2793 -2.5877  0.4758
 1309SOL     OW15559   3.064   2.769   6.998  0.2640 -0.2006 -0.3275
 1309SOL    HW115560   3.036   2.706   7.064  2.5318 -0.1805  0.6507
 1309SOL    HW215561   3.075   2.852   7.044  0.2269  0.4212 -1.4352
 1310SOL     OW15562   3.493   2.382   8.625 -0.2568  0.3552 -0.5283
 1310SOL    HW115563   3.436   2.325   8.574  0.1245  0.0231 -0.5878
 1310SOL    HW215564   3.562   2.408   8.564 -0.1130 -0.9461 -0.9280
 1311SOL     OW15565   0.303   0.372   8.955  1.0998 -0.3884  0.8188
 1311SOL    HW115566   0.283   0.454   9.001 -0.7397 -1.5033  1.9868
 1311SOL    HW215567   0.394   0.388   8.930  0.6181  0.4060 -0.4570
 1312SOL     OW15568   1.082   4.355  17.531  0.5733 -0.1454  0.0458
 1312SOL    HW115569   1.096   4.415  17.604 -1.6746  0.9302 -0.3973
 1312SOL    HW215570   1.010   4.397  17.484  2.0941  0.6028 -1.6224
 1313SOL     OW15571   1.808   0.972   9.684  0.4223  0.3827  0.3850
 1313SOL    HW115572   1.816   1.040   9.617 -1.2571 -0.8652 -1.0714
 1313SOL    HW215573   1.888   0.986   9.735  0.6320 -1.4224  0.5533
 1314SOL     OW15574   3.943   2.040   2.391  0.0773  0.5656 -0.0932
 1314SOL    HW115575   3.968   1.984   2.465 -0.2933 -0.2255 -0.5657
 1314SOL    HW215576   3.865   1.996   2.358  0.8275 -1.5819  0.9981
 1315SOL     OW15577   3.863   1.479   3.371  0.2780  0.3194 -0.1527
 1315SOL    HW115578   3.912   1.402   3.399  0.5333  0.5935  0.1555
 1315SOL    HW215579   3.944   1.521   3.341  0.0339  0.6245 -0.3927
 1316SOL     OW15580   0.130   1.908  14.223  0.1201  0.3722  0.0038
 1316SOL    HW115581   0.191   1.969  14.264  0.3478  0.1878 -0.0614
 1316SOL    HW215582   0.170   1.825  14.246 -1.0475 -0.1025  0.3195
 1317SOL     OW15583   2.961   1.636   2.086 -0.1723 -0.8145  0.0617
 1317SOL    HW115584   2.946   1.567   2.150 -0.0944 -1.9736 -1.1531
 1317SOL    HW215585   3.051   1.620   2.059  0.2598 -2.6566  2.6680
 1318SOL     OW15586   0.072   3.270  10.417  0.3288 -0.3613  0.2585
 1318SOL    HW115587   0.058   3.304  10.505  1.0960 -1.3397  0.7699
 1318SOL    HW215588   0.027   3.187  10.432  0.6771 -0.9564 -1.8893
 1319SOL     OW15589   1.710   3.303   7.686 -0.1802 -0.0436 -0.0640
 1319SOL    HW115590   1.713   3.398   7.675 -0.7729 -0.2005 -1.5348
 1319SOL    HW215591   1.657   3.275   7.611 -0.1603 -0.6278  0.1415
 1320SOL     OW15592   4.411   1.558   1.121  0.0824 -0.8061 -0.2002
 1320SOL    HW115593   4.490   1.568   1.069 -0.8811  0.0931 -1.5169
 1320SOL    HW215594   4.344   1.530   1.058  0.7408  0.4535 -1.4694
 1321SOL     OW15595   3.992   2.215   1.430  0.3439  0.0621  0.2408
 1321SOL    HW115596   4.063   2.254   1.481  0.4492  1.6639 -1.1280
 1321SOL    HW215597   3.915   2.236   1.482 -0.0948  0.2033 -0.4584
 1322SOL     OW15598   0.313   3.875   0.254  0.0520  0.2176  0.1244
 1322SOL    HW115599   0.342   3.839   0.338  4.0232  2.6733 -0.1859
 1322SOL    HW215600   0.281   3.957   0.294 -2.2668  0.3802 -2.1200
 1323SOL     OW15601   4.061   3.932   8.127 -0.2030 -0.4769 -0.4979
 1323SOL    HW115602   3.989   3.965   8.182 -0.1347 -0.5600 -0.3575
 1323SOL    HW215603   4.050   3.976   8.043 -2.5834  0.4519  0.2865
 1324SOL     OW15604   3.106   4.380   8.156  0.4229  0.2558  0.2511
 1324SOL    HW115605   3.069   4.464   8.183 -1.4532 -1.1566  2.0609
 1324SOL    HW215606   3.162   4.347   8.227 -1.3868  0.0842  1.6157
 1325SOL     OW15607   0.029   1.205   6.774 -0.5886 -0.7234 -0.9352
 1325SOL    HW115608   4.703   1.246   6.834 -0.3547  0.7430 -1.6954
 1325SOL    HW215609   0.115   1.223   6.813 -0.8766  1.1387 -1.1527
 1326SOL     OW15610   1.251   4.686   0.330  0.7625  0.1430 -0.8394
 1326SOL    HW115611   1.315   4.723   0.391  0.8840 -1.1320 -0.1958
 1326SOL    HW215612   1.287   4.599   0.311  3.1406  1.2047 -1.2187
 1327SOL     OW15613   1.063   3.384   4.322  0.1062 -0.0922  0.1875
 1327SOL    HW115614   1.128   3.398   4.254  0.1241 -0.6527  0.0910
 1327SOL    HW215615   0.987   3.373   4.265  0.1999  0.6364 -0.0813
 1328SOL     OW15616   3.636   1.426   5.685  0.5457 -0.4722 -0.8134
 1328SOL    HW115617   3.568   1.461   5.629 -1.8160 -1.9451  1.1437
 1328SOL    HW215618   3.627   1.334   5.661  0.0697 -0.9335  1.1320
 1329SOL     OW15619   1.000   4.180   0.763  0.0826  0.2576 -0.1876
 1329SOL    HW115620   0.922   4.144   0.722 -0.2478 -0.3842  1.0117
 1329SOL    HW215621   0.991   4.160   0.857 -2.9495  1.6618 -0.2015
 1330SOL     OW15622   2.237   0.069   2.405  0.9200  0.7129  0.0755
 1330SOL    HW115623   2.261   0.113   2.487 -2.9816 -1.8767  2.6235
 1330SOL    HW215624   2.216   0.140   2.344 -0.3021 -0.0237 -0.3652
 1331SOL     OW15625   2.988   3.924   2.108 -0.1731 -0.0136  0.2306
 1331SOL    HW115626   2.953   4.011   2.089 -0.1807 -0.1270 -0.2740
 1331SOL    HW215627   3.045   3.908   2.032 -0.5500 -2.1913  0.3947
 1332SOL     OW15628   1.386   4.561   6.962 -0.1365 -0.0903  0.2427
 1332SOL    HW115629   1.336   4.602   6.892  1.0389  1.4006  0.2857
 1332SOL    HW215630   1.341   4.476   6.967 -1.0435  0.4528  1.1994
 1333SOL     OW15631   2.368   1.249   6.461  0.6414  0.1951 -0.2984
 1333SOL    HW115632   2.379   1.164   6.419  0.4334  0.1879 -0.3418
 1333SOL    HW215633   2.456   1.283   6.450  1.2537 -0.6945  1.8311
 1334SOL     OW15634   2.667   3.378  13.282  0.2728  0.3580 -0.8474
 1334SOL    HW115635   2.680   3.421  13.198  0.0939 -0.4537 -1.2822
 1334SOL    HW215636   2.755   3.380  13.320 -0.0353 -0.4791 -0.0859
 1335SOL     OW15637   2.665   0.971   9.073  0.6939  0.2229 -0.4907
 1335SOL    HW115638   2.695   1.016   9.151 -1.2541  2.1473 -0.8620
 1335SOL    HW215639   2.599   0.907   9.100  1.9698 -0.8407  0.1473
 1336SOL     OW15640   4.605   1.548  10.642 -0.1006  0.1630  0.7990
 1336SOL    HW115641   4.696   1.534  10.665 -0.3202  0.0518  1.6164
 1336SOL    HW215642   4.554   1.575  10.719 -0.7484 -2.3331  1.2409
 1337SOL     OW15643   3.920   0.064  13.781  0.3403  0.4842 -0.2060
 1337SOL    HW115644   3.825   0.067  13.772  0.3553  0.8710 -0.2338
 1337SOL    HW215645   3.935   0.068  13.687 -0.2529  0.1814 -0.3089
 1338SOL     OW15646   3.355   3.085   7.538  0.2334 -0.3519 -0.3342
 1338SOL    HW115647   3.391   3.138   7.609 -0.4401  0.0703 -0.3001
 1338SOL    HW215648   3.428   3.024   7.539  1.8718  1.5620 -3.7851
 1339SOL     OW15649   0.486   4.300   2.802  0.2611 -0.0519 -0.6458
 1339SOL    HW115650   0.553   4.368   2.801  0.7281 -0.5193 -1.7327
 1339SOL    HW215651   0.536   4.222   2.829 -0.7400 -0.7573 -0.8178
 1340SOL     OW15652   2.072   2.031   4.773 -0.3315 -0.2860 -0.4885
 1340SOL    HW115653   2.103   2.119   4.797 -1.6082 -0.0775  0.3910
 1340SOL    HW215654   2.146   2.006   4.717 -1.3619  0.0019 -1.9702
 1341SOL     OW15655   0.521   2.421  11.960 -0.2515 -0.2844 -0.0402
 1341SOL    HW115656   0.472   2.473  11.896 -2.1278 -0.7326  1.0441
 1341SOL    HW215657   0.468   2.439  12.037 -3.6929  1.0802 -2.6996
 1342SOL     OW15658   3.341   4.155   1.424 -0.8152  0.1192 -0.7208
 1342SOL    HW115659   3.414   4.096   1.443 -1.0049  0.2519  0.4144
 1342SOL    HW215660   3.368   4.243   1.449 -0.8764 -0.4138  1.2092
 1343SOL     OW15661   4.574   2.057   3.240  0.2393  0.5542  0.0783
 1343SOL    HW115662   4.569   2.150   3.263  0.3904  0.2092  1.4911
 1343SOL    HW215663   4.553   2.025   3.328 -3.1796  1.9144 -0.2268
 1344SOL     OW15664   3.544   1.459   3.316 -0.1577 -0.2078 -0.1188
 1344SOL    HW115665   3.637   1.480   3.328 -0.2399  0.1112 -0.0590
 1344SOL    HW215666   3.530   1.447   3.222  0.1163  0.4610 -0.2405
 1345SOL     OW15667   4.546   2.308   6.114 -0.1153  0.1458  0.1009
 1345SOL    HW115668   4.524   2.348   6.030  1.4053  0.7485 -0.0270
 1345SOL    HW215669   4.487   2.348   6.178 -1.3983  0.8151 -1.4966
 1346SOL     OW15670   2.655   0.666   9.855  0.0285  0.3559 -0.2305
 1346SOL    HW115671   2.599   0.590   9.841  0.9808 -0.6180  1.2587
 1346SOL    HW215672   2.687   0.644   9.942 -2.1146  0.1171  0.4938
 1347SOL     OW15673   2.365   1.555   3.387 -0.6928 -0.4300 -0.1953
 1347SOL    HW115674   2.422   1.586   3.457 -0.2395 -1.4843 -0.0993
 1347SOL    HW215675   2.394   1.610   3.314  0.7676 -0.6056  0.2506
 1348SOL     OW15676   0.326   0.260   8.201  0.5675  0.0019 -0.1472
 1348SOL    HW115677   0.278   0.304   8.271  0.9449  0.5033 -0.2124
 1348SOL    HW215678   0.324   0.170   8.234  0.8517  0.2796  0.6192
 1349SOL     OW15679   3.119   0.219  14.287 -0.1503  0.5364 -0.1156
 1349SOL    HW115680   3.029   0.248  14.305 -1.1189 -1.1938 -2.1227
 1349SOL    HW215681   3.145   0.281  14.218 -0.7104 -0.0739 -0.8762
 1350SOL     OW15682   3.856   2.809  12.680  0.0952  0.4872 -0.3193
 1350SOL    HW115683   3.821   2.898  12.675 -2.3492 -0.3972  0.9611
 1350SOL    HW215684   3.771   2.768  12.665  0.1215  1.1357 -2.3272
 1351SOL     OW15685   2.297   1.695   9.847 -0.2540  0.1855 -0.1827
 1351SOL    HW115686   2.243   1.734   9.779 -0.0926  0.2612 -0.2666
 1351SOL    HW215687   2.362   1.653   9.791 -1.6984 -0.6224 -1.2620
 1352SOL     OW15688   3.353   4.381   6.306 -0.5458 -0.4435 -0.1008
 1352SOL    HW115689   3.315   4.420   6.384  0.2176 -3.0729  1.5917
 1352SOL    HW215690   3.283   4.400   6.243  0.0586  0.8860 -0.3750
 1353SOL     OW15691   1.760   3.781   9.427  0.6170 -0.1596 -0.3293
 1353SOL    HW115692   1.832   3.802   9.487  0.0091  0.0191  0.3305
 1353SOL    HW215693   1.781   3.688   9.430 -0.0974 -0.3084 -0.0714
 1354SOL     OW15694   2.264   0.953   6.796 -0.3523 -0.1677 -0.0190
 1354SOL    HW115695   2.279   1.036   6.841 -1.4489 -0.6551  1.2671
 1354SOL    HW215696   2.250   0.992   6.710 -0.1958  1.1444  0.5451
 1355SOL     OW15697   0.029   1.864  13.036  0.1447  0.0543 -0.2421
 1355SOL    HW115698   0.097   1.931  13.027 -0.2987  0.3366 -1.5752
 1355SOL    HW215699   4.683   1.910  13.021  0.3107 -0.0050 -1.3709
 1356SOL     OW15700   4.577   0.271   9.794 -0.4434  0.5318 -0.0104
 1356SOL    HW115701   4.546   0.361   9.804 -1.8765  0.0139  0.1221
 1356SOL    HW215702   4.511   0.224   9.844 -0.1843 -0.6018 -0.7334
 1357SOL     OW15703   4.388   3.245   3.981  0.4258  0.0423 -0.1304
 1357SOL    HW115704   4.425   3.333   3.973 -3.7782  1.8888  0.4604
 1357SOL    HW215705   4.421   3.216   4.066 -2.4594  1.0952  1.3628
 1358SOL     OW15706   3.383   0.859   8.979 -0.6064  1.0866  0.3507
 1358SOL    HW115707   3.408   0.804   8.904  0.3673  0.7049  0.9583
 1358SOL    HW215708   3.426   0.942   8.959  2.7726 -0.7250  0.1961
 1359SOL     OW15709   1.147   0.747   7.200  0.3210 -0.4745  0.7282
 1359SOL    HW115710   1.242   0.753   7.214  0.6685 -3.6393 -0.3030
 1359SOL    HW215711   1.123   0.839   7.205 -1.3083 -0.7292 -2.1063
 1360SOL     OW15712   3.604   0.375   3.467  0.7093 -0.0189  0.2954
 1360SOL    HW115713   3.568   0.435   3.401 -0.9718 -1.4944 -0.0995
 1360SOL    HW215714   3.546   0.379   3.542  1.0560  1.1788  0.5072
 1361SOL     OW15715   0.142   2.210   1.562 -0.9302  0.6402  0.0768
 1361SOL    HW115716   0.121   2.129   1.516  2.0163  0.2838 -0.6683
 1361SOL    HW215717   0.233   2.223   1.534 -0.9273 -1.4746 -0.9059
 1362SOL     OW15718   1.320   3.244  14.509  0.3487 -0.0709 -0.3978
 1362SOL    HW115719   1.407   3.258  14.472  1.0301 -0.4729  1.0462
 1362SOL    HW215720   1.333   3.172  14.571  1.4217  1.3325  1.0188
 1363SOL     OW15721   0.162   3.217   7.756 -0.1437  0.0046 -0.0769
 1363SOL    HW115722   0.070   3.207   7.779  0.3563 -3.4064  0.4003
 1363SOL    HW215723   0.207   3.182   7.833 -0.0203  1.7952  0.6698
 1364SOL     OW15724   2.177   4.427  17.143  0.4311 -0.4713  0.0759
 1364SOL    HW115725   2.241   4.432  17.073 -0.0170  1.0405 -0.2228
 1364SOL    HW215726   2.241   4.436  17.214 -0.4535 -0.1634  0.8359
 1365SOL     OW15727   0.849   3.861   7.168 -0.2691 -0.1481 -0.2963
 1365SOL    HW115728   0.912   3.841   7.237 -0.9211 -0.9295  0.0761
 1365SOL    HW215729   0.855   3.957   7.163  0.3099 -0.2358 -1.2707
 1366SOL     OW15730   0.593   3.913  10.333 -0.3529 -0.6002  0.7189
 1366SOL    HW115731   0.544   3.961  10.400  1.4991  1.3960  0.6404
 1366SOL    HW215732   0.656   3.977  10.300 -0.5871  0.4105  2.2393
 1367SOL     OW15733   3.640   1.081   7.589  0.5473  0.4909  0.2232
 1367SOL    HW115734   3.664   0.997   7.627 -1.2187 -0.4061 -0.6479
 1367SOL    HW215735   3.641   1.064   7.495 -1.4974 -2.1463  0.6808
 1368SOL     OW15736   3.850   3.611   1.784  0.0002  0.3096  0.5776
 1368SOL    HW115737   3.783   3.678   1.801 -0.5613  0.2808 -1.4957
 1368SOL    HW215738   3.792   3.536   1.787 -3.0733  2.6959  0.7124
 1369SOL     OW15739   4.371   3.353   7.609  0.2787 -0.0967 -0.9433
 1369SOL    HW115740   4.456   3.347   7.566  0.2764  0.3795 -1.0175
 1369SOL    HW215741   4.315   3.369   7.533 -0.1867 -0.4178 -0.6686
 1370SOL     OW15742   3.403   1.744   0.796 -0.4442  0.1787 -0.0929
 1370SOL    HW115743   3.350   1.673   0.831 -0.6762  0.0667 -0.6667
 1370SOL    HW215744   3.342   1.817   0.801  0.0020  0.5762 -0.4023
 1371SOL     OW15745   1.303   2.862   1.929  0.2443 -0.0231  0.1143
 1371SOL    HW115746   1.290   2.956   1.938  0.1257 -0.1280  0.9883
 1371SOL    HW215747   1.356   2.861   1.849  1.4421  2.4490  0.8696
 1372SOL     OW15748   0.359   4.048   2.009  0.6975 -0.0170 -0.1308
 1372SOL    HW115749   0.285   4.022   2.064 -0.5269  0.7767 -1.3997
 1372SOL    HW215750   0.355   3.977   1.945  1.0475  1.6163 -1.9912
 1373SOL     OW15751   0.175   3.019  16.722 -0.0276  0.2284 -0.4369
 1373SOL    HW115752   0.119   2.981  16.655 -0.4838  1.5225 -0.8016
 1373SOL    HW215753   0.217   3.079  16.660  0.8392  0.5341  0.4476
 1374SOL     OW15754   2.793   3.453  11.590 -0.0794 -0.5072 -0.2734
 1374SOL    HW115755   2.762   3.438  11.501 -3.1391 -0.9771  0.8603
 1374SOL    HW215756   2.713   3.442  11.641  0.5087 -3.9319 -0.0887
 1375SOL     OW15757   2.865   3.901   6.170 -0.7023 -0.0435 -0.5129
 1375SOL    HW115758   2.946   3.934   6.130 -1.2087  1.4445 -0.3174
 1375SOL    HW215759   2.860   3.945   6.255  0.9290 -1.2855  0.2302
 1376SOL     OW15760   3.447   0.910   8.264 -0.1145  0.3454 -0.4733
 1376SOL    HW115761   3.508   0.903   8.191 -0.0219 -0.8991 -0.2758
 1376SOL    HW215762   3.513   0.882   8.328  1.0769 -0.7084 -2.1808
 1377SOL     OW15763   0.984   0.092   2.712  0.0550 -0.4205 -0.5435
 1377SOL    HW115764   0.993   0.149   2.635 -0.9282 -0.8915 -1.0012
 1377SOL    HW215765   1.074   0.060   2.708 -0.3727 -1.4460 -1.7962
 1378SOL     OW15766   0.978   2.854   1.126  0.4494  0.4209 -0.1220
 1378SOL    HW115767   0.915   2.923   1.107  1.0815  0.4072 -2.2788
 1378SOL    HW215768   1.021   2.887   1.205 -0.0537  0.2154  0.2332
 1379SOL     OW15769   1.168   3.494  17.716  0.9005 -0.6230 -0.5117
 1379SOL    HW115770   1.166   3.453  17.629 -1.3035 -0.6251 -0.4584
 1379SOL    HW215771   1.075   3.490  17.736  0.7849 -1.4280 -1.1667
 1380SOL     OW15772   0.010   2.594   8.083  0.2448 -0.4587 -0.1838
 1380SOL    HW115773   0.019   2.513   8.033  1.4083 -1.6454  1.9456
 1380SOL    HW215774   4.658   2.616   8.056  0.3105  2.5171  2.0152
 1381SOL     OW15775   4.672   3.054   5.836  0.0782  0.0128 -0.9591
 1381SOL    HW115776   4.596   3.006   5.803 -1.2484  0.5108  1.3266
 1381SOL    HW215777   4.702   2.995   5.906  0.4380  0.6464 -0.5794
 1382SOL     OW15778   0.689   1.486   9.776 -0.0448 -0.2215  0.6268
 1382SOL    HW115779   0.735   1.520   9.853  1.4829  1.7586 -1.1603
 1382SOL    HW215780   0.598   1.512   9.787  0.2249  0.9199  0.0712
 1383SOL     OW15781   3.942   0.168   2.347  0.3391  0.1036 -0.6827
 1383SOL    HW115782   3.902   0.255   2.339 -0.7120 -0.2992  0.1422
 1383SOL    HW215783   3.919   0.131   2.262 -1.9124 -0.0732  0.0027
 1384SOL     OW15784   0.910   2.460   1.410  0.9120 -0.0696 -0.2204
 1384SOL    HW115785   0.878   2.501   1.330  1.8264 -0.3851 -0.7579
 1384SOL    HW215786   0.948   2.535   1.456 -1.8665  1.3090 -0.1533
 1385SOL     OW15787   4.714   0.675   2.381 -0.1581 -0.7973 -0.3281
 1385SOL    HW115788   4.627   0.702   2.349  0.6277  0.4087 -1.4566
 1385SOL    HW215789   4.729   0.593   2.333 -0.5066 -1.5503  0.8616
 1386SOL     OW15790   4.068   0.898   3.792 -0.2196 -0.0639 -0.0448
 1386SOL    HW115791   4.022   0.859   3.717 -0.6608  1.1739 -0.4216
 1386SOL    HW215792   4.001   0.965   3.806  1.4909  1.6970 -0.3674
 1387SOL     OW15793   1.825   3.451   3.989 -0.2521 -0.2687  0.0835
 1387SOL    HW115794   1.817   3.383   3.922  0.2713  0.1191 -0.3712
 1387SOL    HW215795   1.910   3.439   4.030 -0.4248 -0.3972  0.4104
 1388SOL     OW15796   2.522   3.712   4.155  0.0006 -0.0151 -0.3766
 1388SOL    HW115797   2.442   3.694   4.204 -0.6128  0.0070 -1.3604
 1388SOL    HW215798   2.574   3.758   4.221 -0.9613 -0.1358  0.4587
 1389SOL     OW15799   3.696   2.974   9.375  0.4861  0.3004  0.0535
 1389SOL    HW115800   3.741   2.929   9.304  1.5254 -1.8208  2.0283
 1389SOL    HW215801   3.765   3.021   9.422 -0.9517 -0.0246  2.5297
 1390SOL     OW15802   0.076   1.719   9.993  0.3036 -0.2474 -0.5433
 1390SOL    HW115803   0.093   1.654   9.925 -0.5191 -1.0576  0.0309
 1390SOL    HW215804   4.720   1.708  10.013 -0.2976  3.2062 -1.3598
 1391SOL     OW15805   0.504   3.918   5.697  0.1247 -0.2691 -0.1569
 1391SOL    HW115806   0.591   3.949   5.723  0.8678 -0.7277 -2.0961
 1391SOL    HW215807   0.462   3.914   5.783  0.7806 -0.0829  0.1771
 1392SOL     OW15808   2.060   1.976   3.699  0.0814  0.2555 -0.4512
 1392SOL    HW115809   2.077   1.896   3.648 -1.0106  1.1994 -2.3194
 1392SOL    HW215810   2.025   2.036   3.633 -1.8415 -0.1174  0.2399
 1393SOL     OW15811   0.287   2.948   3.371 -0.0290 -0.0119 -0.1030
 1393SOL    HW115812   0.203   2.962   3.414  0.6518  0.2177  1.1421
 1393SOL    HW215813   0.304   2.857   3.396 -0.5449 -0.1851 -0.3910
 1394SOL     OW15814   0.709   4.067   5.799 -0.0248  0.4403  0.1046
 1394SOL    HW115815   0.764   4.055   5.722  0.6614 -3.4478  1.2217
 1394SOL    HW215816   0.765   4.043   5.872  1.6215  1.7162 -0.7529
 1395SOL     OW15817   4.306   1.110   2.828  0.1928  0.4119 -0.8572
 1395SOL    HW115818   4.395   1.077   2.815  0.9217  2.3025 -0.6742
 1395SOL    HW215819   4.314   1.075   2.917 -0.3458 -0.7661 -1.2705
 1396SOL     OW15820   0.292   0.883  13.114  0.3651 -0.7604  0.0494
 1396SOL    HW115821   0.225   0.913  13.176  1.1024  1.1999 -0.0906
 1396SOL    HW215822   0.328   0.964  13.077  4.0990 -2.9320 -1.0785
 1397SOL     OW15823   0.792   4.399  13.501 -0.0394  0.7657 -0.1207
 1397SOL    HW115824   0.867   4.418  13.559 -0.8716 -0.3461  1.3183
 1397SOL    HW215825   0.743   4.479  13.520 -0.9963 -0.7692  3.8644
 1398SOL     OW15826   4.684   3.641   4.096  0.2255 -0.4885  0.0015
 1398SOL    HW115827   0.031   3.686   4.093 -0.4488  0.8031  0.5313
 1398SOL    HW215828   4.674   3.652   4.191 -2.1434  0.9482 -0.3991
 1399SOL     OW15829   3.193   3.919   5.349  0.3562  0.2208  0.1155
 1399SOL    HW115830   3.207   4.010   5.324 -1.1980  0.7262  1.0836
 1399SOL    HW215831   3.135   3.940   5.422  0.3089  1.4333 -0.2867
 1400SOL     OW15832   2.263   1.663   6.172  0.1493  0.0855 -0.5770
 1400SOL    HW115833   2.180   1.711   6.179  1.3829  2.1673 -0.2186
 1400SOL    HW215834   2.243   1.600   6.242  0.1245 -0.4553 -1.0765
 1401SOL     OW15835   0.821   2.171  11.449  0.7659  0.2079  0.2949
 1401SOL    HW115836   0.797   2.103  11.385  1.1580  0.0446  0.3219
 1401SOL    HW215837   0.823   2.116  11.527 -0.2199 -1.0034 -0.5076
 1402SOL     OW15838   3.367   2.617   8.987  0.3224 -0.3342 -0.3773
 1402SOL    HW115839   3.367   2.713   8.993  1.1032 -0.2689 -1.6447
 1402SOL    HW215840   3.386   2.604   8.895  2.3315 -1.5342  0.2007
 1403SOL     OW15841   0.831   1.803   8.219  0.5396 -0.0120  0.2030
 1403SOL    HW115842   0.889   1.853   8.161 -0.8111  1.8530  0.4564
 1403SOL    HW215843   0.751   1.812   8.168  0.8182  1.4489  0.0263
 1404SOL     OW15844   0.617   2.942  13.506  0.1818  0.0178 -0.4744
 1404SOL    HW115845   0.613   3.016  13.567 -1.3816  0.3123 -0.9330
 1404SOL    HW215846   0.710   2.920  13.503 -0.3382 -2.3142  0.3599
 1405SOL     OW15847   0.213   1.467   4.904  0.2358  0.3277  0.2893
 1405SOL    HW115848   0.218   1.394   4.842 -0.3786  2.5357 -2.3403
 1405SOL    HW215849   0.243   1.422   4.983 -0.2181 -0.5952 -0.0636
 1406SOL     OW15850   0.060   4.332   4.248  0.0811 -0.6466  0.0979
 1406SOL    HW115851   0.007   4.253   4.261  1.2640 -0.9475  3.2587
 1406SOL    HW215852   0.144   4.302   4.214 -0.6492 -1.2801 -1.1597
 1407SOL     OW15853   1.979   3.507   0.027 -0.0024  0.0781  0.1844
 1407SOL    HW115854   1.888   3.533   0.038  0.1456 -0.4816  2.9204
 1407SOL    HW215855   1.993   3.549  17.688  1.2289 -0.4485  0.1250
 1408SOL     OW15856   1.892   3.598   1.275 -0.4811  0.8143  0.2950
 1408SOL    HW115857   1.934   3.650   1.207  0.9144 -1.5841 -0.6756
 1408SOL    HW215858   1.948   3.627   1.348  0.4574  1.2532 -0.5984
 1409SOL     OW15859   2.355   1.712   3.150  0.1973  0.1126  0.3138
 1409SOL    HW115860   2.260   1.715   3.139  0.4647  0.0087 -1.9321
 1409SOL    HW215861   2.389   1.688   3.064 -3.1777  0.3468 -1.0624
 1410SOL     OW15862   2.754   4.313   8.961  0.3096  0.2405  0.3367
 1410SOL    HW115863   2.814   4.239   8.970  2.1074  1.9163  2.2381
 1410SOL    HW215864   2.821   4.379   8.983 -0.1929  0.8761 -0.0599
 1411SOL     OW15865   0.501   0.684   5.025 -0.2385 -0.0837  0.4416
 1411SOL    HW115866   0.588   0.666   4.991  0.2490  1.8630  0.6336
 1411SOL    HW215867   0.475   0.763   4.978  2.6199 -0.7413 -2.2327
 1412SOL     OW15868   1.141   2.519   4.851  0.2005 -0.0657 -0.2616
 1412SOL    HW115869   1.179   2.431   4.862 -1.2018 -0.4120  1.6968
 1412SOL    HW215870   1.057   2.508   4.808  1.1473 -0.5777 -1.9974
 1413SOL     OW15871   3.331   3.624  10.318  0.7345 -0.1426 -0.0779
 1413SOL    HW115872   3.426   3.616  10.310  0.5975 -1.5008 -0.2653
 1413SOL    HW215873   3.303   3.540  10.353 -0.4902 -0.3112 -1.4614
 1414SOL     OW15874   4.500   2.380  16.208 -0.0510  0.5139 -0.1355
 1414SOL    HW115875   4.559   2.452  16.229  2.5094 -1.4238 -0.7223
 1414SOL    HW215876   4.464   2.401  16.121 -1.3633  1.4867  0.6330
 1415SOL     OW15877   4.457   0.187   4.689  0.3210 -0.7305  0.3072
 1415SOL    HW115878   4.533   0.214   4.741 -2.0894  2.7025  1.9845
 1415SOL    HW215879   4.498   0.186   4.603  1.5660  2.9374  0.8767
 1416SOL     OW15880   2.625   3.326   0.157 -0.2299 -0.1882 -0.1005
 1416SOL    HW115881   2.556   3.374   0.203 -0.2443 -1.2488  0.9754
 1416SOL    HW215882   2.584   3.241   0.147 -2.6078  1.1354 -1.6502
 1417SOL     OW15883   2.881   4.496   3.743 -0.1639  0.3370  0.1803
 1417SOL    HW115884   2.878   4.587   3.714 -1.5956 -0.6323 -2.7305
 1417SOL    HW215885   2.873   4.512   3.837  0.7558  1.2307  0.1107
 1418SOL     OW15886   2.522   1.745   4.161  0.2760  0.3959 -0.9442
 1418SOL    HW115887   2.556   1.832   4.183 -1.0189 -0.0098  2.6312
 1418SOL    HW215888   2.462   1.757   4.088 -0.7720  1.9967  0.1787
 1419SOL     OW15889   0.460   0.343  13.614 -0.4193  0.4294 -0.5675
 1419SOL    HW115890   0.393   0.301  13.668  0.6122  1.8657  1.8801
 1419SOL    HW215891   0.496   0.401  13.682 -2.2713  0.8962  0.0139
 1420SOL     OW15892   0.491   2.023   2.764  0.1411  0.1921  0.4510
 1420SOL    HW115893   0.550   1.950   2.747  0.1531  0.8366 -2.2829
 1420SOL    HW215894   0.560   2.088   2.778 -0.7770  1.2558  0.0414
 1421SOL     OW15895   3.242   2.268   7.441  0.1550  0.2982 -0.0148
 1421SOL    HW115896   3.185   2.205   7.396  1.6609  0.1499 -1.7378
 1421SOL    HW215897   3.184   2.295   7.512  0.0501  1.1435 -0.4227
 1422SOL     OW15898   0.738   2.500   3.156 -0.4095 -0.4372  0.1519
 1422SOL    HW115899   0.708   2.545   3.077  1.5204 -1.4503 -1.1609
 1422SOL    HW215900   0.784   2.578   3.188  2.6830 -1.9690 -0.6290
 1423SOL     OW15901   1.981   3.181  14.855  0.0735 -0.5669  0.2842
 1423SOL    HW115902   1.965   3.212  14.766  0.9315  1.2130  0.7542
 1423SOL    HW215903   1.981   3.086  14.840  0.7980 -0.5145 -0.0398
 1424SOL     OW15904   2.883   3.405   6.534  0.3603 -0.0417  0.4029
 1424SOL    HW115905   2.962   3.450   6.506  0.6577  0.5375  2.1808
 1424SOL    HW215906   2.893   3.316   6.501  0.0453  0.5884 -1.4121
 1425SOL     OW15907   4.051   4.103   2.538  0.5983 -0.2026 -0.5591
 1425SOL    HW115908   4.128   4.099   2.482  1.4624 -1.5736  0.7439
 1425SOL    HW215909   4.085   4.065   2.618 -0.4473 -0.0349 -0.0333
 1426SOL     OW15910   1.913   0.875   0.443  0.5097  0.5801 -0.0250
 1426SOL    HW115911   1.905   0.966   0.415 -2.0863  0.5355  0.5146
 1426SOL    HW215912   1.855   0.866   0.519 -0.3384 -1.3737 -0.9094
 1427SOL     OW15913   1.436   2.513   7.057 -0.3197  0.4465 -0.5713
 1427SOL    HW115914   1.427   2.419   7.044 -3.7695  0.8382 -1.0204
 1427SOL    HW215915   1.484   2.536   6.978  0.5056  1.1537  0.1311
 1428SOL     OW15916   3.225   3.519   9.418  0.2814 -0.2870  0.4326
 1428SOL    HW115917   3.284   3.453   9.454  0.5757 -0.2435  0.0258
 1428SOL    HW215918   3.147   3.487   9.463 -0.0492 -0.2191 -0.0910
 1429SOL     OW15919   0.393   3.099   6.274 -0.3528  0.1344  0.1530
 1429SOL    HW115920   0.397   3.176   6.217 -2.0124 -1.0481 -1.5745
 1429SOL    HW215921   0.324   3.045   6.235 -0.5851  0.9481 -0.5636
 1430SOL     OW15922   2.542   2.255   6.471  0.9694  0.7654  0.3340
 1430SOL    HW115923   2.538   2.175   6.524 -0.2482  0.7246  0.1988
 1430SOL    HW215924   2.637   2.258   6.466  0.9227  2.8278  0.5955
 1431SOL     OW15925   0.783   2.567   3.733  0.6082  0.7484 -0.3723
 1431SOL    HW115926   0.856   2.508   3.713  2.3129  2.7056  0.1658
 1431SOL    HW215927   0.782   2.599   3.643  0.9892  1.8347  0.0158
 1432SOL     OW15928   3.909   2.528  11.240  0.1159 -0.3604  0.1278
 1432SOL    HW115929   3.978   2.520  11.174  1.1035 -1.4464  1.2944
 1432SOL    HW215930   3.900   2.438  11.271  2.3544 -0.4563  0.4589
 1433SOL     OW15931   2.918   3.238   3.935  0.0501  0.7003  0.0733
 1433SOL    HW115932   2.980   3.229   4.007 -1.1911 -1.4602  0.8532
 1433SOL    HW215933   2.986   3.247   3.867  0.7777  0.1857  0.7365
 1434SOL     OW15934   0.613   4.050   6.579 -0.0168 -0.1191  0.2829
 1434SOL    HW115935   0.698   4.054   6.622  1.2385  1.9593 -2.4062
 1434SOL    HW215936   0.610   3.961   6.543 -1.4007  0.3364 -0.7126
 1435SOL     OW15937   4.304   3.373   2.692 -0.0021 -0.2548 -0.1556
 1435SOL    HW115938   4.350   3.344   2.772 -1.3473 -1.9394  0.0114
 1435SOL    HW215939   4.269   3.292   2.655  0.5482 -0.6577  0.1982
 1436SOL     OW15940   3.809   3.896   5.234  0.1358 -0.3725 -0.1916
 1436SOL    HW115941   3.886   3.951   5.216  0.5846 -0.5957  1.0335
 1436SOL    HW215942   3.748   3.969   5.241 -0.5011 -1.0046  0.9457
 1437SOL     OW15943   0.385   3.194   3.420 -0.2813  0.2511  0.9722
 1437SOL    HW115944   0.384   3.105   3.383 -2.3920  0.0590  1.5071
 1437SOL    HW215945   0.399   3.170   3.512 -0.1251  0.2713  0.9532
 1438SOL     OW15946   3.772   4.405   2.560 -0.0929 -0.5472 -0.1496
 1438SOL    HW115947   3.731   4.383   2.643  0.8733  1.0524  0.7567
 1438SOL    HW215948   3.798   4.496   2.570  0.7594 -0.9715  1.5041
 1439SOL     OW15949   1.249   0.548  15.265 -0.2964 -0.2542  0.3452
 1439SOL    HW115950   1.294   0.535  15.181 -2.1899 -2.4747 -0.3173
 1439SOL    HW215951   1.223   0.640  15.253  0.1904 -0.4886 -2.6452
 1440SOL     OW15952   0.458   2.107  10.738 -1.1829  0.5378 -0.2144
 1440SOL    HW115953   0.502   2.084  10.656 -0.6563  1.1727 -0.1048
 1440SOL    HW215954   0.415   2.189  10.714 -2.4656 -0.2529 -0.6503
 1441SOL     OW15955   3.150   0.324  14.742 -0.0572  0.3102  0.1773
 1441SOL    HW115956   3.133   0.308  14.835 -1.1795  0.5904  0.0221
 1441SOL    HW215957   3.148   0.235  14.705 -0.8015 -0.0402  1.0582
 1442SOL     OW15958   1.065   4.508   4.133 -0.3011  0.0265  0.4365
 1442SOL    HW115959   1.003   4.551   4.074  1.3214 -1.5750 -2.4211
 1442SOL    HW215960   1.154   4.541   4.127 -0.8978  1.5018 -0.3624
 1443SOL     OW15961   3.168   2.214   0.726  0.4919  0.3470 -0.2526
 1443SOL    HW115962   3.141   2.305   0.724 -1.1591 -0.2048 -2.8518
 1443SOL    HW215963   3.209   2.201   0.640 -0.6724 -2.4429 -0.3874
 1444SOL     OW15964   1.600   0.437   5.380  0.0676  0.4712  0.6190
 1444SOL    HW115965   1.534   0.480   5.328 -0.0999  0.1301  0.5489
 1444SOL    HW215966   1.616   0.507   5.444 -0.7568  0.9982  0.2408
 1445SOL     OW15967   2.229   0.450  12.309  0.6603  0.0555 -0.3408
 1445SOL    HW115968   2.237   0.545  12.308 -0.6434  0.1805  0.6792
 1445SOL    HW215969   2.175   0.437  12.387  0.3205  0.6297 -0.4797
 1446SOL     OW15970   0.256   0.679   5.185  0.0164 -0.3319  0.2985
 1446SOL    HW115971   0.332   0.665   5.128 -0.7222 -1.8800 -0.3279
 1446SOL    HW215972   0.268   0.609   5.249  0.0598  0.2573  0.9270
 1447SOL     OW15973   3.651   1.182   7.077  0.7353 -0.4323  0.0609
 1447SOL    HW115974   3.594   1.133   7.017  0.2188 -0.1501  0.3226
 1447SOL    HW215975   3.731   1.132   7.061  1.6568  0.7984  0.8779
 1448SOL     OW15976   0.186   0.773   6.555  0.2610  0.9669  0.2650
 1448SOL    HW115977   0.164   0.684   6.530 -2.1594  1.2882  1.2359
 1448SOL    HW215978   0.194   0.764   6.650  1.4246  1.0450  0.1817
 1449SOL     OW15979   3.900   3.709   3.325 -0.0225  0.0527  0.6543
 1449SOL    HW115980   3.944   3.794   3.333 -0.1714  0.2370 -0.5240
 1449SOL    HW215981   3.856   3.708   3.240 -2.1790  0.5158  1.7592
 1450SOL     OW15982   1.764   1.856  11.010 -0.3785 -0.0671 -0.5336
 1450SOL    HW115983   1.702   1.909  10.959  0.8769 -0.2455 -2.2463
 1450SOL    HW215984   1.764   1.778  10.954  0.6199  0.2556 -0.9799
 1451SOL     OW15985   1.176   0.933   1.810 -0.3953  0.0624 -0.7006
 1451SOL    HW115986   1.201   1.004   1.870  1.8266  1.0158 -2.7414
 1451SOL    HW215987   1.261   0.908   1.772  0.3750  0.5588  0.6713
 1452SOL     OW15988   0.321   1.317   2.436 -0.1688  0.3127  0.5718
 1452SOL    HW115989   0.358   1.244   2.486  1.3013  0.5922 -0.0901
 1452SOL    HW215990   0.311   1.389   2.498  1.6969  0.7554  0.3628
 1453SOL     OW15991   2.804   0.415   7.855 -0.3966  0.5263  0.5439
 1453SOL    HW115992   2.811   0.405   7.760 -0.7740  3.1984  0.2400
 1453SOL    HW215993   2.878   0.365   7.890 -0.2972  0.1459 -0.2096
 1454SOL     OW15994   4.414   0.791   6.688  0.0011 -0.7464 -0.0633
 1454SOL    HW115995   4.431   0.777   6.782  1.9038  0.5363 -0.2229
 1454SOL    HW215996   4.483   0.854   6.669 -0.8547  0.0463 -0.5088
 1455SOL     OW15997   1.348   0.110  16.200 -0.4054  0.0857 -0.4473
 1455SOL    HW115998   1.331   0.066  16.283 -1.3555  1.7226  0.2351
 1455SOL    HW215999   1.318   0.196  16.229 -0.5666 -0.0297 -0.2755
 1456SOL     OW16000   3.733   4.304  15.662 -0.0914  0.1885  0.0182
 1456SOL    HW116001   3.649   4.313  15.616 -1.0868 -0.5249  1.6704
 1456SOL    HW216002   3.791   4.329  15.591  0.9408  0.6025  1.0078
 1457SOL     OW16003   0.296   0.315   6.890 -0.2474  0.3918  0.2388
 1457SOL    HW116004   0.383   0.331   6.854 -0.5151  2.5865  0.5314
 1457SOL    HW216005   0.232   0.339   6.822  1.6955 -0.6755 -1.9655
 1458SOL     OW16006   1.474   1.498  10.664  0.4520  0.8269  0.7784
 1458SOL    HW116007   1.400   1.438  10.675  0.3355  0.7848 -0.2812
 1458SOL    HW216008   1.416   1.570  10.639  0.6049  0.3496 -0.9232
 1459SOL     OW16009   0.107   1.329   9.594  0.8255 -0.5202  0.5883
 1459SOL    HW116010   0.113   1.243   9.636  0.8517 -0.0525  1.5233
 1459SOL    HW216011   0.178   1.315   9.530  0.9267  0.4960  0.4770
 1460SOL     OW16012   3.689   3.943   5.532 -0.4865  0.1815  0.6719
 1460SOL    HW116013   3.776   3.917   5.559  0.3877  1.5353 -0.8173
 1460SOL    HW216014   3.660   3.967   5.620  1.4980 -0.8248  1.5924
 1461SOL     OW16015   3.902   4.441   6.561  0.3535  0.5469  0.0846
 1461SOL    HW116016   3.933   4.509   6.622 -1.1624  1.6262 -0.3454
 1461SOL    HW216017   3.834   4.494   6.520 -0.4331 -1.3232 -1.0125
 1462SOL     OW16018   2.694   2.012   4.793  0.5061  0.1310 -0.1031
 1462SOL    HW116019   2.629   2.071   4.831 -0.9109 -0.1229 -2.1382
 1462SOL    HW216020   2.705   2.037   4.702  1.6641 -1.0033 -0.2864
 1463SOL     OW16021   1.598   4.283   1.810  0.3054 -0.3521  0.2554
 1463SOL    HW116022   1.656   4.355   1.836 -1.6874  1.0585  0.8569
 1463SOL    HW216023   1.544   4.333   1.749  0.5789 -0.6536 -0.2264
 1464SOL     OW16024   3.207   3.275   5.280  0.4623 -0.1936  0.4929
 1464SOL    HW116025   3.118   3.251   5.253  1.4871 -2.7987 -0.5425
 1464SOL    HW216026   3.260   3.223   5.220 -0.5158 -0.1913 -0.3686
 1465SOL     OW16027   0.952   2.619   9.287 -0.1168  0.0246  0.3736
 1465SOL    HW116028   0.941   2.537   9.238 -1.3810  0.0807  0.5456
 1465SOL    HW216029   1.047   2.628   9.283 -0.1892  0.1174 -1.1524
 1466SOL     OW16030   2.007   2.714   7.625  0.6913  0.3268  0.0148
 1466SOL    HW116031   2.063   2.749   7.555  2.2260  0.7495  1.4452
 1466SOL    HW216032   2.063   2.718   7.703  1.4775  0.3509 -0.5489
 1467SOL     OW16033   0.321   2.864  15.740 -0.3462 -0.5141 -0.6885
 1467SOL    HW116034   0.276   2.834  15.661 -3.0999  0.4784  0.4950
 1467SOL    HW216035   0.241   2.895  15.783 -0.0467  1.2722 -1.4423
 1468SOL     OW16036   1.912   3.637   5.106 -0.4737  0.1987  0.4625
 1468SOL    HW116037   1.919   3.701   5.036 -0.1001  0.0276  0.3426
 1468SOL    HW216038   1.819   3.620   5.114 -0.4589  1.1150  2.6346
 1469SOL     OW16039   2.099   1.734   3.530  0.0524  0.0269  0.0084
 1469SOL    HW116040   2.045   1.741   3.451  0.1960 -0.0029 -0.0939
 1469SOL    HW216041   2.158   1.681   3.475  0.3492 -0.4916  0.8393
 1470SOL     OW16042   3.485   1.617  17.456 -0.2644  0.0144 -0.1100
 1470SOL    HW116043   3.468   1.682  17.525  1.6399 -1.3426  1.6364
 1470SOL    HW216044   3.577   1.591  17.461  0.0853  1.5010  1.0694
 1471SOL     OW16045   4.693   2.153  14.687 -0.5767 -0.1997  0.6491
 1471SOL    HW116046   0.049   2.134  14.678 -0.3971  0.4619  1.1926
 1471SOL    HW216047   4.701   2.243  14.657 -1.2869 -0.5399 -0.5904
 1472SOL     OW16048   2.480   0.184   7.056 -0.0759 -0.1804  0.3306
 1472SOL    HW116049   2.445   0.263   7.096  0.9666  0.8508 -0.7856
 1472SOL    HW216050   2.499   0.207   6.965  0.4364  1.4449  0.8499
 1473SOL     OW16051   2.065   4.631   1.171 -0.3507 -0.1427  0.6202
 1473SOL    HW116052   2.005   4.706   1.169 -0.5938 -0.3241  1.0038
 1473SOL    HW216053   2.046   4.597   1.083 -1.6580  0.1637  0.7752
 1474SOL     OW16054   1.522   2.364   5.015 -0.1172  0.3289  0.4778
 1474SOL    HW116055   1.605   2.407   4.995 -0.0468 -0.6858 -1.3169
 1474SOL    HW216056   1.533   2.347   5.109 -0.3514  0.8820  0.6113
 1475SOL     OW16057   2.412   0.968   5.325  0.2548  0.1935 -0.0541
 1475SOL    HW116058   2.360   1.021   5.385 -3.9476 -3.9710  0.0329
 1475SOL    HW216059   2.395   1.018   5.246 -1.3486 -0.8674 -0.3730
 1476SOL     OW16060   0.586   2.568  15.166  0.1013  0.5564 -0.1982
 1476SOL    HW116061   0.606   2.568  15.259 -3.3400 -1.4620  0.5389
 1476SOL    HW216062   0.675   2.553  15.132  0.3955  1.8078  0.0131
 1477SOL     OW16063   2.142   1.127   8.742 -0.0393  0.3614  0.1606
 1477SOL    HW116064   2.116   1.219   8.753 -1.1809  0.0622 -0.0003
 1477SOL    HW216065   2.229   1.138   8.780 -0.3382 -0.9863  1.2185
 1478SOL     OW16066   4.194   1.907   7.059 -0.0805 -0.5668  0.1616
 1478SOL    HW116067   4.165   1.953   7.138 -1.4586 -1.3053  0.0969
 1478SOL    HW216068   4.115   1.859   7.034  0.0751 -1.0202  0.5502
 1479SOL     OW16069   3.244   0.474  10.985 -0.2757  0.1845 -0.0737
 1479SOL    HW116070   3.291   0.520  10.915 -0.0533 -0.0921 -0.1043
 1479SOL    HW216071   3.166   0.528  10.995 -1.1229 -1.2563  1.1287
 1480SOL     OW16072   2.842   2.929   3.048  0.7803 -0.2856 -0.0636
 1480SOL    HW116073   2.834   2.861   3.114 -0.7848 -1.6145 -1.6269
 1480SOL    HW216074   2.798   2.882   2.977  0.5266 -1.6908  1.0144
 1481SOL     OW16075   3.954   2.768  11.407  0.1067  0.3291  0.4897
 1481SOL    HW116076   4.047   2.781  11.388 -0.0978  0.8897 -0.1303
 1481SOL    HW216077   3.922   2.706  11.342 -2.9559  2.0058  0.3984
 1482SOL     OW16078   4.735   0.865   7.757 -0.0150  0.0583  0.4129
 1482SOL    HW116079   4.655   0.825   7.792 -0.4084  1.5507  1.2247
 1482SOL    HW216080   4.727   0.955   7.791 -0.1125 -0.5481  2.0004
 1483SOL     OW16081   1.503   3.981  12.123  0.1381  0.1541  0.0346
 1483SOL    HW116082   1.571   3.937  12.072 -0.5759 -1.0182  0.1051
 1483SOL    HW216083   1.431   3.988  12.059 -1.3045 -1.5799  1.4807
 1484SOL     OW16084   4.611   0.154   6.290 -0.3528  0.0730 -0.5343
 1484SOL    HW116085   4.621   0.243   6.257  1.1074 -0.2465 -0.9571
 1484SOL    HW216086   4.649   0.115   6.211 -0.6545  0.1609 -0.7233
 1485SOL     OW16087   3.302   1.891   7.401  0.1803  0.2139  0.3815
 1485SOL    HW116088   3.229   1.944   7.371  0.1054 -0.9280 -1.4296
 1485SOL    HW216089   3.309   1.912   7.494  1.2790  0.9363  0.1402
 1486SOL     OW16090   4.440   3.242   6.344 -0.0570 -0.4770 -0.1774
 1486SOL    HW116091   4.410   3.185   6.274 -0.8106 -0.3913  0.0756
 1486SOL    HW216092   4.376   3.314   6.345 -0.0096 -0.4344 -0.2684
 1487SOL     OW16093   1.867   4.282   1.242 -0.4824 -0.4395 -1.0899
 1487SOL    HW116094   1.773   4.292   1.259 -0.3149 -0.1223 -0.3410
 1487SOL    HW216095   1.881   4.192   1.213 -4.3870 -1.4690  0.1379
 1488SOL     OW16096   1.978   0.285  16.560 -0.4277 -0.3298  0.4987
 1488SOL    HW116097   1.979   0.206  16.506 -1.1863  1.2120 -1.7744
 1488SOL    HW216098   2.071   0.307  16.569 -0.5943  1.1205 -1.2938
 1489SOL     OW16099   0.223   4.228   7.983  0.4201 -0.1073  0.1582
 1489SOL    HW116100   0.275   4.213   8.061  0.8754 -2.0569 -0.5168
 1489SOL    HW216101   0.264   4.311   7.956  1.0603 -0.2474  0.7193
 1490SOL     OW16102   4.586   1.493   9.786 -0.3975  0.1874  0.0052
 1490SOL    HW116103   4.592   1.475   9.693  3.2175  0.2962  0.2186
 1490SOL    HW216104   4.643   1.427   9.825 -0.7029  1.0260  1.8815
 1491SOL     OW16105   4.214   3.832   6.871  0.0125 -1.1117 -0.6110
 1491SOL    HW116106   4.133   3.881   6.855  1.5413  1.2479 -1.1548
 1491SOL    HW216107   4.178   3.745   6.854 -4.0458 -0.0475  2.6036
 1492SOL     OW16108   0.007   4.482   5.616  0.3797  0.3276 -0.1060
 1492SOL    HW116109   0.070   4.495   5.546  1.0737 -1.6726  0.1675
 1492SOL    HW216110   4.719   4.391   5.602 -0.7690  0.2754  2.2614
 1493SOL     OW16111   3.937   2.618   0.282  0.7738  0.3566  0.2487
 1493SOL    HW116112   3.938   2.709   0.310 -1.8931  0.5704 -0.3179
 1493SOL    HW216113   4.008   2.608   0.219  1.8244  1.5068  1.2633
 1494SOL     OW16114   3.744   2.845   2.587  0.4476  0.3049  0.3228
 1494SOL    HW116115   3.734   2.879   2.498  0.7273 -1.9302 -0.5756
 1494SOL    HW216116   3.769   2.927   2.630  1.3871  0.1344  0.1210
 1495SOL     OW16117   2.669   4.373  12.284 -0.2965  0.2509 -0.2411
 1495SOL    HW116118   2.763   4.357  12.288  0.0621  2.6734  1.4446
 1495SOL    HW216119   2.640   4.422  12.362  0.4765 -0.4999  0.5057
 1496SOL     OW16120   2.262   3.546   3.107  0.1949 -0.2750  0.7164
 1496SOL    HW116121   2.327   3.605   3.070  1.5293 -1.7574  0.6955
 1496SOL    HW216122   2.188   3.577   3.054  0.3712 -0.2398  0.4921
 1497SOL     OW16123   1.737   0.325   5.170  0.3819 -0.1861  0.3530
 1497SOL    HW116124   1.687   0.373   5.236  0.9212 -1.3991  1.6378
 1497SOL    HW216125   1.805   0.283   5.223  0.2644  0.3844  0.9666
 1498SOL     OW16126   0.947   0.854  14.962 -0.3263 -0.3641 -0.0653
 1498SOL    HW116127   0.995   0.923  14.917 -0.9939  1.0976  1.5012
 1498SOL    HW216128   0.994   0.781  14.921 -0.5419 -1.6128  1.9202
 1499SOL     OW16129   2.562   4.306  13.985 -0.5219  0.0772 -0.1966
 1499SOL    HW116130   2.645   4.347  14.008 -0.0482 -1.8367  1.6049
 1499SOL    HW216131   2.600   4.244  13.923 -1.6621 -0.6948 -0.1303
 1500SOL     OW16132   4.713   4.082   1.695  0.2521  0.0354  0.6363
 1500SOL    HW116133   0.007   4.067   1.606  0.3293 -1.8566  0.9936
 1500SOL    HW216134   0.010   4.170   1.713 -2.1010  0.6275  2.1069
 1501SOL     OW16135   4.186   0.743   2.412  0.0325  0.2811 -0.4908
 1501SOL    HW116136   4.189   0.785   2.327  0.7197  0.4844 -0.3656
 1501SOL    HW216137   4.115   0.681   2.393 -2.0607  1.6396  2.7314
 1502SOL     OW16138   2.459   3.233   5.131  0.7817  0.0233 -0.0811
 1502SOL    HW116139   2.490   3.324   5.128  1.1595 -0.1409 -1.4582
 1502SOL    HW216140   2.438   3.218   5.038 -0.5927  1.5599 -0.0366
 1503SOL     OW16141   0.680   4.199   4.581 -0.1651 -0.1873  0.6143
 1503SOL    HW116142   0.586   4.202   4.600 -0.1595  1.2944  0.3782
 1503SOL    HW216143   0.711   4.225   4.667  0.2248 -0.5720  0.5935
 1504SOL     OW16144   3.139   4.223  11.679 -0.5397  0.1113 -0.0530
 1504SOL    HW116145   3.100   4.226  11.591  0.7292  0.7988 -0.5899
 1504SOL    HW216146   3.058   4.195  11.723 -0.8447  4.4153  2.0878
 1505SOL     OW16147   4.372   2.201  11.018  0.4122  0.4386  0.4232
 1505SOL    HW116148   4.349   2.120  11.063 -0.3808  0.0241 -0.7152
 1505SOL    HW216149   4.324   2.194  10.935  2.0616 -2.3835 -0.2877
 1506SOL     OW16150   3.566   2.198   4.155 -0.4697  0.0203  0.2201
 1506SOL    HW116151   3.657   2.222   4.141 -0.8512  1.7999  0.8259
 1506SOL    HW216152   3.575   2.103   4.166  2.1147  0.0857 -1.3915
 1507SOL     OW16153   1.585   4.357   8.767  0.1652 -0.0556  0.2258
 1507SOL    HW116154   1.615   4.267   8.757 -1.5248 -0.4617 -1.1340
 1507SOL    HW216155   1.661   4.392   8.814  0.4420  0.6394 -0.7393
 1508SOL     OW16156   2.134   1.451   3.414  0.1477  0.0835 -0.0459
 1508SOL    HW116157   2.225   1.479   3.406 -0.4336  2.2246  0.8638
 1508SOL    HW216158   2.143   1.373   3.359 -1.7548 -0.3640  0.2488
 1509SOL     OW16159   3.167   0.381   7.516  0.0711  0.0117  0.0149
 1509SOL    HW116160   3.166   0.286   7.528  1.3190 -0.3294 -2.4024
 1509SOL    HW216161   3.262   0.393   7.521 -0.0558  0.0272  2.1122
 1510SOL     OW16162   1.343   4.344   2.933  0.5345  0.6057 -0.1610
 1510SOL    HW116163   1.249   4.350   2.950  0.3869  0.4604 -0.9340
 1510SOL    HW216164   1.348   4.297   2.850  0.8222 -1.5552  1.0591
 1511SOL     OW16165   2.536   2.189   4.926 -0.2531 -0.0898  0.0142
 1511SOL    HW116166   2.524   2.231   5.012  1.0088 -1.1010  0.6808
 1511SOL    HW216167   2.503   2.266   4.879 -0.1600  0.2876  0.5644
 1512SOL     OW16168   1.652   0.558   0.668 -0.6579 -0.2316 -0.2194
 1512SOL    HW116169   1.669   0.645   0.631  0.4276  0.1972  1.3261
 1512SOL    HW216170   1.570   0.538   0.622 -0.3343  0.1857 -0.9907
 1513SOL     OW16171   0.498   1.575  15.506 -0.4447  0.3453  0.4631
 1513SOL    HW116172   0.525   1.503  15.563 -0.7868 -0.8445 -0.8749
 1513SOL    HW216173   0.560   1.645  15.524  0.2622 -0.7925  2.4789
 1514SOL     OW16174   2.884   0.045   3.689 -0.0124 -0.4187 -0.4829
 1514SOL    HW116175   2.867   0.092   3.608 -0.3941 -0.1058 -0.2206
 1514SOL    HW216176   2.835   0.102   3.749  1.0858 -0.4301  0.4378
 1515SOL     OW16177   0.494   1.247   9.905 -0.6116  0.0453 -0.7350
 1515SOL    HW116178   0.515   1.271   9.995 -0.5826 -1.1774 -0.4222
 1515SOL    HW216179   0.476   1.332   9.865 -0.0970 -0.3792 -1.8457
 1516SOL     OW16180   4.317   4.483   9.194 -0.6687  0.0477  0.0745
 1516SOL    HW116181   4.400   4.444   9.164 -1.1516 -0.6809 -0.3263
 1516SOL    HW216182   4.333   4.530   9.275  1.1094  1.0106 -0.8298
 1517SOL     OW16183   0.601   2.872   5.586 -0.2567 -0.0308 -0.0730
 1517SOL    HW116184   0.635   2.925   5.659 -0.8922 -1.5726  1.3393
 1517SOL    HW216185   0.578   2.942   5.525  0.9486  0.3271 -0.1194
 1518SOL     OW16186   2.585   2.144   3.953 -0.3301  0.3791  0.0380
 1518SOL    HW116187   2.498   2.147   3.912 -0.1143  2.3466 -0.3102
 1518SOL    HW216188   2.588   2.230   3.994  3.3294  1.1394 -1.7753
 1519SOL     OW16189   1.586   2.934   5.399 -0.1877 -0.3356  1.0330
 1519SOL    HW116190   1.574   3.028   5.390  2.1944 -0.2259 -1.0885
 1519SOL    HW216191   1.556   2.916   5.488 -1.9590  1.5284  0.8055
 1520SOL     OW16192   3.441   0.852   0.188 -0.1307  0.1633  0.2911
 1520SOL    HW116193   3.357   0.807   0.179 -0.2962 -0.0913  2.9061
 1520SOL    HW216194   3.417   0.923   0.247  2.7349 -0.0472  1.7315
 1521SOL     OW16195   2.115   1.789   9.621 -0.2638 -0.4794  0.3264
 1521SOL    HW116196   2.067   1.840   9.555 -1.1703 -1.2725  0.3810
 1521SOL    HW216197   2.051   1.720   9.633 -1.1246  0.0964 -0.9028
 1522SOL     OW16198   2.631   1.704   7.993  0.3788  0.3320  0.2083
 1522SOL    HW116199   2.682   1.735   8.068 -1.5715  0.4492  1.4850
 1522SOL    HW216200   2.683   1.716   7.914 -1.4732  0.1246 -1.0366
 1523SOL     OW16201   2.297   2.578   2.608  0.4513  0.5979  0.3239
 1523SOL    HW116202   2.235   2.607   2.542 -0.5201 -1.3881  0.3546
 1523SOL    HW216203   2.362   2.533   2.553 -0.9042 -1.1337  0.1317
 1524SOL     OW16204   0.588   4.060   2.917 -0.0920  0.3617 -0.2762
 1524SOL    HW116205   0.569   3.990   2.854  0.7114 -1.0296  1.0243
 1524SOL    HW216206   0.588   4.018   3.003  0.4589  1.4815  0.2629
 1525SOL     OW16207   3.258   2.749   5.016 -0.5866  0.6612  0.4244
 1525SOL    HW116208   3.196   2.707   5.076  0.3466 -1.8756 -0.3661
 1525SOL    HW216209   3.222   2.837   5.003 -2.1772  0.0008  0.3976
 1526SOL     OW16210   0.188   3.851   8.172  0.0069  0.2203  0.3408
 1526SOL    HW116211   0.125   3.825   8.105 -0.0101 -0.5716  0.6624
 1526SOL    HW216212   0.154   3.936   8.200 -0.3505  0.2333 -0.1320
 1527SOL     OW16213   0.321   0.789  10.938 -0.4691 -0.0045 -0.1838
 1527SOL    HW116214   0.407   0.793  10.981 -0.1971  1.7191 -0.9139
 1527SOL    HW216215   0.293   0.699  10.955  1.9485 -0.7642 -0.1341
 1528SOL     OW16216   3.259   2.503   8.149  0.3469  0.4578 -0.3233
 1528SOL    HW116217   3.180   2.552   8.127  0.6058  0.2530 -1.7148
 1528SOL    HW216218   3.270   2.535   8.239 -1.5482  0.8571 -0.2405
 1529SOL     OW16219   4.549   2.130  17.131 -0.0310 -1.0062  0.5088
 1529SOL    HW116220   4.501   2.051  17.107  0.5841 -1.4652  0.7904
 1529SOL    HW216221   4.483   2.188  17.170 -1.2200 -1.6848 -0.4845
 1530SOL     OW16222   0.882   2.656   8.287  0.2741 -0.1509 -0.3533
 1530SOL    HW116223   0.863   2.562   8.284 -0.9641  0.0447  1.0065
 1530SOL    HW216224   0.976   2.646   8.272  0.5055 -0.0466  1.0521
 1531SOL     OW16225   3.856   4.116   8.216  0.2076  0.2175 -0.6119
 1531SOL    HW116226   3.782   4.124   8.156 -2.2689  1.9816  2.6452
 1531SOL    HW216227   3.848   4.192   8.274  1.6240  0.1623 -0.3551
 1532SOL     OW16228   2.417   3.744  16.368  0.6865  0.2737  0.1717
 1532SOL    HW116229   2.429   3.679  16.437  2.4481  0.1336 -0.2785
 1532SOL    HW216230   2.455   3.700  16.291  2.0061 -1.5576  1.8770
 1533SOL     OW16231   1.032   0.895   2.688 -0.1055 -0.9465  0.4026
 1533SOL    HW116232   0.999   0.870   2.602  1.2803 -2.1118  0.2104
 1533SOL    HW216233   0.947   0.926   2.720  0.6871  1.7323 -0.0960
 1534SOL     OW16234   1.683   1.180  10.377  0.4207 -0.0504 -0.3316
 1534SOL    HW116235   1.768   1.140  10.394  1.1070  2.1084  1.3541
 1534SOL    HW216236   1.716   1.252  10.323  0.3366 -1.8698 -2.7874
 1535SOL     OW16237   0.661   0.268   6.883 -0.3113  0.0032  0.4473
 1535SOL    HW116238   0.629   0.280   6.973 -1.2743 -0.4685  0.1626
 1535SOL    HW216239   0.664   0.173   6.883  1.5356  0.0606  0.7246
 1536SOL     OW16240   0.100   1.059  10.046  0.3064 -0.4946 -0.3111
 1536SOL    HW116241   0.110   0.998  10.119  0.0081  0.4813  0.5512
 1536SOL    HW216242   0.133   1.013   9.969 -0.8413 -2.2169  0.2259
 1537SOL     OW16243   3.878   4.313   5.678  0.1442  0.2158  0.3174
 1537SOL    HW116244   3.963   4.295   5.639 -1.1113 -0.8822 -1.9205
 1537SOL    HW216245   3.913   4.342   5.763 -1.1306 -1.0264  1.2789
 1538SOL     OW16246   2.742   3.388  12.886  0.0368 -0.2164 -0.3012
 1538SOL    HW116247   2.727   3.307  12.837  1.7280 -0.5589 -0.2514
 1538SOL    HW216248   2.800   3.439  12.829 -0.5632  0.6493 -0.1415
 1539SOL     OW16249   3.287   3.819   2.160 -1.0601  1.2654 -0.0816
 1539SOL    HW116250   3.216   3.761   2.187  0.6763 -1.6609 -1.9063
 1539SOL    HW216251   3.250   3.852   2.078 -0.5890  1.8722 -0.0560
 1540SOL     OW16252   1.701   0.862   8.908 -0.5384  0.7019 -0.5130
 1540SOL    HW116253   1.741   0.923   8.846 -0.1504  0.4727 -0.4853
 1540SOL    HW216254   1.717   0.903   8.993  2.5099 -0.8493 -0.3360
 1541SOL     OW16255   3.386   4.297  11.589  0.1109 -0.5381 -0.4707
 1541SOL    HW116256   3.364   4.267  11.501 -2.4377 -1.4736  0.4840
 1541SOL    HW216257   3.305   4.277  11.636 -2.0008  0.5558 -3.6414
 1542SOL     OW16258   1.704   4.626  13.549 -0.0737 -0.2093 -0.3683
 1542SOL    HW116259   1.619   4.619  13.505 -0.5592 -1.0630  0.7192
 1542SOL    HW216260   1.699   4.551  13.608  1.5696  0.1253  0.1922
 1543SOL     OW16261   4.221   4.433   2.437 -0.1417 -0.0193  0.6712
 1543SOL    HW116262   4.196   4.526   2.437 -0.4727 -0.1091 -0.3161
 1543SOL    HW216263   4.145   4.386   2.404 -0.2473  0.5473  0.0941
 1544SOL     OW16264   1.983   3.948  12.978  0.3452 -0.0060 -0.3237
 1544SOL    HW116265   1.920   3.887  13.017  1.0970  0.1258  1.1010
 1544SOL    HW216266   2.060   3.902  12.945  0.6504  0.5261 -0.3475
 1545SOL     OW16267   2.248   0.403   5.385  0.2623 -0.2996  0.4441
 1545SOL    HW116268   2.191   0.392   5.310  0.0273 -1.0481  0.7270
 1545SOL    HW216269   2.247   0.498   5.382 -1.6742 -0.3514 -0.3844
 1546SOL     OW16270   0.141   2.217   7.068  0.2317 -0.0530 -0.2121
 1546SOL    HW116271   0.157   2.226   7.162  0.7627 -3.6036  0.0396
 1546SOL    HW216272   0.167   2.125   7.059 -1.8061 -0.8645  2.3280
 1547SOL     OW16273   1.412   0.063   4.917 -0.8648  0.0929 -0.2244
 1547SOL    HW116274   1.508   0.072   4.917 -1.1490  2.9226 -0.0717
 1547SOL    HW216275   1.388   0.103   5.001 -0.0859  0.6482 -0.2652
 1548SOL     OW16276   0.409   0.346   8.564 -0.4984 -0.6616 -0.3292
 1548SOL    HW116277   0.393   0.291   8.641 -3.9856 -0.2991 -0.8153
 1548SOL    HW216278   0.322   0.337   8.526 -1.0569  0.7168  0.6528
 1549SOL     OW16279   1.346   4.317   5.007  0.1697  0.1794 -0.0373
 1549SOL    HW116280   1.374   4.394   4.957  0.1267  0.8523  0.9897
 1549SOL    HW216281   1.434   4.284   5.025  0.8008  0.3743 -2.7175
 1550SOL     OW16282   0.076   1.367  11.543  0.0992 -0.2779 -0.4327
 1550SOL    HW116283   0.086   1.275  11.570  2.6479  0.9556  2.7838
 1550SOL    HW216284   4.723   1.361  11.512  0.8218  1.2132 -2.8319
 1551SOL     OW16285   0.373   0.743  11.921  0.6277 -0.1379 -0.0748
 1551SOL    HW116286   0.435   0.687  11.968  0.6889 -2.7850 -3.2599
 1551SOL    HW216287   0.429   0.781  11.853 -1.4579  0.2819 -1.5536
 1552SOL     OW16288   1.828   2.471   1.837 -0.1077 -0.2088  0.0395
 1552SOL    HW116289   1.796   2.463   1.747  1.2424 -0.4600 -0.4129
 1552SOL    HW216290   1.923   2.462   1.831  0.0379  0.2521  1.8051
 1553SOL     OW16291   3.907   0.932  13.072  0.3512 -0.2720 -0.2791
 1553SOL    HW116292   3.996   0.966  13.081  0.3489 -0.4435  0.3323
 1553SOL    HW216293   3.912   0.855  13.128 -0.9191 -0.6102 -0.6183
 1554SOL     OW16294   3.119   3.467   6.014  0.8486 -0.3468  0.0893
 1554SOL    HW116295   3.134   3.465   5.919  0.6278 -0.6876  0.0620
 1554SOL    HW216296   3.047   3.528   6.028 -0.4117 -2.2664  2.0516
 1555SOL     OW16297   2.834   0.588   8.087  0.0403 -0.7074  0.0697
 1555SOL    HW116298   2.819   0.543   8.004 -0.3661  0.3712 -0.4531
 1555SOL    HW216299   2.917   0.553   8.117  0.2983 -2.1380 -2.2609
 1556SOL     OW16300   1.756   2.857   4.790 -0.2320 -0.0297  0.4443
 1556SOL    HW116301   1.678   2.859   4.734 -0.5739 -1.7511  0.8392
 1556SOL    HW216302   1.818   2.898   4.731  0.6518 -1.0524  0.6566
 1557SOL     OW16303   4.696   3.260   4.616  0.1344  0.1508 -0.4005
 1557SOL    HW116304   0.003   3.315   4.550  1.4435  2.1552  2.1663
 1557SOL    HW216305   4.619   3.312   4.636 -0.6431 -1.5313  0.9674
 1558SOL     OW16306   3.100   4.404  11.390 -0.0099  0.4418  0.6894
 1558SOL    HW116307   3.072   4.386  11.300  1.3815 -1.9388  0.7184
 1558SOL    HW216308   3.043   4.338  11.430 -0.4805  0.9762  0.8998
 1559SOL     OW16309   3.453   0.067   8.538  0.2195 -0.1327  0.2342
 1559SOL    HW116310   3.437   0.116   8.619 -1.6463  0.1910 -0.3355
 1559SOL    HW216311   3.532   0.118   8.514  0.4158  0.6425  2.5346
 1560SOL     OW16312   4.219   2.152   2.544 -0.1469  0.4269  0.1921
 1560SOL    HW116313   4.277   2.078   2.562  0.2171  0.6125 -0.2190
 1560SOL    HW216314   4.228   2.135   2.450 -0.1741 -1.5254  0.5497
 1561SOL     OW16315   1.597   3.674   9.127 -0.0208  0.3225 -0.3820
 1561SOL    HW116316   1.503   3.681   9.146  0.0096  0.7356 -0.3881
 1561SOL    HW216317   1.594   3.668   9.031 -1.1380  1.4071 -0.4170
 1562SOL     OW16318   3.414   4.426  17.187  0.2842 -0.1554 -0.1721
 1562SOL    HW116319   3.384   4.360  17.126 -1.2118  0.5527 -0.1902
 1562SOL    HW216320   3.446   4.492  17.125  1.0054  0.2379  0.6160
 1563SOL     OW16321   2.940   2.949   0.202  0.2264 -0.0578  0.1514
 1563SOL    HW116322   2.845   2.941   0.194 -0.0586  2.2530  1.1115
 1563SOL    HW216323   2.944   2.953   0.298  0.0201  1.4725  0.0970
 1564SOL     OW16324   0.678   2.290   3.616 -0.2384 -0.0471  0.0129
 1564SOL    HW116325   0.764   2.331   3.602  0.6180 -1.6682  0.4774
 1564SOL    HW216326   0.691   2.212   3.561 -1.7997 -1.2323  1.3409
 1565SOL     OW16327   1.053   0.771   8.314  0.2518  0.1517  0.0842
 1565SOL    HW116328   0.963   0.743   8.300 -0.2413  1.8374 -0.1888
 1565SOL    HW216329   1.081   0.714   8.244 -1.2948 -0.3909 -0.0859
 1566SOL     OW16330   4.309   4.541   8.670  0.1563  0.3425 -0.5694
 1566SOL    HW116331   4.316   4.482   8.595 -2.1834  0.0930 -0.5748
 1566SOL    HW216332   4.334   4.625   8.631  1.7726 -0.8607 -2.1267
 1567SOL     OW16333   4.258   4.049   7.921 -0.1445  0.0379  0.1441
 1567SOL    HW116334   4.219   4.132   7.947  1.4057  0.5461  0.8354
 1567SOL    HW216335   4.323   4.037   7.990 -1.4077  1.9134  1.6360
 1568SOL     OW16336   1.949   0.369   7.757 -0.3447  0.3198 -0.6956
 1568SOL    HW116337   1.906   0.413   7.831  0.7216  1.2840 -0.6498
 1568SOL    HW216338   1.954   0.275   7.776  0.2962  0.6168  0.6103
 1569SOL     OW16339   3.042   1.968   3.213 -0.4598 -0.2141 -0.3992
 1569SOL    HW116340   3.027   1.898   3.277 -2.6579  1.3562  0.7966
 1569SOL    HW216341   3.126   2.003   3.242 -0.0859  0.3973 -2.2080
 1570SOL     OW16342   0.383   1.816   5.187 -0.1786 -0.0044  0.0649
 1570SOL    HW116343   0.394   1.911   5.198 -0.2581 -0.2704  2.5257
 1570SOL    HW216344   0.435   1.777   5.257  1.5113  1.1661 -0.5510
 1571SOL     OW16345   2.073   0.976   4.829  0.2895 -0.0928 -0.1894
 1571SOL    HW116346   2.057   0.914   4.758 -0.2731 -0.2476  0.0706
 1571SOL    HW216347   1.986   1.005   4.856  0.5425 -1.1029  1.7669
 1572SOL     OW16348   1.920   0.184  14.457 -0.3612  0.6930  0.2575
 1572SOL    HW116349   1.909   0.136  14.539 -0.0772  0.8811  0.4049
 1572SOL    HW216350   1.986   0.248  14.483 -2.0693  3.1429 -1.4267
 1573SOL     OW16351   3.306   4.099  11.360 -0.4017  0.2223  0.8821
 1573SOL    HW116352   3.253   4.051  11.295  0.0829 -0.3884  0.9350
 1573SOL    HW216353   3.360   4.023  11.381  1.7333  1.2150 -0.9768
 1574SOL     OW16354   3.795   2.747   2.254 -0.0251  0.0644 -0.0249
 1574SOL    HW116355   3.821   2.665   2.296 -0.8884 -0.2365 -0.0717
 1574SOL    HW216356   3.724   2.712   2.200  0.8987  0.1745 -1.3030
 1575SOL     OW16357   2.696   3.633   6.277  0.1993 -0.1836 -0.7979
 1575SOL    HW116358   2.719   3.726   6.276 -0.3588 -0.0581 -1.5002
 1575SOL    HW216359   2.694   3.614   6.183 -0.6482 -2.5317 -0.3010
 1576SOL     OW16360   1.635   3.786  16.247  0.6723  0.3070 -0.1623
 1576SOL    HW116361   1.698   3.768  16.317  1.8066  1.1094 -0.9769
 1576SOL    HW216362   1.677   3.734  16.178  0.2392  1.9863 -1.6870
 1577SOL     OW16363   1.053   4.410  11.602  0.1504 -0.5152  0.0603
 1577SOL    HW116364   0.978   4.406  11.661  1.2788  0.5117  1.5718
 1577SOL    HW216365   1.087   4.321  11.592 -0.4053 -0.7673  0.4836
 1578SOL     OW16366   1.502   4.365  11.366 -0.3512 -0.2607  0.2323
 1578SOL    HW116367   1.496   4.335  11.275 -2.3743  0.9106 -0.0152
 1578SOL    HW216368   1.417   4.342  11.403 -1.1240 -0.2359 -1.5111
 1579SOL     OW16369   1.521   1.423  10.039 -0.3010  0.0423 -0.1087
 1579SOL    HW116370   1.605   1.416   9.993  0.1214 -0.5025  0.7509
 1579SOL    HW216371   1.490   1.335  10.017 -0.0384  0.5672 -2.6159
 1580SOL     OW16372   2.266   3.642   4.263  0.0580  0.2512 -0.2725
 1580SOL    HW116373   2.211   3.581   4.312 -0.8566  0.6851 -0.7445
 1580SOL    HW216374   2.204   3.702   4.222 -0.7876  0.4621  1.3152
 1581SOL     OW16375   1.973   1.990   1.459  0.1936 -0.0489  0.1653
 1581SOL    HW116376   2.027   2.048   1.405  0.4956 -1.0655 -0.6117
 1581SOL    HW216377   2.037   1.948   1.516 -0.2648 -1.9176 -0.7010
 1582SOL     OW16378   2.743   3.406  15.149  0.2027  0.2441  0.4541
 1582SOL    HW116379   2.723   3.409  15.056 -2.0318 -0.3611  0.8990
 1582SOL    HW216380   2.662   3.359  15.170  0.7538 -0.5937  0.7077
 1583SOL     OW16381   3.452   1.464  14.787  0.2689 -0.0984 -0.0719
 1583SOL    HW116382   3.407   1.446  14.705  0.6243  1.6771 -0.6482
 1583SOL    HW216383   3.389   1.509  14.844 -1.4049 -0.7652 -1.4175
 1584SOL     OW16384   3.029   1.219   1.416 -0.3217 -0.2877 -0.9809
 1584SOL    HW116385   2.959   1.246   1.357 -1.0118  0.0009 -0.0295
 1584SOL    HW216386   2.977   1.219   1.496  1.3847  0.3030  0.1425
 1585SOL     OW16387   1.060   1.775  10.655 -0.1301 -0.1956  0.1377
 1585SOL    HW116388   1.138   1.737  10.614 -0.2752 -1.6697  1.2481
 1585SOL    HW216389   1.087   1.762  10.746  0.2244  1.0221  0.2041
 1586SOL     OW16390   3.176   0.154   4.945  0.2670 -0.2492  0.6319
 1586SOL    HW116391   3.093   0.108   4.953  0.5020 -1.2418 -2.5995
 1586SOL    HW216392   3.156   0.243   4.974 -0.7822 -0.8079  1.6350
 1587SOL     OW16393   1.400   0.053   0.557  0.7220 -0.4778  0.3477
 1587SOL    HW116394   1.449   0.136   0.563  0.7221 -0.2952 -2.2151
 1587SOL    HW216395   1.441   0.005   0.629  0.9293  0.5644  0.9316
 1588SOL     OW16396   3.199   1.530   3.488 -0.0564 -0.1874 -0.0077
 1588SOL    HW116397   3.157   1.589   3.550 -2.1989 -0.5414 -1.1092
 1588SOL    HW216398   3.284   1.509   3.526  0.5893 -0.4360 -1.5612
 1589SOL     OW16399   0.234   1.649  16.250  0.2085 -0.6479 -0.1100
 1589SOL    HW116400   0.170   1.584  16.279 -0.3299 -0.5269 -1.0217
 1589SOL    HW216401   0.193   1.736  16.256  0.7198 -0.4964  1.1376
 1590SOL     OW16402   2.754   1.385   0.314  0.1134  0.2614  0.2263
 1590SOL    HW116403   2.827   1.354   0.261 -0.1590  1.4080 -0.8285
 1590SOL    HW216404   2.691   1.316   0.292  1.8405 -0.6995 -1.6912
 1591SOL     OW16405   4.428   3.726   5.235  0.5643 -0.2098  0.1050
 1591SOL    HW116406   4.509   3.681   5.256 -0.1861 -1.6121 -0.0367
 1591SOL    HW216407   4.377   3.651   5.205 -0.9604  0.8518 -0.0047
 1592SOL     OW16408   1.239   2.234   6.593 -0.1770 -0.3047  0.4403
 1592SOL    HW116409   1.327   2.217   6.558  0.4667 -0.1366  1.9967
 1592SOL    HW216410   1.238   2.322   6.555 -0.1556 -0.1069  0.9063
 1593SOL     OW16411   3.159   1.117   7.553 -0.8587 -0.2213  0.0794
 1593SOL    HW116412   3.221   1.113   7.627 -1.9569 -1.0556  0.9556
 1593SOL    HW216413   3.165   1.027   7.521  1.5997 -0.2014  0.4934
 1594SOL     OW16414   1.202   0.965   2.883  0.0386  0.3828 -0.4952
 1594SOL    HW116415   1.140   0.949   2.811 -0.9952  1.7098  0.0881
 1594SOL    HW216416   1.269   0.990   2.820  1.1808 -0.5248  0.3695
 1595SOL     OW16417   1.937   0.856  11.317  0.1350  0.2491  0.4301
 1595SOL    HW116418   1.886   0.935  11.335 -0.9485 -0.4515  0.4341
 1595SOL    HW216419   2.018   0.886  11.276 -0.0418  0.0888 -0.0354
 1596SOL     OW16420   4.082   1.230   3.082 -0.6644 -0.1703 -0.5514
 1596SOL    HW116421   4.104   1.323   3.082 -0.9752 -0.0840  1.1427
 1596SOL    HW216422   4.159   1.180   3.108 -2.0102 -2.3784 -0.7319
 1597SOL     OW16423   3.129   3.346  11.905  0.0529 -0.1296  0.4570
 1597SOL    HW116424   3.174   3.422  11.942  0.1881  1.1096 -2.2093
 1597SOL    HW216425   3.057   3.346  11.968 -0.7106  2.6312 -0.4317
 1598SOL     OW16426   1.617   2.864  16.975  0.3940 -0.1299  0.1674
 1598SOL    HW116427   1.665   2.900  17.050  0.3541  0.2436  0.0170
 1598SOL    HW216428   1.689   2.845  16.917 -1.4162  1.5780 -2.6539
 1599SOL     OW16429   4.592   1.919   5.591  0.1515 -0.4578  0.3996
 1599SOL    HW116430   4.570   1.964   5.672  2.7617  1.1866  0.2168
 1599SOL    HW216431   4.663   1.859   5.616  0.5431 -0.2277 -0.1509
 1600SOL     OW16432   3.617   2.528   9.121  0.3818 -0.0725  0.1574
 1600SOL    HW116433   3.608   2.515   9.216 -0.0718 -0.5533  0.0447
 1600SOL    HW216434   3.530   2.551   9.088  0.1652 -1.4907 -0.2527
 1601SOL     OW16435   3.362   1.431   5.363  0.1195 -0.6439 -0.2063
 1601SOL    HW116436   3.314   1.507   5.397  1.6701  0.6853 -1.0003
 1601SOL    HW216437   3.299   1.361   5.382 -0.2152 -0.0629  0.8552
 1602SOL     OW16438   4.594   1.483  14.689  0.2829 -0.2949  0.0193
 1602SOL    HW116439   4.528   1.413  14.691 -0.6938  0.6446  1.0320
 1602SOL    HW216440   4.634   1.461  14.605  2.6235  0.9550  0.8214
 1603SOL     OW16441   1.736   4.179   9.144 -0.5248  0.1802 -1.0815
 1603SOL    HW116442   1.795   4.232   9.090  1.8034  0.0954  1.3671
 1603SOL    HW216443   1.653   4.225   9.131 -0.2092  0.9986 -0.2346
 1604SOL     OW16444   0.269   3.988   7.796 -0.0290  0.2399 -0.4967
 1604SOL    HW116445   0.250   4.068   7.845  0.6507 -0.1707  0.4360
 1604SOL    HW216446   0.196   3.935   7.831 -0.0348  0.5404 -0.0480
 1605SOL     OW16447   1.972   3.313   2.462  0.1190 -0.0457  0.6361
 1605SOL    HW116448   1.899   3.255   2.483 -0.4093  0.8271  1.2169
 1605SOL    HW216449   2.045   3.280   2.514  0.5327 -0.8585 -0.4800
 1606SOL     OW16450   0.285   1.192   8.241 -0.2052  0.3157  0.1586
 1606SOL    HW116451   0.299   1.175   8.334 -0.4232 -1.8483 -0.2184
 1606SOL    HW216452   0.190   1.187   8.228 -0.6149  1.8360  2.5201
 1607SOL     OW16453   3.676   2.748  15.121  0.6324 -0.3273  0.1615
 1607SOL    HW116454   3.706   2.680  15.181  1.1839  1.0956  1.4971
 1607SOL    HW216455   3.585   2.721  15.112  0.7155  0.1539 -2.0714
 1608SOL     OW16456   2.425   0.415  16.167  0.4764  0.6938 -0.1250
 1608SOL    HW116457   2.333   0.406  16.191  0.1774 -0.1470 -1.5247
 1608SOL    HW216458   2.469   0.331  16.183 -0.5670  0.1544 -0.0478
 1609SOL     OW16459   1.962   4.271   6.498  0.5477 -0.4699  0.0439
 1609SOL    HW116460   2.021   4.312   6.561 -0.3040 -0.1513  0.6374
 1609SOL    HW216461   1.884   4.270   6.555  0.8447  0.4680  0.4579
 1610SOL     OW16462   3.997   4.626   9.236 -0.7476 -0.0294  0.4447
 1610SOL    HW116463   3.981   4.550   9.179 -2.9450 -0.1244  1.1634
 1610SOL    HW216464   4.045   4.592   9.311  1.4755 -0.1141 -1.0233
 1611SOL     OW16465   0.865   4.154   8.695  0.1784 -0.3726 -0.5848
 1611SOL    HW116466   0.869   4.249   8.693  0.5854 -0.3531  1.6346
 1611SOL    HW216467   0.925   4.132   8.766 -1.0141 -0.2393  0.4745
 1612SOL     OW16468   4.603   1.026   3.358  0.2868  0.4795 -0.3441
 1612SOL    HW116469   4.535   1.084   3.392 -0.5627 -0.9153  0.3274
 1612SOL    HW216470   4.650   1.083   3.298 -0.6058  2.4271  0.7988
 1613SOL     OW16471   3.219   0.949   4.305  0.4649  0.2371  0.6637
 1613SOL    HW116472   3.213   0.916   4.216  1.7575 -0.3810  0.8106
 1613SOL    HW216473   3.179   1.036   4.308 -0.4654 -0.2176  1.8271
 1614SOL     OW16474   3.683   2.571  16.174 -0.0685 -0.4752 -0.0720
 1614SOL    HW116475   3.633   2.651  16.161 -4.4627 -3.0780  0.6772
 1614SOL    HW216476   3.759   2.606  16.127 -1.6159  1.6079 -0.9946
 1615SOL     OW16477   4.584   1.108  15.186  0.4419  0.4787 -0.2717
 1615SOL    HW116478   4.672   1.125  15.219 -0.8494  3.9765  1.3697
 1615SOL    HW216479   4.580   1.186  15.132 -1.0890  2.6938  3.0629
 1616SOL     OW16480   4.322   3.761   2.619  0.3420  0.4040  0.7659
 1616SOL    HW116481   4.249   3.799   2.668 -2.2228 -0.2324 -2.5599
 1616SOL    HW216482   4.281   3.677   2.597  1.4973  0.0603 -0.0792
 1617SOL     OW16483   2.685   2.297   3.410  0.9049 -0.7580  0.1466
 1617SOL    HW116484   2.638   2.377   3.434  1.6152  0.3455 -2.1306
 1617SOL    HW216485   2.776   2.327   3.421  0.3716 -0.2616  3.0281
 1618SOL     OW16486   4.467   0.923   6.262 -0.2040 -0.0067  0.0966
 1618SOL    HW116487   4.542   0.893   6.312  0.5963  0.7701 -0.6214
 1618SOL    HW216488   4.410   0.972   6.321  1.2604  0.7972  0.8353
 1619SOL     OW16489   0.453   2.488  16.666  0.1985 -0.3151 -0.4164
 1619SOL    HW116490   0.447   2.446  16.752 -1.5926 -1.0229 -0.8977
 1619SOL    HW216491   0.548   2.500  16.667  0.1093  0.3250  0.0022
 1620SOL     OW16492   1.549   4.619   1.084  0.0197  0.3876 -0.3120
 1620SOL    HW116493   1.535   4.543   1.027 -0.9186  0.0133  0.4101
 1620SOL    HW216494   1.639   4.637   1.059  0.0064 -0.9459 -1.2976
 1621SOL     OW16495   2.634   1.868   3.405 -0.1138 -0.4966  0.1328
 1621SOL    HW116496   2.690   1.858   3.327 -0.8802  0.6285 -0.5717
 1621SOL    HW216497   2.694   1.911   3.465 -1.4340 -1.2358  1.9596
 1622SOL     OW16498   1.321   3.800   7.525 -0.0786 -0.0209  0.3867
 1622SOL    HW116499   1.279   3.757   7.600 -0.0213 -1.0076 -0.1485
 1622SOL    HW216500   1.328   3.887   7.565  1.0733 -0.2724  0.7476
 1623SOL     OW16501   4.684   2.615  13.122  0.0355 -0.4365 -1.0466
 1623SOL    HW116502   4.638   2.550  13.069  0.7460 -1.2662 -0.6507
 1623SOL    HW216503   4.637   2.692  13.090  1.4487  1.2710  1.0152
 1624SOL     OW16504   3.275   2.388  13.269  0.0528  0.4058  0.2083
 1624SOL    HW116505   3.202   2.397  13.331  0.6143 -2.8189  1.3495
 1624SOL    HW216506   3.234   2.351  13.191  0.1582 -3.2624  1.8700
 1625SOL     OW16507   0.515   0.206   4.545  0.1264  0.2691  0.3921
 1625SOL    HW116508   0.466   0.265   4.487  0.3041 -1.4903 -1.5313
 1625SOL    HW216509   0.467   0.212   4.627 -1.3080  0.7166 -0.4623
 1626SOL     OW16510   1.509   1.843   5.326  0.5926 -0.4583 -0.4695
 1626SOL    HW116511   1.571   1.911   5.353  0.5600 -0.2085 -1.0242
 1626SOL    HW216512   1.537   1.777   5.390 -0.0775  0.0882  0.3801
 1627SOL     OW16513   1.333   2.639   0.445 -0.2063 -0.3424  0.4339
 1627SOL    HW116514   1.317   2.733   0.443 -1.5029 -0.5806 -0.8141
 1627SOL    HW216515   1.400   2.626   0.378  0.6551  1.5321  0.9446
 1628SOL     OW16516   0.119   0.886   1.911 -0.6477 -0.1772  0.3073
 1628SOL    HW116517   0.098   0.909   2.001 -2.0839  1.2752 -0.4006
 1628SOL    HW216518   0.188   0.820   1.924 -0.6698 -0.1628  0.4923
 1629SOL     OW16519   3.482   3.491  16.094  0.3275  0.0900  0.0247
 1629SOL    HW116520   3.391   3.521  16.096  0.2482 -0.2121  1.0888
 1629SOL    HW216521   3.515   3.555  16.031 -1.1773 -0.2289 -1.0725
 1630SOL     OW16522   2.009   0.132   6.316 -0.0150  0.2862  0.4757
 1630SOL    HW116523   2.000   0.037   6.313  1.9825  0.0502  1.8645
 1630SOL    HW216524   1.943   0.167   6.256  0.0907  0.2597  0.3442
 1631SOL     OW16525   2.981   1.234   8.307 -0.0016  0.4721  0.7610
 1631SOL    HW116526   3.050   1.270   8.251 -0.9019  0.2528 -0.4923
 1631SOL    HW216527   2.909   1.230   8.244  0.4483 -0.1648  0.2856
 1632SOL     OW16528   2.848   0.166   4.541 -0.0817 -0.2463  0.0902
 1632SOL    HW116529   2.912   0.097   4.526  0.5348  0.0104  1.5178
 1632SOL    HW216530   2.815   0.142   4.628  0.6508  0.2617  0.5062
 1633SOL     OW16531   2.276   3.491   5.750 -0.7023 -0.0372 -0.1612
 1633SOL    HW116532   2.339   3.433   5.706  0.8423  0.2882  1.6207
 1633SOL    HW216533   2.297   3.482   5.843 -2.1497 -3.8555 -0.1851
 1634SOL     OW16534   0.245   3.538   2.508  0.1787 -0.6544 -0.4102
 1634SOL    HW116535   0.237   3.597   2.433  0.0820  1.5424  1.3304
 1634SOL    HW216536   0.174   3.567   2.566  0.0098  0.7268 -1.3131
 1635SOL     OW16537   0.486   4.442   5.890  0.1615 -0.0644  0.1452
 1635SOL    HW116538   0.517   4.400   5.810 -1.9925 -0.2732 -0.5741
 1635SOL    HW216539   0.515   4.378   5.955  1.2799  1.7098  1.4312
 1636SOL     OW16540   0.964   3.668   4.329  0.1488  0.1566 -0.0559
 1636SOL    HW116541   1.009   3.588   4.356  2.5484  0.7130 -2.4162
 1636SOL    HW216542   1.036   3.699   4.274  0.7559 -3.7202 -1.4620
 1637SOL     OW16543   0.283   2.877   6.119  0.4554 -0.4681 -0.0344
 1637SOL    HW116544   0.335   2.827   6.182  2.3561  0.2875 -1.0158
 1637SOL    HW216545   0.334   2.873   6.038 -1.4729 -1.4798 -1.2001
 1638SOL     OW16546   3.228   2.000   4.982  0.1972  0.4997  0.2912
 1638SOL    HW116547   3.276   1.928   5.024 -2.3920 -0.4123  1.6935
 1638SOL    HW216548   3.149   1.952   4.957  0.3320 -0.7084  2.1357
 1639SOL     OW16549   4.536   3.680  17.690 -1.1100 -0.3007  0.3643
 1639SOL    HW116550   4.599   3.698   0.014 -0.2953 -1.1919 -0.1440
 1639SOL    HW216551   4.558   3.594  17.655  1.0927  0.2258  0.4854
 1640SOL     OW16552   3.881   1.328   6.538 -0.4104 -0.2040  0.0660
 1640SOL    HW116553   3.829   1.404   6.566 -2.0819 -1.2351 -0.2928
 1640SOL    HW216554   3.892   1.292   6.626 -0.1385  3.8966  1.7110
 1641SOL     OW16555   4.274   2.153   2.887 -0.6659  0.4786 -0.1055
 1641SOL    HW116556   4.236   2.078   2.931 -1.1518  1.3689  1.0000
 1641SOL    HW216557   4.351   2.117   2.842 -1.2189  0.5103 -1.0653
 1642SOL     OW16558   2.206   0.885   5.615  0.1382  0.0600  0.3171
 1642SOL    HW116559   2.121   0.877   5.658  0.8930  0.2647  1.8641
 1642SOL    HW216560   2.252   0.854   5.693  0.6784 -0.9647 -0.4061
 1643SOL     OW16561   3.208   0.966   9.178 -0.4819  0.3736  0.6866
 1643SOL    HW116562   3.132   0.978   9.122  0.8086  2.7942 -0.5213
 1643SOL    HW216563   3.272   0.939   9.113 -1.0558 -2.8364  1.4513
 1644SOL     OW16564   3.768   0.012  12.998  0.0467 -0.5744  0.2249
 1644SOL    HW116565   3.675   0.034  13.003  0.1364 -0.1539  0.1052
 1644SOL    HW216566   3.788   0.052  12.913  0.3463 -0.5680  0.2987
 1645SOL     OW16567   3.705   0.990   5.784  0.1390  0.1161 -0.1477
 1645SOL    HW116568   3.794   0.979   5.816  0.1812 -1.0680 -0.6972
 1645SOL    HW216569   3.655   0.971   5.863 -2.6242  0.3511 -1.8423
 1646SOL     OW16570   3.869   1.915  13.375 -0.7294 -0.0120 -0.0543
 1646SOL    HW116571   3.858   1.932  13.468  2.4458 -2.6027  0.7986
 1646SOL    HW216572   3.799   1.851  13.361 -0.1452  0.1988 -3.9061
 1647SOL     OW16573   3.424   0.555   5.050  0.1665 -0.3276 -0.2941
 1647SOL    HW116574   3.403   0.608   5.126  2.1687  0.9555 -0.6574
 1647SOL    HW216575   3.476   0.622   5.007  1.9484 -0.6046  1.4334
 1648SOL     OW16576   3.213   3.753   6.342 -0.3463 -0.0688  0.1887
 1648SOL    HW116577   3.265   3.724   6.267  0.2399  0.9025  0.2236
 1648SOL    HW216578   3.204   3.847   6.326  0.0244  0.1848  1.4852
 1649SOL     OW16579   2.419   3.931   9.142  0.4217 -0.5846  0.0103
 1649SOL    HW116580   2.465   4.016   9.144  1.7574 -1.3262  0.9723
 1649SOL    HW216581   2.378   3.919   9.228 -0.0498  1.0828  0.0216
 1650SOL     OW16582   0.760   1.173   7.040  0.2335 -0.0572  0.0124
 1650SOL    HW116583   0.844   1.176   6.994 -0.6741  1.3430 -1.5813
 1650SOL    HW216584   0.755   1.078   7.046 -2.4506  0.0697 -0.1858
 1651SOL     OW16585   0.024   1.262   1.175 -0.0243 -0.5651  0.4941
 1651SOL    HW116586   0.044   1.301   1.260 -1.4436  0.6568  0.2739
 1651SOL    HW216587   4.683   1.314   1.157 -0.8362 -2.4208 -1.3391
 1652SOL     OW16588   1.028   1.460  10.126  1.1763 -0.0106  0.3817
 1652SOL    HW116589   1.048   1.372  10.159 -1.0771 -0.4263  0.6306
 1652SOL    HW216590   1.097   1.517  10.161  2.6719 -0.8651 -1.1278
 1653SOL     OW16591   2.137   3.396   3.294  0.5947 -0.4126  0.3448
 1653SOL    HW116592   2.070   3.384   3.227  1.8005 -0.2330 -0.8792
 1653SOL    HW216593   2.177   3.472   3.251 -0.4840 -0.0043  0.0562
 1654SOL     OW16594   0.463   4.589   2.707  0.0023 -0.4188  0.2235
 1654SOL    HW116595   0.461   4.682   2.683  1.4721 -1.6108 -4.5388
 1654SOL    HW216596   0.369   4.575   2.719  0.1984 -2.4444 -0.5551
 1655SOL     OW16597   2.101   3.201   6.119 -0.2329 -0.1384  0.6312
 1655SOL    HW116598   2.150   3.272   6.160 -0.0964 -0.1193  0.4366
 1655SOL    HW216599   2.010   3.232   6.117  0.4915  1.8991 -0.6100
 1656SOL     OW16600   0.614   4.463   7.032 -0.1836  0.1692  0.0263
 1656SOL    HW116601   0.520   4.466   7.053 -0.0206 -1.4906  1.0173
 1656SOL    HW216602   0.654   4.413   7.103  3.0708 -0.1412 -2.0445
 1657SOL     OW16603   3.600   4.582  10.828 -0.2340 -0.3190 -0.9401
 1657SOL    HW116604   3.554   4.563  10.910  1.1750 -2.0356 -0.5568
 1657SOL    HW216605   3.595   4.501  10.776 -0.6456 -0.5106 -0.5973
 1658SOL     OW16606   3.981   4.129   1.691 -0.5465  0.6574 -0.2519
 1658SOL    HW116607   3.935   4.073   1.752  1.6556  0.1454  0.9431
 1658SOL    HW216608   4.048   4.064   1.668  0.1138  1.4882 -0.6835
 1659SOL     OW16609   2.237   2.839   5.720 -0.5449  0.3337 -0.0870
 1659SOL    HW116610   2.300   2.778   5.757  0.3259  0.8568 -0.6860
 1659SOL    HW216611   2.155   2.827   5.768 -0.0643 -0.3286  0.5632
 1660SOL     OW16612   3.275   4.278  14.476 -0.6158 -0.6894 -0.2949
 1660SOL    HW116613   3.243   4.249  14.561 -2.2578  1.6333 -0.1134
 1660SOL    HW216614   3.306   4.196  14.438 -1.8216 -1.2946  0.0128
 1661SOL     OW16615   0.717   2.840   3.080  0.2671  0.4462 -0.7337
 1661SOL    HW116616   0.624   2.862   3.086  0.5128  1.5668 -0.9764
 1661SOL    HW216617   0.746   2.874   3.164 -1.5032  3.6354 -1.3984
 1662SOL     OW16618   2.685   3.558  13.084 -0.4697 -0.1558 -0.0869
 1662SOL    HW116619   2.720   3.501  13.016  0.3335  0.5125 -0.2393
 1662SOL    HW216620   2.756   3.622  13.082 -1.4955  0.9980 -0.1894
 1663SOL     OW16621   3.279   2.708   6.827  0.2667 -0.4331 -0.6859
 1663SOL    HW116622   3.215   2.750   6.884  0.5581 -1.2355  0.2260
 1663SOL    HW216623   3.275   2.618   6.859 -0.4810 -0.4400 -0.8136
 1664SOL     OW16624   1.799   0.170   6.561 -0.5238  0.3944 -0.1646
 1664SOL    HW116625   1.758   0.098   6.513 -2.8030  0.9046  1.0488
 1664SOL    HW216626   1.891   0.150   6.543 -1.1170 -1.8079 -0.7083
 1665SOL     OW16627   0.050   4.545  11.468 -0.2901 -0.0809  0.1925
 1665SOL    HW116628   0.007   4.591  11.541  0.4163  0.3478  0.3370
 1665SOL    HW216629   0.125   4.499  11.507 -0.5078 -0.2072  0.4657
 1666SOL     OW16630   3.912   1.971   9.298  0.1482  0.1848 -0.7364
 1666SOL    HW116631   3.947   1.982   9.386 -1.7473 -2.4157  0.3370
 1666SOL    HW216632   3.952   2.044   9.252 -0.0832  1.8708  1.7439
 1667SOL     OW16633   1.059   1.957   5.583  0.3424 -0.0673 -0.5155
 1667SOL    HW116634   1.074   2.027   5.646 -0.5866  0.1146 -0.4938
 1667SOL    HW216635   1.039   2.014   5.508 -0.6665 -2.7968 -2.3374
 1668SOL     OW16636   0.139   2.650   5.418 -0.4302 -0.1156  0.4693
 1668SOL    HW116637   0.166   2.614   5.502 -0.1064 -3.3865 -1.0537
 1668SOL    HW216638   0.223   2.688   5.392 -1.1434 -0.6951 -2.7123
 1669SOL     OW16639   4.122   2.479  11.073  0.5591 -0.4695  0.4538
 1669SOL    HW116640   4.214   2.488  11.098  0.6036 -1.1548  0.5398
 1669SOL    HW216641   4.117   2.383  11.077  1.5860 -0.6191 -1.8366
 1670SOL     OW16642   1.437   2.325   5.664 -0.1846 -0.2316  0.4768
 1670SOL    HW116643   1.413   2.266   5.593 -1.2983  0.0847  0.5916
 1670SOL    HW216644   1.384   2.401   5.642 -1.1980 -0.6487  1.4497
 1671SOL     OW16645   3.384   4.562  14.817  0.3364 -0.3229  0.0672
 1671SOL    HW116646   3.469   4.564  14.860 -1.9664 -0.6041  4.6490
 1671SOL    HW216647   3.358   4.654  14.822  3.0678  0.4426 -0.1793
 1672SOL     OW16648   1.054   0.238   1.321  0.0820 -0.4589  0.0377
 1672SOL    HW116649   1.073   0.164   1.264  1.5741 -0.4189  0.4743
 1672SOL    HW216650   1.066   0.186   1.401 -0.8123 -2.0837 -0.8897
 1673SOL     OW16651   1.527   3.256   5.135 -0.0702 -0.0298 -0.0193
 1673SOL    HW116652   1.509   3.329   5.075 -0.4423  0.4527  0.6828
 1673SOL    HW216653   1.540   3.181   5.078  0.7938  0.6708 -0.7454
 1674SOL     OW16654   0.172   0.876   9.850  0.1509 -0.5484 -0.1365
 1674SOL    HW116655   0.217   0.824   9.917 -2.5679 -3.0573 -0.2352
 1674SOL    HW216656   0.208   0.843   9.768  0.5242  3.3224 -1.5228
 1675SOL     OW16657   4.197   2.463   2.713 -0.4163  0.0778 -0.6723
 1675SOL    HW116658   4.134   2.404   2.755  0.1361  0.1899  0.3309
 1675SOL    HW216659   4.266   2.398   2.706 -1.4144 -0.9042 -1.4011
 1676SOL     OW16660   0.457   2.578   4.263 -0.6248 -0.1830  0.0821
 1676SOL    HW116661   0.476   2.484   4.268  0.1192 -0.0128  0.3387
 1676SOL    HW216662   0.403   2.585   4.342  1.1202 -0.9634  1.3275
 1677SOL     OW16663   1.258   2.885   9.512 -1.1473  0.2666 -0.6074
 1677SOL    HW116664   1.255   2.929   9.427 -1.5651  2.0443  0.3429
 1677SOL    HW216665   1.172   2.905   9.549 -0.4236  2.6442 -0.2663
 1678SOL     OW16666   4.118   4.720   4.944 -0.4153  0.2885  0.1284
 1678SOL    HW116667   4.181   0.022   4.884 -0.6675  0.0125 -0.3155
 1678SOL    HW216668   4.133   0.031   5.025  1.0252 -1.3431  0.8212
 1679SOL     OW16669   4.544   4.475   8.265  0.0658 -0.1825 -0.4064
 1679SOL    HW116670   4.516   4.464   8.355  0.3326  1.2474 -0.1478
 1679SOL    HW216671   4.463   4.473   8.214  0.8488 -0.9075 -1.6191
 1680SOL     OW16672   3.980   1.002   5.885 -0.2161  0.1835 -0.0052
 1680SOL    HW116673   4.075   0.993   5.888 -0.1826  0.7914  0.9406
 1680SOL    HW216674   3.977   1.067   5.955  0.5086 -0.6732  0.8223
 1681SOL     OW16675   1.370   2.023   5.945  0.2449  0.2194  0.4291
 1681SOL    HW116676   1.294   2.004   6.001  1.5706  0.2526  2.2585
 1681SOL    HW216677   1.338   2.062   5.864 -0.2185 -3.5504 -1.1832
 1682SOL     OW16678   1.758   2.433  12.550  0.6426 -0.4798  0.1287
 1682SOL    HW116679   1.718   2.365  12.496 -0.6441 -0.0769  0.5694
 1682SOL    HW216680   1.844   2.400  12.574  1.7933  0.9065 -2.1122
 1683SOL     OW16681   3.700   0.910   2.902  0.1167 -0.4070 -0.2923
 1683SOL    HW116682   3.783   0.868   2.878  0.6679 -0.0705  1.0328
 1683SOL    HW216683   3.639   0.849   2.860 -0.6103  0.1072  0.0295
 1684SOL     OW16684   1.221   3.678   4.204 -0.2829 -0.6078  0.2313
 1684SOL    HW116685   1.261   3.701   4.120 -2.8682  0.3222 -0.7574
 1684SOL    HW216686   1.261   3.593   4.226 -1.4606 -1.2836 -0.2592
 1685SOL     OW16687   1.542   0.513   8.315 -0.1204 -0.3672 -0.0202
 1685SOL    HW116688   1.477   0.467   8.368  3.3194 -2.9228  2.0358
 1685SOL    HW216689   1.587   0.438   8.275  0.3712  0.4623 -1.0093
 1686SOL     OW16690   4.655   3.166   7.576 -0.1025  0.2990  0.4803
 1686SOL    HW116691   4.628   3.183   7.666  0.5536  0.7155  0.5965
 1686SOL    HW216692   4.644   3.250   7.532 -0.5624  0.6070  1.1877
 1687SOL     OW16693   4.491   3.745   1.844 -0.1331  0.6436 -0.3029
 1687SOL    HW116694   4.465   3.788   1.762 -0.8948  1.0299  0.1412
 1687SOL    HW216695   4.420   3.684   1.864  0.0913  1.0308  1.6972
 1688SOL     OW16696   1.372   0.182   7.151  0.6109 -0.1153  0.1541
 1688SOL    HW116697   1.450   0.157   7.102  0.7349 -1.3406  0.9682
 1688SOL    HW216698   1.299   0.160   7.093 -0.4719  1.2082  1.0295
 1689SOL     OW16699   3.818   2.714   4.891 -0.4340  0.1973  0.3174
 1689SOL    HW116700   3.751   2.775   4.862  0.2978  0.9273  0.1650
 1689SOL    HW216701   3.788   2.675   4.974  1.0899 -0.3895  0.6068
 1690SOL     OW16702   3.168   0.207   1.515  0.0670  0.4436 -0.2210
 1690SOL    HW116703   3.142   0.213   1.607  0.6750 -0.0940 -0.0136
 1690SOL    HW216704   3.188   0.114   1.502 -0.5646  0.5492 -1.9171
 1691SOL     OW16705   3.652   0.457   8.786  0.5826 -0.1182 -0.3993
 1691SOL    HW116706   3.640   0.545   8.822  1.9044 -0.7209  1.5138
 1691SOL    HW216707   3.560   0.428   8.786  0.7317 -0.6145 -1.6253
 1692SOL     OW16708   2.251   2.689  17.739 -0.4878 -0.0687  0.7119
 1692SOL    HW116709   2.287   2.605   0.022 -0.3627 -0.8128 -1.6346
 1692SOL    HW216710   2.294   2.687  17.654 -0.1504  0.6547  0.8663
 1693SOL     OW16711   1.043   3.164  12.942  0.2424 -0.2822  0.0610
 1693SOL    HW116712   1.057   3.178  12.848 -1.8948  0.0693 -0.1984
 1693SOL    HW216713   0.960   3.116  12.939 -0.2436  0.5862 -0.2887
 1694SOL     OW16714   2.723   1.608   1.926  0.1175  0.2046  0.8214
 1694SOL    HW116715   2.705   1.690   1.881  0.9008 -0.1681 -0.1766
 1694SOL    HW216716   2.789   1.645   1.985 -0.9543  2.4895  0.5910
 1695SOL     OW16717   2.001   0.882   8.778  0.0158  0.1380 -0.0047
 1695SOL    HW116718   1.999   0.878   8.683  0.4813 -2.3425  0.0750
 1695SOL    HW216719   2.047   0.965   8.784  1.4294 -0.5585 -1.3016
 1696SOL     OW16720   2.925   2.730   5.743 -0.2668 -0.2854 -0.3856
 1696SOL    HW116721   2.965   2.744   5.829  0.9404 -1.3880 -0.7569
 1696SOL    HW216722   2.857   2.664   5.757 -1.7998  1.3745 -0.0037
 1697SOL     OW16723   0.976   2.960   9.507  0.1794  0.2363 -0.3102
 1697SOL    HW116724   0.896   2.952   9.455  0.2862 -2.1696 -0.1341
 1697SOL    HW216725   1.024   2.878   9.491  1.3439  1.3560 -2.5016
 1698SOL     OW16726   3.774   4.158   3.263  0.7095  0.9747  0.3994
 1698SOL    HW116727   3.737   4.133   3.178  0.1954  1.6166  0.4328
 1698SOL    HW216728   3.794   4.250   3.248  2.8925  0.0937 -2.1969
 1699SOL     OW16729   3.897   4.730   0.384 -0.0180  0.1169 -0.0817
 1699SOL    HW116730   3.896   4.728   0.479  1.4692  0.2475 -0.0669
 1699SOL    HW216731   3.963   4.662   0.370  0.5333  0.5942  0.2145
 1700SOL     OW16732   0.446   0.856  10.465  0.3304 -0.8180 -0.0965
 1700SOL    HW116733   0.399   0.773  10.470 -0.0212 -0.4152  2.8668
 1700SOL    HW216734   0.392   0.913  10.519 -2.1607 -3.1449 -0.1608
 1701SOL     OW16735   4.058   3.079   8.859 -0.3104 -0.1569  0.3178
 1701SOL    HW116736   4.106   3.013   8.909  0.5233  1.2700  1.4094
 1701SOL    HW216737   4.112   3.089   8.781 -0.9957  0.7073 -0.0484
 1702SOL     OW16738   3.804   1.637   9.310 -0.1365  0.1252 -0.6326
 1702SOL    HW116739   3.753   1.709   9.346 -4.1565 -1.6500 -2.8180
 1702SOL    HW216740   3.834   1.589   9.388  1.2906 -0.2437 -1.3959
 1703SOL     OW16741   0.692   1.948   5.330 -0.0439  0.2037  0.3786
 1703SOL    HW116742   0.646   2.028   5.306 -0.6290 -0.1232  0.3981
 1703SOL    HW216743   0.758   1.942   5.261 -0.0506  1.1821  0.2893
 1704SOL     OW16744   3.852   3.427   3.750  0.2441  0.5715  0.0866
 1704SOL    HW116745   3.926   3.380   3.713  0.7170  1.3986 -0.0186
 1704SOL    HW216746   3.824   3.379   3.829  1.1424 -1.8357 -1.0589
 1705SOL     OW16747   2.149   2.099   3.311  0.3156  0.1257  0.0193
 1705SOL    HW116748   2.084   2.036   3.281  0.3296 -1.0700  2.4952
 1705SOL    HW216749   2.236   2.062   3.301  0.6518  0.7244  0.6794
 1706SOL     OW16750   3.521   3.363  13.257  0.1839  0.2495 -0.1597
 1706SOL    HW116751   3.534   3.424  13.329 -0.1279 -1.3383  1.2423
 1706SOL    HW216752   3.430   3.345  13.284 -0.4937  1.2770 -1.7463
 1707SOL     OW16753   3.830   4.384  15.329 -0.2802 -0.0660  0.3124
 1707SOL    HW116754   3.922   4.382  15.303 -0.8751 -1.1188 -1.6683
 1707SOL    HW216755   3.818   4.291  15.314  1.6998 -0.7760  2.8958
 1708SOL     OW16756   3.050   2.327   6.864  0.0617  0.3023  0.3242
 1708SOL    HW116757   3.093   2.331   6.949 -1.5463 -0.8488  1.1808
 1708SOL    HW216758   3.122   2.336   6.802 -0.8199 -1.6765 -0.9954
 1709SOL     OW16759   0.302   3.430  16.562 -0.5634 -0.2010 -0.2260
 1709SOL    HW116760   0.209   3.454  16.564 -0.9887 -1.7411 -1.4521
 1709SOL    HW216761   0.342   3.512  16.590  0.3424 -0.3927 -0.9445
 1710SOL     OW16762   3.371   3.788  16.903 -0.3424  0.5135 -0.2466
 1710SOL    HW116763   3.460   3.757  16.919 -0.8618 -2.2928 -2.7831
 1710SOL    HW216764   3.344   3.792  16.995 -0.5846  0.5583 -0.3186
 1711SOL     OW16765   2.193   4.573   4.742  0.4921  0.0239  0.1755
 1711SOL    HW116766   2.225   4.624   4.668  0.5935  0.5509  0.5845
 1711SOL    HW216767   2.148   4.502   4.696  0.0847  2.6717 -3.4875
 1712SOL     OW16768   2.517   3.800   2.660 -0.3130  0.4018  0.4570
 1712SOL    HW116769   2.576   3.845   2.720 -0.7863 -0.4518  1.5604
 1712SOL    HW216770   2.433   3.783   2.704 -1.7113  0.9223 -1.9809
 1713SOL     OW16771   3.804   3.568   4.796  0.0843 -0.2549 -0.1959
 1713SOL    HW116772   3.838   3.654   4.770  1.8479 -0.8140  0.2598
 1713SOL    HW216773   3.830   3.573   4.888  2.0246 -1.5093 -0.6833
 1714SOL     OW16774   2.686   1.218   5.406  0.3942  0.4924 -0.3281
 1714SOL    HW116775   2.593   1.238   5.413  0.5228  0.9338  0.0986
 1714SOL    HW216776   2.713   1.254   5.322  1.4539 -2.1507 -1.1321
 1715SOL     OW16777   2.154   1.294   8.034  0.4426 -0.0616  0.5499
 1715SOL    HW116778   2.241   1.269   8.004 -0.3674 -0.6594 -1.2905
 1715SOL    HW216779   2.183   1.368   8.088 -0.2221  0.3359  0.3711
 1716SOL     OW16780   0.331   1.008   7.688  0.2569 -0.4543 -0.6209
 1716SOL    HW116781   0.327   1.009   7.784  1.4808  3.1384 -0.5997
 1716SOL    HW216782   0.238   1.016   7.665  0.2276  1.1284  0.0485
 1717SOL     OW16783   1.064   0.749   7.884  0.4666 -0.5517  0.6499
 1717SOL    HW116784   1.034   0.836   7.910  2.9075 -0.2452  2.4661
 1717SOL    HW216785   0.994   0.724   7.824 -0.6301  1.7350  0.9950
 1718SOL     OW16786   4.081   1.054   5.586 -0.2401  0.0802  0.8063
 1718SOL    HW116787   4.005   1.016   5.541  0.0930 -1.2507  1.3772
 1718SOL    HW216788   4.046   1.056   5.675 -0.5969 -0.8358  0.6821
 1719SOL     OW16789   1.351   2.707   4.314 -0.3423 -0.1672 -0.2718
 1719SOL    HW116790   1.332   2.620   4.350 -1.3198 -0.5549 -1.6984
 1719SOL    HW216791   1.378   2.671   4.230  0.0875 -0.9014  0.1789
 1720SOL     OW16792   2.010   0.102   8.294 -0.3942 -0.3855 -0.5774
 1720SOL    HW116793   2.070   0.176   8.303 -2.2157  0.9147  0.6298
 1720SOL    HW216794   2.036   0.041   8.363  1.9833  2.5623  1.1423
 1721SOL     OW16795   4.277   2.122  12.430  0.1014  0.0779  0.3101
 1721SOL    HW116796   4.217   2.080  12.492 -0.1085 -0.0008  0.0588
 1721SOL    HW216797   4.220   2.124  12.352  0.3577 -1.9564  0.0545
 1722SOL     OW16798   4.261   1.784   6.172 -0.0837 -0.1990  0.4742
 1722SOL    HW116799   4.180   1.741   6.198  0.3922 -1.6637 -0.4622
 1722SOL    HW216800   4.331   1.731   6.211  0.5220  0.5989  0.4708
 1723SOL     OW16801   2.056   2.681   2.500  0.0413  0.3876  0.1236
 1723SOL    HW116802   1.985   2.633   2.541 -1.7212  2.5375 -0.3888
 1723SOL    HW216803   2.065   2.761   2.552 -1.2562  0.7436 -0.1910
 1724SOL     OW16804   1.946   1.572  14.028 -0.6163  0.1914  0.0834
 1724SOL    HW116805   1.906   1.501  14.077 -0.0297  2.9375  4.5800
 1724SOL    HW216806   1.940   1.639  14.096  0.0498 -0.6287  0.9486
 1725SOL     OW16807   4.416   1.555   8.507  0.4229  0.7133 -0.0218
 1725SOL    HW116808   4.409   1.494   8.581  0.5682 -1.0140 -1.4315
 1725SOL    HW216809   4.417   1.638   8.554 -1.7933  0.8852 -0.2659
 1726SOL     OW16810   1.216   1.752   1.113 -0.3203 -0.1132  0.3872
 1726SOL    HW116811   1.158   1.807   1.165  0.9782 -0.0796  1.7896
 1726SOL    HW216812   1.262   1.695   1.175  0.0675 -1.1999 -0.8968
 1727SOL     OW16813   4.158   3.586   0.729 -0.3581  0.1307 -0.4964
 1727SOL    HW116814   4.166   3.640   0.808 -0.3571  1.5017 -1.4448
 1727SOL    HW216815   4.096   3.641   0.682 -0.1180  0.6086 -0.2563
 1728SOL     OW16816   3.827   1.475   9.809 -0.5570 -0.0619 -0.1548
 1728SOL    HW116817   3.761   1.415   9.775 -3.8531  3.8520 -0.7083
 1728SOL    HW216818   3.913   1.441   9.785  0.0402  0.3045  1.4422
 1729SOL     OW16819   2.184   0.771   6.190 -0.1331 -0.0005 -0.2874
 1729SOL    HW116820   2.251   0.703   6.195 -0.4401 -0.4090 -1.9237
 1729SOL    HW216821   2.144   0.758   6.276  1.9319 -2.4039  0.2899
 1730SOL     OW16822   0.226   0.440   3.264  0.0982 -0.0810 -0.2553
 1730SOL    HW116823   0.201   0.348   3.256  1.0124 -0.3101 -0.6129
 1730SOL    HW216824   0.266   0.462   3.179 -0.3181 -2.5972 -1.1031
 1731SOL     OW16825   4.531   2.111   5.793  0.4592  0.2864 -0.3396
 1731SOL    HW116826   4.558   2.195   5.758 -1.1228  1.7658  2.0188
 1731SOL    HW216827   4.451   2.096   5.742  0.0467 -1.8535  0.9310
 1732SOL     OW16828   3.361   2.787  12.071 -0.5283  0.6335  0.0432
 1732SOL    HW116829   3.291   2.756  12.014 -0.6436  2.3662 -0.7782
 1732SOL    HW216830   3.440   2.779  12.019 -0.9911 -0.5388 -0.4751
 1733SOL     OW16831   1.066   0.055   5.443  0.1987  0.3009 -0.1094
 1733SOL    HW116832   1.113   0.123   5.395  0.4419 -1.1494 -1.9252
 1733SOL    HW216833   1.122   0.042   5.519 -2.2718  0.5352  1.7824
 1734SOL     OW16834   1.578   4.332   1.275  0.5711  0.1247 -0.0000
 1734SOL    HW116835   1.511   4.292   1.331 -0.4896  2.1664  0.1896
 1734SOL    HW216836   1.569   4.426   1.293  2.6774  0.7668 -2.2189
 1735SOL     OW16837   2.640   0.396  14.855  0.3692  0.0204  0.2652
 1735SOL    HW116838   2.548   0.390  14.827  0.8093 -0.2859 -1.1159
 1735SOL    HW216839   2.638   0.470  14.916 -0.7323  0.0706  0.1796
 1736SOL     OW16840   1.121   1.446  15.003  0.0745  0.2478 -0.3544
 1736SOL    HW116841   1.154   1.369  15.050 -1.7312  0.2265  0.8691
 1736SOL    HW216842   1.059   1.491  15.060 -0.6490 -1.3902  0.1379
 1737SOL     OW16843   0.170   4.315   1.529 -0.6525  0.2831 -0.2885
 1737SOL    HW116844   0.254   4.272   1.549 -1.7218 -2.3678 -1.4795
 1737SOL    HW216845   0.155   4.364   1.610  0.4107  0.8174 -0.4052
 1738SOL     OW16846   0.437   1.332  12.789 -0.1656  0.2855  0.1209
 1738SOL    HW116847   0.426   1.391  12.714 -0.7877  0.5341  0.4041
 1738SOL    HW216848   0.513   1.373  12.830  0.7086  0.5819 -1.8279
 1739SOL     OW16849   1.310   2.250   3.609  0.5204  0.1628  0.1345
 1739SOL    HW116850   1.261   2.318   3.656  2.3975  0.1422  2.1067
 1739SOL    HW216851   1.398   2.281   3.628  0.5267 -1.1511  2.3013
 1740SOL     OW16852   3.914   3.345   4.147  0.6986 -0.3880  0.2145
 1740SOL    HW116853   3.880   3.377   4.231  0.9473  0.4413 -0.0033
 1740SOL    HW216854   3.842   3.351   4.085 -0.7228  0.3036  1.9324
 1741SOL     OW16855   0.546   2.085  10.991 -0.5400  0.6047 -0.1941
 1741SOL    HW116856   0.497   2.026  11.048 -0.4958  0.1716 -0.6011
 1741SOL    HW216857   0.507   2.070  10.905  1.2662  0.7478 -1.0256
 1742SOL     OW16858   3.222   3.063  16.531 -0.3713 -0.3762 -0.1208
 1742SOL    HW116859   3.222   3.050  16.436  3.7713 -0.4550 -0.0926
 1742SOL    HW216860   3.302   3.112  16.548 -0.3562 -0.3447 -0.2825
 1743SOL     OW16861   1.056   1.051  11.801  0.7148 -0.2161  1.0951
 1743SOL    HW116862   1.034   1.121  11.863  1.2417  1.2827 -0.4026
 1743SOL    HW216863   1.040   1.100  11.721  0.0376 -1.5362  0.4223
 1744SOL     OW16864   3.728   0.052   3.085 -0.3782 -0.5816  0.2822
 1744SOL    HW116865   3.816   0.087   3.070 -1.3858  0.9300 -2.1651
 1744SOL    HW216866   3.729   0.054   3.181  3.3839  0.2693  0.2377
 1745SOL     OW16867   4.335   3.748  11.745 -0.3761 -0.3603  0.0253
 1745SOL    HW116868   4.285   3.808  11.690 -0.0177  0.5934  0.7280
 1745SOL    HW216869   4.323   3.790  11.831  0.4587 -0.0384 -0.0107
 1746SOL     OW16870   3.162   3.307  11.383 -0.5552  0.6500  0.2860
 1746SOL    HW116871   3.120   3.338  11.463  0.5698 -0.3241  1.2361
 1746SOL    HW216872   3.214   3.231  11.408 -2.1974 -0.2699  0.8743
 1747SOL     OW16873   3.378   4.419   4.438  0.0145  0.0361 -0.7305
 1747SOL    HW116874   3.383   4.345   4.377  0.9249  1.9315 -2.9891
 1747SOL    HW216875   3.393   4.380   4.524  2.3790  3.3962  0.3903
 1748SOL     OW16876   4.614   1.911  14.856  0.3144  0.7330  0.6886
 1748SOL    HW116877   4.623   1.966  14.778  1.6712 -1.5663 -0.7754
 1748SOL    HW216878   4.685   1.946  14.910  0.5528  0.1275  0.7640
 1749SOL     OW16879   0.084   3.434   4.404  0.1375  0.5863 -0.0353
 1749SOL    HW116880   0.065   3.416   4.312 -1.4900  0.4792  0.3155
 1749SOL    HW216881   0.050   3.524   4.405  1.9324  1.2770 -0.7337
 1750SOL     OW16882   2.810   2.024   7.141  0.1992 -0.0601  0.3691
 1750SOL    HW116883   2.762   1.981   7.070  0.9534  0.1608 -0.2755
 1750SOL    HW216884   2.793   1.962   7.212  1.3360  1.3769  1.8991
 1751SOL     OW16885   2.784   1.119  14.697 -0.6839  0.1401  0.7484
 1751SOL    HW116886   2.841   1.150  14.627 -0.1236 -0.8529  0.7643
 1751SOL    HW216887   2.841   1.136  14.772 -1.2079 -0.1549  1.2135
 1752SOL     OW16888   3.223   3.079   4.192 -0.6268  0.1676 -0.5314
 1752SOL    HW116889   3.187   3.163   4.164  0.9364  1.4010  1.1442
 1752SOL    HW216890   3.308   3.057   4.155 -0.5797 -1.2736  0.4417
 1753SOL     OW16891   3.978   0.133   3.070  0.1690  0.1244 -0.0813
 1753SOL    HW116892   4.000   0.051   3.026  0.3218  1.0073 -1.6333
 1753SOL    HW216893   4.053   0.138   3.129 -0.0197  1.1673  0.0747
 1754SOL     OW16894   2.599   4.512  16.517 -0.2935  0.2783 -0.5642
 1754SOL    HW116895   2.650   4.460  16.454  2.4950  4.4527 -1.7680
 1754SOL    HW216896   2.524   4.529  16.461 -0.4082  0.3453 -0.3878
 1755SOL     OW16897   2.442   2.841   7.249  0.1814 -0.4740 -0.2133
 1755SOL    HW116898   2.526   2.872   7.283 -0.8920  1.6543  0.4913
 1755SOL    HW216899   2.389   2.912   7.286 -1.1726 -1.0222 -1.0946
 1756SOL     OW16900   2.017   4.587   7.172  0.3455  0.3235 -0.0632
 1756SOL    HW116901   1.967   4.651   7.121  0.0421  0.4780  0.4289
 1756SOL    HW216902   2.106   4.622   7.172 -0.1784  1.6645 -0.6539
 1757SOL     OW16903   1.262   3.294   3.060  0.3316 -0.1346 -0.2714
 1757SOL    HW116904   1.309   3.374   3.038  1.0805  0.1779  2.4929
 1757SOL    HW216905   1.224   3.262   2.978  0.8856 -1.4539 -0.0029
 1758SOL     OW16906   4.348   2.710  12.909 -0.6163 -0.5277  0.2116
 1758SOL    HW116907   4.261   2.729  12.943 -0.2345 -1.7251  1.8432
 1758SOL    HW216908   4.314   2.679  12.825 -1.8455  0.0665  0.4920
 1759SOL     OW16909   3.345   0.689   9.182 -0.1447 -0.1950  0.5461
 1759SOL    HW116910   3.335   0.733   9.098 -2.9602  0.2140  1.0860
 1759SOL    HW216911   3.420   0.732   9.223  1.1086 -1.6592 -0.2154
 1760SOL     OW16912   2.765   4.598   3.339  0.0172  1.0372 -0.5596
 1760SOL    HW116913   2.823   4.636   3.273  1.5446  0.4503  0.4653
 1760SOL    HW216914   2.725   4.521   3.299  0.3382  0.6946 -0.2101
 1761SOL     OW16915   3.496   1.528   4.618 -0.0710 -0.4513 -0.4696
 1761SOL    HW116916   3.562   1.595   4.600  1.7413 -2.5168 -1.3339
 1761SOL    HW216917   3.536   1.461   4.564  4.3737  1.4018  0.5230
 1762SOL     OW16918   0.732   0.529   6.837  0.4041 -0.1783  0.6881
 1762SOL    HW116919   0.825   0.549   6.851  0.5109  0.2835 -0.6505
 1762SOL    HW216920   0.735   0.433   6.839 -2.0946 -0.2430  0.7020
 1763SOL     OW16921   3.797   2.481  17.664  0.1672 -0.2066 -0.0728
 1763SOL    HW116922   3.724   2.461  17.605 -0.7275  0.8402  0.6775
 1763SOL    HW216923   3.858   2.408  17.652  0.0079 -0.3295 -0.1241
 1764SOL     OW16924   3.165   0.888   6.350 -0.6000  0.6362 -0.3845
 1764SOL    HW116925   3.258   0.867   6.346 -0.4838  1.8600 -4.0959
 1764SOL    HW216926   3.132   0.854   6.267 -1.8987  0.8051  0.0672
 1765SOL     OW16927   0.238   1.159   7.197 -0.1937 -0.2070 -0.0343
 1765SOL    HW116928   0.288   1.132   7.120  1.5334 -0.9777  1.3400
 1765SOL    HW216929   0.168   1.094   7.206 -0.8624  0.6908  1.2440
 1766SOL     OW16930   4.694   1.253   2.147  0.1054 -0.3683  0.0360
 1766SOL    HW116931   0.036   1.308   2.149 -0.0909 -0.2351  3.2369
 1766SOL    HW216932   4.717   1.198   2.072  2.6635  0.2672  0.3474
 1767SOL     OW16933   0.063   4.538   7.214 -0.0491  0.2292 -0.1250
 1767SOL    HW116934   4.722   4.497   7.251 -0.1640 -2.0183 -2.8887
 1767SOL    HW216935   0.115   4.459   7.228 -0.5820 -0.3446 -1.4495
 1768SOL     OW16936   2.880   1.485   6.239 -0.3200  0.5317 -0.0945
 1768SOL    HW116937   2.932   1.554   6.280  0.1661 -1.6422  2.8777
 1768SOL    HW216938   2.939   1.414   6.215  1.5019  2.1554 -0.3999
 1769SOL     OW16939   2.197   2.794   8.233 -0.4091  0.2066  0.1089
 1769SOL    HW116940   2.222   2.871   8.182 -1.7360 -0.3682 -1.4062
 1769SOL    HW216941   2.247   2.726   8.188 -3.5714 -2.5210  0.7643
 1770SOL     OW16942   0.573   0.323   3.303 -0.7702  0.3550 -0.2224
 1770SOL    HW116943   0.646   0.380   3.279  0.8942 -1.4354  0.5784
 1770SOL    HW216944   0.545   0.305   3.213  1.4741 -2.2482 -0.4125
 1771SOL     OW16945   4.243   3.111   8.659  0.2234 -0.1265 -0.1863
 1771SOL    HW116946   4.333   3.086   8.675  0.3975 -0.4345 -1.6507
 1771SOL    HW216947   4.223   3.071   8.574 -0.4581 -1.0793  0.4322
 1772SOL     OW16948   0.737   1.008   1.990 -0.3812  0.4832  0.1165
 1772SOL    HW116949   0.687   0.939   2.034  0.2297 -1.1894 -1.8035
 1772SOL    HW216950   0.706   1.088   2.033 -2.7836 -1.2665  1.6737
 1773SOL     OW16951   0.792   3.649   3.494  0.3925 -0.3603  0.0470
 1773SOL    HW116952   0.751   3.580   3.545  1.6515 -0.6838  0.6162
 1773SOL    HW216953   0.746   3.623   3.414 -1.7772 -0.5893  1.3640
 1774SOL     OW16954   4.705   3.163   5.569  0.9652 -0.2047  0.4146
 1774SOL    HW116955   4.646   3.154   5.644  0.8491  1.7793  0.5697
 1774SOL    HW216956   0.053   3.181   5.609  1.1154 -1.4504  0.6426
 1775SOL     OW16957   4.500   0.732   8.840  0.1793  0.0067  1.0327
 1775SOL    HW116958   4.568   0.714   8.904  2.0202  0.6222 -0.7495
 1775SOL    HW216959   4.502   0.828   8.837 -1.2164 -0.0100 -0.6306
 1776SOL     OW16960   0.482   3.719   6.930  0.2241 -0.1797 -0.1987
 1776SOL    HW116961   0.475   3.651   6.997 -1.6643  1.0975  0.8850
 1776SOL    HW216962   0.417   3.785   6.955  3.2502  2.0236  1.6715
 1777SOL     OW16963   0.122   2.418   0.653 -0.5611  0.4772 -0.6349
 1777SOL    HW116964   0.110   2.326   0.675 -0.4668  0.4789 -0.5767
 1777SOL    HW216965   0.215   2.438   0.642 -0.9070  1.5677 -1.5243
 1778SOL     OW16966   1.356   0.808  14.454 -0.1457  0.0769 -0.0330
 1778SOL    HW116967   1.287   0.752  14.489 -1.4695  3.0668  2.0892
 1778SOL    HW216968   1.429   0.794  14.515  0.7749 -0.0004 -1.1481
 1779SOL     OW16969   0.009   3.928   4.368  0.1398 -0.6293  0.5899
 1779SOL    HW116970   4.699   3.985   4.307  0.0418 -1.7080 -0.3310
 1779SOL    HW216971   0.090   3.979   4.372  0.7977 -1.6184 -0.3901
 1780SOL     OW16972   2.975   3.363  15.288  0.2592  0.1057 -0.3836
 1780SOL    HW116973   2.887   3.370  15.253  0.2734 -1.8154 -0.8062
 1780SOL    HW216974   2.976   3.443  15.342 -1.2645 -0.7674  0.9417
 1781SOL     OW16975   1.460   0.684  16.832  0.8204  0.0274 -0.1065
 1781SOL    HW116976   1.445   0.778  16.819 -0.1525  0.0917  1.3945
 1781SOL    HW216977   1.376   0.645  16.857  1.0410 -0.1854  0.2881
 1782SOL     OW16978   1.076   4.491   1.101  0.6926  0.0929  0.0673
 1782SOL    HW116979   1.076   4.459   1.011 -2.9099 -1.2989  0.5790
 1782SOL    HW216980   1.153   4.448   1.139 -1.2421 -2.2430  1.3213
 1783SOL     OW16981   1.339   3.081   7.141  0.3577 -0.4580  0.5778
 1783SOL    HW116982   1.249   3.111   7.155  0.3083 -0.0958 -0.5343
 1783SOL    HW216983   1.387   3.158   7.113  1.6430 -1.1732  0.8308
 1784SOL     OW16984   4.718   1.647   4.015 -0.8614  0.1259  0.5769
 1784SOL    HW116985   4.677   1.562   4.031  0.0933 -0.4940 -0.2348
 1784SOL    HW216986   0.002   1.660   3.922 -2.8545 -0.0621  0.0901
 1785SOL     OW16987   0.655   1.094   3.880 -0.3405  0.4117  0.2249
 1785SOL    HW116988   0.589   1.030   3.906  2.8104 -3.0696 -0.4194
 1785SOL    HW216989   0.607   1.169   3.844 -0.9195  0.6009  1.3843
 1786SOL     OW16990   2.241   4.511   1.604  0.0167  0.1955  0.2586
 1786SOL    HW116991   2.147   4.503   1.592 -0.1777  2.6875  0.0640
 1786SOL    HW216992   2.253   4.581   1.539 -1.4974  0.6332  0.4688
 1787SOL     OW16993   4.038   2.035   9.521 -0.6218  0.5650  0.5061
 1787SOL    HW116994   4.102   2.083   9.468 -2.4070  0.1801 -1.9914
 1787SOL    HW216995   4.084   1.995   9.595  0.1551  1.1090  0.3197
 1788SOL     OW16996   0.176   4.735   1.233 -0.4600  0.1619  0.2896
 1788SOL    HW116997   0.248   4.715   1.174 -0.9702  0.8859 -0.5730
 1788SOL    HW216998   0.152   4.655   1.279  1.2264 -0.1214  0.6812
 1789SOL     OW16999   1.266   1.430   5.562  0.2281 -0.0505  0.0911
 1789SOL    HW117000   1.236   1.521   5.556 -0.1933 -0.0702  1.8210
 1789SOL    HW217001   1.179   1.390   5.549 -0.1937  1.1127 -0.6014
 1790SOL     OW17002   4.073   4.268   3.965 -0.1176 -0.1418 -0.4278
 1790SOL    HW117003   4.071   4.361   3.941  1.0224  0.1405  0.5703
 1790SOL    HW217004   4.005   4.234   3.907 -0.8808 -0.6115  0.7325
 1791SOL     OW17005   1.952   1.381   0.187 -0.5180 -0.2303  0.4437
 1791SOL    HW117006   2.027   1.328   0.159 -0.7970 -1.1273  1.3965
 1791SOL    HW217007   1.972   1.391   0.280  0.9761  0.0709  0.0886
 1792SOL     OW17008   4.017   1.342   8.514 -0.1856  0.0821 -0.0925
 1792SOL    HW117009   3.988   1.289   8.439  0.7391 -0.5419 -0.0195
 1792SOL    HW217010   4.105   1.363   8.484  0.5147 -2.0006  0.4552
 1793SOL     OW17011   1.950   3.258   4.377  0.7271 -0.3818  0.3078
 1793SOL    HW117012   1.881   3.192   4.387 -2.6129  3.4032  2.4717
 1793SOL    HW217013   1.960   3.257   4.282  2.8721 -2.5071  0.5680
 1794SOL     OW17014   0.244   3.951   3.270 -0.0974 -0.1330  0.5407
 1794SOL    HW117015   0.332   3.941   3.234 -0.4445  0.1555 -0.3994
 1794SOL    HW217016   0.200   3.874   3.232 -1.1838  0.1905  1.1341
 1795SOL     OW17017   0.279   0.084   9.154 -0.0187  0.0635 -0.5575
 1795SOL    HW117018   0.267   0.177   9.172 -0.9943 -0.4977  1.8562
 1795SOL    HW217019   0.372   0.077   9.173 -0.1383 -0.3824 -0.1334
 1796SOL     OW17020   0.290   2.913   3.756  0.4651 -0.2718 -0.8216
 1796SOL    HW117021   0.215   2.853   3.757 -0.2076  0.6339  1.6338
 1796SOL    HW217022   0.283   2.941   3.847  0.8999 -0.5514 -0.7039
 1797SOL     OW17023   3.589   2.718   2.061  0.1592 -0.1417  0.2748
 1797SOL    HW117024   3.522   2.667   2.015 -0.8835  1.6992 -0.2290
 1797SOL    HW217025   3.562   2.810   2.058 -0.8783 -0.5019 -1.2048
 1798SOL     OW17026   3.842   4.437   2.927  0.0865  0.2420  0.2594
 1798SOL    HW117027   3.805   4.442   3.015 -0.0326  1.5111  0.1373
 1798SOL    HW217028   3.766   4.471   2.879  0.4961 -2.1098 -2.0741
 1799SOL     OW17029   0.300   3.062   7.549  0.7309 -0.0500 -0.2325
 1799SOL    HW117030   0.234   3.035   7.486  0.6941 -2.1971  0.7436
 1799SOL    HW217031   0.255   3.103   7.623  0.8246  1.3849 -0.9767
 1800SOL     OW17032   0.534   1.896   3.289  0.0075 -0.3165  0.3617
 1800SOL    HW117033   0.529   1.905   3.194 -1.9815  0.3504  0.5324
 1800SOL    HW217034   0.551   1.805   3.316  0.5524 -0.2096  0.3876
 1801SOL     OW17035   0.101   3.538   2.962 -0.0680 -0.4988  0.4593
 1801SOL    HW117036   0.109   3.596   2.886 -1.7438  1.2815  1.6311
 1801SOL    HW217037   0.162   3.473   2.927 -0.6813 -1.1323  0.5668
 1802SOL     OW17038   4.207   1.125   0.077 -0.4450  0.3090  0.3367
 1802SOL    HW117039   4.126   1.089   0.042  0.1109 -0.1990 -0.4230
 1802SOL    HW217040   4.269   1.072   0.028 -2.2146 -0.1764 -1.3787
 1803SOL     OW17041   2.525   4.664  17.279 -0.0605  0.8249 -0.3293
 1803SOL    HW117042   2.481   4.594  17.327  1.2277 -1.2088 -2.1254
 1803SOL    HW217043   2.568   4.723  17.341  2.1916 -1.6135  0.4605
 1804SOL     OW17044   3.323   0.072   3.263  0.0710  0.2793  0.1575
 1804SOL    HW117045   3.327   0.111   3.351 -0.4607 -1.0062  0.7545
 1804SOL    HW217046   3.247   0.015   3.274  0.7940 -0.7655 -0.3368
 1805SOL     OW17047   0.940   4.111  10.504  0.2519  0.1812 -0.6048
 1805SOL    HW117048   1.006   4.041  10.496 -1.8163 -1.8769  0.4544
 1805SOL    HW217049   0.895   4.098  10.421 -1.6586 -0.8559  0.5910
 1806SOL     OW17050   3.821   3.698   2.821  0.1269 -0.2058  1.2642
 1806SOL    HW117051   3.792   3.628   2.762  2.3260 -1.4581  1.6482
 1806SOL    HW217052   3.846   3.773   2.767 -1.2145 -1.3680 -0.9984
 1807SOL     OW17053   2.800   1.600   5.992 -0.2206 -0.6879  0.3527
 1807SOL    HW117054   2.819   1.517   6.036 -0.7282 -0.2264  1.4242
 1807SOL    HW217055   2.708   1.585   5.969 -0.6728 -1.5821  2.7965
 1808SOL     OW17056   2.196   2.934   2.660 -0.5328  0.4305  0.0353
 1808SOL    HW117057   2.258   2.914   2.731  1.6811 -1.1153 -2.3593
 1808SOL    HW217058   2.244   2.922   2.579  2.6054  0.7628  1.8373
 1809SOL     OW17059   3.365   0.937   5.667  0.2237 -0.1385  0.5267
 1809SOL    HW117060   3.313   0.923   5.588  0.8167  1.1591 -0.0762
 1809SOL    HW217061   3.389   0.847   5.693 -0.2246 -0.7221 -1.1112
 1810SOL     OW17062   2.548   2.344   8.367 -0.3642  0.1050  0.3941
 1810SOL    HW117063   2.492   2.321   8.293  1.3083 -1.4886 -0.3680
 1810SOL    HW217064   2.521   2.277   8.429  0.6951 -0.0917  0.6451
 1811SOL     OW17065   3.834   1.095   7.790  0.4959  0.0753  0.3802
 1811SOL    HW117066   3.741   1.112   7.776  0.8039  0.9564 -0.5557
 1811SOL    HW217067   3.862   1.163   7.852  0.8285  0.4645 -0.2062
 1812SOL     OW17068   1.397   4.134  13.464 -0.6479 -0.1067  0.5289
 1812SOL    HW117069   1.431   4.220  13.442 -1.5444 -0.2342 -1.3605
 1812SOL    HW217070   1.405   4.077  13.387  0.2869 -0.2783  0.7477
 1813SOL     OW17071   4.316   3.712   2.311 -0.2105 -0.1429  0.3892
 1813SOL    HW117072   4.313   3.768   2.234  0.1700 -2.8069 -1.5741
 1813SOL    HW217073   4.333   3.786   2.370  0.5880 -0.9528  1.1826
 1814SOL     OW17074   4.412   2.874   3.569  0.0047 -0.1522  0.1847
 1814SOL    HW117075   4.401   2.954   3.518 -0.8495  0.2681  1.0602
 1814SOL    HW217076   4.474   2.823   3.516 -0.9718  0.0250 -1.1418
 1815SOL     OW17077   2.845   0.580   7.149 -0.0113  0.2044 -0.5771
 1815SOL    HW117078   2.830   0.524   7.225 -0.3257 -0.0705 -0.8361
 1815SOL    HW217079   2.817   0.525   7.075 -1.8679  0.2695  0.0715
 1816SOL     OW17080   2.831   3.654   8.738  0.5153  0.4897  0.0825
 1816SOL    HW117081   2.920   3.649   8.704  0.0257 -1.6347 -0.8695
 1816SOL    HW217082   2.844   3.624   8.828  0.3016  1.6496  0.5024
 1817SOL     OW17083   3.185   4.294   8.401 -0.2600  0.1283 -0.0523
 1817SOL    HW117084   3.151   4.356   8.465 -0.3512  0.5940 -0.5483
 1817SOL    HW217085   3.278   4.290   8.426 -0.1142  1.5430 -0.3147
 1818SOL     OW17086   3.816   2.218   5.859 -0.2023  0.5028 -0.1713
 1818SOL    HW117087   3.888   2.162   5.829 -0.4144 -0.8559  1.8620
 1818SOL    HW217088   3.862   2.251   5.936 -1.1049 -0.5404  0.8026
 1819SOL     OW17089   2.955   4.702   7.404  0.3108  0.1728  0.3026
 1819SOL    HW117090   2.949   4.622   7.351  0.1230  1.1217 -1.1249
 1819SOL    HW217091   3.001   0.017   7.338  0.4273  2.2473  2.0496
 1820SOL     OW17092   4.499   0.559  10.589  0.0637 -0.4477 -0.2643
 1820SOL    HW117093   4.522   0.466  10.597  1.8525  0.2605  2.7610
 1820SOL    HW217094   4.430   0.565  10.654  0.0830 -0.8487 -0.2031
 1821SOL     OW17095   4.236   3.085   5.124  0.3807 -0.5691 -0.0132
 1821SOL    HW117096   4.318   3.119   5.086 -0.5068  1.7198  0.1113
 1821SOL    HW217097   4.256   3.091   5.217  1.1972 -1.4776 -0.1347
 1822SOL     OW17098   0.730   1.043   6.603 -0.5128  0.0643 -0.7934
 1822SOL    HW117099   0.814   1.015   6.566 -0.0398 -1.3856  1.3200
 1822SOL    HW217100   0.724   1.132   6.570 -1.1495  0.3346  0.0673
 1823SOL     OW17101   4.241   0.619  14.242  0.0921 -0.5488 -0.3147
 1823SOL    HW117102   4.255   0.713  14.248  0.6432 -0.7111  0.9074
 1823SOL    HW217103   4.263   0.589  14.331  0.5900  1.5349  0.2532
 1824SOL     OW17104   4.091   3.507  15.339  0.9855  0.1579 -0.3301
 1824SOL    HW117105   4.128   3.435  15.288 -0.4915  0.2161 -1.4682
 1824SOL    HW217106   4.162   3.572  15.337  0.0240  1.2477  0.7223
 1825SOL     OW17107   0.002   0.605   4.210 -0.1099  0.2476  0.5892
 1825SOL    HW117108   4.674   0.653   4.158 -0.3043 -1.7415 -0.9787
 1825SOL    HW217109   4.714   0.517   4.184 -0.4918 -0.1869  2.4349
 1826SOL     OW17110   3.535   2.921   5.208  0.1725 -0.3388  0.1214
 1826SOL    HW117111   3.469   2.852   5.210 -1.5402  1.2347 -1.8126
 1826SOL    HW217112   3.619   2.876   5.215 -0.1605 -0.8306  0.9997
 1827SOL     OW17113   4.143   4.542   3.223  0.6611  0.2575 -0.8608
 1827SOL    HW117114   4.132   4.581   3.136 -0.0789  1.2438 -0.3310
 1827SOL    HW217115   4.064   4.574   3.267  0.3628 -3.0538  0.9334
 1828SOL     OW17116   0.139   1.737   8.603 -0.3386 -0.5602 -0.5650
 1828SOL    HW117117   0.173   1.661   8.556  2.1412  1.6463 -2.3422
 1828SOL    HW217118   0.183   1.799   8.545  0.0704  0.6653  1.0569
 1829SOL     OW17119   2.212   0.251   2.193  0.0604  0.2519 -0.3429
 1829SOL    HW117120   2.213   0.340   2.228 -2.9816  1.0929 -2.3471
 1829SOL    HW217121   2.276   0.262   2.123 -1.0050  2.3145 -0.9855
 1830SOL     OW17122   1.565   3.510   2.384 -0.6572 -0.3001 -0.2393
 1830SOL    HW117123   1.473   3.510   2.410 -0.5226 -2.2396  0.1980
 1830SOL    HW217124   1.585   3.435   2.440  0.1557 -0.4516 -0.7275
 1831SOL     OW17125   3.553   2.143   7.067  0.3152  0.0337  0.5803
 1831SOL    HW117126   3.500   2.076   7.109  0.8721 -1.2988 -0.8282
 1831SOL    HW217127   3.486   2.179   7.009  3.2681  1.4589 -1.9489
 1832SOL     OW17128   2.962   3.204   5.200  0.3755 -0.2712  0.6138
 1832SOL    HW117129   2.924   3.137   5.257 -0.0593 -0.5236  0.0364
 1832SOL    HW217130   2.904   3.187   5.126  0.2876  0.6817  0.4704
 1833SOL     OW17131   0.160   3.316   9.719  0.0378 -0.3797 -0.1354
 1833SOL    HW117132   0.195   3.234   9.753 -1.2115 -1.6368 -1.9136
 1833SOL    HW217133   0.185   3.377   9.789 -2.1512 -1.2036  1.3828
 1834SOL     OW17134   3.987   0.550  11.228  0.0352 -1.0468  0.3101
 1834SOL    HW117135   4.060   0.522  11.172  0.6334  0.9739  0.0580
 1834SOL    HW217136   4.016   0.544  11.319  0.2048  1.0929  0.3971
 1835SOL     OW17137   4.200   1.793  11.373  0.5222  0.0579  0.3161
 1835SOL    HW117138   4.146   1.763  11.446 -0.0928  2.1698  0.7168
 1835SOL    HW217139   4.287   1.779  11.410  1.2827  0.3270 -1.3768
 1836SOL     OW17140   1.303   3.566   2.925 -0.2922 -0.2166  0.4092
 1836SOL    HW117141   1.236   3.622   2.965  1.7923  1.9064  0.8927
 1836SOL    HW217142   1.327   3.617   2.848 -0.9211 -1.2946 -0.4936
 1837SOL     OW17143   0.313   4.494   2.329 -0.1392 -0.4145  0.4754
 1837SOL    HW117144   0.304   4.413   2.277  3.2441  0.0641 -0.8236
 1837SOL    HW217145   0.235   4.548   2.316  0.4804  0.6128  1.0686
 1838SOL     OW17146   3.583   0.235  14.519 -0.0443  0.3781  0.1313
 1838SOL    HW117147   3.612   0.249  14.609  0.8943 -2.0561  0.2008
 1838SOL    HW217148   3.499   0.194  14.542 -0.9308  1.3754 -1.3499
 1839SOL     OW17149   0.161   0.501   7.135  0.2320  0.0684  0.3106
 1839SOL    HW117150   0.194   0.424   7.088 -0.0906  1.3919 -2.0914
 1839SOL    HW217151   0.120   0.453   7.206 -0.6040  0.7460  0.2856
 1840SOL     OW17152   1.068   1.416   2.882 -0.2986 -0.1504  0.3558
 1840SOL    HW117153   1.140   1.364   2.848  0.5132 -0.0960  1.9976
 1840SOL    HW217154   1.037   1.452   2.799  0.2140  0.4770  0.4392
 1841SOL     OW17155   1.776   1.748   8.094  0.5275  0.6566 -0.2665
 1841SOL    HW117156   1.868   1.765   8.070  1.0480  2.3626  2.8491
 1841SOL    HW217157   1.766   1.822   8.154 -1.5405  0.0904  0.0684
 1842SOL     OW17158   1.542   3.133   0.466 -0.5585 -0.1072 -0.1475
 1842SOL    HW117159   1.561   3.217   0.508 -1.5199  1.0418 -2.0335
 1842SOL    HW217160   1.566   3.068   0.533  1.5176  0.3801 -0.4290
 1843SOL     OW17161   1.135   2.396  14.422  0.3992 -0.2045  0.3724
 1843SOL    HW117162   1.143   2.404  14.517 -1.8018  0.5107  0.5106
 1843SOL    HW217163   1.228   2.396  14.400  0.6324  0.9794  1.3419
 1844SOL     OW17164   0.625   3.190   3.238  0.6560  0.2259 -0.1013
 1844SOL    HW117165   0.691   3.127   3.266 -1.6720 -2.0420  0.3293
 1844SOL    HW217166   0.583   3.199   3.324  0.5995  0.0235 -0.1075
 1845SOL     OW17167   0.155   1.528   0.370  0.5072  0.2825  0.2330
 1845SOL    HW117168   0.147   1.506   0.463  1.9177  0.2690  0.3564
 1845SOL    HW217169   0.161   1.622   0.387 -1.9276  0.4819  0.0044
 1846SOL     OW17170   4.158   0.589   6.358 -0.0162 -0.2909 -0.0259
 1846SOL    HW117171   4.071   0.551   6.350 -0.3818  0.6318 -0.4371
 1846SOL    HW217172   4.176   0.607   6.266  0.7029  1.1247  0.3786
 1847SOL     OW17173   4.306   0.127  14.417 -0.0274  0.4284 -0.4272
 1847SOL    HW117174   4.223   0.116  14.370  1.4878 -0.2150 -2.9497
 1847SOL    HW217175   4.370   0.091  14.357  2.1663  1.3838  1.3271
 1848SOL     OW17176   3.525   2.554   0.649  0.0327 -0.2275 -0.0537
 1848SOL    HW117177   3.603   2.572   0.596  1.1174 -0.9350  1.2857
 1848SOL    HW217178   3.453   2.567   0.588  0.3031  0.5235 -0.2132
 1849SOL     OW17179   0.691   1.050   2.329  0.4184 -0.0198 -0.0297
 1849SOL    HW117180   0.657   1.140   2.326 -1.8595 -0.8728  0.3008
 1849SOL    HW217181   0.620   1.006   2.283 -0.9758  1.8940  0.2896
 1850SOL     OW17182   2.091   1.673   9.183  0.0528 -0.1954 -0.7002
 1850SOL    HW117183   2.121   1.671   9.274  1.0032  1.8988 -0.9533
 1850SOL    HW217184   1.997   1.659   9.192  0.2557  0.0527  1.9892
 1851SOL     OW17185   2.397   3.180   5.796  0.8919 -0.0888  0.0510
 1851SOL    HW117186   2.433   3.258   5.754  0.7890 -1.3401 -2.3607
 1851SOL    HW217187   2.383   3.123   5.720  0.4784  2.0696 -1.4836
 1852SOL     OW17188   1.189   0.908  11.554 -0.4836 -0.0982  0.3184
 1852SOL    HW117189   1.263   0.949  11.510 -2.1198  0.4802 -1.8750
 1852SOL    HW217190   1.125   0.933  11.488 -0.2878 -0.0943  0.1316
 1853SOL     OW17191   0.413   2.346  11.017  0.1202  0.3809  0.5866
 1853SOL    HW117192   0.325   2.309  11.008  0.1906 -0.6612  4.2793
 1853SOL    HW217193   0.466   2.286  10.964 -0.4309  1.8265 -1.6045
 1854SOL     OW17194   3.234   3.860  12.109 -0.3078  0.2356  0.4114
 1854SOL    HW117195   3.168   3.893  12.048  0.7012 -0.7918 -1.2429
 1854SOL    HW217196   3.264   3.938  12.155 -1.3401 -1.8768  4.7222
 1855SOL     OW17197   2.878   2.428   3.967 -0.2761 -0.0560  0.3169
 1855SOL    HW117198   2.825   2.446   4.044 -1.5961 -1.7170 -0.1870
 1855SOL    HW217199   2.963   2.426   4.011  0.2486 -1.0937 -0.7352
 1856SOL     OW17200   3.446   4.528  16.927 -0.4323  0.2525  0.1486
 1856SOL    HW117201   3.358   4.514  16.893 -0.4182 -2.2484  1.1609
 1856SOL    HW217202   3.505   4.478  16.871 -0.5743  0.2217  0.0289
 1857SOL     OW17203   1.012   3.828   3.782 -1.0334  0.1794  1.0892
 1857SOL    HW117204   0.997   3.770   3.857 -1.5264  0.8076  1.4827
 1857SOL    HW217205   1.090   3.782   3.750 -1.8954 -0.3155 -0.2449
 1858SOL     OW17206   3.914   2.652   5.777  0.4700  0.4445  0.5679
 1858SOL    HW117207   3.912   2.612   5.864 -1.4659 -1.4108 -0.3371
 1858SOL    HW217208   4.005   2.683   5.785  0.8652 -0.7551  0.7781
 1859SOL     OW17209   2.696   1.139  15.368  0.0029  0.6712 -0.5321
 1859SOL    HW117210   2.728   1.117  15.455 -0.2682 -1.7259 -1.0163
 1859SOL    HW217211   2.608   1.171  15.386  0.4500  1.2914  0.5573
 1860SOL     OW17212   0.744   2.693   4.463 -0.3090  0.4672 -0.1140
 1860SOL    HW117213   0.732   2.702   4.368  2.9431 -0.5957 -0.6122
 1860SOL    HW217214   0.753   2.599   4.478  0.7653  0.9415  2.2646
 1861SOL     OW17215   0.692   0.205   2.774  0.0786  0.6398 -0.0414
 1861SOL    HW117216   0.650   0.291   2.776  0.9873  1.0503  1.4127
 1861SOL    HW217217   0.758   0.212   2.706 -0.7249 -0.1688 -0.9021
 1862SOL     OW17218   1.936   3.957   2.745 -0.2643 -0.2541  0.0845
 1862SOL    HW117219   1.930   4.019   2.817  0.0924 -0.2750  0.1280
 1862SOL    HW217220   2.010   3.989   2.694 -1.9350 -0.0203 -2.2197
 1863SOL     OW17221   3.497   3.103   1.758  0.6511  0.2206  0.1770
 1863SOL    HW117222   3.503   3.014   1.792  0.1106 -1.2645 -3.6637
 1863SOL    HW217223   3.431   3.143   1.816  0.1201 -1.9049  1.0396
 1864SOL     OW17224   4.335   1.567   4.048  0.0909  0.1949  0.4311
 1864SOL    HW117225   4.374   1.553   3.962 -1.9082 -2.4735 -0.0459
 1864SOL    HW217226   4.280   1.641   4.021 -0.7044 -0.3856  0.4610
 1865SOL     OW17227   0.985   4.413   7.707 -0.2555  0.2830  0.1556
 1865SOL    HW117228   0.950   4.480   7.766 -1.2336 -0.1990  0.1217
 1865SOL    HW217229   1.056   4.468   7.673  0.4393 -0.3200  0.6417
 1866SOL     OW17230   2.539   4.236  17.283 -0.5518 -0.0407  0.0678
 1866SOL    HW117231   2.486   4.158  17.267  1.9411 -1.7283  0.0426
 1866SOL    HW217232   2.588   4.261  17.204  0.9093 -0.6402  0.7671
 1867SOL     OW17233   2.180   3.601  16.528 -0.6154  0.4219  0.2459
 1867SOL    HW117234   2.164   3.691  16.498 -3.3918 -0.6460 -1.4180
 1867SOL    HW217235   2.158   3.600  16.621 -0.3465  3.1347  0.3545
 1868SOL     OW17236   1.390   3.055   2.579  0.1277 -0.1223 -0.3573
 1868SOL    HW117237   1.319   3.119   2.580 -0.3927 -0.6821 -1.8021
 1868SOL    HW217238   1.375   3.012   2.495  2.0228 -1.4007 -0.0313
 1869SOL     OW17239   1.441   2.084   9.618 -0.2609  0.1165 -0.0956
 1869SOL    HW117240   1.505   2.075   9.547  0.0199 -2.2648  0.4529
 1869SOL    HW217241   1.396   2.001   9.604  0.8672 -0.9283  2.4547
 1870SOL     OW17242   3.205   3.484  15.163 -0.4244  0.2352 -0.0674
 1870SOL    HW117243   3.124   3.434  15.169  1.3406 -2.2138  3.0749
 1870SOL    HW217244   3.220   3.511  15.072  1.9269 -1.3047 -0.1322
 1871SOL     OW17245   4.446   4.032   7.204  0.3954  0.8221  0.4600
 1871SOL    HW117246   4.382   4.052   7.272 -1.9298  2.1862 -2.1222
 1871SOL    HW217247   4.397   4.072   7.132 -0.3731 -1.8120 -0.4743
 1872SOL     OW17248   0.300   1.610   3.380 -0.4630 -0.4541 -0.0522
 1872SOL    HW117249   0.316   1.519   3.355 -0.0409  0.0790 -1.7064
 1872SOL    HW217250   0.261   1.629   3.295  0.4716 -1.2575 -0.6549
 1873SOL     OW17251   3.393   3.849   1.141  0.2579 -0.3416 -0.3695
 1873SOL    HW117252   3.402   3.814   1.230  3.3710 -0.9919 -0.9545
 1873SOL    HW217253   3.304   3.877   1.165 -0.3728 -1.0769 -1.8772
 1874SOL     OW17254   3.393   3.122   5.904 -0.5499  0.1787 -0.1125
 1874SOL    HW117255   3.379   3.148   5.813 -0.5853 -0.2283 -0.2220
 1874SOL    HW217256   3.474   3.072   5.909 -0.9998 -0.5620 -0.2996
 1875SOL     OW17257   2.261   1.946   1.310 -0.2808 -0.6413  0.0395
 1875SOL    HW117258   2.355   1.963   1.303 -0.5871 -0.2652 -2.9346
 1875SOL    HW217259   2.231   2.032   1.338 -0.1956 -0.4674 -0.3991
 1876SOL     OW17260   3.566   4.059   1.150 -0.1259  0.1394 -0.1642
 1876SOL    HW117261   3.562   4.097   1.238 -3.8974 -0.5405 -0.0605
 1876SOL    HW217262   3.524   3.974   1.161  1.7878 -0.6075  1.5167
 1877SOL     OW17263   0.030   1.132  16.473  0.6618 -0.0202  0.4071
 1877SOL    HW117264   0.047   1.182  16.553  1.4507 -1.0718  0.8862
 1877SOL    HW217265   0.110   1.081  16.483  2.4095  2.3695 -1.4153
 1878SOL     OW17266   0.926   2.407   2.482 -0.2049  0.4439  0.1426
 1878SOL    HW117267   0.934   2.478   2.419 -0.1812 -0.8381 -1.3193
 1878SOL    HW217268   0.858   2.441   2.539 -1.1835 -3.1191  1.1391
 1879SOL     OW17269   1.155   0.714   8.670  0.0074 -0.5337 -0.3183
 1879SOL    HW117270   1.064   0.684   8.659 -0.6436  1.5030 -0.4592
 1879SOL    HW217271   1.160   0.787   8.609 -0.0838 -0.9498 -0.8201
 1880SOL     OW17272   3.643   4.319  15.056 -0.0359 -0.4748  0.7680
 1880SOL    HW117273   3.667   4.390  14.997 -0.3315 -1.5135 -0.6207
 1880SOL    HW217274   3.730   4.280  15.066  0.7867  1.1364 -0.0927
 1881SOL     OW17275   3.738   4.237   6.604  0.6912 -0.0408  0.2955
 1881SOL    HW117276   3.774   4.160   6.560  0.4768  0.5856 -0.9847
 1881SOL    HW217277   3.806   4.301   6.584 -0.7494  0.5337 -2.7959
 1882SOL     OW17278   4.141   0.783   9.527 -0.1933  0.2611 -0.1875
 1882SOL    HW117279   4.162   0.720   9.458  1.1419 -1.3155  1.6687
 1882SOL    HW217280   4.208   0.849   9.513 -0.9351  1.1693  0.4797
 1883SOL     OW17281   1.351   3.654   3.979 -0.1858  0.1216 -0.2624
 1883SOL    HW117282   1.443   3.643   3.955 -0.4783  1.3015 -1.9291
 1883SOL    HW217283   1.312   3.681   3.896 -0.7161 -2.9741 -1.0002
 1884SOL     OW17284   2.572   1.737   2.613  0.3237  0.4632  0.2765
 1884SOL    HW117285   2.660   1.762   2.641  1.5458  1.5183 -4.4704
 1884SOL    HW217286   2.539   1.821   2.580 -0.3720  1.0191  2.3940
 1885SOL     OW17287   3.834   1.200   5.345 -0.1998 -0.3480  0.2801
 1885SOL    HW117288   3.890   1.123   5.348  1.0914  0.4987 -2.5692
 1885SOL    HW217289   3.755   1.165   5.304  0.0471  0.9558 -1.3157
 1886SOL     OW17290   4.428   2.998   2.863 -0.0043 -0.0657 -0.3336
 1886SOL    HW117291   4.354   2.985   2.804  0.0396  0.2432 -0.4559
 1886SOL    HW217292   4.422   3.092   2.881 -1.6666 -0.1253 -0.5498
 1887SOL     OW17293   3.165   0.315   8.763 -0.2003 -0.0302 -0.4801
 1887SOL    HW117294   3.151   0.221   8.776  0.0257  0.0556  0.3822
 1887SOL    HW217295   3.075   0.345   8.775  0.2171  0.9891  0.0868
 1888SOL     OW17296   3.248   0.833  12.046 -0.5862 -0.8413 -0.1002
 1888SOL    HW117297   3.222   0.858  11.957 -1.4041  2.1504  0.9463
 1888SOL    HW217298   3.202   0.750  12.053 -1.0876 -0.3821  2.2404
 1889SOL     OW17299   3.270   4.364   3.995 -0.2017 -0.2516 -0.0656
 1889SOL    HW117300   3.277   4.446   4.044  1.1607  0.1223 -0.8871
 1889SOL    HW217301   3.363   4.353   3.972 -0.3148  0.0714 -0.6591
 1890SOL     OW17302   2.384   4.560  15.243 -0.1145 -0.2172  0.8734
 1890SOL    HW117303   2.337   4.609  15.311  0.3813  4.1821 -2.0406
 1890SOL    HW217304   2.433   4.633  15.206 -1.1166 -1.5421 -2.9804
 1891SOL     OW17305   0.656   2.105   7.949 -0.1384 -0.8672 -0.2188
 1891SOL    HW117306   0.640   2.193   7.916 -0.8679 -0.6167  0.8088
 1891SOL    HW217307   0.715   2.073   7.880  3.8686 -2.1193  3.7937
 1892SOL     OW17308   2.951   0.033   4.970  0.1744 -0.5123 -0.3571
 1892SOL    HW117309   2.919   4.735   4.887 -1.1616 -0.7920  0.2755
 1892SOL    HW217310   2.869   0.048   5.017  1.2383  0.2495  1.2320
 1893SOL     OW17311   3.150   1.001   1.246 -0.6916  0.1856  0.5956
 1893SOL    HW117312   3.122   1.078   1.295 -1.2192  0.0308  0.5337
 1893SOL    HW217313   3.065   0.962   1.225 -1.0005  0.4764  1.3303
 1894SOL     OW17314   2.335   1.134  13.770  0.1761 -0.3449 -0.0591
 1894SOL    HW117315   2.386   1.147  13.850  0.5499  0.9776 -0.5160
 1894SOL    HW217316   2.403   1.154  13.706  0.0576 -2.6744 -0.9190
 1895SOL     OW17317   0.894   1.823   7.227  0.3281 -0.3301 -0.2529
 1895SOL    HW117318   0.885   1.744   7.174  0.0504 -1.1256  0.9614
 1895SOL    HW217319   0.989   1.826   7.237  0.2308 -0.5078  0.8183
 1896SOL     OW17320   3.652   0.087   7.736  0.4757  0.4045 -0.3982
 1896SOL    HW117321   3.686   0.039   7.812  2.2256  2.2224 -0.0475
 1896SOL    HW217322   3.702   0.038   7.671  1.4116  0.2551  0.4321
 1897SOL     OW17323   3.432   1.932   2.063  0.0260 -0.0752  0.0839
 1897SOL    HW117324   3.474   1.971   2.140  1.3589 -0.0498 -0.6630
 1897SOL    HW217325   3.454   2.002   2.002  1.4321  0.5853  1.3441
 1898SOL     OW17326   3.678   2.810  16.440 -0.2343 -0.7290 -0.2523
 1898SOL    HW117327   3.646   2.808  16.530  1.2272  0.0310  0.2909
 1898SOL    HW217328   3.662   2.897  16.404  0.9950  0.3481  1.7698
 1899SOL     OW17329   4.653   1.864  17.255 -0.4965 -0.3762  0.0514
 1899SOL    HW117330   4.559   1.879  17.244 -0.5170 -1.8469 -1.6880
 1899SOL    HW217331   4.647   1.777  17.293 -0.2132 -0.8276 -0.9462
 1900SOL     OW17332   1.478   4.073   0.340  0.3053  0.2906  0.0615
 1900SOL    HW117333   1.535   4.139   0.301 -0.8066  0.8991 -0.5359
 1900SOL    HW217334   1.494   4.087   0.433 -1.7933 -1.5256  0.6868
 1901SOL     OW17335   0.023   2.458   6.182 -0.4979  0.0786 -0.0831
 1901SOL    HW117336   4.701   2.385   6.162 -0.7600  0.5578 -1.0849
 1901SOL    HW217337   0.107   2.414   6.173 -0.8060 -0.5745  0.2534
 1902SOL     OW17338   3.311   1.191   5.723 -0.0167  0.9866  0.4837
 1902SOL    HW117339   3.389   1.201   5.669 -1.0936  0.6184 -1.1374
 1902SOL    HW217340   3.332   1.099   5.740 -0.2642  0.9370  0.5224
 1903SOL     OW17341   3.789   3.022   1.595 -0.4713  0.2227 -0.0411
 1903SOL    HW117342   3.701   3.038   1.629 -0.1724  1.1701  0.2998
 1903SOL    HW217343   3.777   2.928   1.580 -1.1059 -0.0366  2.1473
 1904SOL     OW17344   1.444   4.466   6.490  0.0543 -0.2808  0.6240
 1904SOL    HW117345   1.359   4.482   6.451  0.6009  0.0058 -0.4442
 1904SOL    HW217346   1.501   4.489   6.417  0.8585 -0.5426  1.1591
 1905SOL     OW17347   0.273   2.652   6.746 -0.0517 -0.4607 -0.1579
 1905SOL    HW117348   0.234   2.565   6.739 -0.4487 -0.1018 -2.6523
 1905SOL    HW217349   0.231   2.690   6.823 -0.2980  2.5375 -1.7736
 1906SOL     OW17350   0.376   2.580   8.604 -0.5794  0.3762  0.1547
 1906SOL    HW117351   0.293   2.607   8.565 -0.8736 -1.4833 -0.4667
 1906SOL    HW217352   0.379   2.626   8.688  1.0136  1.5554 -0.5420
 1907SOL     OW17353   3.283   4.490   7.932  0.1044 -0.7699  0.0196
 1907SOL    HW117354   3.249   4.432   7.864  0.0406 -1.7888  0.9247
 1907SOL    HW217355   3.221   4.468   8.001 -1.6239  0.4509 -1.1340
 1908SOL     OW17356   3.318   0.111   4.278  0.1611  0.2231  0.0855
 1908SOL    HW117357   3.335   0.167   4.354  1.9986 -0.9818  0.5528
 1908SOL    HW217358   3.264   0.166   4.221 -2.9038 -1.1791  1.6648
 1909SOL     OW17359   3.576   2.008  15.305  0.7365 -0.3046  0.8592
 1909SOL    HW117360   3.503   2.026  15.364  0.0713 -0.6705  0.1543
 1909SOL    HW217361   3.634   2.083  15.314 -0.5959  0.7458  0.7497
 1910SOL     OW17362   4.410   2.629   0.257 -0.0292  0.3815 -0.2786
 1910SOL    HW117363   4.422   2.721   0.235  2.8043  0.1090  0.1276
 1910SOL    HW217364   4.502   2.603   0.254 -0.4797 -1.5531  2.5820
 1911SOL     OW17365   1.805   1.183   9.509 -0.1028  0.6433 -0.0971
 1911SOL    HW117366   1.861   1.243   9.458 -1.7058  3.7357  1.7540
 1911SOL    HW217367   1.756   1.129   9.447 -0.8860  2.1942 -0.8382
 1912SOL     OW17368   1.084   3.605   9.035 -0.5299 -0.3592  0.1674
 1912SOL    HW117369   1.087   3.513   9.010 -0.4710 -0.7871  1.7284
 1912SOL    HW217370   1.003   3.610   9.086 -1.4016  0.4235 -1.3094
 1913SOL     OW17371   2.333   2.854   8.476 -0.0935 -0.1184 -0.1861
 1913SOL    HW117372   2.257   2.904   8.506  0.0428 -0.0498  0.0467
 1913SOL    HW217373   2.306   2.841   8.385 -0.6032 -1.0486  0.0954
 1914SOL     OW17374   2.007   3.010  15.710  0.4029 -0.6404  0.0119
 1914SOL    HW117375   1.976   2.927  15.748 -0.8622  0.2923  1.0257
 1914SOL    HW217376   2.026   3.054  15.793  1.7704  0.3505 -0.8248
 1915SOL     OW17377   1.707   2.957  14.808  0.1109  0.2347  0.1752
 1915SOL    HW117378   1.675   2.923  14.892  1.1877 -3.0688 -0.7579
 1915SOL    HW217379   1.803   2.950  14.813 -0.2259 -4.3982 -0.5868
 1916SOL     OW17380   2.200   1.820  13.590  0.4755 -0.0966  0.1450
 1916SOL    HW117381   2.119   1.770  13.581  0.3622  0.2753 -0.9637
 1916SOL    HW217382   2.265   1.752  13.607  1.3271  0.5803 -0.4069
 1917SOL     OW17383   3.544   3.619  14.196 -0.2237  0.0236 -0.3264
 1917SOL    HW117384   3.557   3.713  14.185 -2.1667  0.2061 -1.1263
 1917SOL    HW217385   3.475   3.595  14.133 -0.4991 -1.1200  0.4030
 1918SOL     OW17386   4.146   3.548   2.575  0.3329 -0.2711  0.1231
 1918SOL    HW117387   4.189   3.470   2.611  1.7025  0.2208 -0.4403
 1918SOL    HW217388   4.086   3.499   2.519 -1.8203  0.0677  2.1367
 1919SOL     OW17389   4.279   0.056   3.418  0.0936  0.0544 -0.4344
 1919SOL    HW117390   4.256   0.104   3.338 -0.7103 -1.3236 -1.0306
 1919SOL    HW217391   4.301   4.707   3.383  0.8074  0.8782 -2.0329
 1920SOL     OW17392   2.416   1.850   2.174 -0.3467 -0.3272 -0.7678
 1920SOL    HW117393   2.428   1.856   2.268  1.5832 -0.3511 -0.9962
 1920SOL    HW217394   2.343   1.788   2.175  1.3147 -2.2284  1.1688
 1921SOL     OW17395   4.344   0.821   8.135 -0.0084  0.1153  0.0517
 1921SOL    HW117396   4.407   0.750   8.152  1.0533  1.2576  0.9229
 1921SOL    HW217397   4.305   0.776   8.061 -0.8015 -0.5422  0.8718
 1922SOL     OW17398   4.632   2.768   4.948  0.7326  0.0863  0.6787
 1922SOL    HW117399   4.615   2.705   4.877  1.6634  0.5469  0.0466
 1922SOL    HW217400   4.700   2.718   4.992  1.1253 -0.4011 -0.4635
 1923SOL     OW17401   1.757   4.242   3.126  0.2369  0.2606 -0.9542
 1923SOL    HW117402   1.667   4.266   3.149  0.9130 -0.3034  2.2651
 1923SOL    HW217403   1.747   4.150   3.151  0.6677  0.5176  0.1818
 1924SOL     OW17404   2.793   3.236   2.316 -0.2032 -0.0346  0.2390
 1924SOL    HW117405   2.836   3.195   2.391  1.2404  3.9164  1.5792
 1924SOL    HW217406   2.851   3.205   2.246 -0.7280  1.1947 -0.7342
 1925SOL     OW17407   0.701   1.828   4.957  0.0616 -0.1357  0.1077
 1925SOL    HW117408   0.782   1.865   4.922 -0.2339 -0.9446 -1.4306
 1925SOL    HW217409   0.731   1.823   5.048  1.2011 -2.5783 -0.3998
 1926SOL     OW17410   0.086   4.100   6.294 -0.1766 -0.3985  0.3404
 1926SOL    HW117411   0.049   4.063   6.214  1.6668 -0.4688 -0.4720
 1926SOL    HW217412   0.019   4.081   6.360 -0.1301 -1.4276  0.0925
 1927SOL     OW17413   2.052   1.957   7.312  0.0759 -0.0143 -0.1764
 1927SOL    HW117414   1.974   1.989   7.357  0.7039  0.2983  0.6856
 1927SOL    HW217415   2.006   1.898   7.251 -0.0418 -1.6937  1.5348
 1928SOL     OW17416   1.630   2.210   4.758 -0.0441  1.1529  0.5190
 1928SOL    HW117417   1.574   2.145   4.716  1.7218 -0.7208  1.0769
 1928SOL    HW217418   1.585   2.294   4.752 -1.8671 -0.0023 -1.6507
 1929SOL     OW17419   4.670   3.684   4.412 -0.3107  0.0797 -0.4445
 1929SOL    HW117420   4.695   3.770   4.379 -0.3200  0.5547  0.7935
 1929SOL    HW217421   4.711   3.697   4.497  2.6137  0.9347 -1.9551
 1930SOL     OW17422   2.503   2.159   7.690 -0.1703 -0.1504  0.0192
 1930SOL    HW117423   2.542   2.240   7.658 -0.3809 -1.3036 -3.2020
 1930SOL    HW217424   2.481   2.174   7.782 -1.4902  0.6881 -0.4328
 1931SOL     OW17425   0.206   2.399   6.834  0.2600  0.1105  0.1065
 1931SOL    HW117426   0.282   2.361   6.791  0.9612  2.8503 -1.0602
 1931SOL    HW217427   0.181   2.323   6.886 -3.9162  0.9132 -0.6890
 1932SOL     OW17428   4.361   2.502   4.380  0.0289  0.5618 -0.1143
 1932SOL    HW117429   4.284   2.502   4.437 -0.3041 -1.8468 -0.5660
 1932SOL    HW217430   4.429   2.502   4.448 -1.0706 -2.4623  1.0025
 1933SOL     OW17431   2.466   4.557  12.751  0.5311 -0.9371 -0.7734
 1933SOL    HW117432   2.492   4.500  12.823 -0.2858  1.3381  1.3158
 1933SOL    HW217433   2.477   4.642  12.795 -1.1829 -0.9117 -0.4060
 1934SOL     OW17434   2.871   2.349   4.856 -0.5385 -0.7376  0.1593
 1934SOL    HW117435   2.810   2.412   4.893  0.1736 -0.1418  0.3272
 1934SOL    HW217436   2.955   2.395   4.863  0.4663 -2.3999 -1.0261
 1935SOL     OW17437   4.208   2.630   3.512 -0.3950 -0.1569 -0.2840
 1935SOL    HW117438   4.211   2.550   3.460  0.5506  0.8692 -1.8110
 1935SOL    HW217439   4.290   2.678   3.499  0.0996 -0.9914 -0.2622
 1936SOL     OW17440   4.243   2.489  11.787  0.2357  0.1880  0.7724
 1936SOL    HW117441   4.248   2.454  11.876  0.2301 -0.5982  0.4594
 1936SOL    HW217442   4.309   2.432  11.748  0.5982 -0.2628  2.0202
 1937SOL     OW17443   1.501   1.529  15.235 -0.8942 -0.2932  0.1803
 1937SOL    HW117444   1.582   1.478  15.241  0.2005  1.1174 -2.5676
 1937SOL    HW217445   1.518   1.583  15.158 -0.5861 -2.2371 -1.1171
 1938SOL     OW17446   1.402   4.612   2.993  0.1840 -0.3145  0.8730
 1938SOL    HW117447   1.314   4.611   3.031  0.4992  2.3424  1.6528
 1938SOL    HW217448   1.411   4.522   2.963  0.9745 -0.2478  0.9222
 1939SOL     OW17449   3.960   3.798   1.082  0.5882  0.4090 -0.4106
 1939SOL    HW117450   3.936   3.890   1.093 -3.2249 -0.5271 -1.0294
 1939SOL    HW217451   3.913   3.777   1.001 -0.7610  0.0897  0.4699
 1940SOL     OW17452   2.509   2.179   8.692  0.2878 -0.2504 -0.6065
 1940SOL    HW117453   2.434   2.217   8.737  0.1881 -0.7065 -0.3874
 1940SOL    HW217454   2.482   2.158   8.603 -2.5721 -0.9782  0.4466
 1941SOL     OW17455   3.327   4.520  13.536 -0.2901  0.5950  0.3516
 1941SOL    HW117456   3.401   4.494  13.590 -0.0980 -0.1366 -0.2686
 1941SOL    HW217457   3.264   4.547  13.603 -0.0259  2.4641 -0.1474
 1942SOL     OW17458   2.110   2.444   7.660  0.4473  0.7379 -0.2851
 1942SOL    HW117459   2.193   2.471   7.621  0.2384  1.6743 -0.0943
 1942SOL    HW217460   2.061   2.526   7.656 -2.4428 -0.9299  0.9423
 1943SOL     OW17461   0.862   0.879   3.913  0.0684 -0.2114 -0.0412
 1943SOL    HW117462   0.895   0.925   3.990 -1.4854  2.5688 -1.0389
 1943SOL    HW217463   0.793   0.939   3.884 -0.7899 -1.4087 -0.5231
 1944SOL     OW17464   1.582   2.675  15.710  0.2214  0.1111 -0.7122
 1944SOL    HW117465   1.491   2.675  15.737  1.0020  0.7216  1.9123
 1944SOL    HW217466   1.579   2.610  15.640 -2.4934  0.7921 -1.1951
 1945SOL     OW17467   0.411   1.715   0.601 -0.6070 -0.0667 -0.0231
 1945SOL    HW117468   0.342   1.748   0.544 -0.1159  0.3676 -0.3719
 1945SOL    HW217469   0.378   1.626   0.612  0.2327 -0.3957 -0.1784
 1946SOL     OW17470   0.573   2.879   8.596  0.3577  0.1712 -0.6234
 1946SOL    HW117471   0.536   2.967   8.591 -2.1397 -0.9104 -1.0068
 1946SOL    HW217472   0.559   2.861   8.503  1.9930  1.4749 -1.1161
 1947SOL     OW17473   4.312   1.128   5.104  0.4120  0.4775  0.0503
 1947SOL    HW117474   4.311   1.158   5.014  2.5050  0.6564  0.1024
 1947SOL    HW217475   4.236   1.158   5.154 -1.1671 -1.0100 -1.4762
 1948SOL     OW17476   2.528   1.018   4.151  0.2636  0.3569  0.1113
 1948SOL    HW117477   2.521   1.113   4.147  0.7587  0.3413 -1.1871
 1948SOL    HW217478   2.618   0.998   4.125  0.3162 -0.1637  0.7043
 1949SOL     OW17479   0.068   3.193  10.177 -0.5452 -0.0068  0.0156
 1949SOL    HW117480   0.135   3.125  10.175 -1.2688 -0.7786  2.3023
 1949SOL    HW217481   0.077   3.229  10.265 -0.4110  2.1313 -0.8559
 1950SOL     OW17482   0.226   3.320   2.283 -0.0820 -0.2302  0.3970
 1950SOL    HW117483   0.195   3.384   2.347 -1.4616 -2.0142  1.4963
 1950SOL    HW217484   0.221   3.247   2.344 -2.8065  0.0362  0.4924
 1951SOL     OW17485   0.379   3.475   5.587  0.3780 -0.0318 -0.0445
 1951SOL    HW117486   0.399   3.499   5.496 -1.6836  1.4960 -0.1036
 1951SOL    HW217487   0.449   3.417   5.616 -0.5129 -1.6169 -1.0634
 1952SOL     OW17488   3.481   3.379   5.199  0.2204 -0.0169  0.2602
 1952SOL    HW117489   3.569   3.372   5.161  0.5631 -1.7453  1.3599
 1952SOL    HW217490   3.452   3.288   5.202  0.8814 -0.1718  2.2328
 1953SOL     OW17491   2.136   0.420   8.010 -0.4034  0.0197  0.2579
 1953SOL    HW117492   2.193   0.357   7.966  0.1746  1.0556 -0.4805
 1953SOL    HW217493   2.059   0.367   8.032 -0.8701 -1.0976 -4.0727
 1954SOL     OW17494   2.385   1.976   3.288 -0.3717 -0.0111  0.2991
 1954SOL    HW117495   2.452   1.968   3.356  1.6926 -0.6445 -1.8219
 1954SOL    HW217496   2.385   1.896   3.236 -0.2164 -0.3462  0.8119
 1955SOL     OW17497   0.926   0.209   3.893 -0.5988  0.4735 -0.4679
 1955SOL    HW117498   0.870   0.229   3.967  0.5399  2.0762 -0.0425
 1955SOL    HW217499   1.010   0.187   3.934  0.2754  0.7264 -2.1050
 1956SOL     OW17500   3.089   3.218  11.125 -0.0058 -0.0814 -0.1165
 1956SOL    HW117501   3.102   3.128  11.153 -3.2364 -1.1958 -2.2538
 1956SOL    HW217502   3.118   3.252  11.210 -0.8236 -1.0368  0.5366
 1957SOL     OW17503   0.051   4.715  13.440 -0.9340  0.1672 -0.0617
 1957SOL    HW117504   0.084   4.677  13.522 -1.3810 -0.9670 -0.4154
 1957SOL    HW217505   4.723   4.648  13.418  0.3318 -0.5697 -1.4775
 1958SOL     OW17506   0.434   4.042   0.620  0.4082 -0.1225 -0.6019
 1958SOL    HW117507   0.401   4.005   0.538 -0.6173  1.4217 -0.9007
 1958SOL    HW217508   0.480   3.963   0.647  0.9556  0.2294 -0.4889
 1959SOL     OW17509   3.028   4.705   2.497  0.4915 -0.0994 -0.2368
 1959SOL    HW117510   3.091   4.697   2.426  1.6343 -1.0289  0.8705
 1959SOL    HW217511   3.020   4.612   2.520 -2.6372  0.1356 -0.3063
 1960SOL     OW17512   0.566   0.187   7.718 -0.0423 -0.0061  0.2131
 1960SOL    HW117513   0.601   0.109   7.759 -1.4597 -0.9582 -0.3605
 1960SOL    HW217514   0.494   0.220   7.773 -0.1645  1.0366 -0.5566
 1961SOL     OW17515   4.510   2.064   3.505 -0.3153 -0.6378 -0.3117
 1961SOL    HW117516   4.500   2.158   3.525  1.6000 -0.3255 -0.8733
 1961SOL    HW217517   4.421   2.041   3.533  0.0776 -1.6243  0.1238
 1962SOL     OW17518   1.044   3.974   5.710  0.1930 -0.1744 -0.3775
 1962SOL    HW117519   0.979   4.017   5.654  1.3505  2.5949  0.3773
 1962SOL    HW217520   1.099   3.923   5.651  0.2719 -0.2006 -0.2800
 1963SOL     OW17521   1.097   0.103  17.064  0.4535  0.1003 -0.0168
 1963SOL    HW117522   1.119   0.158  17.139 -0.6348 -0.8410  0.9785
 1963SOL    HW217523   1.117   0.014  17.091  2.7411  0.7041  0.3026
 1964SOL     OW17524   1.644   4.424   6.890  0.1068 -0.5764  0.5650
 1964SOL    HW117525   1.683   4.511   6.888  0.0413 -0.5608 -0.2880
 1964SOL    HW217526   1.549   4.437   6.901  0.2346  0.2167  0.7321
 1965SOL     OW17527   3.598   4.527   4.111 -0.0083 -0.3451  0.1518
 1965SOL    HW117528   3.504   4.536   4.127  0.5076 -0.2204  3.0445
 1965SOL    HW217529   3.600   4.539   4.016  1.2826  1.1913  0.3669
 1966SOL     OW17530   2.993   2.975   4.692 -0.9851  0.1743  0.5350
 1966SOL    HW117531   2.993   2.910   4.622  3.3493  0.3112  0.3878
 1966SOL    HW217532   2.900   2.966   4.712 -1.3645 -0.6570 -1.5678
 1967SOL     OW17533   2.958   2.694   0.365 -0.2035 -0.3290  0.7412
 1967SOL    HW117534   2.986   2.760   0.301 -0.6524 -1.1871 -0.3491
 1967SOL    HW217535   3.003   2.617   0.332 -1.8204  0.4248 -3.3129
 1968SOL     OW17536   3.758   1.171   3.509 -0.0813 -0.6405  0.3934
 1968SOL    HW117537   3.824   1.212   3.453  0.3792 -0.1415  1.3023
 1968SOL    HW217538   3.758   1.081   3.478 -1.1438 -0.5715  0.1697
 1969SOL     OW17539   1.807   4.338   2.279  0.2244  0.0376 -0.0211
 1969SOL    HW117540   1.845   4.405   2.336  0.7703 -0.4097  0.1401
 1969SOL    HW217541   1.730   4.327   2.334 -1.6917  1.1190 -2.4949
 1970SOL     OW17542   0.762   1.872  12.227  0.4327 -0.9612 -0.1014
 1970SOL    HW117543   0.856   1.856  12.234  0.4894 -1.3008 -1.7225
 1970SOL    HW217544   0.755   1.909  12.139 -0.3098 -0.2723  0.2420
 1971SOL     OW17545   1.442   4.080   9.311 -0.0506 -0.6776 -0.0760
 1971SOL    HW117546   1.381   4.133   9.363  0.6096  0.4465 -0.4350
 1971SOL    HW217547   1.475   4.019   9.377 -2.3850 -1.9716 -0.1415
 1972SOL     OW17548   2.761   1.330  15.708  0.1988  0.1333 -0.3879
 1972SOL    HW117549   2.759   1.381  15.627 -0.9579  0.1123 -0.3699
 1972SOL    HW217550   2.788   1.242  15.680  0.6700  0.0222  0.3923
 1973SOL     OW17551   2.715   4.444   5.173 -0.4615  0.6752  0.7260
 1973SOL    HW117552   2.647   4.377   5.170 -0.7497  1.0215 -0.3238
 1973SOL    HW217553   2.791   4.391   5.199 -0.3439  0.0688 -0.8526
 1974SOL     OW17554   4.116   2.884   3.642 -0.0129 -0.1739 -0.4588
 1974SOL    HW117555   4.146   2.960   3.692 -1.0855  1.8893 -2.8813
 1974SOL    HW217556   4.195   2.834   3.624  1.9737  3.6428 -2.4983
 1975SOL     OW17557   3.126   4.025   3.435 -0.5863 -0.1009  0.1962
 1975SOL    HW117558   3.190   3.973   3.483 -1.2563 -0.8538  0.2883
 1975SOL    HW217559   3.179   4.096   3.400  0.3544 -1.1178 -0.4655
 1976SOL     OW17560   2.171   3.823   2.175  0.2778 -0.2612 -0.2700
 1976SOL    HW117561   2.238   3.889   2.158  0.7881 -0.9873 -1.0413
 1976SOL    HW217562   2.091   3.869   2.149  0.2605 -0.5754 -0.7595
 1977SOL     OW17563   4.028   0.010   4.479 -0.3089 -0.2590  0.1017
 1977SOL    HW117564   4.068   0.030   4.563 -1.5128 -2.0789  1.1067
 1977SOL    HW217565   3.937   0.010   4.509  0.5366  2.6871  2.6470
 1978SOL     OW17566   2.975   1.808   6.026  1.0808 -0.3800  0.2935
 1978SOL    HW117567   3.005   1.754   6.099  1.6040 -1.9435 -1.0899
 1978SOL    HW217568   2.914   1.741   5.996  0.8598  0.4344 -1.1190
 1979SOL     OW17569   1.585   4.071  11.340 -0.0495 -0.3585  0.1402
 1979SOL    HW117570   1.637   4.129  11.285 -1.3389  1.0168  0.3674
 1979SOL    HW217571   1.509   4.127  11.357  1.8044  1.2385  3.2021
 1980SOL     OW17572   0.210   1.465  12.511  0.3290  0.2716 -0.1411
 1980SOL    HW117573   0.145   1.453  12.442  1.1665 -0.7651 -0.7445
 1980SOL    HW217574   0.293   1.448  12.466  0.6603 -0.9136  0.9039
 1981SOL     OW17575   2.484   1.803   1.560  0.4628 -0.0195 -0.2227
 1981SOL    HW117576   2.468   1.829   1.469 -0.8122 -0.3900 -0.0967
 1981SOL    HW217577   2.465   1.888   1.601  3.1748  0.4122  0.1460
 1982SOL     OW17578   0.382   3.888  14.872 -0.2508  0.4113  0.1451
 1982SOL    HW117579   0.288   3.884  14.889  0.0673  1.3091  2.1200
 1982SOL    HW217580   0.413   3.873  14.962  0.8421  1.5675 -0.0422
 1983SOL     OW17581   4.656   3.999   6.096 -0.1095 -0.1576  0.8313
 1983SOL    HW117582   4.648   3.908   6.126  1.4905 -0.9105 -0.9789
 1983SOL    HW217583   4.601   4.004   6.018  1.7643 -1.6592 -0.5844
 1984SOL     OW17584   3.738   2.789   1.012  0.2426 -0.8661  0.1716
 1984SOL    HW117585   3.787   2.739   1.078  0.2786 -2.4362 -1.0611
 1984SOL    HW217586   3.681   2.832   1.075 -0.7825 -2.5269  0.3637
 1985SOL     OW17587   1.543   0.674   5.855  0.5368  0.0745 -0.0078
 1985SOL    HW117588   1.553   0.590   5.899 -0.6472 -0.0264  0.0610
 1985SOL    HW217589   1.533   0.653   5.762  1.1136 -1.9227  0.3719
 1986SOL     OW17590   0.205   0.120  17.004 -0.5164  0.3614 -0.2769
 1986SOL    HW117591   0.156   0.198  16.976  0.5289  1.3169  0.5636
 1986SOL    HW217592   0.155   0.047  16.966  1.2911 -0.0289 -1.9199
 1987SOL     OW17593   4.425   2.020  14.560  1.0313 -0.3593  0.2747
 1987SOL    HW117594   4.419   1.971  14.642 -3.5335  0.3331  0.3460
 1987SOL    HW217595   4.362   2.090  14.578  1.0727 -0.4033  0.5932
 1988SOL     OW17596   2.258   3.224  15.041  0.5271  0.4139  0.3184
 1988SOL    HW117597   2.191   3.285  15.010 -0.4117 -0.2599  0.9987
 1988SOL    HW217598   2.272   3.166  14.967  0.1389  0.0283  0.5465
 1989SOL     OW17599   0.521   0.521  13.807 -0.7795 -0.2840  0.2242
 1989SOL    HW117600   0.464   0.540  13.881  0.4967 -1.5684  1.5299
 1989SOL    HW217601   0.554   0.609  13.786  0.2034 -0.9630 -1.0921
 1990SOL     OW17602   2.151   3.240  15.565 -0.5973 -0.1735 -0.1195
 1990SOL    HW117603   2.097   3.168  15.599 -0.8512  0.9080  1.7984
 1990SOL    HW217604   2.130   3.239  15.472  1.4920 -0.8686 -0.5918
 1991SOL     OW17605   2.236   1.989   8.121 -0.3230  0.1859  0.2954
 1991SOL    HW117606   2.327   1.960   8.112 -0.5170 -0.9229  1.9336
 1991SOL    HW217607   2.191   1.912   8.088  1.6346 -0.4084 -1.0135
 1992SOL     OW17608   2.758   1.234   8.129 -0.1156 -0.8555  0.3222
 1992SOL    HW117609   2.725   1.296   8.065 -0.3557 -0.9885  0.3198
 1992SOL    HW217610   2.721   1.150   8.102 -0.6764  0.1871 -2.1211
 1993SOL     OW17611   2.845   1.207   8.525  0.4039 -0.2779 -0.0051
 1993SOL    HW117612   2.762   1.188   8.482 -0.1969  0.8933  0.6476
 1993SOL    HW217613   2.905   1.200   8.450  0.3346 -1.5318  0.0607
 1994SOL     OW17614   3.319   2.750   2.205  0.0374 -0.6931  0.3564
 1994SOL    HW117615   3.399   2.756   2.258 -1.3420 -2.2442  2.6163
 1994SOL    HW217616   3.269   2.693   2.264 -0.9102 -0.1770  0.0419
 1995SOL     OW17617   1.246   2.699   6.136  0.3495  0.0767  0.0362
 1995SOL    HW117618   1.336   2.668   6.133 -0.0672 -0.9439 -1.8339
 1995SOL    HW217619   1.244   2.775   6.194  1.8714 -0.0263  0.2114
 1996SOL     OW17620   2.129   0.719   8.014 -0.5355 -0.1843  0.7135
 1996SOL    HW117621   2.179   0.706   7.933 -1.5329 -1.8019  0.3630
 1996SOL    HW217622   2.116   0.632   8.052  3.2723 -0.9977  0.1433
 1997SOL     OW17623   2.396   2.364  12.969  0.2607  0.4366  0.8851
 1997SOL    HW117624   2.386   2.303  12.895  0.8757  0.5588  0.7027
 1997SOL    HW217625   2.392   2.301  13.040  1.6142 -1.3418 -0.6026
 1998SOL     OW17626   2.276   0.790   3.043 -0.4426 -0.1912 -0.1192
 1998SOL    HW117627   2.223   0.800   2.964 -0.3726  2.6171  0.2067
 1998SOL    HW217628   2.357   0.778   2.993 -1.3015 -0.6153 -1.4223
 1999SOL     OW17629   0.657   3.405   9.318 -0.4418 -0.7320 -0.2487
 1999SOL    HW117630   0.670   3.353   9.397  0.4064 -0.2683 -0.0932
 1999SOL    HW217631   0.568   3.373   9.301 -1.1868  0.7073  0.9336
 2000SOL     OW17632   0.632   3.836   3.768  0.7410  0.3924  0.1611
 2000SOL    HW117633   0.679   3.891   3.831  0.3954  0.9702 -0.0860
 2000SOL    HW217634   0.702   3.774   3.749  1.8848  1.5459  0.6662
 2001SOL     OW17635   3.144   0.828   4.717  0.0067  0.1109 -0.3255
 2001SOL    HW117636   3.204   0.757   4.694 -2.4918 -1.5159 -1.6893
 2001SOL    HW217637   3.104   0.784   4.792 -1.6438  0.4210 -1.0408
 2002SOL     OW17638   1.037   0.716   6.562 -0.1468  0.4053 -0.1479
 2002SOL    HW117639   1.064   0.791   6.615 -0.6553 -0.1028  0.8485
 2002SOL    HW217640   0.990   0.661   6.626  2.0013 -0.1652  0.9671
 2003SOL     OW17641   4.252   4.342  12.310 -0.8325  0.0992 -0.1166
 2003SOL    HW117642   4.323   4.404  12.293  0.5430 -2.1388 -2.6113
 2003SOL    HW217643   4.176   4.399  12.321 -2.1598 -1.1358 -2.7696
 2004SOL     OW17644   0.216   0.262   9.831  0.0128 -0.3920  0.2188
 2004SOL    HW117645   0.226   0.167   9.840 -0.3296 -0.3254  1.2300
 2004SOL    HW217646   0.145   0.261   9.766  0.9043  2.9693 -0.8081
 2005SOL     OW17647   4.455   0.962  16.839  0.1136  0.6265  0.1586
 2005SOL    HW117648   4.368   0.984  16.870 -0.3391 -2.2481  0.9434
 2005SOL    HW217649   4.502   0.999  16.914 -0.4617  1.3053  0.1828
 2006SOL     OW17650   2.167   4.469   3.469 -0.1908  0.0696  0.0695
 2006SOL    HW117651   2.079   4.453   3.504 -0.7763  0.2202 -1.3261
 2006SOL    HW217652   2.159   4.548   3.416  2.5149  0.8824  0.8825
 2007SOL     OW17653   2.415   1.321   6.024 -0.1955  0.5877 -0.3147
 2007SOL    HW117654   2.449   1.390   5.966 -1.6139 -0.3456 -2.2876
 2007SOL    HW217655   2.499   1.307   6.068 -0.0844 -1.7499 -1.2634
 2008SOL     OW17656   3.938   3.899   6.784  0.1264  0.1105  0.1517
 2008SOL    HW117657   3.865   3.896   6.846 -0.0240  1.6276  0.0414
 2008SOL    HW217658   3.909   3.837   6.717  1.5794  0.9104 -1.2073
 2009SOL     OW17659   0.441   2.014  10.240  0.4804  0.4418  0.8349
 2009SOL    HW117660   0.488   2.082  10.288 -0.9235 -0.2458  3.1503
 2009SOL    HW217661   0.350   2.044  10.233 -0.5970 -2.8843  0.4223
 2010SOL     OW17662   2.937   0.590  17.235  0.3904 -0.3920  0.6811
 2010SOL    HW117663   2.899   0.619  17.318 -0.1477 -0.4015  0.4374
 2010SOL    HW217664   2.858   0.570  17.184 -0.1345 -0.9590  1.7071
 2011SOL     OW17665   3.532   2.627   6.780 -0.0358 -0.2659  0.1347
 2011SOL    HW117666   3.463   2.687   6.808  0.5252 -0.0976  1.1578
 2011SOL    HW217667   3.500   2.586   6.700  0.6236  2.3686 -1.4656
 2012SOL     OW17668   1.616   2.010   8.204 -0.7353  0.0060  0.8116
 2012SOL    HW117669   1.523   2.008   8.226 -0.4646  0.9125  1.9768
 2012SOL    HW217670   1.633   2.104   8.209 -0.5884  0.0415 -0.2918
 2013SOL     OW17671   1.534   0.446   5.978  0.2690 -0.1777 -0.6249
 2013SOL    HW117672   1.471   0.422   6.046  1.0547 -1.7128 -0.4518
 2013SOL    HW217673   1.609   0.392   6.002  0.2369  0.7717  1.6020
 2014SOL     OW17674   3.393   1.810   6.261 -0.1099  0.7208 -0.3602
 2014SOL    HW117675   3.364   1.799   6.171  0.8641  1.9691 -0.8224
 2014SOL    HW217676   3.398   1.905   6.274 -0.3514  0.6178  0.5127
 2015SOL     OW17677   2.326   4.127   2.588 -0.5113 -0.3720  0.1391
 2015SOL    HW117678   2.269   4.059   2.553  1.4548 -2.2940  0.6991
 2015SOL    HW217679   2.276   4.147   2.668 -0.0568 -0.0793  0.3466
 2016SOL     OW17680   0.326   1.669  15.295  0.6963 -0.3275  0.1708
 2016SOL    HW117681   0.274   1.745  15.323  0.5034 -0.8896  1.3380
 2016SOL    HW217682   0.390   1.655  15.365  1.7739 -0.0052 -0.7411
 2017SOL     OW17683   1.136   0.892   5.781 -0.2945  0.0955 -0.1864
 2017SOL    HW117684   1.155   0.799   5.769  0.5708  0.4260 -1.4210
 2017SOL    HW217685   1.224   0.931   5.777 -0.7390  1.3533  2.1752
 2018SOL     OW17686   0.134   4.638  13.917  0.0604 -0.4137 -0.1309
 2018SOL    HW117687   0.229   4.648  13.908  0.2677 -0.0238  2.6869
 2018SOL    HW217688   0.134   4.587  13.998 -0.2798 -0.3471 -0.0875
 2019SOL     OW17689   3.998   4.042  14.238  0.1647  0.3142 -0.1259
 2019SOL    HW117690   3.998   3.947  14.251  1.2944  0.6171  2.1221
 2019SOL    HW217691   3.919   4.044  14.185 -0.2956  0.2767  0.5619
 2020SOL     OW17692   1.422   0.036   8.533  0.3231 -0.1824 -0.0052
 2020SOL    HW117693   1.491   0.047   8.468 -0.3716 -0.3430 -0.7650
 2020SOL    HW217694   1.425   4.677   8.545  1.5824 -0.1140  0.2245
 2021SOL     OW17695   0.721   0.432   2.097 -0.2349 -0.0387 -0.5970
 2021SOL    HW117696   0.776   0.354   2.093 -0.7881 -0.5525  1.6523
 2021SOL    HW217697   0.721   0.470   2.009  0.0599  2.0283  0.2978
 2022SOL     OW17698   1.996   0.084  17.513  0.6324  0.1387  0.7659
 2022SOL    HW117699   1.923   0.139  17.543  0.6484  1.4964 -1.6632
 2022SOL    HW217700   2.076   0.128  17.543  0.1365  0.6798  1.2989
 2023SOL     OW17701   3.353   1.682  14.927 -0.2589  0.0948 -0.1229
 2023SOL    HW117702   3.344   1.767  14.970  1.5061  0.8453 -1.2267
 2023SOL    HW217703   3.370   1.703  14.835 -0.5485  0.3991 -0.1062
 2024SOL     OW17704   0.002   2.832   3.772  0.0846  0.5364 -0.0870
 2024SOL    HW117705   4.727   2.738   3.788 -0.1035  0.2377 -1.9800
 2024SOL    HW217706   4.688   2.860   3.848  0.4301  0.0420  0.3255
 2025SOL     OW17707   1.428   3.027   8.638 -0.2752  0.1126  0.1504
 2025SOL    HW117708   1.472   2.963   8.695  0.0341  1.6642  1.6678
 2025SOL    HW217709   1.384   2.961   8.585 -0.6454  0.5644 -0.0986
 2026SOL     OW17710   1.959   3.553  17.073 -0.2175  0.3710 -0.3320
 2026SOL    HW117711   1.970   3.625  17.010 -0.7155  0.6852 -0.0653
 2026SOL    HW217712   1.980   3.481  17.014  1.9049  0.8773 -0.1792
 2027SOL     OW17713   1.036   1.874   5.957  0.4183  0.3410 -0.2514
 2027SOL    HW117714   0.950   1.884   5.997  0.1707  0.3128 -0.7836
 2027SOL    HW217715   1.086   1.945   5.998  0.6392  0.2819 -0.4232
 2028SOL     OW17716   3.010   4.010   2.980  0.0740 -0.5799  0.2997
 2028SOL    HW117717   3.003   3.919   2.949  1.3022  0.0255 -1.7355
 2028SOL    HW217718   2.954   4.055   2.917  0.4255 -1.0049 -0.3180
 2029SOL     OW17719   0.484   0.195   4.041 -0.1215 -0.4937  0.2451
 2029SOL    HW117720   0.417   0.259   4.065  1.2542  1.0161  0.0817
 2029SOL    HW217721   0.452   0.123   4.095 -0.4403 -1.7114 -1.5873
 2030SOL     OW17722   4.088   3.564   4.085 -0.0302 -0.1266  0.2212
 2030SOL    HW117723   4.089   3.582   3.991 -2.6980 -0.1800  0.1800
 2030SOL    HW217724   4.049   3.476   4.084  0.3626 -0.2931 -1.2179
 2031SOL     OW17725   0.307   0.340   4.467 -0.4730  0.0061 -0.3604
 2031SOL    HW117726   0.262   0.392   4.533  0.2369 -1.7605  1.4857
 2031SOL    HW217727   0.297   0.403   4.395  2.6698  2.0271  0.9832
 2032SOL     OW17728   3.584   1.983   2.278  0.0678  0.0724  0.4258
 2032SOL    HW117729   3.528   2.046   2.323  1.2544  1.0952  0.4650
 2032SOL    HW217730   3.557   1.899   2.315  0.9451  0.5489  2.1329
 2033SOL     OW17731   2.291   3.214   3.407  0.1246 -0.3144  0.4567
 2033SOL    HW117732   2.221   3.280   3.410  0.2759 -0.2245  1.9090
 2033SOL    HW217733   2.321   3.228   3.317  0.3974  0.6705  0.6938
 2034SOL     OW17734   3.696   3.095   4.185 -0.1186 -0.6357 -0.1563
 2034SOL    HW117735   3.739   3.131   4.262 -0.7528 -2.0118  0.8415
 2034SOL    HW217736   3.777   3.059   4.149  0.5164  0.8217 -0.2198
 2035SOL     OW17737   3.169   0.623   6.509 -0.0965  0.3074 -0.0905
 2035SOL    HW117738   3.093   0.595   6.458  1.5645 -0.6360 -2.0586
 2035SOL    HW217739   3.184   0.711   6.473  0.0741 -0.0638 -0.9221
 2036SOL     OW17740   3.535   3.026  16.860 -1.1538  0.1665  0.5812
 2036SOL    HW117741   3.499   3.003  16.946  1.0556 -1.1070  1.1762
 2036SOL    HW217742   3.613   3.077  16.884 -0.9114  0.7148 -1.3501
 2037SOL     OW17743   4.215   4.193   6.391  0.0544 -0.0271  0.9669
 2037SOL    HW117744   4.179   4.122   6.339 -0.2454  2.4980 -2.2441
 2037SOL    HW217745   4.256   4.152   6.467 -1.2518  2.1985  2.8921
 2038SOL     OW17746   1.446   3.498   7.833 -0.0347 -0.2994  0.0485
 2038SOL    HW117747   1.440   3.419   7.780 -0.2372  0.4059 -0.9838
 2038SOL    HW217748   1.529   3.531   7.799 -0.3661  0.5263  0.0221
 2039SOL     OW17749   1.824   3.786   8.287 -0.1211 -0.7066 -0.2006
 2039SOL    HW117750   1.913   3.755   8.299 -1.0745 -2.4870  2.4291
 2039SOL    HW217751   1.808   3.733   8.209  1.1750  0.8628 -1.5212
 2040SOL     OW17752   0.867   4.482   3.731  0.2188  0.0433 -0.5261
 2040SOL    HW117753   0.902   4.402   3.692 -0.0727 -0.8465  1.0157
 2040SOL    HW217754   0.782   4.484   3.687  1.3065  2.5309 -2.5061
 2041SOL     OW17755   3.073   0.620   5.859 -0.5736 -0.2056 -0.2432
 2041SOL    HW117756   3.050   0.713   5.861  1.4455  0.2482  1.4337
 2041SOL    HW217757   3.145   0.619   5.796  0.2450 -0.5005  0.6996
 2042SOL     OW17758   0.183   1.456  14.611 -0.1223  0.0705 -0.0366
 2042SOL    HW117759   0.126   1.380  14.602  0.4505 -0.5913  1.8662
 2042SOL    HW217760   0.267   1.412  14.625 -1.3132 -1.1927  3.2233
 2043SOL     OW17761   0.809   0.098   3.219  0.0035  0.1991 -0.3040
 2043SOL    HW117762   0.795   0.181   3.174 -0.7503  0.7956  1.0262
 2043SOL    HW217763   0.811   0.038   3.145 -1.6113  1.9518 -1.7714
 2044SOL     OW17764   4.502   0.735   4.088  0.1089 -0.4513 -0.2337
 2044SOL    HW117765   4.490   0.800   4.019  0.1523  0.1809  0.3535
 2044SOL    HW217766   4.426   0.677   4.082  0.0353 -0.5721  1.6244
 2045SOL     OW17767   0.303   1.047   6.276  0.1497 -0.3679 -0.6769
 2045SOL    HW117768   0.395   1.057   6.301  1.0352 -2.7380 -2.8843
 2045SOL    HW217769   0.295   0.952   6.264 -5.1041  0.1723 -1.7145
 2046SOL     OW17770   2.514   2.542   8.706  0.7150 -0.1021 -0.3365
 2046SOL    HW117771   2.478   2.480   8.642 -1.9930  2.1554 -0.9973
 2046SOL    HW217772   2.587   2.492   8.743  1.9053  1.2724 -0.8422
 2047SOL     OW17773   0.813   3.336   4.200  0.0437  0.0082  0.0550
 2047SOL    HW117774   0.802   3.275   4.128  1.8056 -0.4884  0.2127
 2047SOL    HW217775   0.722   3.358   4.220  0.0400 -0.6259  0.7514
 2048SOL     OW17776   3.473   4.316   4.672  0.1751  0.4830 -0.6926
 2048SOL    HW117777   3.498   4.232   4.710  2.9223  0.5013 -2.4671
 2048SOL    HW217778   3.559   4.357   4.657  2.0350 -3.2511 -0.1161
 2049SOL     OW17779   3.257   1.446   6.174 -0.6303  0.2807  0.5302
 2049SOL    HW117780   3.178   1.399   6.145  0.9070 -1.6670 -0.4733
 2049SOL    HW217781   3.283   1.402   6.255 -1.3414  0.1630  0.6936
 2050SOL     OW17782   3.103   1.237  15.051  0.0268  0.3879  0.2417
 2050SOL    HW117783   3.120   1.186  15.131  1.3406  1.8374  0.8788
 2050SOL    HW217784   3.134   1.322  15.082  1.4901 -0.6817  1.7380
 2051SOL     OW17785   4.384   1.104   4.351 -0.6214 -0.6445  0.2658
 2051SOL    HW117786   4.421   1.083   4.437 -1.5230 -0.0227  0.8055
 2051SOL    HW217787   4.327   1.175   4.380 -0.1157 -0.9047  1.9051
 2052SOL     OW17788   1.920   4.516   1.634  0.0379 -0.5866  0.3011
 2052SOL    HW117789   1.949   4.494   1.545  1.3889  2.2997  0.0157
 2052SOL    HW217790   1.950   4.606   1.644  1.7802 -0.9161 -1.8695
 2053SOL     OW17791   1.846   1.037   5.367  0.1877  0.4707  0.3303
 2053SOL    HW117792   1.764   0.988   5.377 -0.7959  2.0125 -0.2034
 2053SOL    HW217793   1.869   1.057   5.457  0.4005  2.0567 -0.0768
 2054SOL     OW17794   3.413   3.557   5.868 -0.4026 -0.4202  0.0573
 2054SOL    HW117795   3.486   3.553   5.807 -0.4455 -0.0058 -0.0234
 2054SOL    HW217796   3.374   3.641   5.842 -4.0763 -1.9485  0.6358
 2055SOL     OW17797   3.633   4.533   2.794  0.4646  0.2579 -0.5009
 2055SOL    HW117798   3.578   4.562   2.867  1.2329  0.1317  0.1285
 2055SOL    HW217799   3.583   4.564   2.719 -0.2710  0.8647  0.2503
 2056SOL     OW17800   1.908   1.907   6.629 -0.0706 -0.2052  0.3332
 2056SOL    HW117801   1.993   1.915   6.585 -0.6888  1.5700 -0.5022
 2056SOL    HW217802   1.852   1.862   6.567  1.2824  0.5396 -1.4339
 2057SOL     OW17803   1.684   0.907   0.828 -0.6378  0.4251  0.2471
 2057SOL    HW117804   1.602   0.890   0.782 -0.9466  0.7081  0.6907
 2057SOL    HW217805   1.665   0.909   0.922  2.3873 -0.6726  0.8960
 2058SOL     OW17806   3.670   0.911  14.736 -0.4661 -0.0260  0.2820
 2058SOL    HW117807   3.755   0.881  14.770 -0.7665  0.9131  1.8333
 2058SOL    HW217808   3.682   0.889  14.644 -0.6858  1.7235 -0.1495
 2059SOL     OW17809   4.566   0.194   4.464 -0.2172 -0.2375 -0.4651
 2059SOL    HW117810   4.550   0.139   4.388 -0.9070  1.1849 -1.3450
 2059SOL    HW217811   4.645   0.243   4.444  1.0334 -2.1368 -0.1836
 2060SOL     OW17812   1.231   3.401   0.806  0.1092 -0.1683  0.3067
 2060SOL    HW117813   1.227   3.320   0.755  0.7543 -0.3968  0.6190
 2060SOL    HW217814   1.321   3.393   0.838  1.7455 -0.1311 -4.2293
 2061SOL     OW17815   0.968   0.304   7.973  0.0676  0.0525 -0.3231
 2061SOL    HW117816   1.042   0.290   8.032 -2.2617 -3.5598  1.6678
 2061SOL    HW217817   0.957   0.224   7.923  2.3446 -1.2857  1.3207
 2062SOL     OW17818   2.498   4.698   4.871  0.1478  0.1449  0.1927
 2062SOL    HW117819   2.448   4.627   4.912 -1.2527  0.4645 -0.9875
 2062SOL    HW217820   2.424   0.010   4.836 -0.0267 -1.8452 -2.1923
 2063SOL     OW17821   1.717   0.573   7.153 -0.4544  0.0590  0.5397
 2063SOL    HW117822   1.659   0.611   7.219  1.4169 -0.9197  2.7350
 2063SOL    HW217823   1.774   0.649   7.142  0.7622 -1.0328 -0.6487
 2064SOL     OW17824   4.521   3.487  10.773 -0.0432  0.5417 -0.1836
 2064SOL    HW117825   4.432   3.518  10.755 -0.0214  0.9577  0.4337
 2064SOL    HW217826   4.572   3.567  10.779  0.7785 -0.0028  0.1462
 2065SOL     OW17827   2.764   0.317   5.985 -0.1078 -0.0394 -0.2572
 2065SOL    HW117828   2.804   0.303   5.899 -1.5894 -0.7442 -0.8258
 2065SOL    HW217829   2.842   0.338   6.037  1.1254 -0.4924 -1.9484
 2066SOL     OW17830   4.405   0.031   9.779  0.2009  0.1616  0.0060
 2066SOL    HW117831   4.313   0.005   9.782  0.4208 -0.7770 -1.0965
 2066SOL    HW217832   4.448   4.691   9.816 -1.4114  0.1140  1.7356
 2067SOL     OW17833   4.075   0.817   0.045  0.2845  0.2935 -0.1648
 2067SOL    HW117834   4.052   0.886   0.108  1.2843  3.2284 -2.9667
 2067SOL    HW217835   4.087   0.738   0.096  3.1171  0.3914 -0.6758
 2068SOL     OW17836   3.617   0.717   8.865  0.3486 -0.4931  0.0215
 2068SOL    HW117837   3.622   0.791   8.805  0.7498  1.1592  2.1027
 2068SOL    HW217838   3.680   0.747   8.931 -0.3412  0.3403  0.3003
 2069SOL     OW17839   3.216   3.402   4.397  0.3707 -0.4870  0.1439
 2069SOL    HW117840   3.249   3.481   4.440 -0.2360 -2.1512  3.7192
 2069SOL    HW217841   3.131   3.395   4.439  1.2107  0.8694  2.0473
 2070SOL     OW17842   3.992   2.331   6.067 -0.6744 -0.5793  0.2771
 2070SOL    HW117843   4.084   2.328   6.041 -1.4265  0.5029 -2.4622
 2070SOL    HW217844   3.989   2.423   6.093  0.2466  0.6680 -4.0909
 2071SOL     OW17845   0.205   3.200   3.804 -0.2074  0.0475 -0.1540
 2071SOL    HW117846   0.128   3.235   3.848 -0.1257 -0.7696  0.6459
 2071SOL    HW217847   0.169   3.119   3.768 -2.5219  1.3965 -0.9185
 2072SOL     OW17848   2.469   3.094   0.165  0.3802 -0.1079  0.4007
 2072SOL    HW117849   2.408   3.020   0.170 -0.2128  0.4645  1.5112
 2072SOL    HW217850   2.510   3.064   0.084  1.3200  1.5753  0.2556
 2073SOL     OW17851   3.995   3.185   4.731  0.6605  0.2166 -0.4530
 2073SOL    HW117852   3.915   3.197   4.679 -0.8625  1.7069  2.2279
 2073SOL    HW217853   3.985   3.101   4.775  0.2551  0.1153 -0.7296
 2074SOL     OW17854   4.103   1.343   9.188 -0.3225  0.0513  0.3280
 2074SOL    HW117855   4.038   1.344   9.259 -1.2952  0.0707 -0.5581
 2074SOL    HW217856   4.143   1.258   9.206  1.9284  0.5873 -2.2921
 2075SOL     OW17857   2.949   2.912   1.996 -0.1773 -0.0170  0.1424
 2075SOL    HW117858   3.034   2.896   2.037  1.4454 -0.7400 -3.5216
 2075SOL    HW217859   2.973   2.899   1.905  0.7490 -2.5213  0.7564
 2076SOL     OW17860   2.830   2.835  10.725 -0.4453 -0.0601 -0.0967
 2076SOL    HW117861   2.802   2.747  10.701 -0.7281  0.0754 -0.2631
 2076SOL    HW217862   2.839   2.818  10.819  0.3930  1.1460  0.0466
 2077SOL     OW17863   2.571   1.119   1.584 -0.4561 -0.3818 -0.4088
 2077SOL    HW117864   2.526   1.035   1.587 -0.4639 -0.3661 -0.1093
 2077SOL    HW217865   2.608   1.116   1.496 -0.0325  1.3365 -0.2777
 2078SOL     OW17866   0.809   1.499  11.901 -0.1806  0.4175 -1.1801
 2078SOL    HW117867   0.743   1.479  11.835 -0.7273  0.3289 -0.6141
 2078SOL    HW217868   0.757   1.473  11.977 -0.2058  3.9818  0.0371
 2079SOL     OW17869   3.556   3.104  14.244 -0.4080 -0.5638 -0.4515
 2079SOL    HW117870   3.510   3.134  14.323 -0.4228  1.5428 -1.2584
 2079SOL    HW217871   3.499   3.039  14.204 -1.9517  1.0514 -0.8878
 2080SOL     OW17872   0.712   1.323   6.592 -0.1917  0.4044 -0.0294
 2080SOL    HW117873   0.723   1.341   6.685 -0.4034 -0.7687  0.2167
 2080SOL    HW217874   0.681   1.407   6.557 -3.0927 -0.9670 -0.7605
 2081SOL     OW17875   0.324   2.511   7.351  0.3888  0.4549  0.3072
 2081SOL    HW117876   0.292   2.519   7.440 -0.0893 -0.4097  0.2157
 2081SOL    HW217877   0.241   2.489   7.308  1.7478 -0.4391 -1.8931
 2082SOL     OW17878   2.582   1.902   5.796  0.1035 -0.7634 -0.1652
 2082SOL    HW117879   2.661   1.878   5.843 -0.3208 -1.4080  0.2188
 2082SOL    HW217880   2.612   1.955   5.723  0.0851 -0.0502  0.3454
 2083SOL     OW17881   0.914   0.663   7.323  0.2733 -0.0056 -0.0581
 2083SOL    HW117882   1.003   0.686   7.297  0.4550 -0.9595 -0.2803
 2083SOL    HW217883   0.869   0.612   7.255 -2.2888  1.2148  0.7042
 2084SOL     OW17884   3.875   1.763   2.382  0.2735  0.0921 -0.1335
 2084SOL    HW117885   3.921   1.735   2.461 -1.3242 -0.3411  0.6373
 2084SOL    HW217886   3.788   1.743   2.414  0.7601 -2.3819 -0.3419
 2085SOL     OW17887   3.146   4.059   8.286  0.0223 -0.4654  0.1212
 2085SOL    HW117888   3.230   4.050   8.332  0.2930 -3.0728 -0.8486
 2085SOL    HW217889   3.127   4.141   8.331  0.0424 -0.5316  0.2491
 2086SOL     OW17890   1.736   3.079  15.729 -0.1625  0.1802 -0.2167
 2086SOL    HW117891   1.821   3.120  15.718 -1.0646  1.7044 -1.5985
 2086SOL    HW217892   1.717   3.115  15.816 -0.7932 -2.1750  0.6205
 2087SOL     OW17893   0.902   0.569   4.519  0.2716 -0.0275 -0.0183
 2087SOL    HW117894   0.870   0.479   4.527 -1.0439  0.5522  1.2593
 2087SOL    HW217895   0.968   0.577   4.587  0.8669 -1.1451 -0.4687
 2088SOL     OW17896   2.561   0.231   6.499 -0.4248 -0.2147  0.5601
 2088SOL    HW117897   2.600   0.169   6.437  1.6813  1.4967  0.1671
 2088SOL    HW217898   2.518   0.289   6.436  1.4200  0.2380 -0.2720
 2089SOL     OW17899   1.222   0.859   9.683  0.1068 -0.4789 -0.4961
 2089SOL    HW117900   1.179   0.866   9.768 -0.7097  0.7259 -1.0080
 2089SOL    HW217901   1.301   0.809   9.704  0.1671 -0.8007 -1.5023
 2090SOL     OW17902   2.166   3.918   6.368 -0.3081  0.6792  0.3575
 2090SOL    HW117903   2.218   3.989   6.331 -0.3239  1.1881  1.3130
 2090SOL    HW217904   2.107   3.907   6.293 -2.1987  0.1621  1.9146
 2091SOL     OW17905   3.577   0.082  15.487 -0.0655 -0.4801  0.1045
 2091SOL    HW117906   3.628   0.003  15.472  0.3141 -0.4698  1.3113
 2091SOL    HW217907   3.656   0.134  15.502 -2.0460  2.3920  0.6256
 2092SOL     OW17908   3.816   2.014   1.613 -0.1715 -0.2029 -0.8048
 2092SOL    HW117909   3.760   2.084   1.581 -0.8568  0.4378  1.8206
 2092SOL    HW217910   3.830   1.964   1.532 -1.2434 -1.2453 -0.3460
 2093SOL     OW17911   3.770   0.463  14.123  0.2741  0.0637  0.5061
 2093SOL    HW117912   3.812   0.544  14.153  0.2531  0.4802 -0.5766
 2093SOL    HW217913   3.778   0.472  14.028  0.4705 -1.5597  0.3624
 2094SOL     OW17914   4.114   0.476   0.064  0.2274 -0.7952 -0.3241
 2094SOL    HW117915   4.105   0.382   0.079 -1.0147 -0.6210  0.0087
 2094SOL    HW217916   4.192   0.491   0.116 -0.4270 -0.2833  0.5089
 2095SOL     OW17917   1.262   0.648   2.756 -0.3040 -0.6257  0.0249
 2095SOL    HW117918   1.192   0.713   2.748  0.8020  0.6067  0.5736
 2095SOL    HW217919   1.255   0.612   2.845 -2.1090 -0.1427  0.0901
 2096SOL     OW17920   1.137   0.152  12.607  0.2463  0.0468 -0.3319
 2096SOL    HW117921   1.173   0.067  12.632  0.8290 -0.3322 -2.5153
 2096SOL    HW217922   1.053   0.126  12.569 -1.2883  2.7791  1.1823
 2097SOL     OW17923   4.518   1.780  13.908 -0.4228 -0.3001 -0.2790
 2097SOL    HW117924   4.536   1.816  13.995  0.8544 -0.3069 -0.5542
 2097SOL    HW217925   4.608   1.770  13.878  0.2099 -1.2499  1.8903
 2098SOL     OW17926   0.245   1.099   2.286  0.2977 -0.4171  0.0854
 2098SOL    HW117927   0.225   1.124   2.196 -0.4034  2.6942  1.1023
 2098SOL    HW217928   0.245   1.185   2.329  1.5429  1.2073 -3.2038
 2099SOL     OW17929   0.637   1.962   7.152  0.0638  0.6280 -0.1135
 2099SOL    HW117930   0.718   1.941   7.198 -0.2707 -0.0063  0.1806
 2099SOL    HW217931   0.662   2.013   7.075 -0.8354  0.9785 -0.1710
 2100SOL     OW17932   0.576   4.534   5.572  0.1271  0.3730 -0.2376
 2100SOL    HW117933   0.609   4.446   5.591  1.8507  0.7478 -1.4548
 2100SOL    HW217934   0.622   4.590   5.635  0.4366  0.2140 -0.3223
 2101SOL     OW17935   1.340   1.572  16.524  0.1180  0.1387  0.2512
 2101SOL    HW117936   1.435   1.575  16.531  0.0257 -0.9092  2.0999
 2101SOL    HW217937   1.320   1.537  16.611  0.5589 -2.5416 -0.7160
 2102SOL     OW17938   3.468   0.097   1.192  0.7418 -0.4569  0.2449
 2102SOL    HW117939   3.562   0.081   1.181  0.7650 -0.7828  0.9099
 2102SOL    HW217940   3.479   0.129   1.282 -1.3638  0.1125  0.3133
 2103SOL     OW17941   1.488   3.154   3.216  0.0706 -0.3742 -0.1232
 2103SOL    HW117942   1.548   3.228   3.227  2.2507 -2.0621 -0.6246
 2103SOL    HW217943   1.409   3.205   3.202  0.0574 -0.0802  1.0009
 2104SOL     OW17944   4.384   0.872   5.207  0.6049  0.7379 -0.8825
 2104SOL    HW117945   4.368   0.889   5.300  0.1641  0.6918 -0.9516
 2104SOL    HW217946   4.363   0.956   5.168  1.3359  0.5917 -1.5979
 2105SOL     OW17947   3.809   3.554   5.334 -0.7671  0.3486  0.4597
 2105SOL    HW117948   3.889   3.555   5.387 -1.5606 -1.4114  1.7145
 2105SOL    HW217949   3.836   3.589   5.249 -1.7008  1.6867  0.7100
 2106SOL     OW17950   3.161   2.079   2.425  0.0746  0.1402  0.2131
 2106SOL    HW117951   3.188   2.162   2.385  0.7631 -0.9462 -1.6246
 2106SOL    HW217952   3.152   2.021   2.349 -0.0599  0.5650 -0.0998
 2107SOL     OW17953   1.966   0.913   6.349 -0.0052 -0.0474  0.5144
 2107SOL    HW117954   1.983   0.926   6.442 -0.8178  1.7219  0.4288
 2107SOL    HW217955   2.027   0.975   6.309 -1.6017  1.0906 -0.1873
 2108SOL     OW17956   3.176   2.628   4.360  0.3005 -0.5081  0.3084
 2108SOL    HW117957   3.234   2.704   4.365  0.9973 -1.2495  3.2145
 2108SOL    HW217958   3.249   2.567   4.350  1.3941  0.7736  0.5032
 2109SOL     OW17959   2.746   1.742  17.381 -0.4985  0.0882  0.3818
 2109SOL    HW117960   2.734   1.818  17.438 -1.4104 -0.3976  0.8254
 2109SOL    HW217961   2.753   1.671  17.444  0.3363 -0.6676 -0.5675
 2110SOL     OW17962   3.281   1.731   5.385  0.3214  0.4428  0.2294
 2110SOL    HW117963   3.303   1.770   5.300 -0.9298  4.1494  1.6023
 2110SOL    HW217964   3.358   1.744   5.440  1.2553 -2.0126 -0.5265
 2111SOL     OW17965   1.434   4.107   3.083  0.1830  0.5300  0.2310
 2111SOL    HW117966   1.402   4.188   3.042  3.7525  1.4909 -0.6498
 2111SOL    HW217967   1.447   4.128   3.175 -1.3680 -3.2251  1.2844
 2112SOL     OW17968   4.196   3.130   4.228 -0.1991 -0.5353 -0.4345
 2112SOL    HW117969   4.149   3.188   4.287 -1.1521  1.3325 -3.0350
 2112SOL    HW217970   4.269   3.185   4.198  0.6911 -1.8659 -0.7071
 2113SOL     OW17971   3.438   2.569   9.966 -0.5037 -0.4264 -0.5909
 2113SOL    HW117972   3.385   2.503  10.010 -1.1383 -1.5487 -3.0344
 2113SOL    HW217973   3.455   2.522   9.884 -1.7859 -4.1323  1.3016
 2114SOL     OW17974   3.823   0.147   8.712  0.6113  0.2691 -0.3310
 2114SOL    HW117975   3.798   0.080   8.775 -1.7899  1.0455 -0.4701
 2114SOL    HW217976   3.916   0.155   8.735  0.4700  1.9592 -0.3698
 2115SOL     OW17977   1.870   4.642   9.027  0.2811  0.7130  0.1798
 2115SOL    HW117978   1.813   4.716   9.006 -0.0836  0.7807  1.3847
 2115SOL    HW217979   1.898   4.679   9.111 -0.1791  0.5415  0.4131
 2116SOL     OW17980   3.531   2.769   4.595  0.3918  0.1035 -0.2253
 2116SOL    HW117981   3.451   2.741   4.640  0.3460  0.4537 -0.0892
 2116SOL    HW217982   3.512   2.818   4.515  0.0625  0.7621  0.2607
 2117SOL     OW17983   0.159   2.986  17.660 -0.0054  0.2328  0.1868
 2117SOL    HW117984   0.203   2.997  17.744 -0.4040 -1.7356  0.6607
 2117SOL    HW217985   0.234   2.988  17.601  1.8186 -0.7260  2.4570
 2118SOL     OW17986   0.389   2.170   3.837 -0.1145 -0.4387 -0.0320
 2118SOL    HW117987   0.467   2.140   3.790  2.4303  4.1071  1.2306
 2118SOL    HW217988   0.322   2.138   3.777 -0.2078 -1.7717  0.7960
 2119SOL     OW17989   3.376   3.272   8.761  0.2269  0.5521 -0.7754
 2119SOL    HW117990   3.369   3.358   8.802  0.4558  0.3956 -0.4075
 2119SOL    HW217991   3.405   3.223   8.838  0.1787 -1.5696 -2.1068
 2120SOL     OW17992   0.903   4.680   0.076  0.5246  0.1772  0.0989
 2120SOL    HW117993   0.842   4.633   0.132  2.8300 -1.7231  1.0017
 2120SOL    HW217994   0.953   4.734   0.137  0.2843 -2.0554  2.2532
 2121SOL     OW17995   0.488   1.537  17.670  0.1254  0.4999 -0.0353
 2121SOL    HW117996   0.508   1.589   0.002 -1.2220 -0.3866  0.9098
 2121SOL    HW217997   0.394   1.528  17.688  0.6095 -0.4516  1.9919
 2122SOL     OW17998   1.519   0.300   0.589  0.4262 -0.7102  0.0091
 2122SOL    HW117999   1.452   0.369   0.584 -0.0714 -1.1904  0.0728
 2122SOL    HW218000   1.569   0.329   0.665  1.3713 -2.0581 -0.0942
 2123SOL     OW18001   2.235   4.506   8.975 -0.3797 -0.2196 -0.3098
 2123SOL    HW118002   2.217   4.591   9.015  2.2687  0.8826 -1.3972
 2123SOL    HW218003   2.299   4.471   9.037  1.3416  1.3279 -1.2054
 2124SOL     OW18004   3.679   2.060   2.770 -0.4602  0.8629  0.1338
 2124SOL    HW118005   3.679   1.980   2.824 -1.2092  0.1318 -0.9451
 2124SOL    HW218006   3.765   2.063   2.728  0.7984  0.5452  2.6521
 2125SOL     OW18007   2.417   2.300   0.543  0.2819 -0.6034 -0.2639
 2125SOL    HW118008   2.362   2.224   0.523  0.8596 -0.9072 -0.6855
 2125SOL    HW218009   2.352   2.357   0.585  0.3985 -0.0079 -0.8985
 2126SOL     OW18010   1.981   4.132   4.569 -0.4839 -0.1214  0.6016
 2126SOL    HW118011   1.906   4.074   4.579  0.3897 -1.2030  0.9217
 2126SOL    HW218012   2.040   4.108   4.641  0.6460 -1.6584 -0.8297
 2127SOL     OW18013   2.260   2.491   8.025  0.2601 -0.0779 -0.4526
 2127SOL    HW118014   2.354   2.508   8.034 -0.1593  1.4706  1.2404
 2127SOL    HW218015   2.243   2.429   8.095  0.6393  2.2488  1.7053
 2128SOL     OW18016   1.237   0.552  15.776  0.4486 -0.0105 -0.2156
 2128SOL    HW118017   1.214   0.549  15.683  1.7323 -1.0251 -0.5069
 2128SOL    HW218018   1.249   0.461  15.803  1.2052  0.3260  0.5687
 2129SOL     OW18019   3.271   3.880   7.195  0.5389  0.2200 -0.6467
 2129SOL    HW118020   3.180   3.897   7.169 -0.3268 -1.3086  1.3531
 2129SOL    HW218021   3.267   3.890   7.290  0.3470 -0.2101 -0.6072
 2130SOL     OW18022   0.780   1.260   8.003  0.1237  0.1558  0.3946
 2130SOL    HW118023   0.690   1.236   8.026  0.0611 -0.1442 -0.1526
 2130SOL    HW218024   0.764   1.283   7.912  3.3289  0.1330 -0.1681
 2131SOL     OW18025   1.549   1.500   6.171 -0.0752 -0.6140  0.6231
 2131SOL    HW118026   1.492   1.470   6.100  0.3346 -1.5598  0.6922
 2131SOL    HW218027   1.626   1.445   6.156  1.3833  1.4788  0.3491
 2132SOL     OW18028   4.644   1.634  11.602  0.1003 -0.7262  0.5447
 2132SOL    HW118029   4.735   1.655  11.622 -0.0581 -0.1167  0.6537
 2132SOL    HW218030   4.657   1.595  11.515  1.5666 -3.2550  1.9009
 2133SOL     OW18031   1.901   2.992   2.727  0.1119  0.6907  0.2990
 2133SOL    HW118032   1.967   2.960   2.666 -0.7457  1.0544 -0.8072
 2133SOL    HW218033   1.816   2.962   2.694  0.0256  0.6194  0.5851
 2134SOL     OW18034   3.831   3.706   3.814 -0.1045  0.7512  0.0588
 2134SOL    HW118035   3.832   3.611   3.802  1.2834  0.9631 -1.5682
 2134SOL    HW218036   3.922   3.716   3.841 -0.1380 -0.4242  0.5856
 2135SOL     OW18037   2.967   2.295   5.994 -0.3786 -0.2005 -0.2455
 2135SOL    HW118038   2.927   2.379   6.016 -2.2049 -1.2012  0.2003
 2135SOL    HW218039   2.925   2.240   6.060 -3.1800 -0.0266 -1.9015
 2136SOL     OW18040   1.012   3.725   1.247  0.0942 -0.8493  0.7072
 2136SOL    HW118041   0.918   3.738   1.260 -0.3606 -2.0329 -1.4264
 2136SOL    HW218042   1.014   3.745   1.154  0.1126  1.5504  1.2377
 2137SOL     OW18043   2.954   4.439  15.576  0.5208 -0.1513  0.2583
 2137SOL    HW118044   2.977   4.349  15.555 -0.0767 -0.2448 -0.0098
 2137SOL    HW218045   2.968   4.431  15.670 -1.1977 -2.3676  0.3248
 2138SOL     OW18046   4.179   1.737   4.607 -0.2033 -0.4201  0.2616
 2138SOL    HW118047   4.178   1.762   4.700 -2.0264 -1.3489  0.5086
 2138SOL    HW218048   4.261   1.765   4.569 -1.1263  0.2294 -1.2344
 2139SOL     OW18049   2.300   0.076   5.146  0.1991  0.3893  0.0731
 2139SOL    HW118050   2.205   0.068   5.147  0.3423 -1.1085  1.9851
 2139SOL    HW218051   2.320   0.001   5.090  2.6090 -0.5051  2.1158
 2140SOL     OW18052   1.722   2.863  12.174 -0.2501 -0.9293 -0.0223
 2140SOL    HW118053   1.670   2.928  12.126  1.2805 -0.2390 -0.7733
 2140SOL    HW218054   1.682   2.782  12.144 -0.4094 -0.6293 -0.6239
 2141SOL     OW18055   1.137   0.269   8.939  0.0927  0.2039  0.4775
 2141SOL    HW118056   1.215   0.319   8.916 -0.8345  1.5667  0.2668
 2141SOL    HW218057   1.155   0.248   9.031  1.5316 -0.9952 -0.0880
 2142SOL     OW18058   2.197   4.318   5.513 -0.6329  0.3995 -0.3003
 2142SOL    HW118059   2.258   4.256   5.553 -0.5070  1.0946  0.5778
 2142SOL    HW218060   2.169   4.360   5.594  1.1115  0.3281  0.3381
 2143SOL     OW18061   2.136   4.604   9.665 -0.5405 -0.1581  0.2603
 2143SOL    HW118062   2.156   4.544   9.737  0.5083 -0.7325 -0.5074
 2143SOL    HW218063   2.134   4.687   9.713  1.3803  0.7752 -1.3173
 2144SOL     OW18064   0.363   1.742   0.155 -1.0316 -0.6031 -0.2390
 2144SOL    HW118065   0.418   1.760   0.079 -0.6001 -2.0893 -0.2965
 2144SOL    HW218066   0.416   1.678   0.203  0.7705  2.7693  2.2576
 2145SOL     OW18067   2.121   3.993   8.090  0.3806  0.1454 -0.4633
 2145SOL    HW118068   2.039   4.032   8.121  0.0084 -1.6183  0.7539
 2145SOL    HW218069   2.179   3.983   8.165 -0.2460 -1.1574 -0.1646
 2146SOL     OW18070   1.097   4.222   8.934 -0.0906 -1.1227 -0.4045
 2146SOL    HW118071   1.026   4.246   8.993 -0.8613 -0.3239 -1.6378
 2146SOL    HW218072   1.156   4.298   8.939  0.0790 -1.2086 -1.1016
 2147SOL     OW18073   1.353   3.115   0.745  0.2082 -0.5708 -0.5812
 2147SOL    HW118074   1.384   3.052   0.810 -0.4777 -2.3216 -1.9653
 2147SOL    HW218075   1.441   3.130   0.709  0.9063 -1.0635  0.9224
 2148SOL     OW18076   0.100   1.271  12.650 -0.6140  0.0852 -0.4037
 2148SOL    HW118077   0.035   1.287  12.582  0.2590 -2.8139 -1.9032
 2148SOL    HW218078   0.160   1.341  12.623 -0.0089 -0.8313 -1.4297
 2149SOL     OW18079   4.668   2.153   6.498  0.4061  0.4836  0.8196
 2149SOL    HW118080   4.645   2.098   6.573 -1.1073 -0.8066 -0.5786
 2149SOL    HW218081   0.018   2.171   6.534  1.1576  0.8826 -1.1896
 2150SOL     OW18082   3.942   1.526   4.740 -0.0728 -0.2810  1.0672
 2150SOL    HW118083   3.993   1.607   4.747 -0.1481  0.0078 -1.6917
 2150SOL    HW218084   4.002   1.468   4.786  1.2606  1.3556  1.3925
 2151SOL     OW18085   4.505   3.974   2.423 -0.0860 -0.1027  0.3007
 2151SOL    HW118086   4.561   3.900   2.448 -1.6269 -1.5917 -0.6095
 2151SOL    HW218087   4.529   3.997   2.333 -1.3314 -2.0486 -0.5434
 2152SOL     OW18088   2.687   3.582   2.685 -0.1829  0.6773  0.0596
 2152SOL    HW118089   2.769   3.619   2.653  0.2497 -1.4125 -1.2143
 2152SOL    HW218090   2.637   3.659   2.714  0.0128 -0.3553  3.2334
 2153SOL     OW18091   3.369   2.255   6.869 -0.0483 -0.3128 -0.1296
 2153SOL    HW118092   3.312   2.253   6.792  0.4823  0.5477 -0.5342
 2153SOL    HW218093   3.338   2.328   6.922 -1.5086 -1.8132  1.1102
 2154SOL     OW18094   1.135   3.886  17.498 -0.0993  0.5267  0.8590
 2154SOL    HW118095   1.157   3.821  17.431 -2.9055  1.6703 -1.1768
 2154SOL    HW218096   1.074   3.827  17.544 -0.8007  1.1946  0.7924
 2155SOL     OW18097   4.262   4.116   6.984 -0.2374 -0.6094 -0.7187
 2155SOL    HW118098   4.219   4.054   7.043 -0.3050 -0.6223 -0.7807
 2155SOL    HW218099   4.199   4.112   6.912 -2.2979  1.3640  0.9970
 2156SOL     OW18100   4.433   3.700   1.526 -0.6300 -0.2228 -0.2198
 2156SOL    HW118101   4.343   3.695   1.495 -0.7834  0.4956  0.0986
 2156SOL    HW218102   4.440   3.795   1.539  0.1813 -0.2909 -0.1180
 2157SOL     OW18103   4.301   1.884   7.449 -0.0704 -0.2397  0.3569
 2157SOL    HW118104   4.284   1.826   7.523 -2.0271 -0.0479  0.0605
 2157SOL    HW218105   4.213   1.885   7.410  1.2950  3.1524 -2.6561
 2158SOL     OW18106   2.537   2.314   0.203  0.0500  0.5152  0.2034
 2158SOL    HW118107   2.482   2.244   0.239 -1.2008  2.1226  1.3812
 2158SOL    HW218108   2.611   2.269   0.163  0.1437  0.0561  0.8940
 2159SOL     OW18109   3.410   3.609   9.233  0.7326  0.1111 -0.5767
 2159SOL    HW118110   3.446   3.681   9.284  2.1295 -0.4078 -0.8168
 2159SOL    HW218111   3.343   3.579   9.295  0.6400 -0.4021 -0.9219
 2160SOL     OW18112   4.658   4.576   9.096  0.1957  0.2156 -0.7872
 2160SOL    HW118113   4.628   4.656   9.140 -0.1550 -1.3938  1.8733
 2160SOL    HW218114   4.584   4.556   9.038 -0.1084  0.8587 -0.6174
 2161SOL     OW18115   4.551   2.666  16.555 -0.2431 -0.6496 -0.1844
 2161SOL    HW118116   4.499   2.695  16.630 -0.4657  0.7219 -0.8707
 2161SOL    HW218117   4.506   2.695  16.476 -1.4183  1.6587  1.3380
 2162SOL     OW18118   0.574   3.095   5.431  0.2307  0.1084  0.5877
 2162SOL    HW118119   0.584   3.147   5.511 -2.6521  0.5454  0.6706
 2162SOL    HW218120   0.480   3.107   5.416  0.6185  2.4900  0.0092
 2163SOL     OW18121   1.137   0.728   3.708 -0.0691  0.0459  0.0819
 2163SOL    HW118122   1.141   0.650   3.654  2.5622  0.5192 -0.4189
 2163SOL    HW218123   1.087   0.699   3.785 -0.2167 -0.3285 -0.1594
 2164SOL     OW18124   0.249   2.512  11.850 -0.2382  0.4240  0.4551
 2164SOL    HW118125   0.285   2.556  11.927  0.8585 -0.0043  0.1912
 2164SOL    HW218126   0.159   2.533  11.872 -0.1515 -0.7841  1.9797
 2165SOL     OW18127   2.745   0.272   8.260  0.0487  0.6180 -0.5077
 2165SOL    HW118128   2.840   0.272   8.252 -0.0397  0.5899 -1.6000
 2165SOL    HW218129   2.714   0.313   8.179 -2.8673  0.4759  0.5047
 2166SOL     OW18130   0.764   2.887  15.103 -0.6510  0.0289  0.5986
 2166SOL    HW118131   0.765   2.928  15.190 -0.5809  3.2711 -0.9049
 2166SOL    HW218132   0.857   2.884  15.084 -1.1425 -1.6256 -1.4643
 2167SOL     OW18133   1.453   2.968   0.951 -0.6235  0.3060  0.4279
 2167SOL    HW118134   1.546   2.973   0.973 -0.1807 -1.1337 -1.1050
 2167SOL    HW218135   1.428   2.879   0.975 -0.4750 -0.3729 -1.9435
 2168SOL     OW18136   0.088   0.810   5.396 -0.1878  0.4579  0.2012
 2168SOL    HW118137   0.155   0.770   5.340 -0.9688 -0.7552  0.1355
 2168SOL    HW218138   0.058   0.874   5.332 -1.3009  0.1906  0.4661
 2169SOL     OW18139   4.180   1.844   2.706 -0.5056  0.1798 -0.3638
 2169SOL    HW118140   4.221   1.785   2.769  1.9222 -1.1179 -3.1950
 2169SOL    HW218141   4.207   1.800   2.626  1.8450  1.0355 -0.0587
 2170SOL     OW18142   0.476   0.311  12.569 -0.6658  0.2592  0.1453
 2170SOL    HW118143   0.558   0.355  12.550 -0.1617 -1.1493 -0.9763
 2170SOL    HW218144   0.504   0.219  12.572 -0.7787  0.2589  1.0913
 2171SOL     OW18145   2.743   0.832  10.351 -0.4821  0.0239 -1.0964
 2171SOL    HW118146   2.691   0.885  10.291 -2.0013  0.4373  0.6198
 2171SOL    HW218147   2.743   0.757  10.292  0.9666 -1.4906  0.8321
 2172SOL     OW18148   3.296   4.337  11.156 -0.2964  0.0453 -0.5837
 2172SOL    HW118149   3.297   4.282  11.235  1.4223 -0.1774 -0.7673
 2172SOL    HW218150   3.222   4.391  11.182 -0.6211 -0.0691 -1.2643
 2173SOL     OW18151   2.722   0.032  14.555 -0.3726  0.7102 -0.2937
 2173SOL    HW118152   2.773   0.054  14.477 -1.0726 -3.8425 -2.0250
 2173SOL    HW218153   2.756   0.103  14.610  2.3866 -0.5010 -0.4652
 2174SOL     OW18154   1.868   0.473  12.238  0.4839 -0.3161 -0.6695
 2174SOL    HW118155   1.843   0.486  12.147  0.0809  1.8735 -0.2560
 2174SOL    HW218156   1.882   0.564  12.264 -0.7512  0.1600 -1.6487
 2175SOL     OW18157   1.970   2.392   4.879  0.6697 -0.2101 -0.0802
 2175SOL    HW118158   1.939   2.356   4.796  0.6268  2.7149 -1.3469
 2175SOL    HW218159   1.888   2.418   4.922  0.8393  0.3540 -0.0994
 2176SOL     OW18160   4.229   4.150   1.096  0.2425  0.1581 -0.5015
 2176SOL    HW118161   4.279   4.198   1.162 -0.2494 -1.6396  1.2037
 2176SOL    HW218162   4.248   4.064   1.134  3.3294  1.2974  0.5996
 2177SOL     OW18163   0.593   2.545   8.438 -0.4422  0.0105  0.3375
 2177SOL    HW118164   0.529   2.558   8.508 -1.0865  1.1624 -0.4637
 2177SOL    HW218165   0.561   2.609   8.374  1.5295 -0.2295 -0.8911
 2178SOL     OW18166   2.988   0.841   8.052 -0.2187  0.0721  0.1476
 2178SOL    HW118167   2.930   0.765   8.062 -2.2833  1.4337 -1.3097
 2178SOL    HW218168   3.067   0.809   8.096  0.4708  4.0566  1.8204
 2179SOL     OW18169   3.223   2.095  12.026  1.1062  0.4312 -0.4436
 2179SOL    HW118170   3.163   2.168  12.012  1.4224  0.8445  0.3435
 2179SOL    HW218171   3.168   2.027  12.065  2.8606 -0.0726  1.1864
 2180SOL     OW18172   1.908   3.230  14.598 -0.1469 -0.7685  0.2962
 2180SOL    HW118173   1.849   3.266  14.532 -2.7713 -1.2017  2.4316
 2180SOL    HW218174   1.958   3.175  14.538 -1.5853 -1.7178 -0.0288
 2181SOL     OW18175   3.729   0.880   3.801 -0.3459 -0.6340  0.1199
 2181SOL    HW118176   3.772   0.899   3.884  1.1449 -1.9816 -0.3387
 2181SOL    HW218177   3.642   0.914   3.820 -0.4671 -2.2222  2.4449
 2182SOL     OW18178   0.094   4.101  14.589 -0.0786  0.1080  0.7248
 2182SOL    HW118179   0.144   4.035  14.541  0.6336 -0.3333  2.0851
 2182SOL    HW218180   0.145   4.107  14.669  1.0352  1.0271 -0.0538
 2183SOL     OW18181   4.225   3.775   8.916 -0.1437 -0.1060 -1.0225
 2183SOL    HW118182   4.167   3.713   8.960  0.4790 -0.0330 -0.1002
 2183SOL    HW218183   4.259   3.812   8.997  1.3512  1.1215 -2.2160
 2184SOL     OW18184   2.855   1.300   6.837  0.4208  0.0961 -0.0408
 2184SOL    HW118185   2.820   1.270   6.753  3.5177  0.0981 -1.3131
 2184SOL    HW218186   2.818   1.240   6.901 -0.7872  1.4260  0.5018
 2185SOL     OW18187   0.319   2.518   1.602 -0.0720 -0.2850  0.0415
 2185SOL    HW118188   0.386   2.498   1.536 -0.1584 -0.3960 -0.0129
 2185SOL    HW218189   0.333   2.610   1.627 -1.5623  0.1563 -0.7275
 2186SOL     OW18190   0.599   1.430   1.906 -0.4915  0.3087 -0.1750
 2186SOL    HW118191   0.671   1.424   1.843 -0.2838  0.0660  0.0900
 2186SOL    HW218192   0.572   1.519   1.884  0.2954  1.1547  2.3249
 2187SOL     OW18193   4.273   1.975   3.575 -0.3691  0.1468  0.2921
 2187SOL    HW118194   4.249   1.966   3.667  0.6932 -3.6449  0.1660
 2187SOL    HW218195   4.223   2.053   3.550  1.4985  0.5734 -2.1713
 2188SOL     OW18196   2.611   2.761   5.960  0.0807  0.0205 -0.2615
 2188SOL    HW118197   2.565   2.756   6.044  0.8607  0.9330  0.2159
 2188SOL    HW218198   2.680   2.824   5.983 -0.4252  0.7611 -0.7777
 2189SOL     OW18199   2.465   1.610   8.377  0.4749  0.2162 -0.3924
 2189SOL    HW118200   2.551   1.575   8.357  0.0784  0.1071 -1.9029
 2189SOL    HW218201   2.443   1.551   8.449  0.9047 -2.8843 -2.7920
 2190SOL     OW18202   1.223   2.047  11.956 -0.0270 -0.2620  0.1937
 2190SOL    HW118203   1.181   2.078  12.037  0.0640  1.1401 -0.3064
 2190SOL    HW218204   1.151   2.050  11.893 -0.0081  2.7682  0.3416
 2191SOL     OW18205   3.542   1.113   4.842  0.2257 -0.1880 -0.3547
 2191SOL    HW118206   3.461   1.164   4.836 -0.6296 -1.4275  0.9194
 2191SOL    HW218207   3.526   1.071   4.758 -1.5336  0.7362 -0.4736
 2192SOL     OW18208   1.332   2.190   7.279  0.1540  0.1346  0.1402
 2192SOL    HW118209   1.310   2.243   7.356 -2.8207 -0.3886 -0.3375
 2192SOL    HW218210   1.247   2.155   7.252 -0.4710  0.5523  1.5589
 2193SOL     OW18211   0.356   3.673  16.692 -0.0054 -0.1515  0.1603
 2193SOL    HW118212   0.284   3.736  16.684 -0.7826 -1.0511  0.0464
 2193SOL    HW218213   0.304   3.620  16.753  2.1329 -0.5811  1.6031
 2194SOL     OW18214   3.126   2.932   1.409  0.1729 -0.4109 -0.0323
 2194SOL    HW118215   3.155   2.875   1.481 -0.9571 -2.0512 -0.8967
 2194SOL    HW218216   3.140   3.019   1.447 -1.8692  0.2629 -0.8708
 2195SOL     OW18217   3.562   1.686  15.816  0.4337  0.6593  0.6677
 2195SOL    HW118218   3.509   1.719  15.889  0.8567  1.9993  0.3560
 2195SOL    HW218219   3.645   1.665  15.858  0.2041 -0.3496  0.6201
 2196SOL     OW18220   3.286   4.580   5.945  0.1664 -0.2272 -0.0212
 2196SOL    HW118221   3.262   4.656   5.892 -1.0760 -0.1805  0.6046
 2196SOL    HW218222   3.344   4.532   5.887  2.4593  0.8846  1.3453
 2197SOL     OW18223   3.236   3.541   5.151 -0.0004 -1.0229  0.1440
 2197SOL    HW118224   3.329   3.564   5.160 -0.7642  1.1749  2.3373
 2197SOL    HW218225   3.231   3.476   5.220  1.1154 -1.5211 -0.2401
 2198SOL     OW18226   2.987   2.446   2.022  0.5359  0.3789 -0.2003
 2198SOL    HW118227   2.970   2.507   2.094 -1.3333 -1.7070  1.1549
 2198SOL    HW218228   2.970   2.364   2.069  0.8898 -0.7663 -2.0492
 2199SOL     OW18229   3.558   1.676   6.924 -0.4849  0.1209 -0.3683
 2199SOL    HW118230   3.484   1.728   6.954  0.7304  2.3116 -1.1120
 2199SOL    HW218231   3.517   1.599   6.885 -1.5655  0.4882  0.0422
 2200SOL     OW18232   1.885   0.063   7.775 -0.6426 -0.1563 -0.5064
 2200SOL    HW118233   1.864   0.047   7.867  0.8208 -2.3642 -0.5294
 2200SOL    HW218234   1.904   4.712   7.740 -1.4105 -0.9252  0.9976
 2201SOL     OW18235   2.028   4.354   3.994 -0.1089 -0.9067 -0.3988
 2201SOL    HW118236   2.098   4.377   3.932 -1.8783 -0.2137 -2.1432
 2201SOL    HW218237   1.955   4.336   3.934  0.2230 -1.4178 -0.6530
 2202SOL     OW18238   2.838   1.927   2.303  0.5704 -0.5977 -0.3771
 2202SOL    HW118239   2.895   1.861   2.264 -0.2611 -1.2480 -0.4977
 2202SOL    HW218240   2.763   1.925   2.242  0.5066 -1.4054 -0.2675
 2203SOL     OW18241   4.456   3.208   4.261  0.5692  0.4713 -0.1528
 2203SOL    HW118242   4.519   3.159   4.314  0.5499 -0.1103 -0.6672
 2203SOL    HW218243   4.481   3.289   4.306 -2.7873  2.0931 -1.2026
 2204SOL     OW18244   2.972   4.488   9.168 -0.1844 -0.4739 -0.3266
 2204SOL    HW118245   2.907   4.462   9.234 -0.0346 -0.7444 -0.2870
 2204SOL    HW218246   3.049   4.521   9.215 -0.7201 -0.3211  0.4480
 2205SOL     OW18247   1.939   2.231   4.339 -0.0134 -0.7179 -0.3988
 2205SOL    HW118248   1.906   2.278   4.416  2.0839 -1.8337  1.1883
 2205SOL    HW218249   1.918   2.138   4.352 -0.3344 -0.8420 -1.8681
 2206SOL     OW18250   4.611   1.087   0.139 -0.6898  0.2984  0.5454
 2206SOL    HW118251   4.646   1.152   0.200  0.3801  1.3848 -1.2261
 2206SOL    HW218252   4.634   1.132   0.058  0.3478  3.1022  2.4008
 2207SOL     OW18253   2.402   4.433   1.805 -0.0310  0.7996  0.3447
 2207SOL    HW118254   2.350   4.450   1.726  0.9708  1.3471 -0.2017
 2207SOL    HW218255   2.363   4.498   1.863 -0.7485  0.7437 -0.0769
 2208SOL     OW18256   3.220   0.556   2.772  0.0021 -1.0192 -0.1546
 2208SOL    HW118257   3.305   0.520   2.796  0.8077  0.5077 -0.7736
 2208SOL    HW218258   3.207   0.521   2.684 -1.4562  3.0587 -1.5543
 2209SOL     OW18259   2.636   2.580   3.497  0.2660 -0.7824  0.1754
 2209SOL    HW118260   2.692   2.643   3.542  0.5852  0.3223 -1.7339
 2209SOL    HW218261   2.617   2.629   3.417 -0.3396 -1.6406 -0.2004
 2210SOL     OW18262   0.996   2.479   2.856  0.1288  0.3384 -0.1108
 2210SOL    HW118263   0.970   2.389   2.871  0.2856  0.3251  0.0804
 2210SOL    HW218264   1.072   2.484   2.914  0.1008 -0.1650 -0.0314
 2211SOL     OW18265   0.577   4.426  11.572  0.1682 -0.2223 -0.0297
 2211SOL    HW118266   0.577   4.469  11.486 -2.1734 -0.7953 -0.3070
 2211SOL    HW218267   0.582   4.337  11.539 -1.8053 -0.7091  1.0354
 2212SOL     OW18268   4.249   2.589  17.658  0.0513 -0.5064  0.0125
 2212SOL    HW118269   4.246   2.684  17.644  1.4589 -0.6241 -1.0068
 2212SOL    HW218270   4.339   2.568  17.635  0.1129  1.3182 -1.4346
 2213SOL     OW18271   1.812   1.330   8.858  0.0168  0.2545  0.4059
 2213SOL    HW118272   1.720   1.334   8.832 -0.1544 -1.8770  0.6808
 2213SOL    HW218273   1.824   1.239   8.882  0.9183  0.5329  1.0065
 2214SOL     OW18274   4.546   3.300  11.704 -0.3305  0.1101 -0.5245
 2214SOL    HW118275   4.619   3.352  11.670 -0.8285  0.9156 -0.3777
 2214SOL    HW218276   4.587   3.276  11.787 -0.7392  0.4276 -0.2273
 2215SOL     OW18277   2.504   0.479  11.195 -0.1275 -1.1737 -0.7373
 2215SOL    HW118278   2.450   0.401  11.180 -1.2213 -0.9319  1.8923
 2215SOL    HW218279   2.438   0.544  11.215  0.5568 -1.4667  2.4263
 2216SOL     OW18280   2.936   1.232   1.675  0.4404  0.1177  0.5408
 2216SOL    HW118281   2.884   1.159   1.644  1.3099 -0.0103 -0.6187
 2216SOL    HW218282   2.970   1.200   1.759 -1.4161 -2.0013  0.4829
 2217SOL     OW18283   1.818   1.328   1.374  0.2752  0.4118  0.5252
 2217SOL    HW118284   1.738   1.350   1.422  1.4915  3.5323  1.0995
 2217SOL    HW218285   1.889   1.364   1.427 -1.5104  1.0842  2.5134
 2218SOL     OW18286   0.830   2.397   1.001 -0.2111  0.5385  0.0604
 2218SOL    HW118287   0.824   2.442   0.917 -0.5269 -0.3609 -0.4033
 2218SOL    HW218288   0.868   2.465   1.057 -1.5549  2.1303 -0.9637
 2219SOL     OW18289   2.524   2.786   0.425 -0.1205 -0.2125 -0.2700
 2219SOL    HW118290   2.518   2.690   0.420 -3.6576 -0.0663  1.2681
 2219SOL    HW218291   2.429   2.797   0.428 -0.1743 -0.9399  0.8544
 2220SOL     OW18292   2.971   0.948   4.505  0.1589  0.2050  0.4349
 2220SOL    HW118293   3.034   0.914   4.569 -0.5087  1.7653  1.9126
 2220SOL    HW218294   3.037   0.951   4.435  0.3060  2.2061  0.6672
 2221SOL     OW18295   3.509   2.681   4.120 -0.0643  0.1652 -0.4376
 2221SOL    HW118296   3.475   2.615   4.181  1.2894  1.6039  1.8888
 2221SOL    HW218297   3.438   2.681   4.056  0.4810  0.1132 -1.0420
 2222SOL     OW18298   1.362   1.958   8.276 -0.0923 -0.4506  0.0384
 2222SOL    HW118299   1.335   1.935   8.187 -1.8698  0.4471  0.3490
 2222SOL    HW218300   1.274   1.987   8.302 -0.2285 -1.0698  0.2526
 2223SOL     OW18301   0.019   2.378   3.063  0.0562 -0.0524  0.1461
 2223SOL    HW118302   0.045   2.286   3.073 -0.9389 -0.5032 -1.3444
 2223SOL    HW218303   4.679   2.386   3.120  0.0480  0.8402  0.0151
 2224SOL     OW18304   4.217   1.074   9.285  0.4187 -0.2207  0.2523
 2224SOL    HW118305   4.260   1.019   9.219 -1.1392 -1.5882  0.3645
 2224SOL    HW218306   4.245   1.038   9.370 -0.9220 -1.9820 -0.0449
 2225SOL     OW18307   0.538   0.488   2.295 -0.3363 -0.4309 -0.4918
 2225SOL    HW118308   0.622   0.465   2.256  0.6472 -2.0341  2.6059
 2225SOL    HW218309   0.522   0.410   2.348  3.8010 -1.7114 -1.1566
 2226SOL     OW18310   0.481   1.495  12.416  0.6602 -0.0826  0.0647
 2226SOL    HW118311   0.510   1.545  12.493  0.5426 -2.5786  1.6993
 2226SOL    HW218312   0.477   1.567  12.353  1.1860 -1.0744 -1.0998
 2227SOL     OW18313   4.062   2.169  12.265  0.3145  0.1544  0.5479
 2227SOL    HW118314   3.975   2.207  12.278 -0.3384 -0.8433 -0.9466
 2227SOL    HW218315   4.061   2.169  12.170 -0.5835 -0.9229  0.5654
 2228SOL     OW18316   4.019   2.625   3.217 -0.2621 -0.1172 -0.1362
 2228SOL    HW118317   3.943   2.614   3.160 -0.5960  0.2212  0.2468
 2228SOL    HW218318   4.009   2.708   3.263 -0.3476 -0.8898  1.2704
 2229SOL     OW18319   3.671   4.626  15.289  0.3264 -0.3438 -0.1231
 2229SOL    HW118320   3.583   4.595  15.312  0.7102 -2.5625 -1.6301
 2229SOL    HW218321   3.715   4.542  15.279  0.2740 -0.3972  0.1089
 2230SOL     OW18322   3.715   2.919   3.009 -0.2450  0.2214  0.2393
 2230SOL    HW118323   3.685   2.939   3.098 -2.4002 -1.8882  0.0089
 2230SOL    HW218324   3.647   2.867   2.966 -1.6388  1.9132  0.3870
 2231SOL     OW18325   0.491   0.693  17.655 -0.7208 -0.1796 -0.4250
 2231SOL    HW118326   0.469   0.719  17.745 -2.4756 -0.7490 -0.6924
 2231SOL    HW218327   0.553   0.622  17.670  1.9656  1.7578 -2.3695
 2232SOL     OW18328   0.335   4.296   2.152 -0.1902  0.0803 -0.2225
 2232SOL    HW118329   0.326   4.223   2.091  3.4501  0.7435 -1.5252
 2232SOL    HW218330   0.320   4.365   2.087  2.0365 -0.0228 -0.8337
 2233SOL     OW18331   3.317   1.429   7.741  0.6967  0.1599  0.1787
 2233SOL    HW118332   3.234   1.431   7.789  1.3138 -1.3173  1.3423
 2233SOL    HW218333   3.358   1.496   7.796 -1.0525 -1.9156  4.0200
 2234SOL     OW18334   1.817   1.827   6.869  0.1793 -0.3567 -0.1027
 2234SOL    HW118335   1.844   1.876   6.790  1.5103  1.6054  1.5702
 2234SOL    HW218336   1.753   1.885   6.910  1.3112  1.3300 -0.7024
 2235SOL     OW18337   3.403   4.326   6.905 -0.3862  0.3141 -0.0252
 2235SOL    HW118338   3.316   4.290   6.886 -0.1484  0.2007 -0.9042
 2235SOL    HW218339   3.380   4.381   6.979  1.7176  3.1956 -1.5292
 2236SOL     OW18340   3.644   0.067  17.171 -0.4053 -0.3225  0.0037
 2236SOL    HW118341   3.718   0.027  17.217 -1.3581  0.0124  1.8484
 2236SOL    HW218342   3.578   0.055  17.240  2.5610 -0.3852  2.8137
 2237SOL     OW18343   2.867   1.788   6.773  0.3494  0.4962 -0.3423
 2237SOL    HW118344   2.936   1.731   6.807 -1.2139 -0.7464  0.7776
 2237SOL    HW218345   2.900   1.877   6.778  2.5458 -0.4204  1.3767
 2238SOL     OW18346   2.954   2.210  13.682  0.5121 -0.9545  0.7723
 2238SOL    HW118347   2.958   2.206  13.586 -0.8380  2.2241  0.5945
 2238SOL    HW218348   2.971   2.303  13.699  1.3443 -0.7611 -1.1145
 2239SOL     OW18349   0.494   4.710  17.637  0.2726  0.1325 -0.2972
 2239SOL    HW118350   0.462   0.058  17.670  2.6871  0.7174  0.5554
 2239SOL    HW218351   0.588   4.724  17.643  0.0862  0.0780  2.9443
 2240SOL     OW18352   2.119   4.600   9.392 -0.0836  0.2378  0.0510
 2240SOL    HW118353   2.151   4.521   9.349 -2.3518  0.2313 -1.6408
 2240SOL    HW218354   2.144   4.587   9.484  0.8169  1.4669 -0.0088
 2241SOL     OW18355   4.609   2.163   7.198  0.1197 -0.1995 -0.6481
 2241SOL    HW118356   4.572   2.080   7.172 -0.3891 -0.6850  1.6340
 2241SOL    HW218357   4.570   2.228   7.140  0.4389  0.6542  0.0834
 2242SOL     OW18358   1.215   0.646   5.723  0.8239 -0.1144 -0.2728
 2242SOL    HW118359   1.203   0.658   5.628 -2.4026 -2.4628 -0.1520
 2242SOL    HW218360   1.168   0.563   5.728 -0.2012  0.2459 -3.4270
 2243SOL     OW18361   4.560   2.042   6.059  0.4621 -0.2984  0.3072
 2243SOL    HW118362   4.558   2.061   5.965  1.0321  1.3784  0.6261
 2243SOL    HW218363   4.520   2.124   6.089  0.3843 -0.6512  1.1663
 2244SOL     OW18364   4.654   3.840  15.754  0.2213 -0.7892 -0.2009
 2244SOL    HW118365   4.629   3.908  15.692 -1.7070 -1.8103 -0.5308
 2244SOL    HW218366   4.694   3.899  15.818  0.3705  3.1015 -3.8523
 2245SOL     OW18367   3.994   3.391  11.006 -0.3744  0.0815  0.1573
 2245SOL    HW118368   4.015   3.327  11.074  0.8299  1.0432  0.6960
 2245SOL    HW218369   3.936   3.339  10.951  0.3859  0.2472 -0.8055
 2246SOL     OW18370   3.690   1.335   3.732  0.0421 -0.2586  0.0614
 2246SOL    HW118371   3.701   1.272   3.660 -0.7917 -1.1570  0.7246
 2246SOL    HW218372   3.614   1.389   3.709 -0.3658 -1.1288 -0.6538
 2247SOL     OW18373   3.054   2.596  15.582  0.2967 -0.0962  0.0291
 2247SOL    HW118374   2.989   2.540  15.624 -0.0607 -0.8451 -1.5202
 2247SOL    HW218375   3.016   2.679  15.552  0.1109 -0.8487 -1.7956
 2248SOL     OW18376   2.824   1.799  10.425  0.7659 -0.1195 -0.4945
 2248SOL    HW118377   2.798   1.714  10.389 -1.7453  1.6775 -2.8301
 2248SOL    HW218378   2.764   1.855  10.376  1.4131  0.6834 -0.3678
 2249SOL     OW18379   2.894   0.183   8.794  0.0912  0.2572  0.5401
 2249SOL    HW118380   2.935   0.172   8.880  1.0988 -2.3965 -0.2950
 2249SOL    HW218381   2.801   0.201   8.811 -0.0676 -0.8941  0.8969
 2250SOL     OW18382   3.779   3.134  14.885  0.3701 -0.2495  0.1902
 2250SOL    HW118383   3.768   3.039  14.892  1.3481 -0.4449 -0.9647
 2250SOL    HW218384   3.865   3.133  14.844 -0.9245 -1.0170 -2.4633
 2251SOL     OW18385   3.433   1.281   3.480  0.1629 -0.0671  0.0869
 2251SOL    HW118386   3.518   1.239   3.480 -0.4689 -1.3321 -1.9642
 2251SOL    HW218387   3.438   1.352   3.416  1.3412 -0.2891 -0.0634
 2252SOL     OW18388   1.479   0.364   1.792  0.4198  0.1061 -0.1051
 2252SOL    HW118389   1.485   0.341   1.885 -1.0498  0.2788  0.0318
 2252SOL    HW218390   1.465   0.284   1.742 -0.0819 -0.2259  0.5796
 2253SOL     OW18391   0.543   1.199   8.119 -0.4048 -0.3849  0.2321
 2253SOL    HW118392   0.456   1.216   8.155  0.3872  1.5611  1.2786
 2253SOL    HW218393   0.595   1.216   8.198  0.6769  2.2033 -1.0317
 2254SOL     OW18394   0.794   4.417   5.070  0.3515 -0.3398  0.2501
 2254SOL    HW118395   0.758   4.421   5.159  0.5826  1.5103  0.2591
 2254SOL    HW218396   0.889   4.414   5.084  0.2650  0.2216  0.9755
 2255SOL     OW18397   0.596   3.879   7.457  0.2283 -0.3159 -0.6287
 2255SOL    HW118398   0.641   3.940   7.398  0.2723 -0.0554 -0.3275
 2255SOL    HW218399   0.671   3.826   7.485 -0.2020 -0.2236  0.6952
 2256SOL     OW18400   4.242   2.307   5.125  0.3785  0.2996 -0.5177
 2256SOL    HW118401   4.182   2.370   5.086 -1.0464 -1.3420 -1.0013
 2256SOL    HW218402   4.241   2.234   5.063 -2.4397 -0.0494 -0.0727
 2257SOL     OW18403   3.812   0.599   2.707  0.2928  0.1713  0.8161
 2257SOL    HW118404   3.761   0.574   2.630 -1.1622 -0.2148  1.9057
 2257SOL    HW218405   3.858   0.518   2.727  0.8269 -0.2117 -1.8625
 2258SOL     OW18406   4.233   1.976   9.185  0.4311 -0.0548  0.3532
 2258SOL    HW118407   4.213   2.060   9.226  0.7786 -0.1073  0.6260
 2258SOL    HW218408   4.310   1.956   9.238  3.7452  1.5069 -3.9016
 2259SOL     OW18409   0.396   1.020  11.612  0.1555 -0.5943 -0.5907
 2259SOL    HW118410   0.462   1.089  11.614  0.4781 -0.8925 -1.0169
 2259SOL    HW218411   0.446   0.940  11.631  0.9196 -0.5487 -2.3758
 2260SOL     OW18412   1.681   3.043   8.825 -0.3068  0.0498 -0.0507
 2260SOL    HW118413   1.679   2.956   8.865  1.0079 -0.1558 -0.4450
 2260SOL    HW218414   1.744   3.020   8.757 -2.2625  0.7096 -2.0803
 2261SOL     OW18415   2.188   0.464  13.270 -0.6580  0.1418  0.1700
 2261SOL    HW118416   2.177   0.537  13.330  0.6659  0.7978 -0.4074
 2261SOL    HW218417   2.283   0.462  13.281 -0.5981 -1.9465 -0.6949
 2262SOL     OW18418   3.608   0.553   4.625 -0.2171  0.0591 -0.1483
 2262SOL    HW118419   3.644   0.538   4.538 -1.1342 -1.2122 -0.3097
 2262SOL    HW218420   3.651   0.634   4.652  2.8420 -0.4917 -3.3484
 2263SOL     OW18421   2.322   1.252   0.643  0.5402  0.7832 -0.2279
 2263SOL    HW118422   2.290   1.342   0.646  0.7039  0.7822  1.8802
 2263SOL    HW218423   2.255   1.208   0.695  0.6195 -0.4137 -1.1563
 2264SOL     OW18424   1.712   1.851  16.515 -0.2743  0.2401 -0.2988
 2264SOL    HW118425   1.718   1.892  16.601 -0.5115  1.9749 -1.1070
 2264SOL    HW218426   1.673   1.920  16.463 -0.6231  0.2317 -0.0427
 2265SOL     OW18427   2.785   0.304  10.431  0.3532 -0.5963  0.2267
 2265SOL    HW118428   2.814   0.220  10.467  3.0623  0.9205  1.6031
 2265SOL    HW218429   2.739   0.334  10.509 -0.2162 -0.2068 -0.2686
 2266SOL     OW18430   1.817   1.450   5.793  0.0828 -0.2012 -0.7870
 2266SOL    HW118431   1.738   1.396   5.796  0.3868 -0.4122  2.6070
 2266SOL    HW218432   1.824   1.481   5.883 -3.0395  0.1727 -0.6545
 2267SOL     OW18433   3.566   1.901   5.372 -0.0762  0.0924 -0.4257
 2267SOL    HW118434   3.660   1.887   5.366 -0.3092 -0.7756 -2.0407
 2267SOL    HW218435   3.564   1.959   5.448  0.9367 -0.8102  0.2932
 2268SOL     OW18436   3.990   1.841   6.620 -0.6432 -0.5287 -0.0482
 2268SOL    HW118437   3.989   1.892   6.539 -2.9961  0.5179  0.6450
 2268SOL    HW218438   3.966   1.754   6.589 -0.4222 -0.1117 -1.3956
 2269SOL     OW18439   3.639   2.208  16.147 -0.1313 -0.3069  0.3733
 2269SOL    HW118440   3.550   2.242  16.154  1.1395  3.1650 -0.5797
 2269SOL    HW218441   3.683   2.280  16.192  1.1009 -0.4412 -0.6180
 2270SOL     OW18442   2.117   2.973   2.259  0.2895  0.0432  0.1461
 2270SOL    HW118443   2.178   2.900   2.253  0.1667 -0.1461  1.2197
 2270SOL    HW218444   2.090   2.972   2.351 -1.9516  2.4113 -0.4593
 2271SOL     OW18445   4.625   3.193   9.063  0.5942 -0.1319 -0.9979
 2271SOL    HW118446   4.627   3.201   8.967  1.2737 -0.7212 -1.0364
 2271SOL    HW218447   4.576   3.268   9.096  0.6779 -1.7775  2.8589
 2272SOL     OW18448   0.665   1.726   4.481 -0.3724  0.1966 -0.1801
 2272SOL    HW118449   0.751   1.702   4.447 -0.6168 -0.2621 -0.4771
 2272SOL    HW218450   0.668   1.698   4.573 -0.0353  1.6871  0.2640
 2273SOL     OW18451   4.215   1.575  14.898  0.0070 -0.4195  0.4372
 2273SOL    HW118452   4.286   1.637  14.881 -0.4038 -0.1803 -0.4575
 2273SOL    HW218453   4.243   1.514  14.830 -0.0877  0.3784 -0.3205
 2274SOL     OW18454   1.527   4.394   3.223 -0.6996 -0.0382  0.2860
 2274SOL    HW118455   1.445   4.356   3.254 -1.4264  0.8345 -0.5569
 2274SOL    HW218456   1.538   4.459   3.292  0.8858 -0.1290  0.1179
 2275SOL     OW18457   3.066   3.091   0.484 -0.2180  0.8173 -0.2413
 2275SOL    HW118458   2.984   3.101   0.533  0.1859  0.8906  0.4273
 2275SOL    HW218459   3.115   3.171   0.501  0.1431  0.8938 -1.6829
 2276SOL     OW18460   1.963   0.145   3.065  0.3480  0.1192  0.4150
 2276SOL    HW118461   2.017   0.196   3.126  0.6378 -1.5289  1.5649
 2276SOL    HW218462   1.877   0.185   3.073 -1.5045 -3.1493 -3.1012
 2277SOL     OW18463   0.065   2.362   1.909  0.4423  0.2140 -0.3408
 2277SOL    HW118464   0.067   2.274   1.873  0.5314  0.4309 -0.8769
 2277SOL    HW218465   0.034   2.405   1.829 -0.2259 -2.8506 -1.7378
 2278SOL     OW18466   3.658   2.001   3.922  0.2362 -0.6714 -0.3913
 2278SOL    HW118467   3.649   1.914   3.884  2.7095 -1.0930 -0.0135
 2278SOL    HW218468   3.631   1.995   4.013  0.2190 -1.3240 -0.4447
 2279SOL     OW18469   2.938   4.375   7.125  0.2218 -0.0743 -0.1817
 2279SOL    HW118470   2.966   4.463   7.102  1.7318 -0.1937  1.2346
 2279SOL    HW218471   2.876   4.358   7.053 -0.4358  0.9503  0.1469
 2280SOL     OW18472   2.008   1.161   4.527  0.2342 -0.4697 -0.1002
 2280SOL    HW118473   2.065   1.104   4.474 -0.1831  1.6948 -2.8787
 2280SOL    HW218474   1.917   1.157   4.496  0.6891  0.2523 -1.5332
 2281SOL     OW18475   3.834   3.142   9.179 -0.3395  0.4644  0.3022
 2281SOL    HW118476   3.900   3.179   9.238 -0.3573  1.6730 -0.4423
 2281SOL    HW218477   3.849   3.048   9.182  0.1143  0.5151 -0.2233
 2282SOL     OW18478   2.871   3.809   3.412 -0.3202  0.5886 -0.3369
 2282SOL    HW118479   2.949   3.814   3.468 -0.3314 -0.2838 -0.2336
 2282SOL    HW218480   2.881   3.886   3.357 -1.4663  0.5222 -0.6400
 2283SOL     OW18481   3.220   0.801   6.858  0.2846  0.5981  0.7105
 2283SOL    HW118482   3.175   0.800   6.773 -1.0317 -1.1602  1.4207
 2283SOL    HW218483   3.304   0.766   6.829  0.8092  0.9141  1.8948
 2284SOL     OW18484   3.178   4.136  15.210  0.5138 -0.2478  0.0214
 2284SOL    HW118485   3.249   4.177  15.160  0.0612 -0.6551 -0.9511
 2284SOL    HW218486   3.102   4.165  15.160 -0.0378 -0.3884  0.7859
 2285SOL     OW18487   4.683   1.976   6.291 -0.2277 -0.1146 -0.2825
 2285SOL    HW118488   4.658   2.003   6.203 -0.9367 -0.1703 -0.1019
 2285SOL    HW218489   4.652   2.053   6.339 -0.0477 -1.7594  2.4386
 2286SOL     OW18490   0.777   0.690   2.869 -0.4478  0.0234 -0.4368
 2286SOL    HW118491   0.766   0.779   2.837  1.5270  0.4825  0.1846
 2286SOL    HW218492   0.867   0.669   2.845 -0.5905 -1.6697  0.4355
 2287SOL     OW18493   4.496   2.669   7.951 -0.3187 -0.6314  0.2742
 2287SOL    HW118494   4.454   2.746   7.990 -1.4121 -1.4017  0.6076
 2287SOL    HW218495   4.567   2.718   7.908 -0.6030  0.1420  0.6905
 2288SOL     OW18496   2.999   0.941  11.200 -0.3887 -0.1851 -0.3765
 2288SOL    HW118497   2.990   1.036  11.196 -2.6346 -0.4079 -0.1307
 2288SOL    HW218498   2.944   0.903  11.131 -0.4182  1.3761 -1.2078
 2289SOL     OW18499   2.995   2.176   5.740 -0.1243  0.0898  0.0343
 2289SOL    HW118500   2.975   2.197   5.832  0.8755 -1.0313  0.5116
 2289SOL    HW218501   3.013   2.082   5.736 -0.2491  0.2515 -4.4761
 2290SOL     OW18502   2.934   0.298   6.506  0.5948  0.4652 -0.5229
 2290SOL    HW118503   2.911   0.266   6.593 -0.4930  1.9532 -0.2639
 2290SOL    HW218504   2.875   0.241   6.457 -0.9464 -0.3664  2.3077
 2291SOL     OW18505   0.128   3.418   5.891 -0.2431 -0.5208  0.2367
 2291SOL    HW118506   0.177   3.500   5.883 -0.1591 -0.5177  0.7653
 2291SOL    HW218507   0.044   3.457   5.914  0.0218  0.2614 -0.1425
 2292SOL     OW18508   2.149   3.936   2.515 -0.5557 -0.2117 -0.7019
 2292SOL    HW118509   2.174   3.845   2.498 -0.8611  0.0539 -2.5987
 2292SOL    HW218510   2.085   3.964   2.450  1.2187  2.0953 -1.4533
 2293SOL     OW18511   4.218   3.198   6.746  0.1489  0.5543 -0.2490
 2293SOL    HW118512   4.229   3.207   6.840  1.3816  1.2244 -0.4595
 2293SOL    HW218513   4.309   3.196   6.715  0.1304  1.0974 -0.3325
 2294SOL     OW18514   4.648   0.819   1.459  0.0865 -0.0015 -1.0442
 2294SOL    HW118515   4.620   0.888   1.519  2.8966  0.0230  0.2444
 2294SOL    HW218516   4.617   0.744   1.509 -3.0292  1.1413 -1.2852
 2295SOL     OW18517   3.576   0.025  14.341  0.5409  0.3137  0.3747
 2295SOL    HW118518   3.594   0.089  14.411  2.3205  1.2868 -0.9793
 2295SOL    HW218519   3.647   0.045  14.280 -1.4228  3.7686 -0.7431
 2296SOL     OW18520   1.732   4.315   6.642  0.3938  0.0301 -0.4617
 2296SOL    HW118521   1.652   4.280   6.603  1.1414 -0.0703 -1.9295
 2296SOL    HW218522   1.692   4.381   6.699  0.5455  0.2286 -0.5856
 2297SOL     OW18523   4.470   4.317   2.115 -0.3467  0.1523  0.0402
 2297SOL    HW118524   4.392   4.371   2.108 -0.5098  0.3421  3.1419
 2297SOL    HW218525   4.502   4.355   2.197 -0.8614 -2.9001  1.6500
 2298SOL     OW18526   1.005   0.533   1.492  0.1357 -0.1434 -0.3268
 2298SOL    HW118527   1.062   0.530   1.415 -0.1849  2.3114 -0.6524
 2298SOL    HW218528   1.054   0.471   1.547 -0.1263 -0.0119  0.0568
 2299SOL     OW18529   3.591   3.901   6.861  0.3571  0.3293  0.0904
 2299SOL    HW118530   3.616   3.838   6.793  0.5121  1.3155 -0.7608
 2299SOL    HW218531   3.590   3.984   6.815  0.8798 -0.4494 -1.3067
 2300SOL     OW18532   1.196   4.011   8.413  0.3630  0.7121  0.4292
 2300SOL    HW118533   1.259   3.940   8.427 -0.1975  0.4293  1.4974
 2300SOL    HW218534   1.249   4.076   8.459  0.0328  0.2812  1.4036
 2301SOL     OW18535   0.620   4.693   1.119 -0.2068 -0.6396 -0.0025
 2301SOL    HW118536   0.535   4.673   1.080 -0.4440 -0.4098  0.3969
 2301SOL    HW218537   0.639   4.629   1.187  0.1027  0.4548  0.9331
 2302SOL     OW18538   1.573   0.748   7.324 -0.1014  0.7243 -0.3334
 2302SOL    HW118539   1.517   0.824   7.336 -2.3990 -0.6075 -2.4612
 2302SOL    HW218540   1.530   0.684   7.381 -0.9259  0.7700 -0.8950
 2303SOL     OW18541   2.579   3.247   7.437 -0.3651  0.2438  0.2978
 2303SOL    HW118542   2.601   3.156   7.417  0.5154  0.8708 -1.6367
 2303SOL    HW218543   2.662   3.291   7.419 -0.3730 -0.2033 -0.8414
 2304SOL     OW18544   1.820   0.768   2.058  0.3729 -0.1726  0.1293
 2304SOL    HW118545   1.882   0.727   1.997  1.5315 -1.5607  2.2486
 2304SOL    HW218546   1.776   0.685   2.076 -1.0166  0.4160 -0.5502
 2305SOL     OW18547   0.627   4.598   1.400 -0.1169  0.0533 -0.3321
 2305SOL    HW118548   0.533   4.579   1.400 -0.6806  2.8320  2.5044
 2305SOL    HW218549   0.652   4.563   1.485 -2.0221  0.2024  0.2779
 2306SOL     OW18550   3.412   3.372  12.236  0.3432  0.1215 -0.4435
 2306SOL    HW118551   3.423   3.397  12.144  0.2929 -0.4413 -0.6007
 2306SOL    HW218552   3.488   3.393  12.290 -0.9111  0.1673  1.3403
 2307SOL     OW18553   3.836   2.666   3.915 -0.4892  0.0669 -0.5271
 2307SOL    HW118554   3.794   2.583   3.934  0.1224 -0.4793 -1.5799
 2307SOL    HW218555   3.898   2.634   3.850 -2.2518 -0.3679 -1.9754
 2308SOL     OW18556   3.988   3.887  14.778  0.7434  0.8244  0.9424
 2308SOL    HW118557   3.897   3.896  14.806  0.4756  0.7780  0.0877
 2308SOL    HW218558   3.968   3.870  14.686 -1.3503  3.3906  0.9425
 2309SOL     OW18559   0.679   3.387   7.283 -0.0004 -0.0731 -0.3831
 2309SOL    HW118560   0.761   3.433   7.266  1.1864 -1.2280  2.1199
 2309SOL    HW218561   0.620   3.451   7.245 -2.1386 -1.2243  1.0142
 2310SOL     OW18562   0.159   1.416   3.114 -0.4119 -0.6214  0.1038
 2310SOL    HW118563   0.153   1.511   3.124 -1.5812 -0.6611 -0.1695
 2310SOL    HW218564   0.114   1.397   3.032 -2.4901  2.5556  0.5127
 2311SOL     OW18565   3.699   0.811   4.735 -0.0446  0.2552  0.1702
 2311SOL    HW118566   3.763   0.767   4.791  0.2501  0.7357  0.2049
 2311SOL    HW218567   3.740   0.885   4.691  2.6641 -0.7698  0.9857
 2312SOL     OW18568   1.030   3.787  12.327 -0.3922 -0.1060  0.3490
 2312SOL    HW118569   0.997   3.743  12.249 -0.0508  0.3258 -0.0406
 2312SOL    HW218570   1.121   3.786  12.297 -0.7172  1.7732 -0.7036
 2313SOL     OW18571   0.401   3.230   4.011 -0.1215  0.0225  0.0669
 2313SOL    HW118572   0.422   3.317   4.045 -1.3726  0.2074  0.3712
 2313SOL    HW218573   0.343   3.250   3.937 -0.1031 -1.3120 -0.3032
 2314SOL     OW18574   4.007   3.627  10.272 -0.0372 -0.2406 -0.2136
 2314SOL    HW118575   4.016   3.681  10.350 -1.8049 -0.5645  0.2279
 2314SOL    HW218576   3.912   3.633  10.259  0.0384  0.0536 -0.6394
 2315SOL     OW18577   2.506   3.263  15.192 -0.0168  0.1923 -0.0298
 2315SOL    HW118578   2.420   3.243  15.156 -0.5964 -0.0265  1.4926
 2315SOL    HW218579   2.560   3.184  15.189 -1.0802 -0.5168 -0.3700
 2316SOL     OW18580   1.075   3.060   4.411  0.0895 -0.0185 -0.1330
 2316SOL    HW118581   0.980   3.048   4.410 -0.0569  1.1155  0.4751
 2316SOL    HW218582   1.069   3.155   4.418  0.6774  0.1154 -1.3863
 2317SOL     OW18583   1.454   2.410   7.456 -0.3520 -0.0386  0.0343
 2317SOL    HW118584   1.374   2.462   7.444  0.3191  1.2540  1.1696
 2317SOL    HW218585   1.463   2.416   7.551  1.1499  1.2624 -0.1987
 2318SOL     OW18586   0.617   3.699  17.315  0.0627  0.4747 -0.3795
 2318SOL    HW118587   0.531   3.721  17.279  0.4335  1.4711 -0.6561
 2318SOL    HW218588   0.641   3.786  17.347 -1.0793  1.1001 -1.2090
 2319SOL     OW18589   3.452   3.880  11.392 -0.3194  0.3195 -0.5497
 2319SOL    HW118590   3.402   3.801  11.369 -0.6704 -0.1710  1.9497
 2319SOL    HW218591   3.477   3.872  11.484 -2.1628 -1.0383 -0.1508
 2320SOL     OW18592   1.541   3.856   1.349 -0.1253  0.6938 -0.1193
 2320SOL    HW118593   1.460   3.831   1.304  0.6526 -1.7416 -0.1709
 2320SOL    HW218594   1.577   3.774   1.381 -1.6344  1.1314  2.7517
 2321SOL     OW18595   3.006   2.558   7.154 -0.2930 -0.4296 -0.6729
 2321SOL    HW118596   3.009   2.462   7.153 -0.8629 -0.4362 -1.8703
 2321SOL    HW218597   2.914   2.559   7.128 -0.4672  0.1238 -0.0353
 2322SOL     OW18598   2.034   2.110   8.262 -0.3343 -0.3124  0.5046
 2322SOL    HW118599   2.088   2.111   8.183  0.0559  0.3191  0.7777
 2322SOL    HW218600   2.057   2.021   8.288 -1.8389 -0.5490  1.0248
 2323SOL     OW18601   3.052   2.271   4.246 -0.1202  0.0078 -0.3943
 2323SOL    HW118602   3.076   2.340   4.185  1.2896 -1.1238 -1.1433
 2323SOL    HW218603   3.019   2.206   4.184  0.5110 -0.8214  0.1329
 2324SOL     OW18604   0.667   3.600   0.841 -0.0288 -0.7014  0.2206
 2324SOL    HW118605   0.620   3.520   0.819  1.9072 -1.7559 -0.0820
 2324SOL    HW218606   0.754   3.566   0.862  0.2831 -0.2984 -0.4183
 2325SOL     OW18607   2.115   3.935   6.645 -0.0355  0.6288  0.6504
 2325SOL    HW118608   2.127   3.909   6.553 -1.8741 -1.8965  1.1181
 2325SOL    HW218609   2.156   4.022   6.638  1.6271  0.0373  3.2473
 2326SOL     OW18610   0.335   1.943   3.473  0.4619  0.4267 -0.1561
 2326SOL    HW118611   0.360   1.960   3.382 -1.2695 -0.4764 -0.8125
 2326SOL    HW218612   0.300   1.853   3.472  2.6185 -0.4217  2.0762
 2327SOL     OW18613   0.907   1.555   7.888 -0.0574 -0.0202 -0.1347
 2327SOL    HW118614   0.837   1.565   7.952 -2.6786  0.4412 -3.1117
 2327SOL    HW218615   0.966   1.502   7.942  0.0056 -0.1799 -0.3590
 2328SOL     OW18616   4.101   4.458   1.791 -0.2897  0.5396 -0.7532
 2328SOL    HW118617   4.087   4.375   1.746 -0.1526  0.8943 -1.4445
 2328SOL    HW218618   4.015   4.499   1.783 -0.5567  0.1607  0.1961
 2329SOL     OW18619   4.246   3.589   5.521 -0.1456 -0.0176  0.2200
 2329SOL    HW118620   4.253   3.668   5.467  0.7868 -0.5666 -0.4593
 2329SOL    HW218621   4.164   3.552   5.489  0.7783 -0.3771 -1.7290
 2330SOL     OW18622   0.560   1.684  16.681  0.5856  0.2023  0.0157
 2330SOL    HW118623   0.606   1.741  16.742 -0.7593  2.0180 -0.6688
 2330SOL    HW218624   0.593   1.717  16.598 -0.0724  0.7228 -0.0381
 2331SOL     OW18625   4.258   0.395   1.202  0.1672  0.0888 -0.4306
 2331SOL    HW118626   4.240   0.477   1.156 -0.0758  0.0439 -0.4153
 2331SOL    HW218627   4.274   0.337   1.127  0.8780  1.0745 -1.0434
 2332SOL     OW18628   2.590   3.496  16.868 -0.0845  0.3865 -0.3403
 2332SOL    HW118629   2.517   3.558  16.870  2.1742  3.0867 -1.7161
 2332SOL    HW218630   2.644   3.532  16.938 -0.1035  1.9932 -1.1311
 2333SOL     OW18631   2.082   3.714  14.043 -0.9047  0.2888  0.6503
 2333SOL    HW118632   2.019   3.676  13.982  1.0244  0.6200 -1.5527
 2333SOL    HW218633   2.104   3.791  13.990  1.3459 -1.0063 -0.2827
 2334SOL     OW18634   2.353   4.663   2.706  0.1917  0.1273  0.1986
 2334SOL    HW118635   2.348   4.688   2.798  0.8831 -1.5284  0.6945
 2334SOL    HW218636   2.448   4.660   2.693  0.0365 -1.7735 -0.6232
 2335SOL     OW18637   3.661   1.749   5.655 -0.0302 -0.1596 -0.0635
 2335SOL    HW118638   3.695   1.769   5.742 -0.1574 -0.9283  0.1646
 2335SOL    HW218639   3.742   1.738   5.605 -0.5992 -1.6878 -0.6475
 2336SOL     OW18640   1.440   3.365   1.130  0.2956 -0.2231 -0.4118
 2336SOL    HW118641   1.446   3.419   1.051  1.0673  0.2812 -0.0083
 2336SOL    HW218642   1.515   3.398   1.179 -0.6835  0.3774  0.6568
 2337SOL     OW18643   2.355   4.561   8.692  0.4304  0.6592  0.0730
 2337SOL    HW118644   2.345   4.640   8.744 -1.7933 -0.5455  1.4497
 2337SOL    HW218645   2.412   4.509   8.748 -0.1562 -1.8115 -1.6033
 2338SOL     OW18646   0.347   3.342   6.790  0.1053 -0.4739 -0.3189
 2338SOL    HW118647   0.398   3.415   6.756  1.6064 -1.7298 -0.7732
 2338SOL    HW218648   0.322   3.378   6.875 -3.6800 -1.3637 -1.0534
 2339SOL     OW18649   1.956   4.545   2.383 -0.2562  0.0377 -0.2543
 2339SOL    HW118650   1.937   4.639   2.378 -0.2242  0.1250  1.4382
 2339SOL    HW218651   2.005   4.545   2.465 -0.2184  1.8487 -0.2748
 2340SOL     OW18652   1.932   2.957   6.384 -0.1639 -0.6355 -0.0595
 2340SOL    HW118653   2.008   2.899   6.389  0.6217  0.3597 -0.5247
 2340SOL    HW218654   1.952   3.024   6.450  0.1137 -2.1137  1.3843
 2341SOL     OW18655   2.350   0.903  14.026 -0.0769 -0.6041 -0.4592
 2341SOL    HW118656   2.431   0.948  14.051 -0.2918 -1.1038  1.1328
 2341SOL    HW218657   2.287   0.968  14.056  0.6674 -0.0086 -0.1828
 2342SOL     OW18658   0.972   1.568  13.804 -0.4732 -0.2220 -0.0957
 2342SOL    HW118659   1.029   1.631  13.849 -1.3757  0.6102 -0.1032
 2342SOL    HW218660   1.028   1.493  13.820 -0.2343 -0.6547 -2.9750
 2343SOL     OW18661   1.248   4.435   6.023 -0.7235  0.0493  0.0970
 2343SOL    HW118662   1.162   4.444   6.064 -0.9209 -1.0809 -0.0505
 2343SOL    HW218663   1.247   4.345   5.989  0.8330 -0.0101  0.2117
 2344SOL     OW18664   3.702   1.804   6.610 -0.4705 -0.1310 -0.1718
 2344SOL    HW118665   3.740   1.856   6.681 -0.5527  0.4062 -0.5203
 2344SOL    HW218666   3.736   1.854   6.536 -0.4538 -1.4309 -1.0451
 2345SOL     OW18667   0.143   1.952   2.556  0.6199  0.2835  0.6276
 2345SOL    HW118668   0.131   2.045   2.535  0.3708  0.3339  1.0058
 2345SOL    HW218669   0.199   1.932   2.481  0.3061  0.3156  0.3841
 2346SOL     OW18670   3.569   0.989   6.008  0.0544 -0.2451 -0.8303
 2346SOL    HW118671   3.604   0.979   6.096  0.2881  3.0045 -0.5584
 2346SOL    HW218672   3.485   0.944   6.017  0.5434 -1.0705 -0.3393
 2347SOL     OW18673   3.268   2.418   3.167  0.2002  0.2359 -0.1371
 2347SOL    HW118674   3.348   2.434   3.216 -0.2003  1.2051  0.2139
 2347SOL    HW218675   3.304   2.398   3.081  1.3746  1.4484  0.0789
 2348SOL     OW18676   0.750   1.223   5.773 -0.4305 -0.3630  0.1186
 2348SOL    HW118677   0.704   1.295   5.815 -0.5884 -0.5440  0.2546
 2348SOL    HW218678   0.829   1.211   5.826 -0.6102 -2.2187 -0.0118
 2349SOL     OW18679   1.596   1.253  10.625 -0.6235  0.0199 -0.5801
 2349SOL    HW118680   1.630   1.256  10.535  0.5260 -0.8122 -0.1646
 2349SOL    HW218681   1.579   1.346  10.642  0.5023  0.3655 -1.3026
 2350SOL     OW18682   0.142   1.637   8.222  0.0729  0.5556 -0.0640
 2350SOL    HW118683   0.101   1.712   8.265 -1.5468  0.3684 -1.2551
 2350SOL    HW218684   0.143   1.576   8.296 -0.1603  0.5643 -0.0522
 2351SOL     OW18685   4.073   4.293   7.722  0.1907  0.3176  0.0201
 2351SOL    HW118686   4.025   4.279   7.803 -0.3932 -2.0065 -0.7303
 2351SOL    HW218687   4.006   4.327   7.663 -0.6063 -3.2160 -1.1164
 2352SOL     OW18688   3.204   2.645   7.610  0.7192 -0.7713  0.5138
 2352SOL    HW118689   3.292   2.674   7.584  0.2550  0.3400  0.1691
 2352SOL    HW218690   3.164   2.731   7.624 -2.7758 -2.2632 -0.3182
 2353SOL     OW18691   0.949   2.058   2.745 -0.1042  0.4554  0.4122
 2353SOL    HW118692   1.045   2.064   2.740 -0.2431  1.0926 -1.4479
 2353SOL    HW218693   0.948   2.010   2.828 -0.8395  0.1812  0.2418
 2354SOL     OW18694   0.789   0.310   8.428  0.1620  0.0558 -0.1231
 2354SOL    HW118695   0.804   0.329   8.335 -0.9629  3.1695  0.3335
 2354SOL    HW218696   0.749   0.223   8.418 -0.6135  0.1035  2.5634
 2355SOL     OW18697   3.101   1.216   4.359  0.2708  0.4180  0.3032
 2355SOL    HW118698   3.043   1.281   4.320 -0.3458  0.9874  2.1753
 2355SOL    HW218699   3.157   1.275   4.411  0.9190 -1.1854  1.4273
 2356SOL     OW18700   4.058   2.448   4.098  0.5416  0.7267  0.5413
 2356SOL    HW118701   4.123   2.512   4.126  3.5407 -1.6483 -0.9110
 2356SOL    HW218702   4.066   2.453   4.003 -1.3420 -1.2170  0.2635
 2357SOL     OW18703   1.541   0.422   2.871  0.3839  0.0519  0.8042
 2357SOL    HW118704   1.564   0.453   2.958 -2.3100 -2.7447  2.4636
 2357SOL    HW218705   1.514   0.331   2.883 -3.4571  1.0048 -0.7375
 2358SOL     OW18706   2.030   0.385   0.924 -0.8031  0.4208 -0.2119
 2358SOL    HW118707   2.091   0.351   0.990 -1.7776 -1.2039 -0.1518
 2358SOL    HW218708   2.059   0.477   0.926 -2.7691  1.0696 -1.8788
 2359SOL     OW18709   1.188   1.600   1.706 -0.1548 -0.0784 -0.1961
 2359SOL    HW118710   1.162   1.687   1.677 -2.4330  0.4943  3.4955
 2359SOL    HW218711   1.119   1.541   1.677  0.0026 -0.8273  0.9333
 2360SOL     OW18712   0.530   0.113   9.230 -0.3811 -0.2851  0.3055
 2360SOL    HW118713   0.572   0.034   9.196  4.4894  1.5756  1.9368
 2360SOL    HW218714   0.600   0.171   9.259  1.5350 -2.9266  0.9253
 2361SOL     OW18715   4.047   2.257   3.760  0.0809  0.6755 -0.2167
 2361SOL    HW118716   4.136   2.249   3.796 -0.0967 -0.5821 -0.0448
 2361SOL    HW218717   4.009   2.184   3.809  1.0310  0.2919 -0.0429
 2362SOL     OW18718   0.688   2.878   1.786 -0.1055  0.4035  0.2452
 2362SOL    HW118719   0.610   2.901   1.836 -0.8263 -2.1110  0.2795
 2362SOL    HW218720   0.749   2.885   1.859 -2.3589  1.3546  2.0024
 2363SOL     OW18721   2.500   2.509  14.698 -0.2055 -0.3464 -0.0434
 2363SOL    HW118722   2.562   2.443  14.667  0.4412  1.3090 -2.2548
 2363SOL    HW218723   2.446   2.441  14.739 -0.1580  0.2201  0.9526
 2364SOL     OW18724   1.165   4.645   4.658  0.4113 -0.1506  0.1634
 2364SOL    HW118725   1.245   4.625   4.609  0.7148  0.8272  0.2676
 2364SOL    HW218726   1.108   4.659   4.582 -0.2148 -1.3983  0.4016
 2365SOL     OW18727   3.946   3.864   5.613  0.1776 -0.8785 -0.3554
 2365SOL    HW118728   4.011   3.892   5.548 -1.2487 -0.0058 -1.3988
 2365SOL    HW218729   3.939   3.770   5.598  1.4603 -0.6279 -2.5069
 2366SOL     OW18730   2.935   4.393   6.342  0.0578 -0.1526 -0.4235
 2366SOL    HW118731   2.994   4.419   6.271 -2.0200  1.3451 -1.6282
 2366SOL    HW218732   2.996   4.348   6.400  1.3241  0.9368 -0.9066
 2367SOL     OW18733   2.595   3.007   5.415  0.2586  0.0400 -0.3102
 2367SOL    HW118734   2.645   2.948   5.471 -0.6290 -1.1711 -0.7927
 2367SOL    HW218735   2.523   3.027   5.474 -0.4670 -3.2499 -0.0784
 2368SOL     OW18736   0.820   0.656   1.202 -0.3898 -0.3605  0.1444
 2368SOL    HW118737   0.737   0.670   1.249 -1.7704 -0.4649 -2.2917
 2368SOL    HW218738   0.842   0.569   1.233 -0.4513 -0.8134 -1.0873
 2369SOL     OW18739   1.410   1.132   4.143  0.3549 -0.2711  0.2909
 2369SOL    HW118740   1.381   1.089   4.063  0.2799 -2.7903  1.6884
 2369SOL    HW218741   1.391   1.225   4.129 -1.5751 -0.6161  0.5427
 2370SOL     OW18742   0.349   4.105   6.537  0.2847 -0.2350  0.4898
 2370SOL    HW118743   0.440   4.089   6.558  0.1884 -2.0270 -0.4526
 2370SOL    HW218744   0.352   4.150   6.452  1.1324 -1.1462  0.0489
 2371SOL     OW18745   3.592   1.017   7.331 -0.2682  0.1124  0.2433
 2371SOL    HW118746   3.573   1.086   7.268 -0.1635 -1.2863 -1.3199
 2371SOL    HW218747   3.648   0.957   7.281 -0.8756  0.5718 -0.9889
 2372SOL     OW18748   1.853   4.483   3.271 -0.3707  0.1643 -0.2033
 2372SOL    HW118749   1.805   4.460   3.350  2.1319  0.6271  1.4523
 2372SOL    HW218750   1.795   4.460   3.198 -1.7253 -1.2805  1.3387
 2373SOL     OW18751   3.512   3.809   4.423  0.3050 -0.3145 -0.0843
 2373SOL    HW118752   3.523   3.747   4.496  3.6398  1.1616  0.6719
 2373SOL    HW218753   3.446   3.871   4.454  0.7151  1.0911 -1.9914
 2374SOL     OW18754   3.734   1.444   8.720 -0.2314 -0.4846 -0.1565
 2374SOL    HW118755   3.825   1.473   8.713 -1.1349  1.6291 -3.0253
 2374SOL    HW218756   3.728   1.425   8.814 -0.2066 -1.7966 -0.4128
 2375SOL     OW18757   2.699   2.753  16.933  0.4825 -0.2396 -0.0639
 2375SOL    HW118758   2.721   2.719  16.847  2.4680 -0.0334  0.3540
 2375SOL    HW218759   2.606   2.732  16.942  0.8918 -1.8828  0.3462
 2376SOL     OW18760   1.515   0.795   8.444 -0.8377  0.2937  0.1104
 2376SOL    HW118761   1.486   0.712   8.406 -0.1889 -0.5784  1.5213
 2376SOL    HW218762   1.591   0.817   8.391 -0.2910 -0.7350  0.4660
 2377SOL     OW18763   1.467   3.170   3.782  0.2279 -0.5512 -0.3562
 2377SOL    HW118764   1.420   3.109   3.725 -1.5754 -0.1659  0.7147
 2377SOL    HW218765   1.552   3.160   3.738 -0.6532 -0.9984 -1.9280
 2378SOL     OW18766   1.368   0.277   4.729  0.0161  0.1439  0.2999
 2378SOL    HW118767   1.328   0.194   4.700 -1.7994  1.2120 -0.2638
 2378SOL    HW218768   1.408   0.244   4.809  2.2189  0.3328 -0.7435
 2379SOL     OW18769   1.900   4.088   1.679  0.0566 -0.0963 -0.1253
 2379SOL    HW118770   1.822   4.054   1.635 -0.3677 -0.2219  0.7219
 2379SOL    HW218771   1.960   4.014   1.685 -0.4443 -0.6419 -1.8259
 2380SOL     OW18772   2.488   2.847   7.879 -0.1749 -0.1945 -0.0321
 2380SOL    HW118773   2.550   2.822   7.948  1.2582  2.6113 -0.3171
 2380SOL    HW218774   2.425   2.879   7.945  1.2971 -0.9055  1.7111
 2381SOL     OW18775   2.964   2.827  10.032 -0.6043  0.4190 -0.2759
 2381SOL    HW118776   3.051   2.805  10.065 -0.1372 -0.1212 -1.8721
 2381SOL    HW218777   2.934   2.887  10.101 -1.5805  0.1784 -0.4914
 2382SOL     OW18778   3.762   0.032   7.980  0.3571 -0.1646 -0.1000
 2382SOL    HW118779   3.838   0.088   7.995  0.4251 -0.7565  1.7916
 2382SOL    HW218780   3.700   0.055   8.049 -0.0210 -0.2745 -0.4045
 2383SOL     OW18781   1.983   3.463   7.888 -0.1823  0.1703  0.5632
 2383SOL    HW118782   2.018   3.506   7.810 -1.1046 -1.1339 -0.5829
 2383SOL    HW218783   2.067   3.443   7.929 -1.1595  3.3919  4.0658
 2384SOL     OW18784   4.379   3.910  17.707 -0.4648 -0.1876 -0.0527
 2384SOL    HW118785   4.367   3.921  17.612  0.4793 -0.5000 -0.2117
 2384SOL    HW218786   4.432   3.830  17.707  1.2496  0.9442 -0.0341
 2385SOL     OW18787   1.905   2.489   6.592  0.7117  0.0206  0.1424
 2385SOL    HW118788   1.905   2.395   6.577 -0.4924 -0.0609  0.6387
 2385SOL    HW218789   1.997   2.511   6.578  0.9056 -0.9771 -0.1758
 2386SOL     OW18790   1.435   1.614   4.754 -0.4754  0.0219  0.8341
 2386SOL    HW118791   1.500   1.647   4.692  0.0998 -2.1615  0.2521
 2386SOL    HW218792   1.435   1.692   4.810  2.9740  1.2513 -0.9277
 2387SOL     OW18793   0.538   0.843   7.759  0.0649  0.6141 -0.2477
 2387SOL    HW118794   0.495   0.860   7.843 -0.6797  1.6657 -0.8466
 2387SOL    HW218795   0.460   0.860   7.707 -0.3185 -1.0536 -0.2300
 2388SOL     OW18796   3.086   0.012  15.028  0.0635  0.0126 -0.0765
 2388SOL    HW118797   3.009   0.068  15.034 -0.0580 -0.2032  0.3721
 2388SOL    HW218798   3.046   4.669  14.994  1.2329 -0.7838  0.4048
 2389SOL     OW18799   0.588   2.561   1.922 -0.5010 -0.2334  0.1259
 2389SOL    HW118800   0.515   2.504   1.897 -0.9774  0.5868 -0.3596
 2389SOL    HW218801   0.560   2.647   1.892 -0.6694  0.4049  2.1329
 2390SOL     OW18802   0.797   2.482  13.224  0.1928  0.5136 -0.2723
 2390SOL    HW118803   0.750   2.459  13.144 -0.8466 -0.1022  0.5091
 2390SOL    HW218804   0.720   2.502  13.278  0.0392 -2.2294  0.5589
 2391SOL     OW18805   4.686   3.584   1.965  0.7888 -0.8035  0.1873
 2391SOL    HW118806   4.677   3.493   1.936 -1.9363 -0.0753 -1.2717
 2391SOL    HW218807   4.647   3.621   1.885  0.8036 -1.1376  0.0235
 2392SOL     OW18808   0.218   3.907   1.793 -0.0980  0.1138 -0.2235
 2392SOL    HW118809   0.254   3.850   1.726  2.1692  0.7180  0.4806
 2392SOL    HW218810   0.139   3.945   1.755 -1.0084 -1.6543 -0.0510
 2393SOL     OW18811   2.948   2.596  14.391 -0.3674  0.3114  0.4324
 2393SOL    HW118812   2.928   2.659  14.460 -0.4336 -2.1550  2.6933
 2393SOL    HW218813   2.913   2.523  14.442 -0.9871  1.5329  1.7469
 2394SOL     OW18814   3.890   3.766   6.552 -0.2800 -0.0825 -0.3956
 2394SOL    HW118815   3.846   3.826   6.492 -1.4560 -0.9757 -0.4057
 2394SOL    HW218816   3.950   3.725   6.489 -1.5644 -0.7291 -1.1932
 2395SOL     OW18817   4.222   0.558   6.773 -0.1804  0.3619 -0.0838
 2395SOL    HW118818   4.231   0.489   6.707 -0.3702 -1.4186  1.7586
 2395SOL    HW218819   4.282   0.626   6.742  1.7641 -2.2999 -2.1466
 2396SOL     OW18820   0.969   0.846   1.389 -0.2750  0.3863  0.2664
 2396SOL    HW118821   0.949   0.844   1.482  1.3515  1.7489  0.6617
 2396SOL    HW218822   0.918   0.783   1.339  0.8474  1.1620 -1.8951
 2397SOL     OW18823   0.528   2.657   7.761 -0.2034  0.4586  0.0353
 2397SOL    HW118824   0.449   2.693   7.720 -1.4189 -0.2397  1.7382
 2397SOL    HW218825   0.478   2.607   7.825  1.0923  0.0486  0.7117
 2398SOL     OW18826   1.568   3.936   4.545 -0.3156  0.2435  0.2601
 2398SOL    HW118827   1.622   3.960   4.470  1.3458 -0.0120  1.3781
 2398SOL    HW218828   1.624   3.958   4.619 -1.8153  0.2701  1.3683
 2399SOL     OW18829   2.733   0.757   0.906 -1.0111 -0.4108  0.1023
 2399SOL    HW118830   2.801   0.731   0.968 -0.6725 -0.1132 -0.1411
 2399SOL    HW218831   2.787   0.798   0.838 -1.3812 -0.4090 -0.1902
 2400SOL     OW18832   0.729   2.089   6.913  0.2061 -0.5082 -0.1783
 2400SOL    HW118833   0.756   2.117   6.826  1.5834 -2.3753 -0.3370
 2400SOL    HW218834   0.714   2.176   6.952  2.8572  1.0696 -2.7414
 2401SOL     OW18835   0.024   2.883  16.568 -1.1324 -0.5760 -0.1649
 2401SOL    HW118836   0.030   2.835  16.485  2.5464  0.3969 -0.4632
 2401SOL    HW218837   4.668   2.903  16.557 -0.7435  0.7498 -1.0888
 2402SOL     OW18838   1.869   0.831   1.530  0.0755 -0.2866 -0.0298
 2402SOL    HW118839   1.902   0.912   1.569  0.0606 -1.1347  1.7236
 2402SOL    HW218840   1.836   0.786   1.607 -0.1328 -0.0335  0.0286
 2403SOL     OW18841   4.001   0.124   6.480  0.1966 -0.1000 -0.3659
 2403SOL    HW118842   4.064   0.073   6.429  1.2915 -1.8649  2.7319
 2403SOL    HW218843   3.939   0.058   6.511 -0.3749  0.0653 -1.1490
 2404SOL     OW18844   3.152   1.039   3.163 -0.0737 -0.1901 -0.7619
 2404SOL    HW118845   3.231   1.068   3.118 -1.1052  3.0753 -0.4678
 2404SOL    HW218846   3.167   1.058   3.256  0.8103  1.8709 -1.3463
 2405SOL     OW18847   0.003   1.717   0.016 -0.1614  0.4032  0.2348
 2405SOL    HW118848   0.057   1.786   0.056  1.4850 -0.5118 -0.4247
 2405SOL    HW218849   4.667   1.768  17.725  1.1008  1.6681 -0.4817
 2406SOL     OW18850   3.382   0.692   4.599  0.3954 -0.5097 -0.5329
 2406SOL    HW118851   3.453   0.641   4.639  0.3854 -0.0570  0.0668
 2406SOL    HW218852   3.396   0.682   4.505  2.5319  1.5960 -0.4293
 2407SOL     OW18853   3.167   1.873  17.711  0.8976  0.0090  0.3157
 2407SOL    HW118854   3.141   1.886   0.057  0.3705 -1.1062  0.3287
 2407SOL    HW218855   3.098   1.920  17.663 -1.4561 -2.5186  1.2067
 2408SOL     OW18856   3.246   1.952   2.636 -0.5962 -0.1858 -0.2099
 2408SOL    HW118857   3.230   2.023   2.697  3.8178  2.4139 -2.0687
 2408SOL    HW218858   3.216   1.994   2.556 -1.8835 -1.5804 -0.4528
 2409SOL     OW18859   0.301   3.649   5.944  0.6786 -0.4365 -0.0640
 2409SOL    HW118860   0.351   3.621   6.020  0.8449  0.1376  0.0371
 2409SOL    HW218861   0.338   3.736   5.928 -1.3477  0.4008 -0.2123
 2410SOL     OW18862   1.005   4.614   2.405 -0.1454  0.1504 -0.8161
 2410SOL    HW118863   0.976   4.523   2.396  1.7160 -0.4297 -1.0521
 2410SOL    HW218864   0.924   4.656   2.435  1.0780  0.6057  1.8380
 2411SOL     OW18865   1.529   2.277   4.061 -0.2913 -0.0042  0.8083
 2411SOL    HW118866   1.494   2.201   4.106 -1.0884  0.5603  1.1414
 2411SOL    HW218867   1.623   2.259   4.070  0.0298 -0.3597 -3.2022
 2412SOL     OW18868   3.349   4.011  15.407 -0.0157  0.7287  0.4482
 2412SOL    HW118869   3.318   3.927  15.374 -1.2466  1.5717 -0.5061
 2412SOL    HW218870   3.312   4.078  15.350  1.1223  0.8947 -0.0988
 2413SOL     OW18871   0.363   1.289   4.512 -0.0432 -0.6656 -0.2169
 2413SOL    HW118872   0.331   1.378   4.500  0.7858  0.0960  3.2044
 2413SOL    HW218873   0.303   1.247   4.451 -1.0308  0.0876  0.2367
 2414SOL     OW18874   2.284   4.248   2.041 -0.0595  0.2820  0.2112
 2414SOL    HW118875   2.300   4.298   1.961 -1.7925 -1.9482 -1.5129
 2414SOL    HW218876   2.222   4.187   2.001 -0.8156  2.3576 -1.7742
 2415SOL     OW18877   0.080   0.455   7.786  0.3477  0.8660  0.1417
 2415SOL    HW118878   0.072   0.516   7.712 -1.1620  1.1250  0.5319
 2415SOL    HW218879   0.136   0.387   7.749  0.4814  1.3902 -0.6251
 2416SOL     OW18880   0.434   0.097  15.717 -0.4463 -0.2663  0.4630
 2416SOL    HW118881   0.473   0.065  15.635 -0.8609  0.3993  0.0035
 2416SOL    HW218882   0.514   0.106  15.768  0.8919  0.6485 -1.7742
 2417SOL     OW18883   4.683   1.664   2.388 -0.4202  0.2656 -0.1468
 2417SOL    HW118884   4.663   1.644   2.479 -1.1427  1.0874 -0.1220
 2417SOL    HW218885   0.042   1.663   2.386 -0.4270  1.1310 -0.9137
 2418SOL     OW18886   2.814   3.147  11.981 -0.4377  0.5903  0.4567
 2418SOL    HW118887   2.868   3.223  12.003  1.2534 -0.1241 -1.2440
 2418SOL    HW218888   2.854   3.114  11.900  0.4637 -1.5192  1.7524
 2419SOL     OW18889   0.661   3.616   3.261  0.1727  0.3536 -0.2780
 2419SOL    HW118890   0.694   3.642   3.175  0.1887 -0.4040 -0.5083
 2419SOL    HW218891   0.565   3.615   3.255  0.1645 -0.3847 -0.0816
 2420SOL     OW18892   1.508   4.566  12.301 -0.0521 -0.5023  0.0820
 2420SOL    HW118893   1.601   4.580  12.281 -0.0066 -1.9983 -0.7353
 2420SOL    HW218894   1.522   4.584  12.394  1.0212 -1.5619  0.1311
 2421SOL     OW18895   3.183   2.944   0.083 -0.7548  0.0454  0.0255
 2421SOL    HW118896   3.217   3.031   0.103 -1.2912  0.5157 -1.1171
 2421SOL    HW218897   3.093   2.946   0.115  0.2771  0.6061  2.8591
 2422SOL     OW18898   1.972   3.808   3.092 -1.1512 -0.0991 -0.4771
 2422SOL    HW118899   2.029   3.804   3.169 -1.2119  1.5839 -0.3564
 2422SOL    HW218900   2.030   3.768   3.026  0.3716 -0.3793  1.0364
 2423SOL     OW18901   2.056   3.770   8.731 -0.4936  0.0186 -0.2462
 2423SOL    HW118902   2.124   3.830   8.699 -0.3634  1.0788  1.9873
 2423SOL    HW218903   2.102   3.687   8.729 -1.1835 -0.3444 -1.0333
 2424SOL     OW18904   4.013   1.037   7.270  0.4653  0.2809 -0.0750
 2424SOL    HW118905   3.956   1.034   7.192  1.6916  2.8919 -1.0402
 2424SOL    HW218906   3.983   1.118   7.310  0.4081 -0.6615  1.7626
 2425SOL     OW18907   4.144   0.054  14.669 -0.7453 -0.1627 -0.3063
 2425SOL    HW118908   4.104   0.005  14.597 -0.6871  0.5265 -0.8018
 2425SOL    HW218909   4.189   0.118  14.615 -0.8648  0.0966 -0.0966
 2426SOL     OW18910   3.202   2.274  12.471  0.3748  0.5056  0.1620
 2426SOL    HW118911   3.270   2.224  12.427  1.8633  1.3658  1.5021
 2426SOL    HW218912   3.144   2.208  12.511  1.2574 -0.3812 -0.0267
 2427SOL     OW18913   3.399   4.636  13.865  0.2877  0.2237 -0.3557
 2427SOL    HW118914   3.314   4.639  13.821 -2.3740  1.1809  4.7356
 2427SOL    HW218915   3.409   4.541  13.864  1.0772  0.2802  2.6971
 2428SOL     OW18916   1.987   2.594   5.260 -0.2097 -0.3179  0.2955
 2428SOL    HW118917   1.996   2.637   5.175 -1.4387  1.4728  1.0479
 2428SOL    HW218918   1.902   2.632   5.284  0.1650  0.8601 -0.2465
 2429SOL     OW18919   0.447   0.199  17.136 -0.8059  0.5008  0.1312
 2429SOL    HW118920   0.390   0.172  17.065  0.3536  0.0532 -0.6292
 2429SOL    HW218921   0.424   0.289  17.161 -0.1603  0.9678 -0.9928
 2430SOL     OW18922   4.459   4.529  12.313 -0.0138  0.6744 -0.0788
 2430SOL    HW118923   4.491   4.590  12.246 -0.6519  1.4904  0.3709
 2430SOL    HW218924   4.433   4.595  12.376  0.5812  0.2595  0.5997
 2431SOL     OW18925   3.179   0.324   2.302  0.3331 -0.4617  0.3603
 2431SOL    HW118926   3.169   0.312   2.208 -0.5196 -1.1051  0.5277
 2431SOL    HW218927   3.263   0.369   2.298  1.3599 -2.1680  2.8579
 2432SOL     OW18928   3.028   2.896   1.748  0.5179  0.5260  0.4799
 2432SOL    HW118929   3.116   2.862   1.732  0.1437 -0.3437  0.2519
 2432SOL    HW218930   2.975   2.823   1.717 -1.0925  1.2497  1.5499
 2433SOL     OW18931   1.844   0.311   7.092  0.1714 -0.4396  0.1878
 2433SOL    HW118932   1.765   0.356   7.121  0.2551  0.6207 -1.2222
 2433SOL    HW218933   1.912   0.342   7.152  1.2125  0.4990 -1.4694
 2434SOL     OW18934   0.373   2.125  16.250 -0.3432  0.1194 -0.6532
 2434SOL    HW118935   0.460   2.148  16.216  0.0732  1.1329  1.1051
 2434SOL    HW218936   0.362   2.194  16.316  2.6405  1.4219 -1.5093
 2435SOL     OW18937   0.714   2.335   5.355 -0.1401 -0.1529  0.1834
 2435SOL    HW118938   0.675   2.336   5.443 -1.0425 -1.7478 -0.1816
 2435SOL    HW218939   0.655   2.392   5.306 -0.5381  1.7479  2.8807
 2436SOL     OW18940   0.953   4.111  17.444  0.0795  0.3903  0.3752
 2436SOL    HW118941   1.001   4.193  17.457  0.2453  0.1863  1.0116
 2436SOL    HW218942   1.013   4.038  17.452  1.0030  1.2087  0.8781
 2437SOL     OW18943   1.479   2.466   4.285 -0.1987  0.5525  0.0216
 2437SOL    HW118944   1.566   2.503   4.301  0.0539  0.9705 -2.3460
 2437SOL    HW218945   1.496   2.417   4.205  0.2160  1.4383 -0.4420
 2438SOL     OW18946   0.533   1.610  12.656  0.0515  0.2163 -0.3119
 2438SOL    HW118947   0.616   1.563  12.647  1.3313  2.1098  1.7039
 2438SOL    HW218948   0.548   1.679  12.721  1.9976 -0.2692 -0.2433
 2439SOL     OW18949   0.119   1.977   3.191  0.4022  0.0328 -0.0558
 2439SOL    HW118950   0.192   2.035   3.211 -0.1964  0.5604  0.6325
 2439SOL    HW218951   0.039   2.031   3.195  1.4175  1.5962 -1.0434
 2440SOL     OW18952   1.637   0.655   6.233 -0.3464 -0.1516 -0.0339
 2440SOL    HW118953   1.691   0.718   6.184  0.2378 -0.1873  0.5723
 2440SOL    HW218954   1.591   0.615   6.159  2.4368 -0.3124 -1.6632
 2441SOL     OW18955   0.963   1.098   1.671  0.7724 -0.4182 -0.3652
 2441SOL    HW118956   1.038   1.123   1.618  2.0248 -0.4377  1.3829
 2441SOL    HW218957   1.004   1.072   1.754 -0.3296 -1.2927 -0.0933
 2442SOL     OW18958   1.766   4.095   4.165 -0.7856 -0.2604  0.5285
 2442SOL    HW118959   1.743   4.004   4.185 -2.8339  0.3609  1.0748
 2442SOL    HW218960   1.733   4.137   4.245  1.4997  2.5989 -0.0771
 2443SOL     OW18961   0.401   2.966  17.451 -0.3594 -0.3408 -0.2068
 2443SOL    HW118962   0.420   2.916  17.372 -0.6999  1.4610 -1.4265
 2443SOL    HW218963   0.472   3.030  17.444  0.8501 -1.6744 -0.1068
 2444SOL     OW18964   0.399   2.686  10.437 -0.0109 -0.2934 -0.1512
 2444SOL    HW118965   0.328   2.699  10.499  1.9561 -0.4658  2.1482
 2444SOL    HW218966   0.363   2.726  10.358 -1.1883  0.2025  0.6435
 2445SOL     OW18967   1.521   2.833   3.788  0.9400  0.3933  0.1963
 2445SOL    HW118968   1.577   2.896   3.834  0.3764  0.3641  0.9102
 2445SOL    HW218969   1.574   2.797   3.717 -1.1853  1.3518 -1.9038
 2446SOL     OW18970   0.385   1.676   7.880 -0.2830 -0.3159  0.2464
 2446SOL    HW118971   0.462   1.637   7.838 -1.4413 -1.5111 -0.7474
 2446SOL    HW218972   0.422   1.697   7.966  3.1251  0.5965 -1.4115
 2447SOL     OW18973   2.358   1.928   9.564 -0.8772  0.5708 -0.0743
 2447SOL    HW118974   2.369   1.876   9.484 -0.9881 -1.7800  1.4395
 2447SOL    HW218975   2.276   1.886   9.591 -0.3956  0.1699  0.7405
 2448SOL     OW18976   1.874   3.173   4.743  0.0406 -0.2607  0.1554
 2448SOL    HW118977   1.904   3.250   4.791 -1.5249 -0.0927  0.8251
 2448SOL    HW218978   1.783   3.197   4.727 -0.6975 -3.2255 -0.0831
 2449SOL     OW18979   1.232   4.470   8.970  0.4853 -0.6527  0.1157
 2449SOL    HW118980   1.194   4.522   8.900  0.0322  1.7308  2.1140
 2449SOL    HW218981   1.320   4.507   8.959  0.4738 -0.5783  0.2698
 2450SOL     OW18982   2.163   2.584   5.491 -0.3479  0.7304 -0.0947
 2450SOL    HW118983   2.141   2.613   5.402  2.3899  1.1746 -0.6095
 2450SOL    HW218984   2.085   2.613   5.539  0.3278  1.6282  0.4388
 2451SOL     OW18985   1.937   0.876   8.515 -0.2809  1.1878 -0.2848
 2451SOL    HW118986   1.898   0.806   8.463 -3.4074  1.7703  1.2894
 2451SOL    HW218987   1.939   0.946   8.450  0.5151  0.9203 -0.5426
 2452SOL     OW18988   0.276   0.310   9.302 -0.1119 -0.3692 -0.1590
 2452SOL    HW118989   0.302   0.278   9.389  0.8171 -0.1038 -0.3402
 2452SOL    HW218990   0.357   0.348   9.268 -0.8164  0.9984 -0.2849
 2453SOL     OW18991   1.686   2.977   8.097 -0.4582  0.4774 -0.3600
 2453SOL    HW118992   1.653   3.010   8.181  0.6782  1.8063 -0.4302
 2453SOL    HW218993   1.620   3.010   8.035 -1.7589  0.2645  0.9007
 2454SOL     OW18994   2.146   0.530  12.058  0.2696 -0.2503 -0.0735
 2454SOL    HW118995   2.181   0.532  12.147 -1.1989  2.3641  0.4285
 2454SOL    HW218996   2.117   0.620  12.049 -0.6926 -0.4901  0.6474
 2455SOL     OW18997   0.833   1.818  12.507  0.1451  0.0595  0.2352
 2455SOL    HW118998   0.912   1.769  12.486 -0.4016 -1.5842  2.0470
 2455SOL    HW218999   0.798   1.833  12.419 -1.3679 -0.2625  0.7857
 2456SOL     OW19000   1.009   2.613   6.081  0.1694 -0.3232  0.0723
 2456SOL    HW119001   0.953   2.691   6.079 -1.3547 -1.3763  1.0537
 2456SOL    HW219002   1.091   2.650   6.112 -0.6626  1.8553 -0.2794
 2457SOL     OW19003   3.431   3.296   6.613 -0.2040  0.1823 -0.2564
 2457SOL    HW119004   3.361   3.356   6.638  1.3762  2.3909 -1.2025
 2457SOL    HW219005   3.382   3.265   6.536 -2.1218  2.7486 -0.0624
 2458SOL     OW19006   0.134   1.933   4.839  0.7262  0.3325  0.2812
 2458SOL    HW119007   0.151   1.912   4.931 -1.0244  1.7979  0.9486
 2458SOL    HW219008   0.143   2.029   4.840  0.5490  0.3405  1.0268
 2459SOL     OW19009   1.750   0.289   3.158 -0.1106 -0.0687 -0.1873
 2459SOL    HW119010   1.657   0.308   3.172 -0.1248 -0.7067  0.5625
 2459SOL    HW219011   1.777   0.380   3.145  1.0302 -0.3923 -0.0263
 2460SOL     OW19012   1.128   3.793   2.054 -0.0045 -0.2379  1.0093
 2460SOL    HW119013   1.189   3.722   2.035 -2.5205 -1.4787 -2.3889
 2460SOL    HW219014   1.159   3.825   2.139 -0.7518  0.7680  0.9061
 2461SOL     OW19015   3.862   3.076   7.234  0.5930 -0.2554 -0.6326
 2461SOL    HW119016   3.857   2.982   7.253 -0.9736 -0.0201  0.0611
 2461SOL    HW219017   3.771   3.104   7.228  1.4190  2.4378 -0.2174
 2462SOL     OW19018   0.743   0.015  16.856 -0.1869  0.2517  0.2037
 2462SOL    HW119019   0.685   0.080  16.815 -0.7783 -0.9053 -0.7700
 2462SOL    HW219020   0.789   4.719  16.779 -2.2185  1.4134 -1.5037
 2463SOL     OW19021   1.724   4.698   4.622 -0.2616  0.1658 -0.1421
 2463SOL    HW119022   1.775   0.029   4.577 -1.3308  1.4485  0.5861
 2463SOL    HW219023   1.640   4.707   4.578 -0.5420 -1.0762  0.1211
 2464SOL     OW19024   3.860   4.646  14.657  0.3255 -0.9050  0.2789
 2464SOL    HW119025   3.874   4.690  14.573 -2.4810  0.7091  0.6694
 2464SOL    HW219026   3.786   4.596  14.624 -1.2045 -0.1008  2.5293
 2465SOL     OW19027   2.572   0.684   1.975 -0.6775  0.6102 -0.2990
 2465SOL    HW119028   2.532   0.600   1.998 -0.8790  0.6016 -0.6877
 2465SOL    HW219029   2.651   0.688   2.028 -1.4792  0.7517  0.8980
 2466SOL     OW19030   1.521   2.549   0.878  0.6117  0.2395  0.3474
 2466SOL    HW119031   1.475   2.583   0.801  0.8315 -1.9623 -0.7726
 2466SOL    HW219032   1.608   2.576   0.851 -0.2378  3.1222  0.5520
 2467SOL     OW19033   1.378   3.836  10.376  0.3479 -0.0788 -0.7136
 2467SOL    HW119034   1.364   3.765  10.313  0.1926 -0.9670  0.3348
 2467SOL    HW219035   1.288   3.859  10.398  0.3923  2.2360 -2.9710
 2468SOL     OW19036   2.941   2.960   7.246 -0.4118 -0.1709  0.8538
 2468SOL    HW119037   2.908   3.035   7.295  1.0580  1.7760 -1.0907
 2468SOL    HW219038   2.935   2.889   7.309 -1.2041 -0.4153  0.5076
 2469SOL     OW19039   3.976   1.451   7.709 -0.3231  0.5199 -0.5162
 2469SOL    HW119040   4.062   1.475   7.745  0.9044 -0.7006 -2.6877
 2469SOL    HW219041   3.990   1.361   7.679 -2.2385 -0.5620  1.8479
 2470SOL     OW19042   0.424   1.511   1.309  0.4101  0.1817 -0.3660
 2470SOL    HW119043   0.412   1.430   1.359  0.4263  0.5612  0.2517
 2470SOL    HW219044   0.355   1.518   1.243 -0.8877 -2.2329  0.7328
 2471SOL     OW19045   0.278   4.546   6.383  0.3290 -0.5143 -0.5296
 2471SOL    HW119046   0.262   4.618   6.322 -1.7049 -0.8356 -0.3844
 2471SOL    HW219047   0.214   4.483   6.349 -1.6671  1.0325  0.4026
 2472SOL     OW19048   0.453   4.459   4.473  0.1077 -0.0737 -0.4007
 2472SOL    HW119049   0.541   4.486   4.499 -0.1385 -1.8962  2.2539
 2472SOL    HW219050   0.448   4.376   4.520  2.1002 -0.6033 -1.1233
 2473SOL     OW19051   1.698   0.144  11.681 -0.1801  0.2715  0.0840
 2473SOL    HW119052   1.754   0.067  11.670  0.2678  0.6339 -0.1915
 2473SOL    HW219053   1.765   0.194  11.728 -0.7010  1.0011  0.0627
 2474SOL     OW19054   2.315   2.397  11.096  0.0279 -0.6627  0.4568
 2474SOL    HW119055   2.288   2.314  11.056  0.7571 -0.8227  0.3049
 2474SOL    HW219056   2.257   2.404  11.172 -0.9605  1.6903 -0.5157
 2475SOL     OW19057   2.061   1.703   3.127  0.3030 -0.2707  0.1572
 2475SOL    HW119058   1.990   1.639   3.128 -0.2802  0.3639 -0.2661
 2475SOL    HW219059   2.053   1.741   3.039 -1.8451 -1.7823 -0.3018
 2476SOL     OW19060   1.757   0.167  14.262  0.1364 -0.4050 -0.1374
 2476SOL    HW119061   1.748   0.261  14.245 -1.3436 -0.4671  0.3227
 2476SOL    HW219062   1.820   0.176  14.334  0.4303  0.0146 -0.4532
 2477SOL     OW19063   3.725   3.258   3.968 -0.7299 -0.2504 -0.8727
 2477SOL    HW119064   3.696   3.208   4.044 -1.6286  0.9926 -0.3882
 2477SOL    HW219065   3.707   3.197   3.897 -2.7870 -2.3604  1.4795
 2478SOL     OW19066   1.169   0.186   3.608 -0.0217 -0.2533 -0.1122
 2478SOL    HW119067   1.082   0.198   3.569  0.1387 -0.6851 -0.6137
 2478SOL    HW219068   1.147   0.215   3.696  1.3422 -2.4180  0.9362
 2479SOL     OW19069   0.839   3.179   0.924  0.2181 -0.4314 -0.0048
 2479SOL    HW119070   0.881   3.195   1.008 -1.0287  0.3468  0.4718
 2479SOL    HW219071   0.909   3.197   0.862  0.9057 -0.7678  0.6851
 2480SOL     OW19072   3.558   2.799  16.053  0.0599  0.5547  0.4266
 2480SOL    HW119073   3.548   2.809  15.958  0.0057 -1.7952  0.2076
 2480SOL    HW219074   3.534   2.888  16.080 -1.1151  0.4128 -0.1387
 2481SOL     OW19075   2.635   4.430   1.959  0.4870 -0.5338 -0.6622
 2481SOL    HW119076   2.602   4.475   2.037  1.2436  0.6133 -1.0108
 2481SOL    HW219077   2.556   4.429   1.905  0.7191 -0.5383 -0.9974
 2482SOL     OW19078   4.333   1.700  13.722  0.2515 -0.0404 -0.2146
 2482SOL    HW119079   4.399   1.738  13.780 -0.0366  0.3867 -0.1619
 2482SOL    HW219080   4.356   1.743  13.639  3.1067 -1.4170 -0.1066
 2483SOL     OW19081   1.758   2.567   7.103 -0.0420  0.2627 -0.4334
 2483SOL    HW119082   1.663   2.565   7.110 -0.0167 -0.0935 -0.2002
 2483SOL    HW219083   1.785   2.645   7.153 -0.7291 -1.2278  2.2350
 2484SOL     OW19084   1.142   4.019   6.743  0.0350 -0.1048 -0.6238
 2484SOL    HW119085   1.051   4.048   6.735  0.5152  2.0686  1.9670
 2484SOL    HW219086   1.144   3.957   6.816  0.6458  1.1593  0.4265
 2485SOL     OW19087   4.186   0.505   3.176  0.0736 -0.1094  0.2998
 2485SOL    HW119088   4.107   0.472   3.133  0.9243 -0.6365 -0.8809
 2485SOL    HW219089   4.142   0.559   3.242 -1.2043 -0.1796 -0.4876
 2486SOL     OW19090   2.527   4.552   5.499 -0.2872  0.1157 -0.1086
 2486SOL    HW119091   2.568   4.638   5.484 -0.6629  0.5172  1.1377
 2486SOL    HW219092   2.435   4.570   5.481 -0.3836  0.0340  0.2982
 2487SOL     OW19093   0.866   2.848   6.025  0.3048 -0.2137  0.0123
 2487SOL    HW119094   0.834   2.921   6.079  1.3796  0.5438 -0.3641
 2487SOL    HW219095   0.801   2.779   6.027  1.4157 -1.2452  0.8049
 2488SOL     OW19096   4.564   4.143   7.768 -0.6563 -0.4030  0.3591
 2488SOL    HW119097   4.645   4.107   7.733  1.0639  3.3524  0.4611
 2488SOL    HW219098   4.569   4.094   7.850 -1.7969  0.2960  0.8499
 2489SOL     OW19099   1.269   4.314   6.958 -0.0898  0.2787 -0.4388
 2489SOL    HW119100   1.299   4.231   6.995  0.8466  1.7171  2.0603
 2489SOL    HW219101   1.264   4.287   6.867  1.1906 -0.0153 -0.4214
 2490SOL     OW19102   4.684   0.818  15.205  0.0199  0.1112  0.1518
 2490SOL    HW119103   4.672   0.793  15.297 -2.0862 -1.1459 -0.4569
 2490SOL    HW219104   4.654   0.909  15.200  1.2063  0.3381 -3.1016
 2491SOL     OW19105   2.761   0.358   8.549 -0.0841  0.2151  0.5185
 2491SOL    HW119106   2.808   0.299   8.490  0.2927 -0.2205  1.2533
 2491SOL    HW219107   2.677   0.315   8.561 -1.0061  1.8195 -0.2196
 2492SOL     OW19108   4.723   4.169   6.933 -0.6104  0.3219 -0.0595
 2492SOL    HW119109   0.041   4.238   6.896 -2.1691  2.1477  1.0213
 2492SOL    HW219110   4.633   4.203   6.937 -0.7382  0.2197 -2.3077
 2493SOL     OW19111   2.176   3.295   8.035 -0.2338 -0.4052 -0.4381
 2493SOL    HW119112   2.263   3.335   8.044  0.4499 -2.3959  1.7861
 2493SOL    HW219113   2.159   3.275   8.127 -2.6660 -2.4197 -1.3506
 2494SOL     OW19114   1.966   4.090   9.255  0.1747  0.0420  0.1486
 2494SOL    HW119115   1.983   4.003   9.220 -1.1061 -0.2638  0.2715
 2494SOL    HW219116   1.879   4.102   9.216 -1.5372 -2.8988  3.0373
 2495SOL     OW19117   3.427   3.783  14.850 -0.0341 -0.3748 -0.6614
 2495SOL    HW119118   3.454   3.815  14.936 -2.1660  0.3028 -0.2371
 2495SOL    HW219119   3.359   3.850  14.840  0.5131  0.3618  0.5342
 2496SOL     OW19120   1.423   3.326   7.606  0.6560  0.5896  0.2973
 2496SOL    HW119121   1.363   3.389   7.567 -0.2029 -0.0175  0.6315
 2496SOL    HW219122   1.431   3.273   7.527  1.4492  0.4076  0.5036
 2497SOL     OW19123   0.560   0.689   1.311 -0.2531  0.5227 -0.0584
 2497SOL    HW119124   0.481   0.636   1.321  0.6189 -0.9342 -0.8512
 2497SOL    HW219125   0.603   0.661   1.391 -0.7917 -1.1750 -0.3687
 2498SOL     OW19126   1.628   4.252  12.936  0.5368  0.3678  0.5981
 2498SOL    HW119127   1.705   4.248  12.879  0.9069 -1.6511  1.2351
 2498SOL    HW219128   1.657   4.190  13.003  1.0704  1.0345  0.9841
 2499SOL     OW19129   2.102   0.077  10.286 -0.5667  0.0798  0.0665
 2499SOL    HW119130   2.054   0.129  10.350  1.8855  0.8273  1.3243
 2499SOL    HW219131   2.180   0.042  10.330 -1.2670 -2.8431 -1.0565
 2500SOL     OW19132   3.313   3.972   4.503  0.3235  0.1751 -0.1098
 2500SOL    HW119133   3.226   3.954   4.468 -0.0344  2.0003 -0.1791
 2500SOL    HW219134   3.278   3.962   4.591 -1.9044  1.1931 -0.8875
 2501SOL     OW19135   2.946   4.714   6.641 -0.4845 -0.3835  0.6217
 2501SOL    HW119136   2.908   4.687   6.557  0.6700 -0.8901  0.2634
 2501SOL    HW219137   2.874   4.691   6.701 -0.2457 -1.5306  0.4744
 2502SOL     OW19138   1.320   1.816   7.541  0.2265  0.3821 -0.7455
 2502SOL    HW119139   1.344   1.736   7.494 -2.5039 -1.5185  1.1379
 2502SOL    HW219140   1.401   1.865   7.525  0.2123  0.8890  0.7228
 2503SOL     OW19141   1.879   0.533   3.746  0.0108  0.2155 -0.4021
 2503SOL    HW119142   1.888   0.619   3.786  1.2605 -0.1025  0.0061
 2503SOL    HW219143   1.803   0.494   3.790  0.8360  1.4799  2.0894
 2504SOL     OW19144   0.850   2.044   7.769  0.2034  1.1335 -0.0314
 2504SOL    HW119145   0.819   2.003   7.688  1.4994  0.2803 -0.0920
 2504SOL    HW219146   0.924   1.984   7.780 -1.4376 -0.8982 -0.0965
 2505SOL     OW19147   1.223   1.210   5.731  0.4338 -0.2190  0.9624
 2505SOL    HW119148   1.274   1.287   5.710 -1.6408  0.5894 -1.2027
 2505SOL    HW219149   1.265   1.177   5.810  1.1556  0.2660  0.7762
 2506SOL     OW19150   2.255   2.545   0.570  0.1693 -0.2726 -0.5353
 2506SOL    HW119151   2.219   2.556   0.657 -1.2844  0.3512 -1.2107
 2506SOL    HW219152   2.256   2.636   0.539 -3.0177  0.5733  1.8037
 2507SOL     OW19153   3.488   2.008  14.143  0.0311  0.3055  0.4121
 2507SOL    HW119154   3.542   2.087  14.152  1.5966 -0.8445  1.1311
 2507SOL    HW219155   3.464   2.022  14.051  2.5043 -2.1282 -0.5993
 2508SOL     OW19156   2.824   0.785   2.075  0.7489  0.7559  0.1563
 2508SOL    HW119157   2.803   0.790   2.168 -0.4166 -1.1337 -0.0089
 2508SOL    HW219158   2.904   0.837   2.079  0.6832  0.8076  0.7791
 2509SOL     OW19159   3.902   2.636   5.508 -0.0268  0.3798 -0.3814
 2509SOL    HW119160   3.888   2.543   5.495 -0.8114  0.3293  0.9097
 2509SOL    HW219161   3.923   2.641   5.601 -1.4017  1.4586 -0.1211
 2510SOL     OW19162   3.470   1.624   3.850  0.0813 -0.0103  0.4568
 2510SOL    HW119163   3.557   1.662   3.838  0.2190 -0.0921  1.1868
 2510SOL    HW219164   3.481   1.576   3.932  1.1698  1.3806  1.1132
 2511SOL     OW19165   2.589   1.580   0.209 -0.2287 -0.5701  0.7876
 2511SOL    HW119166   2.664   1.602   0.264 -0.0189  0.3218  0.1501
 2511SOL    HW219167   2.578   1.486   0.217 -0.4195 -0.7754 -1.9462
 2512SOL     OW19168   1.417   3.239  14.058  0.2655 -0.8854  0.0074
 2512SOL    HW119169   1.433   3.152  14.022 -2.1552 -1.7562  0.9977
 2512SOL    HW219170   1.419   3.278  13.971 -0.2402  1.1632  0.9033
 2513SOL     OW19171   3.395   3.098   7.120  0.1745  0.2626  0.4952
 2513SOL    HW119172   3.344   3.177   7.141  0.3071  0.0435  1.6641
 2513SOL    HW219173   3.465   3.141   7.071  0.5760 -0.3246  0.5527
 2514SOL     OW19174   4.645   2.857   6.871 -0.1671  0.1176  0.2748
 2514SOL    HW119175   4.628   2.938   6.824  1.9021  0.1748 -0.3887
 2514SOL    HW219176   4.576   2.795   6.848 -0.6490  1.7790 -2.7701
 2515SOL     OW19177   3.774   3.463  14.304 -0.1728 -0.0774 -0.3153
 2515SOL    HW119178   3.746   3.487  14.392  0.1194  0.9085 -0.4920
 2515SOL    HW219179   3.704   3.511  14.260  0.1681  0.2178 -0.5403
 2516SOL     OW19180   0.081   4.427   3.837  0.3423 -1.1471  0.0743
 2516SOL    HW119181   0.019   4.498   3.851  0.5113 -1.0341  0.2447
 2516SOL    HW219182   0.139   4.479   3.781  0.5157 -0.1847  1.1508
 2517SOL     OW19183   3.561   4.037   7.780 -0.2662 -0.2547 -0.6314
 2517SOL    HW119184   3.522   4.072   7.860  3.5430  1.0681  0.6456
 2517SOL    HW219185   3.563   4.110   7.718 -1.5106  0.6163  0.3517
 2518SOL     OW19186   2.015   2.246  12.885 -0.0772 -0.1212  0.3443
 2518SOL    HW119187   2.037   2.293  12.804 -0.7596 -2.0945 -0.9879
 2518SOL    HW219188   1.920   2.248  12.884 -0.0382  1.6730 -0.1725
 2519SOL     OW19189   1.317   4.223   6.376  0.3300  0.1808 -0.2874
 2519SOL    HW119190   1.297   4.313   6.353 -1.5563  0.5122  2.6027
 2519SOL    HW219191   1.334   4.177   6.294 -0.4892 -0.4257 -0.1212
 2520SOL     OW19192   3.945   3.457   3.148 -0.4078  0.0029  0.1614
 2520SOL    HW119193   3.898   3.420   3.223  0.9682 -0.8346  0.6062
 2520SOL    HW219194   3.901   3.542   3.143 -1.9369 -0.8226 -0.4413
 2521SOL     OW19195   3.534   3.742   2.051 -0.0100 -0.1420  0.0403
 2521SOL    HW119196   3.468   3.768   2.115  1.0917  0.4112  0.9638
 2521SOL    HW219197   3.528   3.647   2.049 -0.9952 -0.0185 -2.4288
 2522SOL     OW19198   1.390   2.881   7.974 -0.1596 -0.8161 -0.2163
 2522SOL    HW119199   1.307   2.850   7.939 -1.5685  2.2456  0.4009
 2522SOL    HW219200   1.409   2.939   7.900 -0.7202 -0.3533  0.0059
 2523SOL     OW19201   4.420   3.397   8.981  0.5409  0.2700 -0.0568
 2523SOL    HW119202   4.476   3.370   8.908  1.2555 -1.3957  1.0826
 2523SOL    HW219203   4.333   3.398   8.942  0.1606  1.5270  0.8188
 2524SOL     OW19204   0.738   2.958  16.478  0.4299 -0.0289 -0.0086
 2524SOL    HW119205   0.726   2.963  16.383 -1.4040 -1.5137  0.1518
 2524SOL    HW219206   0.763   3.049  16.495 -1.2355  0.0580  1.9215
 2525SOL     OW19207   2.338   0.458   7.681 -0.7206 -0.0845 -0.3443
 2525SOL    HW119208   2.257   0.424   7.643 -1.2641 -1.1232  1.7277
 2525SOL    HW219209   2.351   0.534   7.624  0.5056 -1.4104 -1.8375
 2526SOL     OW19210   1.968   1.707  16.632 -0.1722 -0.3167 -0.1171
 2526SOL    HW119211   1.983   1.758  16.552  0.1802  0.4116  0.4104
 2526SOL    HW219212   2.014   1.757  16.699  1.2431 -1.5081 -0.2255
 2527SOL     OW19213   1.000   1.160  15.050  0.1091 -0.0805 -0.3806
 2527SOL    HW119214   1.087   1.123  15.063 -0.0999 -0.9685 -1.4087
 2527SOL    HW219215   0.976   1.152  15.142 -0.1730  1.0964 -0.3541
 2528SOL     OW19216   1.200   1.529  13.920 -0.1030 -0.0279  0.3055
 2528SOL    HW119217   1.205   1.499  14.010 -1.8288  0.1503  0.4526
 2528SOL    HW219218   1.187   1.623  13.932  2.0529  0.1492  1.2380
 2529SOL     OW19219   2.274   3.239   7.500 -0.2965 -0.0386  0.3741
 2529SOL    HW119220   2.302   3.244   7.591 -0.0626  3.2610  0.1273
 2529SOL    HW219221   2.359   3.236   7.457 -0.5953  2.0310 -0.3684
 2530SOL     OW19222   3.355   4.303   9.747  0.0688 -0.2044  0.6865
 2530SOL    HW119223   3.377   4.212   9.765 -2.5082 -0.6673  1.5351
 2530SOL    HW219224   3.323   4.289   9.658 -0.1047 -0.3162  0.7663
 2531SOL     OW19225   0.113   3.862  14.906 -0.6323  0.1213 -0.8981
 2531SOL    HW119226   0.021   3.871  14.931 -0.3693  0.4298 -0.0483
 2531SOL    HW219227   0.150   3.820  14.983 -2.1821  0.1979 -0.1143
 2532SOL     OW19228   2.296   4.299  10.542  0.7624 -0.3153  0.2049
 2532SOL    HW119229   2.305   4.366  10.474  1.7255  0.1618  0.8085
 2532SOL    HW219230   2.380   4.288  10.585  1.6860  3.1560 -0.7470
 2533SOL     OW19231   3.889   0.925   5.446  0.4281 -0.1545 -0.4845
 2533SOL    HW119232   3.934   0.871   5.381  0.4939  0.0155 -0.5822
 2533SOL    HW219233   3.822   0.867   5.480  0.0109  1.1085  0.8638
 2534SOL     OW19234   1.733   1.309  11.361  0.5274  0.3399  0.2029
 2534SOL    HW119235   1.640   1.317  11.381 -0.1243 -1.9940 -2.0342
 2534SOL    HW219236   1.756   1.268  11.444 -0.0578  1.8226  1.1027
 2535SOL     OW19237   3.591   3.724   5.360 -0.3954 -0.7749 -0.2103
 2535SOL    HW119238   3.660   3.657   5.363 -0.5622 -1.0282 -1.6239
 2535SOL    HW219239   3.638   3.804   5.381  2.2873 -1.9146 -1.7774
 2536SOL     OW19240   1.745   2.029   3.838  0.2570  0.1143  0.0505
 2536SOL    HW119241   1.825   2.037   3.889  0.7312 -1.4026 -0.4510
 2536SOL    HW219242   1.677   2.019   3.905  1.7952  2.4133  1.9429
 2537SOL     OW19243   1.386   3.171   6.539 -0.6577 -0.2656 -0.2399
 2537SOL    HW119244   1.353   3.092   6.580 -0.6373  0.0314  0.3419
 2537SOL    HW219245   1.301   3.210   6.519 -1.3156 -1.7372 -0.3385
 2538SOL     OW19246   0.572   4.266   6.087 -0.0048 -0.7785  0.0848
 2538SOL    HW119247   0.555   4.172   6.094  0.9415 -0.9739 -0.2243
 2538SOL    HW219248   0.667   4.277   6.078 -0.0096 -0.7837  0.0287
 2539SOL     OW19249   3.016   0.266   8.218  0.4642 -0.0937  0.1099
 2539SOL    HW119250   3.038   0.209   8.292 -1.0327 -1.3716 -0.4402
 2539SOL    HW219251   3.061   0.347   8.244 -1.4781  0.7280  0.8431
 2540SOL     OW19252   1.832   0.246   3.613  0.5824 -0.4058  0.8024
 2540SOL    HW119253   1.847   0.190   3.537  0.2442  0.0151  0.4261
 2540SOL    HW219254   1.921   0.278   3.626  0.3551  0.0638  1.2196
 2541SOL     OW19255   3.672   3.805   1.816  0.2303  0.2411 -0.2561
 2541SOL    HW119256   3.591   3.810   1.765 -0.0339 -3.0512 -0.2010
 2541SOL    HW219257   3.639   3.791   1.905  1.2011 -0.8590 -0.0692
 2542SOL     OW19258   0.057   3.331   3.538  0.0149  0.3707  0.0714
 2542SOL    HW119259   0.059   3.242   3.573  0.3488  0.3239 -0.0730
 2542SOL    HW219260   0.047   3.377   3.622 -0.1582  2.1955 -0.9428
 2543SOL     OW19261   0.827   3.976  12.425 -0.5049 -0.4621  0.0961
 2543SOL    HW119262   0.862   3.971  12.514  1.3373  1.0884 -0.5488
 2543SOL    HW219263   0.898   3.932  12.378 -0.6011 -0.7966  0.2580
 2544SOL     OW19264   2.393   1.925  10.791  0.2960 -0.7463  0.2116
 2544SOL    HW119265   2.477   1.909  10.748 -0.3723 -1.0991 -0.9845
 2544SOL    HW219266   2.349   1.840  10.784  1.0065 -1.2879  2.5276
 2545SOL     OW19267   3.338   3.425  14.064 -0.1685  0.1672  0.0713
 2545SOL    HW119268   3.313   3.414  14.156 -0.9573  1.8331  0.0628
 2545SOL    HW219269   3.297   3.350  14.020  0.2216  0.2374 -0.4047
 2546SOL     OW19270   3.035   3.557   3.877 -0.0997  0.2529  0.0735
 2546SOL    HW119271   3.118   3.555   3.926 -1.1611 -3.1793  1.6899
 2546SOL    HW219272   3.023   3.463   3.869 -0.2526  0.3743 -1.0157
 2547SOL     OW19273   2.744   0.860   7.101 -0.2231  0.4830 -0.1186
 2547SOL    HW119274   2.816   0.810   7.138 -1.2922 -2.5451 -2.1298
 2547SOL    HW219275   2.693   0.873   7.181 -1.1882 -0.8509 -0.5250
 2548SOL     OW19276   4.150   2.725   2.628  0.1884 -0.2140 -0.1857
 2548SOL    HW119277   4.186   2.759   2.546  1.5618  0.3865  0.6644
 2548SOL    HW219278   4.178   2.633   2.634 -2.2741 -1.1320 -2.9195
 2549SOL     OW19279   4.570   2.892   3.977 -0.3760 -0.0481 -0.0697
 2549SOL    HW119280   4.564   2.846   4.061  1.1739 -0.0407  0.0425
 2549SOL    HW219281   4.477   2.882   3.959 -0.2876  0.8113 -1.0050
 2550SOL     OW19282   1.420   1.024   8.958 -0.5405  0.1303  0.2491
 2550SOL    HW119283   1.437   1.070   8.876  0.5853 -0.3918  0.1960
 2550SOL    HW219284   1.388   1.102   9.003  1.4251  1.4878 -0.7087
 2551SOL     OW19285   2.419   3.264  10.493  0.0535 -0.2433 -0.0627
 2551SOL    HW119286   2.513   3.261  10.508  0.1515 -0.5548 -0.7297
 2551SOL    HW219287   2.393   3.349  10.529 -0.7814  0.1896 -1.6854
 2552SOL     OW19288   1.908   0.942   7.808  0.7674 -0.4209 -0.3025
 2552SOL    HW119289   1.836   1.004   7.822  0.2377 -0.8655 -1.0269
 2552SOL    HW219290   1.937   0.927   7.898  1.9459  1.9657 -0.2906
 2553SOL     OW19291   0.915   0.928   8.590  0.0707  0.6778 -0.5130
 2553SOL    HW119292   0.975   0.997   8.564 -0.4817  1.2157 -0.3559
 2553SOL    HW219293   0.836   0.968   8.554 -2.2210 -1.4940  2.0626
 2554SOL     OW19294   2.770   4.019  15.469  0.4275  0.8135 -0.0840
 2554SOL    HW119295   2.792   3.933  15.431  1.9058  0.9637  0.4125
 2554SOL    HW219296   2.744   3.995  15.558 -0.6469  1.4042 -0.2420
 2555SOL     OW19297   2.840   4.574   8.794 -0.1632  0.2270  0.0011
 2555SOL    HW119298   2.803   4.633   8.859 -1.3458 -0.5020 -0.0229
 2555SOL    HW219299   2.765   4.525   8.761  1.7588 -3.3307  0.8430
 2556SOL     OW19300   3.438   1.383  17.011  0.6391 -0.5519  0.4055
 2556SOL    HW119301   3.406   1.427  17.089  0.4682  1.7316 -0.9575
 2556SOL    HW219302   3.528   1.416  17.017 -0.6405  3.2009 -1.3331
 2557SOL     OW19303   3.505   0.132   2.962 -0.1260 -0.3086  0.4447
 2557SOL    HW119304   3.470   0.044   2.973 -0.2593 -0.1766  1.0546
 2557SOL    HW219305   3.584   0.123   3.015 -0.5958 -1.5595  0.9144
 2558SOL     OW19306   3.585   1.107   4.239  0.0288 -0.8062  0.2038
 2558SOL    HW119307   3.582   1.051   4.162 -0.2304 -0.1279 -0.2803
 2558SOL    HW219308   3.552   1.054   4.311 -2.4911 -0.3670 -0.6300
 2559SOL     OW19309   1.166   2.495   7.268  0.7709  0.4139 -0.3275
 2559SOL    HW119310   1.213   2.482   7.185  0.0340  3.1368 -1.1610
 2559SOL    HW219311   1.096   2.556   7.245 -0.7950 -0.8501  1.0622
 2560SOL     OW19312   1.030   2.444   7.506 -0.2740 -0.0951 -0.0262
 2560SOL    HW119313   1.013   2.538   7.502 -0.3633 -0.0315  2.1767
 2560SOL    HW219314   1.077   2.430   7.424  2.4820 -1.4618  1.7873
 2561SOL     OW19315   2.414   0.753  11.791 -0.1761  0.4317  0.1503
 2561SOL    HW119316   2.425   0.735  11.884 -1.0103 -0.2973  0.1124
 2561SOL    HW219317   2.335   0.806  11.782  0.4121  1.2091 -0.4094
 2562SOL     OW19318   0.634   3.608  16.176 -0.1039 -0.7054  0.2413
 2562SOL    HW119319   0.702   3.658  16.131 -0.8432  0.7787  0.7639
 2562SOL    HW219320   0.560   3.618  16.117  0.2223  2.6663  0.4023
 2563SOL     OW19321   4.400   4.413   1.141  0.3712  0.1924  0.0583
 2563SOL    HW119322   4.486   4.414   1.184  1.0798 -2.3742 -1.3607
 2563SOL    HW219323   4.346   4.437   1.217  0.5222  3.0459 -0.7275
 2564SOL     OW19324   1.340   1.552   7.970  1.3162  0.2504 -0.3987
 2564SOL    HW119325   1.269   1.616   7.976  2.2055  1.1518  0.4632
 2564SOL    HW219326   1.415   1.610   7.957  1.1230  0.3435 -1.1361
 2565SOL     OW19327   4.214   4.007   8.757  0.3553 -0.3899  0.5621
 2565SOL    HW119328   4.219   3.935   8.694  2.4668 -0.3527  0.6788
 2565SOL    HW219329   4.192   3.959   8.837  0.8710 -1.2078  0.2157
 2566SOL     OW19330   0.933   2.582   5.402 -0.0868 -0.2821 -1.4078
 2566SOL    HW119331   0.935   2.675   5.380  1.3852 -0.0872 -0.3687
 2566SOL    HW219332   0.895   2.536   5.326  1.9063 -1.4442 -1.6867
 2567SOL     OW19333   3.565   2.768   8.600 -0.2222 -0.3620  0.2363
 2567SOL    HW119334   3.627   2.722   8.655  0.4028  0.0896 -0.0947
 2567SOL    HW219335   3.620   2.771   8.522  1.2411 -1.7395  1.2265
 2568SOL     OW19336   1.760   4.315   8.507 -0.1857 -0.1759  0.1840
 2568SOL    HW119337   1.688   4.266   8.467  0.3103 -2.7242  2.3683
 2568SOL    HW219338   1.800   4.251   8.567  3.4359  0.5677 -1.4242
 2569SOL     OW19339   3.411   0.698   5.286  0.1452 -0.2870  0.2629
 2569SOL    HW119340   3.373   0.785   5.303 -0.5434 -0.7548  1.0957
 2569SOL    HW219341   3.461   0.672   5.363  0.6240 -2.3967 -0.7861
 2570SOL     OW19342   2.197   0.273  14.569 -0.1639 -0.0737  0.0544
 2570SOL    HW119343   2.248   0.286  14.649  0.9599 -2.0373 -0.3403
 2570SOL    HW219344   2.180   0.179  14.572 -3.9479  0.6387  0.6611
 2571SOL     OW19345   4.627   0.500   4.526  0.0090 -0.0405  0.5739
 2571SOL    HW119346   4.657   0.586   4.495  0.9253 -0.2910  0.7496
 2571SOL    HW219347   4.672   0.510   4.610 -0.4513  0.9051  0.7099
 2572SOL     OW19348   1.202   4.240   2.668 -0.1088  0.0369 -0.3957
 2572SOL    HW119349   1.115   4.254   2.632 -0.5642 -0.2140  0.6085
 2572SOL    HW219350   1.244   4.205   2.589  0.4304 -1.5843  0.5980
 2573SOL     OW19351   2.759   4.219   2.090  0.1185 -0.1494 -0.1109
 2573SOL    HW119352   2.808   4.174   2.021  0.4476  0.1880 -0.0955
 2573SOL    HW219353   2.717   4.294   2.049 -0.5288 -0.3524  0.1747
 2574SOL     OW19354   1.861   3.517   9.126 -0.4269  0.0718 -0.2499
 2574SOL    HW119355   1.876   3.539   9.218 -0.5145 -1.3546  0.1060
 2574SOL    HW219356   1.772   3.550   9.113 -1.7978 -3.5681 -0.3046
 2575SOL     OW19357   0.235   4.016   3.537 -0.4105  0.0335  0.5536
 2575SOL    HW119358   0.213   4.104   3.508 -0.4002  0.3991  1.7007
 2575SOL    HW219359   0.260   3.984   3.450  1.6102  0.0883  1.1057
 2576SOL     OW19360   1.695   2.558   2.379 -0.4751 -0.4650  0.1722
 2576SOL    HW119361   1.741   2.523   2.456 -0.6779  1.5319  1.1937
 2576SOL    HW219362   1.623   2.496   2.365 -1.0053  0.1027  0.3691
 2577SOL     OW19363   3.032   1.280   6.149  0.1326 -0.0557  0.1784
 2577SOL    HW119364   3.094   1.227   6.099 -1.1792  0.0007 -1.4682
 2577SOL    HW219365   2.951   1.233   6.129  1.2136 -1.1787 -1.5957
 2578SOL     OW19366   3.417   1.606   7.923 -0.0509  0.0129 -0.1950
 2578SOL    HW119367   3.349   1.644   7.978 -1.5474 -2.7033 -0.2182
 2578SOL    HW219368   3.488   1.616   7.987  0.3154 -2.4178 -0.2299
 2579SOL     OW19369   2.957   3.060   8.641 -0.0978 -0.3156 -0.5828
 2579SOL    HW119370   3.045   3.090   8.618  0.8773 -1.9565  1.0373
 2579SOL    HW219371   2.932   3.014   8.561 -0.8538  2.0030 -1.6700
 2580SOL     OW19372   3.532   0.530   8.450  0.0899  0.1233  0.4449
 2580SOL    HW119373   3.470   0.571   8.390  1.3846 -0.4054 -1.2630
 2580SOL    HW219374   3.611   0.583   8.443 -0.5090  0.9898  0.2497
 2581SOL     OW19375   3.280   0.740   7.689  0.7586  0.1804  0.2549
 2581SOL    HW119376   3.334   0.661   7.699 -3.2605 -2.6953 -0.9972
 2581SOL    HW219377   3.314   0.800   7.756 -1.8067  0.2043  1.5417
 2582SOL     OW19378   0.936   3.734  17.575 -0.8349 -0.0153  0.1559
 2582SOL    HW119379   0.915   3.641  17.564  2.0738 -0.7266  0.6135
 2582SOL    HW219380   0.851   3.779  17.581 -0.7015 -0.1327  2.6295
 2583SOL     OW19381   3.084   3.743   4.360  0.2216  0.1429 -0.1745
 2583SOL    HW119382   3.055   3.827   4.395 -1.0323  0.0846 -1.0582
 2583SOL    HW219383   3.042   3.732   4.274  0.9559  0.7777 -0.6156
 2584SOL     OW19384   2.481   1.571   4.336  0.1575 -0.3752 -0.1173
 2584SOL    HW119385   2.503   1.628   4.263  0.3431  0.4654  0.5997
 2584SOL    HW219386   2.547   1.584   4.404 -0.7266  0.5387  0.5689
 2585SOL     OW19387   0.158   0.709  15.034  0.3581  0.7271 -0.4162
 2585SOL    HW119388   0.064   0.729  15.027  0.4361  1.2938  0.1450
 2585SOL    HW219389   0.193   0.771  14.970 -1.2616  0.5069 -1.5275
 2586SOL     OW19390   3.409   3.518   8.274  0.1978  0.0425  0.4192
 2586SOL    HW119391   3.477   3.546   8.335  0.7015 -0.6911  0.1936
 2586SOL    HW219392   3.360   3.600   8.261  0.8424  0.1984 -1.0977
 2587SOL     OW19393   1.509   4.632   6.681 -0.2259  0.1940 -0.1843
 2587SOL    HW119394   1.478   4.547   6.651  0.7886  0.2800 -1.4685
 2587SOL    HW219395   1.444   4.680   6.630  1.1658  0.5387 -1.6201
 2588SOL     OW19396   2.745   1.741   1.618 -0.5362  0.4040 -0.7270
 2588SOL    HW119397   2.661   1.777   1.588  1.3085  3.1215 -2.5361
 2588SOL    HW219398   2.775   1.805   1.683  0.7754 -0.4095 -0.5394
 2589SOL     OW19399   3.249   2.063   8.028 -0.3906  0.3610  0.1468
 2589SOL    HW119400   3.312   2.122   8.070  1.8227 -2.1202  0.3642
 2589SOL    HW219401   3.223   2.010   8.103 -2.1224  0.2037 -0.5805
 2590SOL     OW19402   2.552   4.079   4.544 -0.0341  0.2348 -0.0022
 2590SOL    HW119403   2.464   4.102   4.514 -1.6086 -2.4782  2.5294
 2590SOL    HW219404   2.596   4.164   4.549 -0.7548  0.7074 -1.9172
 2591SOL     OW19405   0.195   1.697   2.886 -0.1065 -0.6238 -0.0746
 2591SOL    HW119406   0.225   1.777   2.843 -0.4408  0.8174  2.3994
 2591SOL    HW219407   0.281   1.656   2.898  0.5046  1.6251  3.2832
 2592SOL     OW19408   3.067   2.469   0.635 -0.8176 -0.0278  0.1114
 2592SOL    HW119409   3.064   2.548   0.688 -1.9681  1.1915 -1.7851
 2592SOL    HW219410   3.106   2.501   0.553  0.9059  1.6374  1.5747
 2593SOL     OW19411   3.337   4.450   7.219 -0.1617  0.2288 -0.5550
 2593SOL    HW119412   3.367   4.365   7.251  3.1103  2.3238  1.8858
 2593SOL    HW219413   3.250   4.459   7.258 -0.6767  1.8622 -2.0613
 2594SOL     OW19414   1.051   2.475   9.045  0.5107 -0.5035  0.0069
 2594SOL    HW119415   1.107   2.542   9.084 -0.3892  0.2930 -0.0734
 2594SOL    HW219416   1.011   2.519   8.970 -0.4761 -2.1248 -0.4236
 2595SOL     OW19417   2.616   2.447  17.503  0.3080 -0.0654  0.1862
 2595SOL    HW119418   2.605   2.465  17.597  0.2594  1.4069 -0.1046
 2595SOL    HW219419   2.666   2.365  17.498  0.1259 -0.1119 -0.8625
 2596SOL     OW19420   0.388   3.672   8.228 -0.1465  0.4724  0.2573
 2596SOL    HW119421   0.335   3.740   8.187  1.8646  2.2530  0.6443
 2596SOL    HW219422   0.444   3.735   8.273 -0.3466  1.6150 -1.0808
 2597SOL     OW19423   2.433   3.817   8.128  0.4329 -0.8998 -0.3883
 2597SOL    HW119424   2.493   3.875   8.081 -0.5896  0.9454  0.5729
 2597SOL    HW219425   2.460   3.819   8.220 -1.3794 -0.2885  0.1367
 2598SOL     OW19426   1.127   0.375   5.267  0.6398 -0.5214  0.1009
 2598SOL    HW119427   1.038   0.355   5.242  0.2009  2.4741 -0.7999
 2598SOL    HW219428   1.148   0.457   5.221  2.6551 -0.6876  0.6907
 2599SOL     OW19429   2.290   3.485  14.009 -0.4240 -0.1260 -0.0837
 2599SOL    HW119430   2.250   3.563  14.048  0.1180  0.6860 -1.1399
 2599SOL    HW219431   2.370   3.493  14.061 -0.1027 -0.8237 -0.4683
 2600SOL     OW19432   1.994   0.661   7.199 -0.3510  0.1140 -0.0266
 2600SOL    HW119433   2.023   0.570   7.202  1.7536  0.8195  1.7273
 2600SOL    HW219434   1.947   0.668   7.282 -1.1258 -0.3482 -0.4294
 2601SOL     OW19435   4.252   1.414   1.554  0.2025 -1.1025 -0.4339
 2601SOL    HW119436   4.331   1.413   1.501  1.9185 -0.6515  2.1028
 2601SOL    HW219437   4.194   1.479   1.513  1.8417  1.6306  1.5773
 2602SOL     OW19438   0.884   1.912   3.384 -0.4625 -0.4882 -0.3139
 2602SOL    HW119439   0.867   1.833   3.435  2.0979 -1.6894 -1.2948
 2602SOL    HW219440   0.947   1.878   3.320  0.2941  1.6163 -0.6883
 2603SOL     OW19441   1.284   4.711   8.133  0.1548 -0.7082 -0.0474
 2603SOL    HW119442   1.254   4.654   8.204  0.3664  0.5012  1.0145
 2603SOL    HW219443   1.379   4.711   8.142  0.2396  3.2948 -0.6281
 2604SOL     OW19444   3.378   0.362   7.274  0.4507  0.6294 -0.2614
 2604SOL    HW119445   3.436   0.438   7.276  0.3942  0.7177 -1.9671
 2604SOL    HW219446   3.444   0.293   7.276  0.0706  0.2850  0.2981
 2605SOL     OW19447   0.063   3.657  12.745  0.4834 -0.2428  0.1504
 2605SOL    HW119448   4.714   3.700  12.743  0.3608 -0.4118  2.0434
 2605SOL    HW219449   0.089   3.662  12.837 -0.9824  0.8267  0.5084
 2606SOL     OW19450   4.445   4.185  10.953  0.2329 -0.1906 -0.1913
 2606SOL    HW119451   4.525   4.183  11.006  1.0955 -0.2166 -1.4861
 2606SOL    HW219452   4.375   4.213  11.011  1.3164 -1.2742  1.6192
 2607SOL     OW19453   0.400   4.481   4.185  0.5778 -0.2145 -0.1612
 2607SOL    HW119454   0.389   4.387   4.191  1.0325 -0.2219  0.6745
 2607SOL    HW219455   0.440   4.504   4.269  1.5636  1.9409 -1.1911
 2608SOL     OW19456   2.602   0.674   0.244  0.2481 -0.2480  0.0558
 2608SOL    HW119457   2.520   0.625   0.242 -0.3287  0.7924 -1.3808
 2608SOL    HW219458   2.663   0.604   0.268  0.3325  0.1741  1.0778
 2609SOL     OW19459   1.347   3.069  14.721 -0.0836 -0.8548  0.3860
 2609SOL    HW119460   1.358   2.981  14.756  0.0168 -1.1072 -0.2757
 2609SOL    HW219461   1.438   3.096  14.726  0.6636 -3.4985  1.1739
 2610SOL     OW19462   0.319   0.074   7.072  0.2463  0.2646 -0.0298
 2610SOL    HW119463   0.321   0.157   7.024  0.3294  1.0247  1.2878
 2610SOL    HW219464   0.333   0.005   7.008  0.1106 -2.4553  2.8704
 2611SOL     OW19465   2.183   3.276   4.988  1.0420 -0.0669  0.4403
 2611SOL    HW119466   2.261   3.301   4.939  0.8014  0.2329  0.2067
 2611SOL    HW219467   2.208   3.302   5.077  3.1485 -1.8805  0.3626
 2612SOL     OW19468   2.987   2.673   7.417  0.3291 -0.5981  0.1058
 2612SOL    HW119469   3.042   2.612   7.466  0.8950  0.6309  0.9972
 2612SOL    HW219470   3.000   2.639   7.328  0.0192  1.5598 -0.7767
 2613SOL     OW19471   3.105   3.630   2.071 -0.0805  0.0474  0.0193
 2613SOL    HW119472   3.029   3.618   2.127 -0.6306  4.3989  0.2750
 2613SOL    HW219473   3.066   3.668   1.992 -0.1686 -0.4076 -0.1564
 2614SOL     OW19474   0.300   0.754   7.506 -0.6876 -0.3142 -0.1372
 2614SOL    HW119475   0.363   0.720   7.442 -2.2862 -1.2768 -1.1923
 2614SOL    HW219476   0.331   0.845   7.512  1.7457 -1.0015 -2.0464
 2615SOL     OW19477   3.479   1.914  15.032 -0.2992  0.0231  0.1834
 2615SOL    HW119478   3.496   1.863  15.111 -1.9282  0.8147  1.0641
 2615SOL    HW219479   3.478   1.994  15.083 -0.4444  0.6247 -0.7619
 2616SOL     OW19480   1.306   0.386   7.844  0.4177  0.2632  0.2244
 2616SOL    HW119481   1.287   0.476   7.817  1.0730  0.8119  1.5643
 2616SOL    HW219482   1.253   0.341   7.778 -0.6938  0.0782  1.2347
 2617SOL     OW19483   2.573   0.142   6.005  0.2325 -0.2184 -0.0862
 2617SOL    HW119484   2.643   0.202   5.978 -1.4297  0.7560 -2.2700
 2617SOL    HW219485   2.503   0.207   5.994  1.2888  1.0714  0.8412
 2618SOL     OW19486   1.405   4.154   4.272  0.4760 -0.4924 -0.1302
 2618SOL    HW119487   1.317   4.189   4.259  0.4353 -0.5694 -0.0624
 2618SOL    HW219488   1.384   4.061   4.278 -0.1901 -0.3662 -0.5435
 2619SOL     OW19489   3.583   0.142   7.252  0.1309 -0.1186  0.4964
 2619SOL    HW119490   3.653   0.153   7.318  0.8516 -1.8953  0.0274
 2619SOL    HW219491   3.561   0.050   7.266  2.2795 -0.6257  0.6278
 2620SOL     OW19492   4.179   0.203   1.686  0.5455 -0.2721 -0.0435
 2620SOL    HW119493   4.136   0.261   1.624 -1.7636 -0.7360  1.1348
 2620SOL    HW219494   4.168   0.118   1.642  1.8619  0.3632 -1.5690
 2621SOL     OW19495   0.268   0.889   5.936 -0.6025  0.5781  0.4989
 2621SOL    HW119496   0.364   0.896   5.931 -0.4770 -0.8388  0.9910
 2621SOL    HW219497   0.243   0.980   5.954 -3.0560 -0.0474  0.2014
 2622SOL     OW19498   0.195   1.186   5.895 -0.3289 -0.3569 -0.2641
 2622SOL    HW119499   0.177   1.272   5.934 -1.3182 -0.2105 -1.0298
 2622SOL    HW219500   0.290   1.179   5.904 -0.2435 -0.7260 -1.5345
 2623SOL     OW19501   1.407   2.533  15.472 -0.5052 -0.0656  0.4454
 2623SOL    HW119502   1.486   2.576  15.440  1.6183 -2.0203  3.0413
 2623SOL    HW219503   1.433   2.441  15.460  0.3283  0.3493 -0.9985
 2624SOL     OW19504   4.676   3.884   5.291 -0.0844  0.0562  0.0774
 2624SOL    HW119505   4.595   3.880   5.341 -1.3895  1.9767 -1.8578
 2624SOL    HW219506   0.003   3.898   5.361  0.2492  2.7110 -0.7387
 2625SOL     OW19507   4.159   2.624  13.800  0.3944  0.1998  0.0219
 2625SOL    HW119508   4.103   2.611  13.877 -0.0644  3.0118  0.1371
 2625SOL    HW219509   4.140   2.558  13.733 -1.3714 -0.2415  0.9433
 2626SOL     OW19510   0.689   1.764   4.020  0.1855  0.4868  0.7703
 2626SOL    HW119511   0.600   1.730   4.018  0.5813 -0.5298  0.4334
 2626SOL    HW219512   0.698   1.776   3.925  0.4349  0.8695  0.8373
 2627SOL     OW19513   4.441   2.154   4.081 -0.2242  0.8720  0.4691
 2627SOL    HW119514   4.461   2.240   4.117  0.0184 -0.5060  3.6185
 2627SOL    HW219515   4.395   2.181   4.002 -2.6273  3.2895  2.7206
 2628SOL     OW19516   2.853   3.783  13.062  0.2989 -0.4032  0.4256
 2628SOL    HW119517   2.912   3.780  12.987  0.9485  1.4346  0.8563
 2628SOL    HW219518   2.867   3.875  13.086  2.6861 -0.1138 -2.1164
 2629SOL     OW19519   1.507   2.940   3.413  0.2079 -0.0827 -0.0035
 2629SOL    HW119520   1.584   2.885   3.428  1.7787  2.3149  0.6611
 2629SOL    HW219521   1.531   2.995   3.338  0.6247 -1.0808 -0.6091
 2630SOL     OW19522   1.219   2.326   2.196 -0.3892 -0.3060  0.2222
 2630SOL    HW119523   1.257   2.404   2.238  0.0499  0.3163 -1.3285
 2630SOL    HW219524   1.236   2.348   2.104 -1.2713 -1.7546 -0.2837
 2631SOL     OW19525   3.969   4.528  14.904 -0.2183 -0.4345  0.4772
 2631SOL    HW119526   3.980   4.436  14.882  0.6803 -0.2818  0.2863
 2631SOL    HW219527   3.961   4.565  14.815 -2.0165 -1.6705  0.1376
 2632SOL     OW19528   0.315   0.263  17.735  0.2911  0.0226 -0.2633
 2632SOL    HW119529   0.290   0.207   0.063  0.0902  2.6055  1.6283
 2632SOL    HW219530   0.251   0.334  17.741  1.2664  0.6941  2.0037
 2633SOL     OW19531   2.319   1.641   9.008  0.4875  0.4140  0.6599
 2633SOL    HW119532   2.318   1.555   9.051  0.2410 -0.1325 -0.4545
 2633SOL    HW219533   2.258   1.690   9.063  0.9197  0.7134  0.8678
 2634SOL     OW19534   3.588   3.479   6.898  0.2772 -0.2475  0.0593
 2634SOL    HW119535   3.496   3.488   6.876  0.5603  0.0005 -0.9925
 2634SOL    HW219536   3.635   3.522   6.826  1.1524 -2.2600 -0.5842
 2635SOL     OW19537   4.155   2.539   6.841  0.7187 -0.4623 -0.3632
 2635SOL    HW119538   4.167   2.601   6.769  1.5728  0.9010  0.9492
 2635SOL    HW219539   4.131   2.593   6.916  0.4581 -0.1341 -0.6797
 2636SOL     OW19540   2.376   1.773   6.554  0.0496 -0.4239 -0.0677
 2636SOL    HW119541   2.470   1.761   6.538 -0.1194 -2.9630  0.7979
 2636SOL    HW219542   2.377   1.759   6.648 -1.9848 -1.8670 -0.2649
 2637SOL     OW19543   2.542   4.468   8.419  0.0302 -0.1361  0.3665
 2637SOL    HW119544   2.552   4.375   8.443  2.2140  0.6610  2.5635
 2637SOL    HW219545   2.456   4.464   8.379  0.8451  1.2081 -1.5002
 2638SOL     OW19546   2.321   4.568  14.184  0.0434 -0.0022 -0.4520
 2638SOL    HW119547   2.331   4.650  14.232 -0.4245  0.0707 -0.4728
 2638SOL    HW219548   2.235   4.536  14.213 -0.1148  0.3630 -0.5242
 2639SOL     OW19549   0.728   0.563   3.991  0.6027  0.2119  0.4382
 2639SOL    HW119550   0.662   0.557   4.059  0.0162 -2.5908 -0.3861
 2639SOL    HW219551   0.693   0.507   3.922  2.7257 -2.1196  1.2661
 2640SOL     OW19552   1.646   3.769   8.798 -0.2295  0.6482 -0.0459
 2640SOL    HW119553   1.654   3.758   8.703 -3.6341 -1.1120 -0.1070
 2640SOL    HW219554   1.709   3.838   8.820 -0.8221  0.6232  1.7371
 2641SOL     OW19555   2.483   4.386  15.428 -0.2322 -0.4116  0.0655
 2641SOL    HW119556   2.393   4.353  15.417 -0.7687  1.2153 -0.3802
 2641SOL    HW219557   2.474   4.455  15.362 -1.5751  0.0681  0.7318
 2642SOL     OW19558   2.532   1.023  10.074  0.2391 -0.5506 -0.6179
 2642SOL    HW119559   2.611   1.068  10.103 -0.3442 -0.8578  1.4663
 2642SOL    HW219560   2.482   1.104  10.065  3.0553  1.4898  2.2841
 2643SOL     OW19561   1.043   0.735   6.937  0.4229  0.5488 -0.0413
 2643SOL    HW119562   1.047   0.728   7.033  2.5741 -2.1471 -0.3352
 2643SOL    HW219563   1.105   0.806   6.924 -0.6866  1.5836  0.2721
 2644SOL     OW19564   0.802   2.320   4.293 -0.2175  0.5179  0.9969
 2644SOL    HW119565   0.813   2.407   4.332 -1.4172  0.9254  0.4343
 2644SOL    HW219566   0.765   2.347   4.208 -0.1777 -1.8252  0.2325
 2645SOL     OW19567   3.365   4.046   8.446  0.3018 -0.4260  0.3739
 2645SOL    HW119568   3.458   4.070   8.446  0.5963 -1.5847  0.1583
 2645SOL    HW219569   3.337   4.060   8.537 -0.3242  0.5111  0.0342
 2646SOL     OW19570   1.066   0.242   2.488 -1.2939  0.2680  0.4034
 2646SOL    HW119571   1.103   0.328   2.468  0.3443 -0.6145 -0.3432
 2646SOL    HW219572   1.083   0.192   2.408  0.0367  0.2316  0.7153
 2647SOL     OW19573   1.503   0.902   1.850  0.3325  0.1699  0.1098
 2647SOL    HW119574   1.456   0.864   1.776 -0.0834  1.0200 -0.0626
 2647SOL    HW219575   1.593   0.870   1.838  0.6255  2.1931 -3.1432
 2648SOL     OW19576   1.615   2.647   7.898  0.1961  0.1140 -0.0718
 2648SOL    HW119577   1.574   2.712   7.840  0.6506 -1.2298 -1.9022
 2648SOL    HW219578   1.542   2.629   7.958 -0.1200 -0.4639 -0.6196
 2649SOL     OW19579   3.136   3.202   1.477 -0.0621 -0.0119 -0.0925
 2649SOL    HW119580   3.112   3.287   1.439  1.7047 -0.2022 -1.6299
 2649SOL    HW219581   3.188   3.231   1.552  0.2239 -1.5684  0.2965
 2650SOL     OW19582   2.615   1.359   4.878 -0.3318  0.2484  0.0989
 2650SOL    HW119583   2.709   1.375   4.868 -0.4940  1.8890  1.2592
 2650SOL    HW219584   2.583   1.393   4.795 -2.1316  1.4429  1.2884
 2651SOL     OW19585   2.084   3.494  11.158 -0.2284 -0.2096 -0.5122
 2651SOL    HW119586   2.031   3.418  11.182 -0.9259  1.2136  2.4122
 2651SOL    HW219587   2.163   3.488  11.212 -1.0267 -0.7753  0.5817
 2652SOL     OW19588   3.519   4.072   5.359  0.0580  0.1718 -0.8983
 2652SOL    HW119589   3.569   4.038   5.433 -1.2089 -1.9966 -1.0180
 2652SOL    HW219590   3.596   4.110   5.316 -0.1212  1.3073 -0.1946
 2653SOL     OW19591   3.348   4.329   9.145 -0.1608 -1.0356  0.3233
 2653SOL    HW119592   3.329   4.413   9.187  3.2338 -1.1631  2.1335
 2653SOL    HW219593   3.443   4.318   9.138 -0.2303 -1.6442  0.2923
 2654SOL     OW19594   1.422   3.563  17.458 -0.5290  0.4331 -0.5806
 2654SOL    HW119595   1.498   3.609  17.421 -1.1174  1.0192 -1.0587
 2654SOL    HW219596   1.362   3.638  17.455 -0.2559  0.5726 -2.3007
 2655SOL     OW19597   1.550   1.712   7.937  0.5772  0.2674  0.5169
 2655SOL    HW119598   1.596   1.725   7.854 -1.9659  1.0249 -0.7640
 2655SOL    HW219599   1.623   1.719   8.000  1.3535  0.2001 -0.3761
 2656SOL     OW19600   2.600   4.163   8.678 -0.7596 -0.4835 -0.6250
 2656SOL    HW119601   2.546   4.107   8.733 -0.7661 -0.1662 -0.3099
 2656SOL    HW219602   2.673   4.108   8.647 -0.4596 -0.1293 -0.5497
 2657SOL     OW19603   0.957   1.673   9.851 -0.1849  0.6627 -0.4192
 2657SOL    HW119604   0.944   1.644   9.942  1.0194 -0.5008 -0.6197
 2657SOL    HW219605   0.875   1.721   9.840  0.2923  1.6494  0.3773
 2658SOL     OW19606   4.344   4.601   4.162  0.7365  0.1289  0.0055
 2658SOL    HW119607   4.384   4.522   4.197 -0.7121 -0.4948  0.2305
 2658SOL    HW219608   4.329   4.579   4.070 -0.2039 -1.3105  0.5014
 2659SOL     OW19609   0.830   3.977   3.263 -0.1413  0.4343  0.3891
 2659SOL    HW119610   0.905   3.956   3.319 -0.2970  1.7570  1.0818
 2659SOL    HW219611   0.760   3.967   3.328  0.0859 -0.4771  0.4983
 2660SOL     OW19612   3.377   4.613  11.328  0.3742  0.3306 -0.0391
 2660SOL    HW119613   3.294   4.639  11.290 -0.0518 -1.5419 -0.3666
 2660SOL    HW219614   3.380   4.662  11.411  3.2145  0.1079  0.0016
 2661SOL     OW19615   4.705   2.932   3.384  0.1386 -0.0646 -0.4969
 2661SOL    HW119616   4.705   2.977   3.300  1.1728 -1.3182 -1.1619
 2661SOL    HW219617   4.732   2.846   3.350 -2.6664 -1.2162  0.1768
 2662SOL     OW19618   0.020   2.894   7.604  0.0055 -0.2386 -0.5138
 2662SOL    HW119619   0.012   2.971   7.549 -0.0229 -0.6891 -1.1384
 2662SOL    HW219620   0.009   2.823   7.541 -0.8968  0.7504 -1.4640
 2663SOL     OW19621   0.086   3.637  10.363  0.9952 -0.2132  0.4720
 2663SOL    HW119622   0.129   3.615  10.445  1.8079  0.1449  0.1422
 2663SOL    HW219623   0.105   3.565  10.304 -0.5453 -0.5345  0.3603
 2664SOL     OW19624   1.932   4.539   7.736  0.0557  0.4476 -0.4428
 2664SOL    HW119625   1.960   4.500   7.819 -1.6446  0.6206  0.2075
 2664SOL    HW219626   1.886   4.474   7.683 -0.3721  1.3358 -1.1469
 2665SOL     OW19627   1.543   1.639   1.236 -0.2873  0.3490 -0.1518
 2665SOL    HW119628   1.551   1.546   1.216  0.2530  0.3660 -0.0176
 2665SOL    HW219629   1.487   1.633   1.313 -0.2138 -0.8048 -0.1938
 2666SOL     OW19630   1.625   3.146   0.768  0.4049 -0.2909  0.1262
 2666SOL    HW119631   1.668   3.152   0.854 -0.2368 -2.2213  0.5653
 2666SOL    HW219632   1.655   3.056   0.760 -2.1788 -1.1670  0.1853
 2667SOL     OW19633   4.618   0.913   9.852 -0.0058  0.0639 -0.6252
 2667SOL    HW119634   4.689   0.849   9.858  0.5097  0.3537 -3.4981
 2667SOL    HW219635   4.601   0.921   9.946 -1.3563 -0.3274 -0.8289
 2668SOL     OW19636   3.741   1.343  10.759  0.0393  0.1236 -0.0190
 2668SOL    HW119637   3.751   1.437  10.776 -5.6672  0.5587  0.8154
 2668SOL    HW219638   3.826   1.314  10.726  0.9229  2.6996 -0.0434
 2669SOL     OW19639   0.438   2.282   6.716 -0.1475 -0.2222 -0.4069
 2669SOL    HW119640   0.445   2.189   6.739 -2.6716 -0.6338 -1.3139
 2669SOL    HW219641   0.479   2.286   6.630 -1.0329 -1.3533 -0.8901
 2670SOL     OW19642   2.314   3.618  12.772 -0.0862  0.0949 -0.1371
 2670SOL    HW119643   2.395   3.667  12.771 -0.3072  0.5039  1.5843
 2670SOL    HW219644   2.349   3.546  12.824 -0.9031 -0.8002 -0.8121
 2671SOL     OW19645   3.872   0.358   8.913  0.3095  0.5880 -0.4266
 2671SOL    HW119646   3.926   0.319   8.843 -0.9836 -0.6851 -0.7199
 2671SOL    HW219647   3.796   0.385   8.862 -1.3058 -0.4172  1.4929
 2672SOL     OW19648   1.061   3.737   2.439 -0.5687 -0.4556 -0.0824
 2672SOL    HW119649   0.967   3.734   2.417 -1.2282 -0.7854  2.8000
 2672SOL    HW219650   1.058   3.730   2.534  0.1329 -0.1337 -0.0396
 2673SOL     OW19651   1.068   4.362   3.026  0.4607  0.7304 -0.0336
 2673SOL    HW119652   1.057   4.268   3.044 -0.3781  0.8081 -0.1857
 2673SOL    HW219653   1.020   4.369   2.944  1.5155 -0.2169 -0.7356
 2674SOL     OW19654   2.394   1.318   1.570 -0.0565  0.3224  0.5547
 2674SOL    HW119655   2.444   1.236   1.575  0.6935  0.6945 -0.5752
 2674SOL    HW219656   2.463   1.380   1.593 -0.5086  1.6301 -1.6091
 2675SOL     OW19657   2.940   4.206  11.497 -0.5966  0.3863  0.0731
 2675SOL    HW119658   2.892   4.154  11.561 -1.1068  0.9984  0.1860
 2675SOL    HW219659   2.919   4.153  11.420  0.5904 -1.3630  0.9670
 2676SOL     OW19660   4.233   2.044   6.206  0.0847 -0.3133  0.0240
 2676SOL    HW119661   4.258   1.953   6.198  0.1304 -0.2395 -0.6743
 2676SOL    HW219662   4.235   2.080   6.117 -3.0858 -0.2532 -0.0380
 2677SOL     OW19663   0.846   1.316   2.975 -0.3518 -0.0116 -0.2358
 2677SOL    HW119664   0.886   1.236   3.008  0.3956  0.4250 -0.0727
 2677SOL    HW219665   0.926   1.343   2.929  0.7380 -1.9235  0.5250
 2678SOL     OW19666   3.595   2.618   5.181  0.1514  1.3030 -0.1403
 2678SOL    HW119667   3.641   2.665   5.250  0.0451 -0.4744  1.1153
 2678SOL    HW219668   3.529   2.570   5.230  2.1026  0.1774  1.3677
 2679SOL     OW19669   1.173   0.521  10.322  0.1548  0.5885  0.4139
 2679SOL    HW119670   1.115   0.572  10.265  1.2858  0.7080 -0.6258
 2679SOL    HW219671   1.117   0.446  10.342 -1.9570  1.4364 -2.2537
 2680SOL     OW19672   4.333   1.851   5.079  0.0154 -0.2481  0.2858
 2680SOL    HW119673   4.334   1.935   5.124  0.9251  0.2838 -0.7318
 2680SOL    HW219674   4.372   1.794   5.145 -0.5642  0.3087  1.1093
 2681SOL     OW19675   0.699   3.248   7.984  0.1376  0.5453 -0.3721
 2681SOL    HW119676   0.659   3.304   7.917 -1.0030 -1.3318 -1.2462
 2681SOL    HW219677   0.675   3.290   8.067  1.6606 -0.0257  0.3627
 2682SOL     OW19678   2.789   1.753   8.212  0.3615  0.1087  0.3056
 2682SOL    HW119679   2.813   1.693   8.283 -0.7752 -3.3101 -2.2038
 2682SOL    HW219680   2.776   1.841   8.247 -2.6519 -1.2084  2.5031
 2683SOL     OW19681   0.223   2.911   1.080 -0.3796 -0.0856  0.0550
 2683SOL    HW119682   0.159   2.841   1.092  1.2646 -1.3231  1.7879
 2683SOL    HW219683   0.171   2.991   1.075  1.0845  0.7899 -1.0691
 2684SOL     OW19684   2.931   0.686  16.842  0.1000 -0.1839 -0.4004
 2684SOL    HW119685   2.904   0.704  16.752 -1.8171  0.4633  0.2998
 2684SOL    HW219686   2.960   0.773  16.870  0.5345 -0.4393 -0.0504
 2685SOL     OW19687   1.018   2.200   7.082 -0.3784 -0.4198 -0.1141
 2685SOL    HW119688   1.055   2.172   6.998 -1.4926 -2.4220  0.0657
 2685SOL    HW219689   0.962   2.274   7.063  0.3121  0.1523  0.0933
 2686SOL     OW19690   0.842   0.279  12.244 -0.3810  0.5154  0.4830
 2686SOL    HW119691   0.906   0.337  12.285  1.6586 -0.6951 -0.9890
 2686SOL    HW219692   0.895   0.251  12.169  0.9865  0.5679  1.4200
 2687SOL     OW19693   1.348   0.502   0.538 -0.0188  0.0944  0.3345
 2687SOL    HW119694   1.317   0.533   0.454 -1.0223  1.4684  1.2077
 2687SOL    HW219695   1.272   0.527   0.591  0.3709  0.7857  0.5733
 2688SOL     OW19696   2.089   0.361   1.831  0.0263  0.0882  0.2501
 2688SOL    HW119697   2.028   0.362   1.904  1.7850 -2.8592  1.7720
 2688SOL    HW219698   2.113   0.269   1.841  1.5394  0.3895 -0.6096
 2689SOL     OW19699   3.277   1.733   7.003 -0.3881 -0.2493 -0.5692
 2689SOL    HW119700   3.213   1.739   7.074  1.3562 -1.5117  1.1129
 2689SOL    HW219701   3.212   1.738   6.933 -0.1974  0.5324 -0.6889
 2690SOL     OW19702   0.861   0.142   6.408  0.0743 -0.3640  0.5570
 2690SOL    HW119703   0.861   0.161   6.501 -0.5682 -1.3968  0.7594
 2690SOL    HW219704   0.782   0.089   6.400  1.0652 -1.8100  0.3040
 2691SOL     OW19705   2.377   1.741  11.914 -0.3028  0.0648  0.0024
 2691SOL    HW119706   2.412   1.810  11.858  0.7878 -0.0986  0.4878
 2691SOL    HW219707   2.288   1.772  11.931 -0.3405  0.2301 -0.4913
 2692SOL     OW19708   2.597   1.214  13.370 -0.6788 -0.2704 -0.0857
 2692SOL    HW119709   2.664   1.245  13.309  0.9873 -0.8025  1.4779
 2692SOL    HW219710   2.515   1.212  13.320 -0.2354 -0.9932 -0.7839
 2693SOL     OW19711   1.491   2.014  12.649 -0.1139 -0.2267  0.0410
 2693SOL    HW119712   1.436   1.980  12.720  0.4643 -1.4730 -0.1221
 2693SOL    HW219713   1.563   1.952  12.644  0.7717  0.7976  0.0741
 2694SOL     OW19714   1.434   2.601   6.688 -0.6260  0.1816 -0.3345
 2694SOL    HW119715   1.356   2.655   6.701 -1.2216 -1.5738  3.3499
 2694SOL    HW219716   1.492   2.635   6.756 -1.7501 -1.4249  1.4341
 2695SOL     OW19717   2.503   1.238   1.029 -0.3101 -0.0939  0.1969
 2695SOL    HW119718   2.466   1.311   1.079 -0.5885  0.3294 -0.6291
 2695SOL    HW219719   2.430   1.178   1.010  0.2967 -0.8882  0.3869
 2696SOL     OW19720   2.468   2.973   3.229 -0.0267 -0.0820  0.2861
 2696SOL    HW119721   2.523   3.031   3.282 -1.6085  1.0723  0.6752
 2696SOL    HW219722   2.460   3.029   3.152  1.3411  0.6890  0.7068
 2697SOL     OW19723   1.473   3.703   3.482 -0.3849  0.5123 -0.2813
 2697SOL    HW119724   1.426   3.664   3.408  1.0769 -0.1262 -0.8694
 2697SOL    HW219725   1.518   3.771   3.431  2.6946 -0.0437  1.6957
 2698SOL     OW19726   2.669   2.748   4.354  0.0905  0.2483 -0.4925
 2698SOL    HW119727   2.608   2.699   4.409  1.0212  0.1369  0.4327
 2698SOL    HW219728   2.744   2.744   4.413 -1.4102 -0.9632  1.3273
 2699SOL     OW19729   0.525   3.176   2.643 -0.1515  0.5616 -0.5540
 2699SOL    HW119730   0.540   3.256   2.693 -1.5774  0.9985 -0.8433
 2699SOL    HW219731   0.584   3.190   2.569 -1.4046  0.5251 -1.5543
 2700SOL     OW19732   2.276   3.771   3.541  0.3315 -0.0931  0.0092
 2700SOL    HW119733   2.322   3.700   3.496  1.3048  0.0706  0.7675
 2700SOL    HW219734   2.285   3.755   3.634 -0.4506 -3.5974 -0.5340
 2701SOL     OW19735   2.153   4.180   2.277  0.7561  0.1110  0.2544
 2701SOL    HW119736   2.224   4.191   2.214 -0.3260  1.3298 -0.7514
 2701SOL    HW219737   2.187   4.220   2.357 -0.2414  3.0931 -0.8336
 2702SOL     OW19738   1.151   3.343  14.202  0.1140  0.0780 -0.1232
 2702SOL    HW119739   1.233   3.294  14.208  0.7470  0.9757 -1.4693
 2702SOL    HW219740   1.087   3.284  14.242 -0.3647  0.6238 -0.0961
 2703SOL     OW19741   2.261   3.498   9.047  0.4335 -0.1574 -0.1445
 2703SOL    HW119742   2.302   3.554   9.113  2.2689 -1.6520 -0.0214
 2703SOL    HW219743   2.323   3.505   8.975 -0.3460  0.7014 -0.7279
 2704SOL     OW19744   1.445   4.103   3.375  0.5119  0.2308  0.0337
 2704SOL    HW119745   1.467   4.153   3.453 -0.1747  0.4986  0.0588
 2704SOL    HW219746   1.349   4.093   3.374  0.5339  0.0216  0.1371
 2705SOL     OW19747   3.312   0.019   2.133 -0.2290  0.0319 -0.1089
 2705SOL    HW119748   3.341   4.685   2.075 -2.6619 -1.7677  0.8411
 2705SOL    HW219749   3.394   0.058   2.162 -0.8201 -0.4770  2.2718
 2706SOL     OW19750   4.437   2.202   8.549  0.7911 -0.4808 -0.0792
 2706SOL    HW119751   4.382   2.231   8.476  2.5294 -0.5400 -1.4143
 2706SOL    HW219752   4.418   2.262   8.622 -0.1392 -1.4713  0.4937
 2707SOL     OW19753   0.975   3.212   9.307 -0.1102  0.3245  0.6554
 2707SOL    HW119754   0.964   3.142   9.371  0.8786 -0.8015 -0.4290
 2707SOL    HW219755   0.898   3.233   9.253  0.9846 -2.1860 -1.8271
 2708SOL     OW19756   1.583   0.027   2.869  0.0695 -0.4479  0.1657
 2708SOL    HW119757   1.539   4.695   2.920  2.2659 -2.3173 -0.4692
 2708SOL    HW219758   1.542   0.109   2.897 -0.9059 -1.2479  1.1299
 2709SOL     OW19759   1.530   4.158   6.518  0.5518 -0.4315  0.1629
 2709SOL    HW119760   1.466   4.197   6.459  0.6005 -0.4220  0.1165
 2709SOL    HW219761   1.595   4.118   6.461  1.8063  1.2679  0.3990
 2710SOL     OW19762   0.617   2.021   8.198 -0.1890  0.1882  0.6343
 2710SOL    HW119763   0.633   2.040   8.105 -1.0315  0.8785  0.6313
 2710SOL    HW219764   0.605   2.111   8.228  2.8775  1.1008 -0.7924
 2711SOL     OW19765   1.483   0.951  16.903  0.3904  0.7964  0.0813
 2711SOL    HW119766   1.413   1.011  16.927  0.2837  0.4488  0.6359
 2711SOL    HW219767   1.499   0.901  16.983 -2.0217  1.6927  1.1145
 2712SOL     OW19768   3.675   3.328   7.289  0.2224  0.5706 -0.0584
 2712SOL    HW119769   3.609   3.350   7.355  0.2449  0.6027 -0.0463
 2712SOL    HW219770   3.751   3.355   7.340  0.9997 -1.3985 -0.1841
 2713SOL     OW19771   3.164   3.848   1.898 -0.2313  0.9326 -0.7868
 2713SOL    HW119772   3.083   3.812   1.863 -0.6400  1.1453 -0.0637
 2713SOL    HW219773   3.226   3.797   1.846 -0.0523  0.3906 -0.0529
 2714SOL     OW19774   2.561   3.440   6.055  0.1091 -0.0017 -0.1619
 2714SOL    HW119775   2.600   3.477   5.976  1.4259  0.6858  0.8133
 2714SOL    HW219776   2.640   3.408   6.099 -0.6100 -2.7156 -0.8256
 2715SOL     OW19777   0.375   4.493   5.385  0.1771  0.0313  0.3701
 2715SOL    HW119778   0.431   4.519   5.458  0.8685  3.6108 -1.4510
 2715SOL    HW219779   0.291   4.521   5.421  0.9428  2.6715  0.0729
 2716SOL     OW19780   0.362   2.418   1.857  0.7014 -0.0358 -0.0978
 2716SOL    HW119781   0.358   2.419   1.761  1.2432  2.7550 -0.1040
 2716SOL    HW219782   0.270   2.432   1.877  0.8620  2.0512 -0.7931
 2717SOL     OW19783   4.215   2.670   6.418  0.1809 -0.3722 -0.3351
 2717SOL    HW119784   4.289   2.642   6.472  1.4078  0.3937 -1.6355
 2717SOL    HW219785   4.256   2.669   6.331  0.4940  2.3230 -0.2102
 2718SOL     OW19786   2.936   0.587   1.039  0.1467  0.0575 -0.0471
 2718SOL    HW119787   3.025   0.597   1.074  0.9196 -2.6133 -1.2622
 2718SOL    HW219788   2.918   0.497   1.064  0.5824 -0.0075  0.0325
 2719SOL     OW19789   1.416   0.590   1.281  0.5503 -0.1234  0.7379
 2719SOL    HW119790   1.419   0.608   1.187 -1.2592 -0.6656  0.5655
 2719SOL    HW219791   1.501   0.610   1.320  0.1009 -0.2746  1.8172
 2720SOL     OW19792   3.321   0.079  15.154  0.1306  0.1803 -0.3706
 2720SOL    HW119793   3.293   0.129  15.231  1.1955  0.5853 -0.2454
 2720SOL    HW219794   3.235   0.046  15.128 -0.0027  0.5788 -0.4390
 2721SOL     OW19795   1.342   4.316  16.337 -0.1543  0.0587 -0.2762
 2721SOL    HW119796   1.412   4.298  16.400 -0.6945  1.2492  0.6603
 2721SOL    HW219797   1.322   4.225  16.319  0.7997 -0.3040  0.5235
 2722SOL     OW19798   2.549   3.392   4.290  0.2290 -0.1108 -0.1367
 2722SOL    HW119799   2.612   3.426   4.227  0.5245  0.7938  0.6423
 2722SOL    HW219800   2.606   3.340   4.345  1.8839 -0.9855 -2.7012
 2723SOL     OW19801   2.002   0.976   9.026  0.3078  0.2939 -0.0738
 2723SOL    HW119802   1.935   0.926   9.072 -0.4773  0.2580 -1.2407
 2723SOL    HW219803   1.999   0.929   8.942  0.6359 -0.7382  0.4960
 2724SOL     OW19804   3.743   3.244   4.394  0.2368 -0.1011 -0.2010
 2724SOL    HW119805   3.734   3.235   4.489 -0.1358 -0.8822 -0.3114
 2724SOL    HW219806   3.655   3.264   4.362 -0.2602 -1.0235  0.5681
 2725SOL     OW19807   4.701   2.572  12.751 -0.0686  0.1890  0.0253
 2725SOL    HW119808   4.620   2.539  12.792  1.1651 -1.9502  0.7612
 2725SOL    HW219809   4.721   2.641  12.814  0.4334 -0.2338  0.3229
 2726SOL     OW19810   0.484   3.194   8.353 -0.6945 -0.1871  0.1801
 2726SOL    HW119811   0.420   3.147   8.300  0.0371 -1.3077  0.2885
 2726SOL    HW219812   0.508   3.267   8.296 -0.2158 -0.5023 -0.0224
 2727SOL     OW19813   0.876   4.326  11.823 -0.1374 -0.1825  0.0904
 2727SOL    HW119814   0.826   4.355  11.900 -0.4601 -1.5592  0.4111
 2727SOL    HW219815   0.874   4.230  11.826  1.0265 -0.2472 -1.6667
 2728SOL     OW19816   2.797   0.562   4.196  0.1118 -0.1505 -0.0556
 2728SOL    HW119817   2.830   0.596   4.279  1.5967 -0.7262 -0.4128
 2728SOL    HW219818   2.819   0.471   4.217 -0.9697 -0.5703 -0.7219
 2729SOL     OW19819   3.150   2.302   3.870 -0.3678  0.6105  0.6959
 2729SOL    HW119820   3.229   2.326   3.918  0.5779 -0.9059 -0.0980
 2729SOL    HW219821   3.145   2.206   3.869 -0.1169  0.5962  0.9865
 2730SOL     OW19822   2.018   2.588   9.369 -0.2335  0.0490  0.0055
 2730SOL    HW119823   2.012   2.571   9.463  2.3144 -1.5393 -0.1411
 2730SOL    HW219824   2.089   2.653   9.367  0.3371 -0.6528 -2.0093
 2731SOL     OW19825   0.297   1.249   1.104  0.4842  0.2266 -0.3623
 2731SOL    HW119826   0.339   1.273   1.186  1.6049 -1.2017 -0.5130
 2731SOL    HW219827   0.205   1.257   1.129  0.1473 -3.0023 -0.5228
 2732SOL     OW19828   0.822   1.011   4.638  0.4775 -0.0274  0.6977
 2732SOL    HW119829   0.824   0.940   4.574  1.0508  0.9690 -0.3842
 2732SOL    HW219830   0.738   1.053   4.617  0.1592 -0.0867  1.8239
 2733SOL     OW19831   2.125   3.279  15.291  0.0663  0.0602  0.0318
 2733SOL    HW119832   2.184   3.259  15.218 -0.1544 -0.6217  0.0378
 2733SOL    HW219833   2.045   3.314  15.253 -0.7618 -0.6990  1.0759
 2734SOL     OW19834   2.862   1.901   3.017  0.0455 -0.1869 -0.9918
 2734SOL    HW119835   2.788   1.870   3.069 -0.5396  1.9963 -0.5264
 2734SOL    HW219836   2.915   1.942   3.086  0.1449  1.4310 -2.0326
 2735SOL     OW19837   2.961   4.394   5.764 -0.7115  0.8893 -0.0739
 2735SOL    HW119838   2.945   4.443   5.845 -0.7957 -0.4001  0.6798
 2735SOL    HW219839   2.893   4.438   5.713 -2.6303 -0.8543  0.9753
 2736SOL     OW19840   0.248   1.358   5.319 -0.8444  0.0319  0.1015
 2736SOL    HW119841   0.270   1.351   5.227  1.1517 -1.6370  0.6860
 2736SOL    HW219842   0.195   1.437   5.325  0.0035  0.5458  0.8010
 2737SOL     OW19843   0.314   4.294  11.325  0.1567  0.1059  1.0816
 2737SOL    HW119844   0.315   4.361  11.257 -1.0999 -0.7901  0.1688
 2737SOL    HW219845   0.340   4.218  11.274 -2.3375  0.9273 -1.4376
 2738SOL     OW19846   1.656   1.576   2.373 -0.4064  0.1501  0.2370
 2738SOL    HW119847   1.598   1.505   2.344 -0.6686  0.2641  0.4877
 2738SOL    HW219848   1.640   1.645   2.309 -2.8781 -2.8119 -2.3787
 2739SOL     OW19849   1.061   1.061  16.312 -0.8106 -0.3628 -0.6982
 2739SOL    HW119850   1.093   0.971  16.317 -0.0632 -0.0137  0.7293
 2739SOL    HW219851   0.970   1.039  16.295 -0.9342  0.3589 -0.9634
 2740SOL     OW19852   4.471   4.307   1.476  0.2279  0.3664  0.0525
 2740SOL    HW119853   4.382   4.342   1.483  0.4907  1.4113 -1.6379
 2740SOL    HW219854   4.512   4.339   1.556  1.4208 -0.5425 -0.2013
 2741SOL     OW19855   1.483   3.483   8.428  0.4843 -0.6785  0.0628
 2741SOL    HW119856   1.536   3.404   8.414  1.2189 -0.1148 -0.3450
 2741SOL    HW219857   1.428   3.437   8.492  0.5519 -1.0140 -0.1211
 2742SOL     OW19858   3.593   1.602   5.359  0.1116  0.3165 -0.4713
 2742SOL    HW119859   3.507   1.560   5.346  0.8803 -1.7132  0.9577
 2742SOL    HW219860   3.583   1.640   5.446 -0.3561  1.5864 -1.0914
 2743SOL     OW19861   4.531   1.644   2.932  0.0434  0.3208  0.0108
 2743SOL    HW119862   4.550   1.682   2.846 -1.8466  1.3088  0.0265
 2743SOL    HW219863   4.554   1.725   2.977 -1.0073 -0.6286  2.2251
 2744SOL     OW19864   2.658   2.205   2.007 -0.1879 -0.3357  0.0933
 2744SOL    HW119865   2.622   2.121   2.034 -2.8288  0.0697 -2.2069
 2744SOL    HW219866   2.675   2.235   2.096  0.3133 -2.6063  0.7590
 2745SOL     OW19867   0.482   0.444   1.387  0.0326 -0.4814 -0.1604
 2745SOL    HW119868   0.567   0.433   1.344  0.4496 -1.0702  0.8215
 2745SOL    HW219869   0.454   0.353   1.395  0.9680 -0.8995 -1.6314
 2746SOL     OW19870   0.880   2.252   3.055 -0.1036 -0.0820  0.0049
 2746SOL    HW119871   0.933   2.224   3.130 -0.6383 -4.1155 -1.1097
 2746SOL    HW219872   0.865   2.344   3.077  0.8079 -0.2182  1.1878
 2747SOL     OW19873   4.341   2.911   2.201 -0.3049 -0.3417 -0.0341
 2747SOL    HW119874   4.324   3.002   2.176 -1.6227 -0.9301 -1.2870
 2747SOL    HW219875   4.250   2.888   2.217 -0.2699  0.3432  1.1340
 2748SOL     OW19876   2.193   0.950   4.485  0.3326  0.7108  0.8203
 2748SOL    HW119877   2.220   1.026   4.433  0.0178 -0.2640 -0.7663
 2748SOL    HW219878   2.277   0.905   4.475  0.3989  0.9927  0.1140
 2749SOL     OW19879   3.480   2.118   4.917 -0.3916  0.1447 -0.2507
 2749SOL    HW119880   3.390   2.094   4.939 -0.1560 -0.4999  0.0124
 2749SOL    HW219881   3.532   2.042   4.944  0.2480  0.0486 -1.7565
 2750SOL     OW19882   4.467   0.698   3.723 -0.5235 -0.1558  0.4227
 2750SOL    HW119883   4.476   0.783   3.765 -0.6994  0.4487 -0.7548
 2750SOL    HW219884   4.407   0.665   3.790 -0.0476  1.4142  1.6184
 2751SOL     OW19885   4.400   1.095   6.520  0.1759  1.0870 -0.7187
 2751SOL    HW119886   4.451   1.163   6.476 -1.6845  1.1573 -2.7731
 2751SOL    HW219887   4.444   1.086   6.605 -1.7505 -1.4904 -0.0041
 2752SOL     OW19888   0.238   1.743  12.526  0.0452 -0.2315 -0.1995
 2752SOL    HW119889   0.179   1.762  12.598 -0.1896 -1.8046  0.0361
 2752SOL    HW219890   0.225   1.648  12.517  3.3191 -0.8394  1.3121
 2753SOL     OW19891   0.430   1.056  12.114  0.2087 -0.5174 -0.0340
 2753SOL    HW119892   0.415   1.130  12.173  0.5002 -0.5456  0.0793
 2753SOL    HW219893   0.344   1.019  12.098  0.0513  0.0800 -0.5464
 2754SOL     OW19894   2.137   2.009   5.966  0.5496  0.2916 -0.1997
 2754SOL    HW119895   2.088   1.928   5.959 -0.8235  1.1374 -0.2928
 2754SOL    HW219896   2.070   2.044   6.025  1.8286  2.8766 -0.2579
 2755SOL     OW19897   1.896   2.507   2.640  0.2534 -0.1367 -0.6124
 2755SOL    HW119898   1.936   2.514   2.727  0.2616 -3.2769 -0.3801
 2755SOL    HW219899   1.818   2.460   2.669 -0.3812  1.2080 -0.1231
 2756SOL     OW19900   2.564   1.546   1.664 -0.1661 -0.5050  0.3256
 2756SOL    HW119901   2.522   1.632   1.662  0.0589 -0.4037 -0.0640
 2756SOL    HW219902   2.655   1.570   1.651 -0.9102  2.3554  0.2572
 2757SOL     OW19903   0.512   1.863   2.122 -0.4883  0.3915 -0.5981
 2757SOL    HW119904   0.537   1.915   2.045  2.0362 -0.8776 -0.6207
 2757SOL    HW219905   0.571   1.892   2.191  1.5770  1.2959 -2.7294
 2758SOL     OW19906   4.395   2.255   9.072  0.1534  0.0382 -0.2048
 2758SOL    HW119907   4.351   2.339   9.067  0.2572  0.1072  0.0729
 2758SOL    HW219908   4.316   2.202   9.077  1.1456 -1.6786 -2.8206
 2759SOL     OW19909   1.771   0.309   4.743  0.2397 -0.6406  0.0316
 2759SOL    HW119910   1.793   0.252   4.669 -0.0367  1.1937 -1.4666
 2759SOL    HW219911   1.795   0.393   4.703  0.0588 -0.3798  0.4704
 2760SOL     OW19912   0.331   0.787   6.230 -0.4707  0.4592 -0.1015
 2760SOL    HW119913   0.348   0.705   6.183  2.7868  0.4543  1.0529
 2760SOL    HW219914   0.404   0.788   6.292 -0.2822 -1.4586 -0.2731
 2761SOL     OW19915   3.170   0.101   5.799 -0.0383  0.3229 -0.4022
 2761SOL    HW119916   3.128   0.087   5.715 -2.7891 -1.3425  1.2652
 2761SOL    HW219917   3.240   0.161   5.773 -0.2964  0.0759 -1.6558
 2762SOL     OW19918   3.021   2.636   8.106  0.0898  0.2745  0.5470
 2762SOL    HW119919   2.960   2.571   8.140 -0.1327  0.7312  1.0191
 2762SOL    HW219920   3.021   2.705   8.173  0.0553  0.3619  0.4569
 2763SOL     OW19921   1.153   4.337   2.230  0.5937 -0.8479  0.0788
 2763SOL    HW119922   1.121   4.266   2.175  2.4407 -3.2019  2.0382
 2763SOL    HW219923   1.202   4.285   2.294  3.3794  0.8472 -0.6861
 2764SOL     OW19924   3.530   0.551   5.499  0.3157 -0.0833  0.3019
 2764SOL    HW119925   3.524   0.464   5.458 -0.6796  1.4019 -2.6568
 2764SOL    HW219926   3.605   0.551   5.558 -1.3298 -0.7103  2.3514
 2765SOL     OW19927   4.594   0.879   7.165 -0.1064  0.6824  0.0324
 2765SOL    HW119928   4.679   0.841   7.143 -0.2501 -2.0426  4.1916
 2765SOL    HW219929   4.598   0.887   7.260  0.5768 -1.8962  0.2319
 2766SOL     OW19930   0.646   4.737   6.923  0.0954 -0.6864  0.5923
 2766SOL    HW119931   0.627   4.660   6.976  1.9569 -0.7273  1.1938
 2766SOL    HW219932   0.721   4.707   6.871 -1.0171 -0.3387 -1.2094
 2767SOL     OW19933   4.185   0.037  13.754 -0.6905 -0.9843  0.3491
 2767SOL    HW119934   4.091   0.044  13.740 -0.3946 -0.5269 -1.3727
 2767SOL    HW219935   4.188   4.695  13.808 -0.5808 -0.7883  0.6320
 2768SOL     OW19936   3.184   0.457   4.460  0.0091 -0.2008  0.4244
 2768SOL    HW119937   3.113   0.505   4.416  0.3500 -0.4004 -0.3518
 2768SOL    HW219938   3.141   0.438   4.542  3.8609 -1.9541  2.0388
 2769SOL     OW19939   2.254   1.019   0.189  0.5213  0.5376  0.0600
 2769SOL    HW119940   2.222   1.091   0.134  0.6813  2.6909  2.7845
 2769SOL    HW219941   2.282   0.951   0.128  1.9787  1.6033 -0.4657
 2770SOL     OW19942   2.778   0.313   9.105  0.3123  0.0373  0.6421
 2770SOL    HW119943   2.834   0.237   9.086 -0.4461 -0.0827 -1.1742
 2770SOL    HW219944   2.750   0.323   9.014 -1.0520  1.1122  1.1968
 2771SOL     OW19945   4.670   1.272   9.315 -0.9506 -0.3784  0.4566
 2771SOL    HW119946   4.646   1.275   9.222  2.3815 -0.7225 -0.3893
 2771SOL    HW219947   0.014   1.322   9.308 -1.1687 -0.0937 -0.0509
 2772SOL     OW19948   2.227   2.429   3.723  0.4102  0.2709  0.2867
 2772SOL    HW119949   2.220   2.507   3.777 -1.5058 -0.0540  0.5068
 2772SOL    HW219950   2.321   2.412   3.719 -0.0890 -3.1358  2.4043
 2773SOL     OW19951   3.842   4.207  13.150  0.0511 -0.0342 -0.5282
 2773SOL    HW119952   3.785   4.150  13.097 -0.0502 -0.2192 -0.2210
 2773SOL    HW219953   3.827   4.285  13.097 -0.8094 -0.1106 -0.4027
 2774SOL     OW19954   2.405   1.219   7.886  0.5893 -0.8856  0.0743
 2774SOL    HW119955   2.481   1.164   7.905  1.3660  0.1782  0.0727
 2774SOL    HW219956   2.343   1.152   7.856 -0.0791  0.1460 -0.8255
 2775SOL     OW19957   4.409   0.105   1.174  0.7669  0.5271  0.1836
 2775SOL    HW119958   4.388   0.160   1.250  1.5055  0.9894  0.0426
 2775SOL    HW219959   4.502   0.089   1.187  0.6038 -0.3997  0.2317
 2776SOL     OW19960   2.773   3.835   8.143  0.0246  0.2025  0.1527
 2776SOL    HW119961   2.852   3.795   8.180 -0.1007 -0.6727 -0.5139
 2776SOL    HW219962   2.757   3.911   8.199  0.1317  1.4524 -1.4776
 2777SOL     OW19963   0.061   2.801   1.401  0.1112  0.5393 -0.4216
 2777SOL    HW119964   0.134   2.766   1.451 -2.4679  1.1958  3.7595
 2777SOL    HW219965   0.035   2.866   1.466  3.5775 -0.3070  1.8227
 2778SOL     OW19966   1.653   1.206   2.309 -0.0028 -0.4716  0.0034
 2778SOL    HW119967   1.695   1.153   2.242  1.2913  1.4947 -0.7462
 2778SOL    HW219968   1.711   1.188   2.383 -1.1291  0.1175  1.0457
 2779SOL     OW19969   4.442   4.727  14.225  0.0883  0.3576 -0.2257
 2779SOL    HW119970   4.383   0.061  14.199  0.2743  0.2575 -0.9209
 2779SOL    HW219971   4.386   4.654  14.197  1.0199 -0.6800  0.6481
 2780SOL     OW19972   1.423   1.918   1.836  0.3376 -0.0337  0.4247
 2780SOL    HW119973   1.476   1.994   1.814 -1.4303  1.5999  1.7509
 2780SOL    HW219974   1.483   1.845   1.821  2.0066  1.6762 -1.1468
 2781SOL     OW19975   2.326   0.793   8.479 -0.1421  0.3287  0.4785
 2781SOL    HW119976   2.260   0.729   8.506  2.1742 -1.7991  1.0883
 2781SOL    HW219977   2.293   0.879   8.505  0.7027  0.6938  0.3412
 2782SOL     OW19978   0.106   1.573   5.314 -0.3529 -0.6931  0.1937
 2782SOL    HW119979   0.145   1.660   5.306 -1.4438 -0.1488  0.8209
 2782SOL    HW219980   0.036   1.584   5.378 -0.5533 -0.8086 -0.0086
 2783SOL     OW19981   2.730   2.680  11.887  0.1905  0.0965 -0.4674
 2783SOL    HW119982   2.747   2.745  11.819  1.8323 -0.0926 -0.2576
 2783SOL    HW219983   2.718   2.739  11.962 -0.4361 -0.2038 -0.3320
 2784SOL     OW19984   4.355   3.930   4.776 -0.1564 -0.0857 -0.2506
 2784SOL    HW119985   4.422   3.918   4.709  0.6472 -0.2952  0.5994
 2784SOL    HW219986   4.366   3.853   4.832 -0.8044 -0.7562 -1.0322
 2785SOL     OW19987   3.040   3.268   6.779  0.0627  0.0170 -0.0861
 2785SOL    HW119988   2.950   3.240   6.761 -0.0379 -0.4934  1.1750
 2785SOL    HW219989   3.063   3.185   6.821 -3.0364  0.2527  2.0669
 2786SOL     OW19990   2.683   1.009  11.452 -0.1059  0.0246 -0.0021
 2786SOL    HW119991   2.678   1.101  11.480 -0.5030  0.2666 -0.8653
 2786SOL    HW219992   2.650   1.021  11.363 -3.1825 -2.4112  0.8073
 2787SOL     OW19993   4.148   1.334   6.451  0.7469 -0.2160 -0.3295
 2787SOL    HW119994   4.173   1.383   6.529 -1.1953  0.0692  0.0953
 2787SOL    HW219995   4.054   1.348   6.455  1.0251  1.2300  1.2050
 2788SOL     OW19996   0.621   2.526  10.615 -0.0417  0.0964 -0.1839
 2788SOL    HW119997   0.550   2.577  10.575 -0.2404 -0.4003 -0.4593
 2788SOL    HW219998   0.574   2.453  10.655 -1.0661 -0.1227 -1.7803
 2789SOL     OW19999   1.873   0.834   2.651 -0.6101 -0.2954 -0.5100
 2789SOL    HW120000   1.963   0.803   2.656 -0.1748  0.8485 -1.3172
 2789SOL    HW220001   1.847   0.801   2.565 -0.5434 -3.8683  0.8416
 2790SOL     OW20002   2.440   0.879   6.086  0.7580 -0.0424  0.1667
 2790SOL    HW120003   2.465   0.793   6.122  0.1980 -0.5780 -0.7467
 2790SOL    HW220004   2.365   0.856   6.032  1.7594  0.2396 -1.3187
 2791SOL     OW20005   4.118   2.987   4.498  0.1949 -0.3184  0.3210
 2791SOL    HW120006   4.037   2.967   4.544 -2.4879  2.6924 -3.0456
 2791SOL    HW220007   4.081   3.063   4.453  0.2704 -0.2717  0.3365
 2792SOL     OW20008   3.341   1.095   9.381 -0.6474  0.3787 -0.2203
 2792SOL    HW120009   3.405   1.043   9.333  0.4414  1.9474 -0.4857
 2792SOL    HW220010   3.263   1.070   9.331 -2.0635  1.3724  1.4990
 2793SOL     OW20011   4.085   0.525   9.081 -0.3358 -0.2381  0.2545
 2793SOL    HW120012   4.108   0.574   9.002 -0.0163 -3.6812 -1.8224
 2793SOL    HW220013   4.009   0.477   9.049  0.0166  0.4700 -1.6756
 2794SOL     OW20014   4.426   1.348  12.750  0.0758  0.1801 -0.4716
 2794SOL    HW120015   4.400   1.282  12.815  0.4349  0.4414 -0.0558
 2794SOL    HW220016   4.362   1.318  12.686 -0.7019 -0.2055  0.4817
 2795SOL     OW20017   0.422   0.703   2.724  0.1802 -0.2471  1.2026
 2795SOL    HW120018   0.353   0.675   2.664  0.7788  1.4449 -0.2846
 2795SOL    HW220019   0.496   0.688   2.665  1.2922  1.1648  2.2411
 2796SOL     OW20020   0.237   2.849   5.748  0.7200 -0.3105  0.3169
 2796SOL    HW120021   0.195   2.825   5.666  1.8908  2.2969 -1.0584
 2796SOL    HW220022   0.166   2.840   5.811  0.6420 -1.2057  0.0891
 2797SOL     OW20023   3.434   4.069   0.162 -0.9697  0.1605  0.0772
 2797SOL    HW120024   3.484   4.108   0.090 -2.4112  1.2795 -0.3121
 2797SOL    HW220025   3.381   4.143   0.194 -0.2753  0.3656  0.7556
 2798SOL     OW20026   1.411   4.329  11.121 -0.6038  0.4461 -0.1235
 2798SOL    HW120027   1.320   4.311  11.143  0.0214 -1.6581  0.6730
 2798SOL    HW220028   1.409   4.355  11.029  0.1878  0.1139 -0.2329
 2799SOL     OW20029   0.006   0.210   9.277  0.1060  0.4243 -0.5949
 2799SOL    HW120030   4.710   0.263   9.204  1.0667 -1.3722 -2.3454
 2799SOL    HW220031   0.098   0.236   9.273  0.3611 -0.0481  2.6529
 2800SOL     OW20032   3.956   3.900   2.303 -0.2752  0.1408  0.1403
 2800SOL    HW120033   3.938   3.928   2.393  1.5634 -0.9286  0.8453
 2800SOL    HW220034   3.994   3.812   2.307  1.3556  0.7286 -2.3888
 2801SOL     OW20035   4.305   4.302   4.583  0.6915 -0.1104 -0.2893
 2801SOL    HW120036   4.310   4.323   4.676  0.9753  0.9221 -0.5425
 2801SOL    HW220037   4.273   4.212   4.581 -1.5487  0.6638  1.6443
 2802SOL     OW20038   1.153   0.298   5.879 -0.4405 -0.3566  0.3013
 2802SOL    HW120039   1.061   0.326   5.879 -0.2964  0.1197  1.2435
 2802SOL    HW220040   1.192   0.382   5.903  1.2660 -1.2881  0.8145
 2803SOL     OW20041   4.695   2.946   1.604 -0.3663  0.1738  0.2120
 2803SOL    HW120042   0.020   2.987   1.664  1.5287 -0.0003 -1.6022
 2803SOL    HW220043   4.677   2.860   1.642 -2.2241 -0.9339 -3.1449
 2804SOL     OW20044   2.243   3.859   9.359 -0.4275  0.6165  0.3271
 2804SOL    HW120045   2.253   3.802   9.435  0.2705  0.2867 -0.0166
 2804SOL    HW220046   2.183   3.803   9.310 -0.6325  0.7320  0.4453
 2805SOL     OW20047   1.018   3.326   3.387 -0.2204 -0.3616 -0.1565
 2805SOL    HW120048   1.060   3.394   3.333  2.0452  0.5902  2.8022
 2805SOL    HW220049   1.051   3.355   3.472 -0.3045 -1.0379  0.1012
 2806SOL     OW20050   0.448   3.273   8.916 -0.2213 -0.2396  0.2917
 2806SOL    HW120051   0.533   3.263   8.873 -1.5274 -0.0729 -2.2969
 2806SOL    HW220052   0.432   3.188   8.958  1.0992  0.5443  2.3641
 2807SOL     OW20053   3.646   3.699   3.435 -0.4428  0.3713 -0.2687
 2807SOL    HW120054   3.627   3.771   3.374 -1.8717  1.4294  1.4342
 2807SOL    HW220055   3.739   3.694   3.413 -0.7992 -0.8361 -1.4396
 2808SOL     OW20056   4.517   3.391  13.967 -0.1388  0.2837  0.7837
 2808SOL    HW120057   4.469   3.442  13.902 -0.4362 -0.0118  0.7677
 2808SOL    HW220058   4.460   3.319  13.995 -0.9915  0.8770  0.5703
 2809SOL     OW20059   4.276   2.880   1.672  0.5575  0.5305  0.0926
 2809SOL    HW120060   4.224   2.867   1.752 -0.2940 -0.5527 -0.6405
 2809SOL    HW220061   4.212   2.931   1.622 -0.4203 -0.4080  0.3637
 2810SOL     OW20062   1.076   2.124  12.219 -0.4309 -0.8730  0.4491
 2810SOL    HW120063   0.996   2.175  12.207  1.3755  1.3078 -2.4417
 2810SOL    HW220064   1.122   2.199  12.256 -1.9027  0.0359  0.4325
 2811SOL     OW20065   1.550   0.538  12.399  0.2990 -0.0106 -1.1166
 2811SOL    HW120066   1.510   0.501  12.478  0.7059 -1.0011 -1.3776
 2811SOL    HW220067   1.603   0.605  12.442 -0.6519  0.4496 -0.6586
 2812SOL     OW20068   1.198   3.372   2.784  0.2108  0.4454 -0.2841
 2812SOL    HW120069   1.253   3.432   2.834 -0.7047 -0.2528  1.5676
 2812SOL    HW220070   1.114   3.386   2.828 -0.5589 -1.6333 -1.0910
 2813SOL     OW20071   0.779   3.790   5.075  0.0265  0.6320  0.5966
 2813SOL    HW120072   0.854   3.802   5.133 -1.0446 -0.1179  2.1409
 2813SOL    HW220073   0.821   3.826   4.997 -0.0054  1.3788  0.9271
 2814SOL     OW20074   4.443   1.875   8.205 -0.0335 -0.0023  0.1446
 2814SOL    HW120075   4.517   1.935   8.193 -1.1834  1.5716  1.0729
 2814SOL    HW220076   4.396   1.928   8.269  0.9527  1.2903 -0.2074
 2815SOL     OW20077   3.134   3.295   3.763 -0.6201  0.6573 -0.4385
 2815SOL    HW120078   3.154   3.207   3.795 -0.3491  1.2109  0.9194
 2815SOL    HW220079   3.216   3.319   3.720 -0.3253 -1.6083 -1.1826
 2816SOL     OW20080   4.440   0.711   6.091  0.8607  0.3997  0.3412
 2816SOL    HW120081   4.533   0.718   6.069  0.3914 -0.7825 -2.0627
 2816SOL    HW220082   4.430   0.794   6.137 -1.3628 -1.4027  3.1069
 2817SOL     OW20083   4.450   1.425  10.031 -0.6540  0.0154 -0.7882
 2817SOL    HW120084   4.531   1.437   9.980  0.8337  1.9079  1.9653
 2817SOL    HW220085   4.412   1.354   9.981  0.0160  0.0003 -1.2658
 2818SOL     OW20086   4.360   0.935  12.549 -0.0394 -0.6506 -0.2644
 2818SOL    HW120087   4.312   1.017  12.559 -1.7615 -1.8537  1.2487
 2818SOL    HW220088   4.330   0.880  12.621  2.6946 -1.3025  0.3791
 2819SOL     OW20089   2.005   1.996   2.268  0.3842  0.3990 -0.6214
 2819SOL    HW120090   2.018   2.077   2.219 -0.9733  1.0270  0.0852
 2819SOL    HW220091   1.918   2.022   2.297  0.3477  1.2987 -1.5630
 2820SOL     OW20092   3.781   0.511   7.098 -0.2431  0.3142 -0.3589
 2820SOL    HW120093   3.844   0.506   7.025  1.1081 -0.0783  0.8379
 2820SOL    HW220094   3.837   0.554   7.162  0.7399  0.8319 -1.5567
 2821SOL     OW20095   3.470   4.293   7.681  0.1125  0.1940 -0.2641
 2821SOL    HW120096   3.406   4.295   7.752 -0.6396  1.4243 -0.9885
 2821SOL    HW220097   3.460   4.383   7.652  0.9045  0.4155  0.1426
 2822SOL     OW20098   4.568   1.115   4.116  0.3046  0.5726  0.4719
 2822SOL    HW120099   4.526   1.056   4.052 -1.3704  2.6250 -0.3166
 2822SOL    HW220100   4.505   1.120   4.188  0.2245  2.2739  0.2804
 2823SOL     OW20101   1.189   2.648  15.540 -0.5711  0.1677  1.0509
 2823SOL    HW120102   1.122   2.663  15.474 -0.7994 -0.2048  1.1935
 2823SOL    HW220103   1.254   2.592  15.498  1.4634  1.8788  1.9236
 2824SOL     OW20104   2.240   4.229  15.595 -0.2374  0.1313 -0.1482
 2824SOL    HW120105   2.163   4.207  15.544 -0.8248  0.4996  0.5824
 2824SOL    HW220106   2.294   4.151  15.586  2.5029  1.9130  0.7011
 2825SOL     OW20107   2.124   2.772   6.468  0.4278  0.1439 -0.2242
 2825SOL    HW120108   2.214   2.802   6.463  0.1833  0.7551 -0.9690
 2825SOL    HW220109   2.144   2.681   6.490  1.0593 -0.4064 -2.9917
 2826SOL     OW20110   2.558   0.043  10.489  0.0814  0.3116  0.4929
 2826SOL    HW120111   2.640   0.037  10.539  1.0731  1.3858 -0.9936
 2826SOL    HW220112   2.598   0.027  10.404 -1.1526  0.8239 -0.1827
 2827SOL     OW20113   0.229   4.117   4.409  0.3044  0.7656  0.1720
 2827SOL    HW120114   0.267   4.147   4.326 -0.0878 -0.3799 -0.4355
 2827SOL    HW220115   0.210   4.202   4.448 -2.3947 -0.0956  0.7853
 2828SOL     OW20116   2.260   2.781   3.258 -0.0139  0.0446  0.2847
 2828SOL    HW120117   2.327   2.849   3.256 -0.2205  0.2677  0.7769
 2828SOL    HW220118   2.296   2.711   3.313 -0.0138 -0.5075 -0.4301
 2829SOL     OW20119   4.377   2.890   8.085  0.3095  0.1739  0.3854
 2829SOL    HW120120   4.330   2.827   8.139 -1.7710  0.7827 -0.7143
 2829SOL    HW220121   4.455   2.908   8.138  0.6525 -2.0298  0.6227
 2830SOL     OW20122   2.108   4.206   5.825 -0.2885  0.1151  0.3754
 2830SOL    HW120123   2.199   4.176   5.822 -0.5660 -0.6396 -0.5713
 2830SOL    HW220124   2.066   4.123   5.803  1.9841 -0.0827 -3.2963
 2831SOL     OW20125   3.646   4.310  16.127  0.1740 -0.9915 -0.3345
 2831SOL    HW120126   3.720   4.357  16.167 -0.3090  0.3229 -0.9760
 2831SOL    HW220127   3.681   4.221  16.134 -0.1608 -0.7622  3.7561
 2832SOL     OW20128   0.437   3.374   7.905  0.1932 -0.6126  0.1562
 2832SOL    HW120129   0.363   3.434   7.913 -0.5230 -1.2385 -1.7835
 2832SOL    HW220130   0.509   3.434   7.924  0.1826  0.0278 -1.8637
 2833SOL     OW20131   0.343   3.894   3.760 -0.4583 -0.4020 -0.1323
 2833SOL    HW120132   0.428   3.866   3.725 -0.5675  1.4079 -1.8413
 2833SOL    HW220133   0.315   3.928   3.676 -0.9503 -1.0304 -0.2196
 2834SOL     OW20134   0.986   3.731  12.595 -0.1534  0.2904  0.4977
 2834SOL    HW120135   0.896   3.706  12.577 -0.2182  1.5300 -0.9110
 2834SOL    HW220136   1.011   3.772  12.512 -0.5634  2.7894  1.6081
 2835SOL     OW20137   0.595   4.483  11.310  0.5587 -0.5657 -0.3635
 2835SOL    HW120138   0.588   4.423  11.236 -4.2261 -1.4516  0.8413
 2835SOL    HW220139   0.672   4.538  11.295  0.3942 -0.3770 -0.5037
 2836SOL     OW20140   1.091   3.593   8.174  0.1473  0.3159 -0.1061
 2836SOL    HW120141   1.027   3.658   8.202 -0.5521  0.0137 -1.0484
 2836SOL    HW220142   1.159   3.627   8.233 -1.9065  1.0619  1.8080
 2837SOL     OW20143   3.526   4.618   7.326  0.2654  0.0424 -0.2148
 2837SOL    HW120144   3.514   4.605   7.421  0.9019 -0.1409 -0.1606
 2837SOL    HW220145   3.444   4.575   7.302 -0.5689  0.1469  2.4203
 2838SOL     OW20146   3.587   2.895   4.854 -0.1955 -0.5767  0.8568
 2838SOL    HW120147   3.535   2.850   4.787  0.6660 -2.4805  1.4571
 2838SOL    HW220148   3.534   2.969   4.883 -0.8249 -0.3896 -0.7927
 2839SOL     OW20149   0.205   1.676   7.531 -0.9943 -0.4854  0.5429
 2839SOL    HW120150   0.290   1.711   7.558 -1.4408  2.0186 -1.2284
 2839SOL    HW220151   0.212   1.584   7.556  0.0843 -0.1370  1.5082
 2840SOL     OW20152   2.370   1.373   2.410  0.4635  0.1524 -0.3993
 2840SOL    HW120153   2.448   1.396   2.361  0.1978  1.0355 -0.3999
 2840SOL    HW220154   2.334   1.458   2.434 -2.8050 -0.9067 -1.5585
 2841SOL     OW20155   3.622   3.260  16.197  0.0088 -0.3266 -0.5482
 2841SOL    HW120156   3.580   3.346  16.202 -3.7864 -2.1332 -1.1788
 2841SOL    HW220157   3.692   3.286  16.138 -0.4834 -4.4631 -2.9532
 2842SOL     OW20158   3.647   3.601   7.136 -0.0390 -0.1670 -0.0822
 2842SOL    HW120159   3.608   3.544   7.070  1.0997 -0.4866 -0.4794
 2842SOL    HW220160   3.723   3.547   7.157  0.4148  0.8504  0.8862
 2843SOL     OW20161   4.317   0.934   1.053 -0.4879 -0.0568  0.5716
 2843SOL    HW120162   4.300   0.933   1.148  1.6167  2.4040  0.9766
 2843SOL    HW220163   4.403   0.891   1.058 -1.9152 -2.5157  4.1197
 2844SOL     OW20164   3.465   2.143   1.879  0.0539 -0.0872 -0.2161
 2844SOL    HW120165   3.453   2.141   1.784  0.8235  0.5054 -0.3256
 2844SOL    HW220166   3.549   2.187   1.866 -0.3798  0.7230 -0.2915
 2845SOL     OW20167   2.972   3.547   6.920  0.0223 -0.3767  0.5017
 2845SOL    HW120168   2.883   3.536   6.885  0.2287 -3.4486  0.9370
 2845SOL    HW220169   3.015   3.470   6.882  1.0274  0.4457 -0.0178
 2846SOL     OW20170   3.383   0.122  14.815  0.1062  0.8660  0.0513
 2846SOL    HW120171   3.388   0.122  14.910  2.7620  1.6560 -0.0982
 2846SOL    HW220172   3.469   0.157  14.792  0.7223  1.3569  3.1061
 2847SOL     OW20173   1.474   0.922   5.773  0.1730 -0.4078  0.0840
 2847SOL    HW120174   1.537   0.869   5.822 -0.8416 -0.9069  0.8465
 2847SOL    HW220175   1.466   0.874   5.691 -1.5409  0.1041 -0.0378
 2848SOL     OW20176   0.943   0.777  16.014 -0.1441  0.6628 -0.6842
 2848SOL    HW120177   0.870   0.715  16.017  0.6383 -0.3253 -2.0542
 2848SOL    HW220178   1.015   0.714  16.002 -0.7875  0.0652 -1.3759
 2849SOL     OW20179   3.543   2.873   7.512  0.2051  0.5740  0.1580
 2849SOL    HW120180   3.543   2.778   7.507  0.9424  0.6735 -1.7463
 2849SOL    HW220181   3.623   2.891   7.562  0.3013  0.6829 -0.0329
 2850SOL     OW20182   3.175   1.414   5.816 -0.1937  0.6834  0.1394
 2850SOL    HW120183   3.224   1.345   5.772 -0.1689  1.3278 -0.8225
 2850SOL    HW220184   3.100   1.419   5.757 -1.2364 -1.4134  1.2927
 2851SOL     OW20185   4.609   1.419   5.166 -0.3758  0.2604 -0.3873
 2851SOL    HW120186   4.657   1.347   5.208 -1.6837 -0.4317 -0.0734
 2851SOL    HW220187   4.669   1.493   5.171  0.5570 -0.4254 -1.4157
 2852SOL     OW20188   1.896   3.281   1.945 -0.2343  0.0644  0.3847
 2852SOL    HW120189   1.898   3.232   1.863  1.7454 -1.4286  1.3278
 2852SOL    HW220190   1.908   3.211   2.009  1.1295  0.4066  0.5035
 2853SOL     OW20191   1.783   3.314   1.033  0.4449 -0.2042 -0.0400
 2853SOL    HW120192   1.852   3.350   0.977  0.0806 -0.3907 -0.6134
 2853SOL    HW220193   1.829   3.236   1.064  0.5129  0.3106  1.1248
 2854SOL     OW20194   1.330   4.088   5.605 -0.4696 -0.2386  0.1769
 2854SOL    HW120195   1.385   4.120   5.676  1.1210 -2.2577 -0.1528
 2854SOL    HW220196   1.251   4.074   5.656 -1.3918  0.4000 -1.0692
 2855SOL     OW20197   1.720   4.421   7.327  0.0639  0.0339 -0.4852
 2855SOL    HW120198   1.634   4.449   7.295  0.1251  1.0021  0.2017
 2855SOL    HW220199   1.695   4.410   7.418  0.4301 -1.0913 -0.5244
 2856SOL     OW20200   3.487   1.054   6.912  0.1583 -0.3225  0.4769
 2856SOL    HW120201   3.458   1.059   6.821  1.0433  1.5288  0.2921
 2856SOL    HW220202   3.458   0.967   6.938 -1.9775  0.6291  1.2373
 2857SOL     OW20203   3.496   1.743   4.384  0.3170  0.0921 -1.1999
 2857SOL    HW120204   3.536   1.804   4.446 -0.1692  0.1337 -0.9275
 2857SOL    HW220205   3.445   1.803   4.329  1.5336  0.7632 -1.6049
 2858SOL     OW20206   4.164   1.676   1.395 -0.0901  0.4182 -0.3374
 2858SOL    HW120207   4.185   1.768   1.414  0.0858  0.9872 -3.2061
 2858SOL    HW220208   4.074   1.667   1.425 -0.4150  2.3922 -0.6692
 2859SOL     OW20209   1.583   4.641  12.555 -0.2118  0.1706 -0.8694
 2859SOL    HW120210   1.611   4.720  12.602 -2.8006  1.0879 -0.8769
 2859SOL    HW220211   1.541   4.588  12.622 -0.5957  1.5068 -0.0421
 2860SOL     OW20212   3.025   0.173   9.411 -0.2891  0.3269 -0.3479
 2860SOL    HW120213   2.990   0.209   9.493  0.5484  0.5989 -0.1148
 2860SOL    HW220214   2.949   0.119   9.387 -0.4815 -0.2095  1.4398
 2861SOL     OW20215   2.547   3.119   6.049  0.1022  0.3376 -0.4190
 2861SOL    HW120216   2.516   3.169   5.974 -1.6362 -1.5979 -0.9941
 2861SOL    HW220217   2.466   3.077   6.079 -0.2869  2.2601  1.2132
 2862SOL     OW20218   4.464   0.591   8.186  0.1033 -0.2410 -1.0667
 2862SOL    HW120219   4.484   0.538   8.263  1.2767  0.2629 -1.0328
 2862SOL    HW220220   4.528   0.547   8.130  1.0471 -0.1198 -0.0814
 2863SOL     OW20221   1.149   4.240  12.881 -0.1520  0.1672  0.3350
 2863SOL    HW120222   1.123   4.183  12.809  1.9050 -0.7337  0.3061
 2863SOL    HW220223   1.151   4.196  12.966  0.4602 -0.3721  0.0360
 2864SOL     OW20224   1.951   4.473   1.389 -0.1917 -0.6848  0.4397
 2864SOL    HW120225   1.928   4.399   1.333  2.6628 -2.0172  1.0375
 2864SOL    HW220226   1.990   4.520   1.316 -1.9660 -0.2524 -0.2305
 2865SOL     OW20227   0.809   0.149   1.065 -0.5438  0.0141 -0.1658
 2865SOL    HW120228   0.732   0.097   1.090 -0.7180  0.9095  1.1426
 2865SOL    HW220229   0.790   0.172   0.974 -1.6990 -1.0991 -0.2133
 2866SOL     OW20230   2.574   0.814   1.548  0.2201  0.9494  0.1105
 2866SOL    HW120231   2.607   0.824   1.638 -2.7153  1.3740  1.1495
 2866SOL    HW220232   2.650   0.849   1.502 -1.2998  1.8449 -1.7338
 2867SOL     OW20233   1.889   1.549   5.008  0.1911  0.0328 -0.1912
 2867SOL    HW120234   1.841   1.632   5.019 -2.0919 -1.2438 -0.4364
 2867SOL    HW220235   1.918   1.539   5.098 -2.8021  0.1902  0.8045
 2868SOL     OW20236   2.316   3.213   5.374 -0.1192  0.4740 -0.5496
 2868SOL    HW120237   2.251   3.264   5.325 -1.5904  2.1641  3.1922
 2868SOL    HW220238   2.386   3.196   5.311 -0.5017  1.7617 -1.3130
 2869SOL     OW20239   1.590   3.550   7.012 -0.1059 -0.6476 -0.0216
 2869SOL    HW120240   1.577   3.638   7.045  1.1438  0.2835 -2.0188
 2869SOL    HW220241   1.675   3.573   6.976  0.4782  0.8153  2.3113
 2870SOL     OW20242   4.500   0.047  10.539  0.5199 -0.5852  0.0259
 2870SOL    HW120243   4.560   0.058  10.466  1.5933 -4.1973  0.3466
 2870SOL    HW220244   4.540   0.102  10.606  2.6219 -0.1004 -1.6418
 2871SOL     OW20245   1.379   1.947  12.890  0.4444  0.1863 -0.2882
 2871SOL    HW120246   1.292   1.983  12.910  1.1803  1.3459  0.7980
 2871SOL    HW220247   1.399   1.897  12.969 -1.2693  0.7033  0.4814
 2872SOL     OW20248   0.411   0.064   2.464 -0.0722  0.2395 -0.1299
 2872SOL    HW120249   0.362   4.736   2.513  1.8426 -0.7160  0.5341
 2872SOL    HW220250   0.421   0.017   2.381 -0.0123  0.9398 -0.5210
 2873SOL     OW20251   2.812   3.732  12.095  0.3115  0.3023  0.1526
 2873SOL    HW120252   2.743   3.702  12.153  0.8915  0.9287  1.1692
 2873SOL    HW220253   2.871   3.783  12.151 -0.1043 -2.0254  2.6801
 2874SOL     OW20254   4.478   2.632   3.077 -0.1411  0.1088  0.3531
 2874SOL    HW120255   4.389   2.668   3.070  0.2151  0.4334 -2.7622
 2874SOL    HW220256   4.487   2.587   2.993  1.8713 -1.5370  1.4692
 2875SOL     OW20257   4.498   3.753   6.068  0.1503  0.3469 -0.3222
 2875SOL    HW120258   4.428   3.760   6.003  0.6785  0.1117 -0.9231
 2875SOL    HW220259   4.443   3.748   6.146 -1.2739  2.6534 -1.1752
 2876SOL     OW20260   2.853   1.083   6.234 -0.1131 -0.4970 -0.5535
 2876SOL    HW120261   2.852   0.997   6.193 -1.9799  0.9248 -3.5365
 2876SOL    HW220262   2.772   1.083   6.284  0.5677  0.5447  0.5429
 2877SOL     OW20263   2.898   1.746   5.617  0.0943  0.2083 -0.7193
 2877SOL    HW120264   2.840   1.789   5.554 -2.3132 -1.0726  0.6579
 2877SOL    HW220265   2.961   1.816   5.636  0.4317  0.2473 -1.9738
 2878SOL     OW20266   3.193   4.320   3.419 -0.4062  0.1245 -0.3741
 2878SOL    HW120267   3.201   4.348   3.510 -0.2449  1.1793 -0.7137
 2878SOL    HW220268   3.140   4.388   3.378 -2.0114 -0.4686  0.6889
 2879SOL     OW20269   3.330   2.598   8.718  0.7813  0.5074  0.6791
 2879SOL    HW120270   3.370   2.685   8.715  0.3805  0.6574 -0.2248
 2879SOL    HW220271   3.410   2.546   8.711 -0.0900 -0.7816  0.2866
 2880SOL     OW20272   4.120   3.732   5.042  0.2176 -0.4674  0.1404
 2880SOL    HW120273   4.028   3.719   5.019  0.3694  1.2235 -1.4173
 2880SOL    HW220274   4.146   3.794   4.974  0.0503 -1.6370 -0.9887
 2881SOL     OW20275   4.529   0.415  16.473  0.1689  0.3373 -0.4469
 2881SOL    HW120276   4.477   0.495  16.466  0.1829  0.0904 -3.4844
 2881SOL    HW220277   4.495   0.356  16.405 -0.6969  1.2304 -0.7868
 2882SOL     OW20278   4.043   0.238   4.092  0.3684 -0.1371  0.0936
 2882SOL    HW120279   4.103   0.279   4.155 -0.5651 -0.1703  1.0149
 2882SOL    HW220280   4.059   0.148   4.120  1.0197 -0.0181  0.0870
 2883SOL     OW20281   3.966   0.029  14.407  0.0557 -0.2251  0.5833
 2883SOL    HW120282   3.915   0.082  14.346 -1.7390 -0.3333  1.9864
 2883SOL    HW220283   4.028   4.719  14.352  0.3081 -0.8261  1.3811
 2884SOL     OW20284   4.467   3.617   8.359 -0.5219 -0.3462 -0.2764
 2884SOL    HW120285   4.524   3.616   8.282 -1.9979  1.2643 -1.3806
 2884SOL    HW220286   4.384   3.655   8.331 -0.9921 -0.9166  0.3316
 2885SOL     OW20287   2.032   4.219   0.931  0.7683 -0.5440  0.2955
 2885SOL    HW120288   2.007   4.137   0.973  1.4973  0.2574  2.2856
 2885SOL    HW220289   1.985   4.209   0.848  0.4282 -1.1573  0.5657
 2886SOL     OW20290   2.952   0.083   3.371 -0.0824  0.2605 -0.0792
 2886SOL    HW120291   2.866   0.125   3.367  1.2650  3.1810  1.3807
 2886SOL    HW220292   3.012   0.157   3.360  0.4666 -0.1758  0.0043
 2887SOL     OW20293   0.283   2.744  16.433 -0.2164  0.1899 -0.5715
 2887SOL    HW120294   0.260   2.669  16.488  0.5219 -0.7348 -1.5141
 2887SOL    HW220295   0.220   2.735  16.362 -0.7115  0.1870 -0.1283
 2888SOL     OW20296   3.760   0.539  17.050  0.0346 -0.2918  0.3445
 2888SOL    HW120297   3.714   0.488  16.983  0.8953 -1.5901  0.7441
 2888SOL    HW220298   3.769   0.615  16.992  1.5732 -0.6428  0.1302
 2889SOL     OW20299   0.865   2.612   1.161  0.1152 -0.2389  0.7917
 2889SOL    HW120300   0.784   2.662   1.173 -1.3023 -2.4115  0.2832
 2889SOL    HW220301   0.915   2.691   1.141  0.1005 -0.3923  0.1473
 2890SOL     OW20302   0.270   1.107   7.977  0.1277 -0.0658  0.2921
 2890SOL    HW120303   0.257   1.015   7.952  0.1242  0.5989 -2.1573
 2890SOL    HW220304   0.308   1.100   8.065 -0.1132  3.2224  0.6571
 2891SOL     OW20305   0.061   3.797   3.599  0.6337 -0.6077 -0.0676
 2891SOL    HW120306   4.726   3.860   3.595  0.6577 -0.6472 -1.4158
 2891SOL    HW220307   0.136   3.856   3.597 -0.0466  0.2126 -1.5141
 2892SOL     OW20308   4.054   2.304   0.012  0.7614  0.2811 -0.0813
 2892SOL    HW120309   3.974   2.279   0.058  1.9839 -2.6868  0.4315
 2892SOL    HW220310   4.075   2.374   0.074  0.1009 -0.2867  0.8002
 2893SOL     OW20311   3.022   0.631  10.919 -0.5713  0.5065  0.1596
 2893SOL    HW120312   2.998   0.649  10.828 -2.0825 -1.0243  0.2535
 2893SOL    HW220313   2.976   0.700  10.968 -2.5926 -1.2683  0.7551
 2894SOL     OW20314   2.228   1.501   3.931  0.2361  0.0011 -0.2431
 2894SOL    HW120315   2.175   1.505   4.010 -3.1180  1.1123 -2.5932
 2894SOL    HW220316   2.174   1.565   3.885 -2.2654 -1.5412  0.5564
 2895SOL     OW20317   0.862   1.981   4.775  0.0142 -0.6112 -0.0851
 2895SOL    HW120318   0.771   1.960   4.755  0.0066  1.4190 -2.1771
 2895SOL    HW220319   0.850   2.069   4.811  0.6127 -0.6995  0.3313
 2896SOL     OW20320   2.954   3.023   8.353 -0.0698 -0.6113 -0.0501
 2896SOL    HW120321   2.980   3.097   8.298  1.5638 -1.0208  0.1705
 2896SOL    HW220322   2.996   2.956   8.299  1.2515  0.9574 -0.9585
 2897SOL     OW20323   2.008   0.239   4.903 -0.0257 -0.2456  0.5930
 2897SOL    HW120324   1.950   0.294   4.851 -0.4122 -1.5146 -0.3191
 2897SOL    HW220325   1.981   0.151   4.877 -1.7784  0.3974  0.2783
 2898SOL     OW20326   0.854   3.965   2.298  0.2748 -0.2196 -0.8776
 2898SOL    HW120327   0.778   3.997   2.250 -0.6306 -1.7978 -0.5229
 2898SOL    HW220328   0.834   3.871   2.298  1.5401 -0.4933 -0.6683
 2899SOL     OW20329   0.215   1.125  16.202  0.2719 -0.1411 -0.6812
 2899SOL    HW120330   0.225   1.149  16.110 -0.5976  0.6130 -0.5795
 2899SOL    HW220331   0.205   1.030  16.201  2.0819 -0.3379  0.7407
 2900SOL     OW20332   1.803   2.617  12.361 -0.0466  0.1769 -0.5082
 2900SOL    HW120333   1.802   2.582  12.450 -2.5596  1.0718 -0.1804
 2900SOL    HW220334   1.752   2.550  12.314 -0.5010  0.5160 -0.5055
 2901SOL     OW20335   1.393   3.269   9.443  0.2881  0.2598  0.1405
 2901SOL    HW120336   1.455   3.268   9.516 -0.4468 -2.2655  0.7306
 2901SOL    HW220337   1.456   3.297   9.377  0.2151  0.7150  0.2615
 2902SOL     OW20338   4.731   3.705  14.011  0.2005  0.1837  0.1510
 2902SOL    HW120339   4.731   3.801  14.004  1.7523  0.1648 -0.2931
 2902SOL    HW220340   4.705   3.696  14.103  0.6311  2.0109  0.4588
 2903SOL     OW20341   0.406   3.210   4.355 -0.1616 -0.3423  0.5444
 2903SOL    HW120342   0.376   3.269   4.425 -0.6636  1.1082 -0.8987
 2903SOL    HW220343   0.320   3.190   4.320 -0.3173  2.4344 -0.6735
 2904SOL     OW20344   3.062   0.981  13.990 -0.7590  0.0601 -0.3486
 2904SOL    HW120345   3.038   0.918  13.923 -0.2476  0.3884 -0.8425
 2904SOL    HW220346   2.982   1.033  13.984 -0.6047  0.4768  1.2257
 2905SOL     OW20347   4.168   2.552   6.032  0.2889 -0.7482 -0.3617
 2905SOL    HW120348   4.238   2.544   6.096  1.4185 -0.6191 -1.5712
 2905SOL    HW220349   4.216   2.512   5.959  0.5225 -1.6596  0.3045
 2906SOL     OW20350   1.630   2.017   6.909  0.7612  0.1352  0.0730
 2906SOL    HW120351   1.639   2.109   6.934  1.4770 -0.4683  1.9601
 2906SOL    HW220352   1.536   2.017   6.889  0.5759  0.8324  0.9600
 2907SOL     OW20353   1.778   3.609   8.071 -0.3689 -0.2715  0.1903
 2907SOL    HW120354   1.725   3.531   8.060 -2.5961  1.1819  0.6509
 2907SOL    HW220355   1.865   3.571   8.058 -1.0391 -1.6861 -0.1334
 2908SOL     OW20356   2.763   0.760   6.435 -0.0790 -0.7891 -0.0145
 2908SOL    HW120357   2.680   0.720   6.460  0.4991 -1.6872  0.4301
 2908SOL    HW220358   2.806   0.770   6.520  1.1476  0.5041 -0.7769
 2909SOL     OW20359   2.646   3.012   8.360  0.1054 -0.6691  0.2439
 2909SOL    HW120360   2.739   3.036   8.364  0.4184 -1.5786 -1.8378
 2909SOL    HW220361   2.606   3.097   8.341 -0.6256 -1.1800 -0.4616
 2910SOL     OW20362   2.708   3.882  14.477 -0.1322 -0.1138 -0.5385
 2910SOL    HW120363   2.777   3.924  14.527 -2.3269 -0.3145  2.6812
 2910SOL    HW220364   2.759   3.873  14.397  0.0330  3.2304 -0.8081
 2911SOL     OW20365   0.323   0.154  13.361 -0.2536 -0.4698 -0.0876
 2911SOL    HW120366   0.353   0.177  13.448  0.0255 -1.4995  0.0870
 2911SOL    HW220367   0.247   0.210  13.351 -1.0472 -1.5978 -0.4375
 2912SOL     OW20368   3.698   4.465   4.708  0.1136  0.0428  0.4562
 2912SOL    HW120369   3.643   4.531   4.665  1.2339  1.4611  1.2393
 2912SOL    HW220370   3.774   4.517   4.731  1.6499 -1.5702 -1.0383
 2913SOL     OW20371   3.031   0.022   4.346  0.1898 -0.2118 -0.2321
 2913SOL    HW120372   3.109   4.731   4.394  0.1725  0.9539  0.4865
 2913SOL    HW220373   3.025   4.688   4.283  4.4839 -0.0351 -0.8026
 2914SOL     OW20374   4.594   4.117   8.915  0.1905  0.1785 -0.3112
 2914SOL    HW120375   4.663   4.180   8.894  0.8722 -0.0635  1.2051
 2914SOL    HW220376   4.598   4.063   8.836  0.5913  0.4856 -0.5001
 2915SOL     OW20377   2.369   2.901   3.983  0.2801  0.1145 -0.3876
 2915SOL    HW120378   2.347   2.988   3.950 -0.8934 -0.6428 -1.6313
 2915SOL    HW220379   2.408   2.919   4.068  0.3661 -0.4852 -0.2982
 2916SOL     OW20380   3.899   0.543   7.366 -0.2076  0.5206  0.3938
 2916SOL    HW120381   3.892   0.575   7.456 -1.3603  0.2594  0.3939
 2916SOL    HW220382   3.985   0.581   7.348  0.4259 -1.3051 -0.3944
 2917SOL     OW20383   2.403   3.381  12.938 -0.2374  0.4313 -0.1507
 2917SOL    HW120384   2.315   3.365  12.969 -0.2117  2.0673  0.7749
 2917SOL    HW220385   2.449   3.333  13.007 -0.0007 -1.4607 -1.6230
 2918SOL     OW20386   4.379   0.034   1.555 -0.3199 -0.1071 -0.3686
 2918SOL    HW120387   4.367   0.116   1.507  1.0715  0.0231 -0.4966
 2918SOL    HW220388   4.461   4.731   1.525 -2.2391 -2.4677 -2.6144
 2919SOL     OW20389   3.445   2.352   0.319  0.4977  0.1573  0.2381
 2919SOL    HW120390   3.477   2.290   0.253  1.2862  1.1245 -0.2807
 2919SOL    HW220391   3.518   2.414   0.320  0.1119  0.6272 -0.8365
 2920SOL     OW20392   1.685   1.237   7.236 -0.4072  0.0638  0.8879
 2920SOL    HW120393   1.721   1.302   7.175 -2.0614 -0.0235 -0.1802
 2920SOL    HW220394   1.703   1.159   7.184  0.3349  0.7188  0.1449
 2921SOL     OW20395   3.033   4.001   4.448 -0.2308 -0.5827 -0.0937
 2921SOL    HW120396   2.976   4.033   4.378 -0.3043 -0.2110  0.1344
 2921SOL    HW220397   2.993   4.055   4.516  0.6903 -1.7593  1.3669
 2922SOL     OW20398   4.566   2.315   3.280  0.5716 -0.0273 -0.3357
 2922SOL    HW120399   4.554   2.352   3.367 -0.2951 -0.1765 -0.3950
 2922SOL    HW220400   4.488   2.334   3.228  1.1253 -0.1758 -1.2243
 2923SOL     OW20401   2.426   1.325   9.505  0.5280  0.4079 -0.0593
 2923SOL    HW120402   2.511   1.348   9.467  0.1030  0.0114 -1.2562
 2923SOL    HW220403   2.407   1.247   9.453 -0.8723  0.3727  0.5027
 2924SOL     OW20404   0.679   2.505  11.115 -0.2478  0.6620 -0.4651
 2924SOL    HW120405   0.735   2.511  11.192  0.9048  0.3283 -1.2704
 2924SOL    HW220406   0.714   2.421  11.084  1.2451  1.4919 -1.0395
 2925SOL     OW20407   3.375   2.729   2.598 -0.4220 -0.1770  0.4866
 2925SOL    HW120408   3.335   2.704   2.682  1.2254 -1.7282  0.7934
 2925SOL    HW220409   3.434   2.657   2.578  0.7195  0.9398 -0.1602
 2926SOL     OW20410   1.478   3.898   8.514 -0.4441  0.0215 -0.5135
 2926SOL    HW120411   1.532   3.969   8.479  0.3716  0.3675  1.4292
 2926SOL    HW220412   1.540   3.832   8.545 -0.6223 -0.6812 -1.6475
 2927SOL     OW20413   1.015   3.626  17.066  0.0067  0.5057  0.0118
 2927SOL    HW120414   1.091   3.568  17.072 -1.0633 -1.0217 -0.9913
 2927SOL    HW220415   1.033   3.697  17.127 -1.7847  0.4615  0.5895
 2928SOL     OW20416   2.316   3.375   6.169  0.1944 -0.3871  0.0561
 2928SOL    HW120417   2.321   3.469   6.154  3.2452 -0.4039  0.8688
 2928SOL    HW220418   2.396   3.335   6.135 -0.1192  0.1530 -1.3187
 2929SOL     OW20419   3.419   2.530   3.385 -0.3662  0.6901 -0.2485
 2929SOL    HW120420   3.496   2.568   3.342  0.0636 -1.6020 -1.5203
 2929SOL    HW220421   3.371   2.612   3.395 -0.4660  0.3086  2.3899
 2930SOL     OW20422   2.575   3.778  14.087  0.3441 -0.4141  0.4754
 2930SOL    HW120423   2.563   3.813  13.999 -2.2582 -0.7001  0.7147
 2930SOL    HW220424   2.492   3.802  14.127 -0.8936  0.1234 -2.3840
 2931SOL     OW20425   0.378   2.471   6.040 -0.2524  0.2564 -0.1093
 2931SOL    HW120426   0.396   2.498   6.130  1.2183  1.7781 -0.8682
 2931SOL    HW220427   0.326   2.391   6.052 -0.2585  0.3358  0.4156
 2932SOL     OW20428   4.709   2.963   0.861 -0.1150  0.3317  0.2316
 2932SOL    HW120429   4.712   3.029   0.791  1.1280 -1.3211 -1.2906
 2932SOL    HW220430   0.023   3.001   0.933  0.9464 -1.0523  0.2059
 2933SOL     OW20431   3.649   4.571  14.892 -0.2879 -0.0273 -0.2764
 2933SOL    HW120432   3.638   4.637  14.961 -3.0878  0.5548 -1.2640
 2933SOL    HW220433   3.738   4.586  14.861 -0.6687 -3.0260 -2.7446
 2934SOL     OW20434   3.024   1.555  14.393 -0.1512  0.5143 -0.0066
 2934SOL    HW120435   3.077   1.510  14.459 -2.2943  0.6404  1.8372
 2934SOL    HW220436   3.036   1.497  14.318 -0.5918  1.0492 -0.4885
 2935SOL     OW20437   1.805   1.516   6.566 -0.0713 -0.0700  0.6465
 2935SOL    HW120438   1.806   1.421   6.574  1.1566  0.0175  1.4590
 2935SOL    HW220439   1.715   1.525   6.533  1.5230  1.1406 -3.3394
 2936SOL     OW20440   3.517   2.707  15.434 -0.2719 -0.0467 -0.1695
 2936SOL    HW120441   3.587   2.772  15.432  0.7315 -1.1722 -2.1277
 2936SOL    HW220442   3.565   2.645  15.489 -2.0273 -2.1382 -0.9747
 2937SOL     OW20443   3.329   4.689  15.513 -0.1311 -0.0753 -0.4696
 2937SOL    HW120444   3.367   4.626  15.452  1.2594 -1.4492  1.7994
 2937SOL    HW220445   3.382   0.032  15.511 -1.4181  0.8664  2.8899
 2938SOL     OW20446   3.311   4.205   1.901 -0.8993 -0.5316 -0.0836
 2938SOL    HW120447   3.345   4.166   1.981 -1.2357 -1.2023 -0.2628
 2938SOL    HW220448   3.373   4.274   1.877  1.9390 -3.7400 -1.9762
 2939SOL     OW20449   2.815   2.512   6.029 -0.3326  0.6406 -0.0664
 2939SOL    HW120450   2.780   2.524   6.117  0.3959 -0.3133  0.3556
 2939SOL    HW220451   2.816   2.604   6.002  0.0200  0.9729  1.0984
 2940SOL     OW20452   0.941   2.671  13.754  0.4326  0.1474 -0.7170
 2940SOL    HW120453   0.945   2.576  13.745 -1.5107 -0.1369  1.4190
 2940SOL    HW220454   0.846   2.678  13.755  0.4750  0.7089  0.0604
 2941SOL     OW20455   0.074   2.432   9.023  0.3406  0.6628 -0.2522
 2941SOL    HW120456   0.070   2.506   8.963  1.4715  2.8980  2.4485
 2941SOL    HW220457   0.083   2.352   8.971  0.5526  1.7412 -1.8909
 2942SOL     OW20458   4.119   0.885   1.592 -0.1888 -0.7678 -0.1392
 2942SOL    HW120459   4.095   0.977   1.578  1.3304 -0.6111 -1.7045
 2942SOL    HW220460   4.188   0.894   1.657 -0.1448  0.8454 -0.4080
 2943SOL     OW20461   1.129   3.292   5.257 -0.6548 -0.4406  0.0034
 2943SOL    HW120462   1.064   3.362   5.252  0.5801  0.6301 -1.3311
 2943SOL    HW220463   1.063   3.229   5.286  0.5011 -1.1859  1.0089
 2944SOL     OW20464   3.681   3.347   7.767 -0.1271 -0.1242  0.2661
 2944SOL    HW120465   3.775   3.351   7.787 -0.4774  3.0399  1.2845
 2944SOL    HW220466   3.671   3.252   7.778  0.3688 -0.0537  1.3470
 2945SOL     OW20467   0.008   1.328   7.440 -0.8440 -0.0481  0.4916
 2945SOL    HW120468   4.686   1.375   7.499  0.3786  0.0408  1.6391
 2945SOL    HW220469   0.031   1.261   7.504  1.8104 -1.0647 -1.5038
 2946SOL     OW20470   4.131   4.312   2.928  0.2001  0.4263 -0.1760
 2946SOL    HW120471   4.185   4.348   2.858 -0.4911 -1.3243 -1.6212
 2946SOL    HW220472   4.041   4.337   2.907  0.5861  1.8484 -0.1432
 2947SOL     OW20473   2.554   1.091  13.612  0.6694 -0.7295 -0.2326
 2947SOL    HW120474   2.603   1.009  13.610  1.0896 -0.4679 -0.8198
 2947SOL    HW220475   2.577   1.118  13.523  0.0877 -1.4285 -0.5988
 2948SOL     OW20476   2.851   4.036  11.293  0.4149 -0.8595 -0.1408
 2948SOL    HW120477   2.924   4.005  11.239  1.0968  0.0261  0.2826
 2948SOL    HW220478   2.787   3.965  11.283 -0.2683 -0.2052 -0.4258
 2949SOL     OW20479   0.063   4.188   2.402  0.2426 -0.4839  0.6115
 2949SOL    HW120480   4.731   4.173   2.337  0.3242  2.7838 -0.2093
 2949SOL    HW220481   0.037   4.270   2.443  1.0047 -0.9562  2.0215
 2950SOL     OW20482   4.128   2.387   5.568  0.3032  0.2593 -0.1775
 2950SOL    HW120483   4.064   2.395   5.638 -1.2465 -0.9488 -1.4405
 2950SOL    HW220484   4.080   2.394   5.485 -0.2949  1.1150  0.2485
 2951SOL     OW20485   2.500   1.872   0.495 -0.2941  0.4122  0.3791
 2951SOL    HW120486   2.513   1.780   0.472 -2.4996  0.2216 -0.1287
 2951SOL    HW220487   2.571   1.889   0.557  0.0324 -1.3706  0.4946
 2952SOL     OW20488   1.444   4.364   8.069 -0.2574 -0.0313  0.1350
 2952SOL    HW120489   1.405   4.307   8.134 -0.7423  0.8682  0.6295
 2952SOL    HW220490   1.478   4.423   8.136  3.0609 -0.5957 -1.0133
 2953SOL     OW20491   1.701   3.312   3.247  0.0626  0.3443 -0.0310
 2953SOL    HW120492   1.790   3.300   3.214 -0.0842  0.9120 -0.6444
 2953SOL    HW220493   1.718   3.246   3.314 -0.7157 -0.3327 -0.4955
 2954SOL     OW20494   0.176   1.558   9.740  0.0377 -0.1324 -0.4025
 2954SOL    HW120495   0.172   1.471   9.699 -1.3423 -0.4631  0.4464
 2954SOL    HW220496   0.123   1.608   9.678  1.5393 -0.0895 -1.6499
 2955SOL     OW20497   0.576   3.254   5.940  0.3757  0.1821  0.2993
 2955SOL    HW120498   0.498   3.241   5.993  0.8642 -0.6624  0.8025
 2955SOL    HW220499   0.612   3.323   5.995  0.5034 -0.7872  1.4162
 2956SOL     OW20500   0.145   4.272   3.458 -0.1258 -0.5219 -0.4912
 2956SOL    HW120501   0.156   4.367   3.455 -0.4080 -0.4720  0.0972
 2956SOL    HW220502   0.062   4.266   3.505  0.0477  1.2908  0.0460
 2957SOL     OW20503   3.754   0.723  17.457 -0.2012 -0.4951  0.2339
 2957SOL    HW120504   3.831   0.759  17.501  0.4070 -1.7963  0.2326
 2957SOL    HW220505   3.692   0.721  17.530 -0.4006 -2.6827  0.0038
 2958SOL     OW20506   0.278   3.321   5.245  0.3057  0.1307 -0.1829
 2958SOL    HW120507   0.205   3.375   5.217 -0.7852 -1.1652  0.1688
 2958SOL    HW220508   0.239   3.262   5.309 -1.1957  0.2150 -1.0354
 2959SOL     OW20509   0.532   2.612   0.862 -0.4585  0.1360 -0.0858
 2959SOL    HW120510   0.491   2.559   0.930 -0.1050 -1.9151 -1.4721
 2959SOL    HW220511   0.483   2.692   0.882 -0.9240 -1.0458  3.4936
 2960SOL     OW20512   4.191   0.925   6.903 -0.7963  0.8811  0.1408
 2960SOL    HW120513   4.268   0.867   6.898 -2.3492 -1.0041 -1.8499
 2960SOL    HW220514   4.128   0.859   6.874  0.0855 -0.4154  1.1223
 2961SOL     OW20515   1.024   1.544   6.541 -0.2362  0.1421 -0.2885
 2961SOL    HW120516   1.002   1.494   6.620  2.2988 -0.8145 -0.1980
 2961SOL    HW220517   1.099   1.592   6.574  0.2194 -1.6454  1.2899
 2962SOL     OW20518   4.227   2.820   8.637 -0.5561 -1.2403  0.0168
 2962SOL    HW120519   4.243   2.874   8.714 -0.5697 -1.1717 -0.0281
 2962SOL    HW220520   4.304   2.843   8.584  0.0028  0.1135  1.4160
 2963SOL     OW20521   4.625   4.366   2.626 -0.0618 -0.4850 -0.4101
 2963SOL    HW120522   4.653   4.305   2.693 -2.9862  1.4190  2.5710
 2963SOL    HW220523   4.530   4.356   2.636 -0.2581  1.6129  0.0133
 2964SOL     OW20524   3.609   3.565   1.328  0.3773 -0.5181  0.0450
 2964SOL    HW120525   3.631   3.547   1.236  1.2284 -2.0845  0.5452
 2964SOL    HW220526   3.592   3.659   1.328  1.8744 -0.2478  0.1142
 2965SOL     OW20527   3.430   1.239  17.377  0.2490 -0.3248  0.2177
 2965SOL    HW120528   3.514   1.264  17.338  1.4427 -0.0935  2.9196
 2965SOL    HW220529   3.445   1.145  17.388  1.1424  0.0261  2.0074
 2966SOL     OW20530   1.706   2.846   0.402 -0.2914  0.1531 -0.6013
 2966SOL    HW120531   1.675   2.823   0.490  1.3111  0.6531  0.0850
 2966SOL    HW220532   1.659   2.780   0.351  0.9043 -1.4201  0.3474
 2967SOL     OW20533   3.247   2.642   3.943 -0.3987 -0.0441 -0.3048
 2967SOL    HW120534   3.296   2.644   3.861  0.2654  0.1751  0.0986
 2967SOL    HW220535   3.231   2.735   3.953 -2.2654 -0.4834  0.7977
 2968SOL     OW20536   1.749   3.536   5.576 -0.7158 -0.3753 -0.0274
 2968SOL    HW120537   1.714   3.606   5.631 -1.7408 -1.4469  0.6681
 2968SOL    HW220538   1.804   3.493   5.641  0.2828  0.7401 -0.1253
 2969SOL     OW20539   3.201   3.457   6.640 -0.5331 -0.2093 -0.4886
 2969SOL    HW120540   3.157   3.500   6.567 -0.2498  1.0534  0.0873
 2969SOL    HW220541   3.130   3.398   6.666  0.9398 -1.6520  0.2161
 2970SOL     OW20542   0.762   1.368   7.223 -0.2559 -0.1711 -0.2957
 2970SOL    HW120543   0.801   1.292   7.180  1.0964  0.1155  0.4531
 2970SOL    HW220544   0.673   1.334   7.236 -0.8412  0.9417 -1.3893
 2971SOL     OW20545   3.058   2.332   7.655 -0.2482 -0.0800 -0.2797
 2971SOL    HW120546   3.027   2.415   7.691  0.9192 -0.4843  1.6846
 2971SOL    HW220547   3.104   2.296   7.731 -3.2487 -0.7936  1.2202
 2972SOL     OW20548   1.106   1.549  16.042 -0.2123 -0.8913 -0.4446
 2972SOL    HW120549   1.096   1.463  16.083  0.1423 -1.0154 -0.6233
 2972SOL    HW220550   1.180   1.577  16.096 -0.8322  0.4467 -0.2912
 2973SOL     OW20551   1.831   2.810   6.878  0.1841  0.0931 -0.1890
 2973SOL    HW120552   1.862   2.825   6.968  1.8176 -2.2748 -0.3785
 2973SOL    HW220553   1.873   2.725   6.867 -1.4731 -0.5030 -1.7973
 2974SOL     OW20554   1.724   4.042   5.920  0.7963  0.4781  0.4332
 2974SOL    HW120555   1.674   3.982   5.975 -1.6737  3.0927  1.0206
 2974SOL    HW220556   1.794   4.067   5.980  2.1015  2.4334 -1.9188
 2975SOL     OW20557   2.988   1.215   4.649  0.1090 -0.1012 -0.8335
 2975SOL    HW120558   2.984   1.139   4.590  2.1244 -0.1646 -0.8753
 2975SOL    HW220559   3.072   1.255   4.629 -0.3316  0.4437 -1.5835
 2976SOL     OW20560   2.404   0.053   3.219  0.1782  0.5964 -0.0260
 2976SOL    HW120561   2.450   0.136   3.224  1.3869 -0.0654 -0.1265
 2976SOL    HW220562   2.424   0.017   3.132  0.9850 -2.4094  1.3835
 2977SOL     OW20563   4.150   4.709   7.737 -0.1257 -0.0500  0.3622
 2977SOL    HW120564   4.101   0.054   7.728  1.6096  0.9532 -0.0271
 2977SOL    HW220565   4.099   4.657   7.674  1.1063  2.5199 -2.7539
 2978SOL     OW20566   1.297   3.774   3.726  0.4860 -0.2610 -0.0511
 2978SOL    HW120567   1.328   3.733   3.645  0.6646  0.2199 -0.2244
 2978SOL    HW220568   1.292   3.866   3.702  0.1766 -0.8532 -2.2381
 2979SOL     OW20569   0.331   2.760   1.892  0.2224 -0.1876 -0.4448
 2979SOL    HW120570   0.238   2.778   1.880  0.0419 -1.0060 -0.2773
 2979SOL    HW220571   0.337   2.721   1.980  0.8347 -0.8964 -0.7959
 2980SOL     OW20572   1.299   0.239   5.408  0.3507 -0.1914 -0.0162
 2980SOL    HW120573   1.262   0.326   5.392  1.1311  0.5732  2.3113
 2980SOL    HW220574   1.372   0.255   5.468  0.0735  1.7990 -0.1999
 2981SOL     OW20575   4.461   4.539   8.923  0.5948 -1.1995 -0.2031
 2981SOL    HW120576   4.445   4.633   8.926 -1.6003 -1.5559 -0.8583
 2981SOL    HW220577   4.434   4.521   8.833 -3.0422 -0.4706  0.7126
 2982SOL     OW20578   4.483   3.394  13.522 -0.0175  0.2334  0.1941
 2982SOL    HW120579   4.414   3.334  13.548 -1.8032  1.6560 -1.3045
 2982SOL    HW220580   4.530   3.331  13.467 -1.4843 -1.4845  0.9010
 2983SOL     OW20581   2.920   4.283   5.267 -0.3130  0.0523 -0.2013
 2983SOL    HW120582   2.993   4.319   5.218  0.6819 -1.5494  0.1142
 2983SOL    HW220583   2.887   4.222   5.201 -0.9619  0.1549  0.0232
 2984SOL     OW20584   4.637   2.693   8.767  0.1994 -0.3848  0.0646
 2984SOL    HW120585   4.724   2.717   8.797  1.0228  0.2948 -2.8450
 2984SOL    HW220586   4.647   2.683   8.672  1.4005  1.7707 -0.0238
 2985SOL     OW20587   4.059   2.081   1.731  0.1776 -0.2219  0.8703
 2985SOL    HW120588   3.988   2.087   1.796 -0.5477  0.4033  0.0208
 2985SOL    HW220589   4.005   2.042   1.662  0.3065  0.4929  0.3598
 2986SOL     OW20590   2.835   0.870   6.037 -0.4519  0.6241 -0.1343
 2986SOL    HW120591   2.763   0.899   5.981 -1.0140 -1.1796 -0.3613
 2986SOL    HW220592   2.903   0.877   5.970 -0.3820  1.6391  0.0403
 2987SOL     OW20593   0.427   0.595   3.812 -0.2589 -0.6237  0.2484
 2987SOL    HW120594   0.487   0.670   3.810 -1.9100  0.7010  0.6652
 2987SOL    HW220595   0.470   0.543   3.744  3.5308  1.7462  0.7710
 2988SOL     OW20596   0.173   2.901   3.079  0.6537  0.0508 -0.4115
 2988SOL    HW120597   0.096   2.846   3.092  1.8564 -1.4662  0.2899
 2988SOL    HW220598   0.146   2.979   3.128 -3.4393 -1.0784 -0.8603
 2989SOL     OW20599   0.985   4.357  10.061 -0.1089 -0.4794  0.8701
 2989SOL    HW120600   0.906   4.313  10.032  1.5771 -1.6730 -1.9477
 2989SOL    HW220601   1.056   4.301  10.030 -1.0120 -1.4747  0.6367
 2990SOL     OW20602   4.032   0.558   2.282 -0.2247 -0.2530 -0.4790
 2990SOL    HW120603   3.975   0.614   2.230 -1.3600  0.1262  1.1635
 2990SOL    HW220604   4.067   0.508   2.208  0.0096 -1.4402  0.4267
 2991SOL     OW20605   1.522   0.656   3.643 -0.4471  0.5121 -0.0877
 2991SOL    HW120606   1.553   0.565   3.649  0.0821  0.7082  0.2016
 2991SOL    HW220607   1.508   0.670   3.737  2.5094  1.1381  0.2587
 2992SOL     OW20608   2.202   0.230   6.708 -0.0665 -0.0082 -0.3492
 2992SOL    HW120609   2.216   0.146   6.752  1.5928 -0.3016 -1.4251
 2992SOL    HW220610   2.128   0.257   6.762  0.6551  0.0134  0.6310
 2993SOL     OW20611   3.159   4.631   7.631  0.0972  0.2242  0.1747
 2993SOL    HW120612   3.069   4.629   7.662 -0.1896 -1.1253 -0.7465
 2993SOL    HW220613   3.153   4.555   7.573  1.3443  0.7366 -0.6556
 2994SOL     OW20614   4.183   1.700   7.644 -0.3757  0.0040 -0.4565
 2994SOL    HW120615   4.251   1.637   7.619  1.3563  0.4883  3.1556
 2994SOL    HW220616   4.162   1.671   7.732 -1.3892  0.6754 -0.4781
 2995SOL     OW20617   1.303   0.716   3.312 -0.0618  0.0322  0.1812
 2995SOL    HW120618   1.242   0.645   3.334 -1.0489  0.9859  0.5824
 2995SOL    HW220619   1.262   0.757   3.235 -2.2030 -0.2431  1.1615
 2996SOL     OW20620   2.167   4.455  12.005  0.4474 -0.3871  0.2418
 2996SOL    HW120621   2.078   4.431  12.032 -0.1432  0.5530 -0.8597
 2996SOL    HW220622   2.151   4.537  11.958 -0.1763 -0.7881 -0.2400
 2997SOL     OW20623   4.518   1.957  12.979  0.2353 -0.0817  0.1403
 2997SOL    HW120624   4.423   1.952  12.969 -0.0569  1.8969  1.7075
 2997SOL    HW220625   4.532   2.052  12.982  1.7117 -0.3270  0.7922
 2998SOL     OW20626   0.656   2.612  13.697  0.4186 -0.4114  0.0786
 2998SOL    HW120627   0.613   2.648  13.774 -1.7961 -2.6947 -0.0626
 2998SOL    HW220628   0.597   2.639  13.626  0.8406 -0.0603 -0.1417
 2999SOL     OW20629   2.412   1.014   0.438 -0.3415 -0.2556 -0.7328
 2999SOL    HW120630   2.382   1.078   0.503  2.0866  0.2348 -0.1152
 2999SOL    HW220631   2.347   1.028   0.369 -0.1521  1.8675 -0.4786
 3000SOL     OW20632   3.584   3.098   4.597 -0.4806  0.3213  0.1908
 3000SOL    HW120633   3.549   3.098   4.686 -0.0528  0.0448  0.3576
 3000SOL    HW220634   3.507   3.134   4.552 -0.4410 -1.5400 -1.3734
 3001SOL     OW20635   0.844   3.584   7.115 -0.0906  0.8426 -0.4014
 3001SOL    HW120636   0.938   3.564   7.115 -0.2628  0.0458  2.6733
 3001SOL    HW220637   0.848   3.675   7.145  0.6746  1.4052 -2.1823
 3002SOL     OW20638   2.854   4.600   7.978 -0.0612  0.2211 -0.5077
 3002SOL    HW120639   2.902   4.635   8.053 -2.3097 -0.6526  1.3152
 3002SOL    HW220640   2.829   4.511   8.003  2.4098 -0.6733 -1.1513
 3003SOL     OW20641   2.925   0.317   1.094 -0.2237 -0.1411  0.3064
 3003SOL    HW120642   2.978   0.238   1.091  0.7358  0.5382 -0.8306
 3003SOL    HW220643   2.939   0.346   1.184  1.1755 -0.0846  0.0771
 3004SOL     OW20644   3.211   1.907   6.582 -0.2233 -0.4108  0.1560
 3004SOL    HW120645   3.166   1.853   6.647  1.0534  0.4521  1.7791
 3004SOL    HW220646   3.293   1.858   6.570  0.5500  0.9070  0.0048
 3005SOL     OW20647   0.148   2.787   8.868 -0.2411 -0.3666 -0.2988
 3005SOL    HW120648   0.238   2.772   8.838 -0.2503 -1.4421  0.2179
 3005SOL    HW220649   0.153   2.813   8.960 -0.7907 -0.7561 -0.1604
 3006SOL     OW20650   2.721   4.417   4.879 -0.5521  0.0076 -0.3495
 3006SOL    HW120651   2.733   4.435   4.972  0.3803 -0.4169 -0.3867
 3006SOL    HW220652   2.795   4.461   4.838  0.7170 -0.2662  1.6317
 3007SOL     OW20653   3.969   3.198   5.592 -0.6529 -0.4582 -0.4218
 3007SOL    HW120654   3.875   3.204   5.610 -0.2932  0.7418  1.0644
 3007SOL    HW220655   3.981   3.105   5.611 -1.8152 -0.8605 -1.6839
 3008SOL     OW20656   1.532   4.207  10.122  0.1716 -0.0870  0.4644
 3008SOL    HW120657   1.531   4.157  10.040 -0.2989 -0.1133  0.4883
 3008SOL    HW220658   1.589   4.279  10.096 -0.3007  0.4648  0.9775
 3009SOL     OW20659   2.341   4.551  16.401  0.1904  0.1853  0.4856
 3009SOL    HW120660   2.281   4.574  16.330  0.2216  1.0355  0.7337
 3009SOL    HW220661   2.298   4.472  16.432 -1.5680  0.2409 -1.7980
 3010SOL     OW20662   3.971   4.115   2.101  0.4555  0.0875 -0.0738
 3010SOL    HW120663   3.989   4.051   2.169 -1.3460 -0.7730 -0.3983
 3010SOL    HW220664   4.044   4.091   2.044  0.7550 -2.4371  1.3990
 3011SOL     OW20665   3.810   0.534   6.077  0.6283  0.3084 -0.4805
 3011SOL    HW120666   3.834   0.552   5.986 -0.6736 -1.3496 -1.1541
 3011SOL    HW220667   3.864   0.456   6.092  2.9587  2.3454  1.6853
 3012SOL     OW20668   3.469   2.697   8.251  0.2057 -0.1950 -0.3234
 3012SOL    HW120669   3.453   2.791   8.257 -2.7597 -0.6065 -1.6361
 3012SOL    HW220670   3.412   2.668   8.322 -1.7861 -0.3606 -1.9707
 3013SOL     OW20671   3.222   0.596   5.634  0.0658  0.4871  0.4849
 3013SOL    HW120672   3.308   0.598   5.675  0.2392  0.5931  0.1191
 3013SOL    HW220673   3.235   0.509   5.596 -0.1524  0.4904  0.4018
 3014SOL     OW20674   1.424   1.856   3.774  0.1187 -0.3117  0.2936
 3014SOL    HW120675   1.479   1.883   3.847  1.1343 -0.2804 -0.4871
 3014SOL    HW220676   1.334   1.836   3.800 -0.2905 -0.0208 -0.9014
 3015SOL     OW20677   4.038   2.694   4.720  0.6139  0.2833 -0.2645
 3015SOL    HW120678   3.963   2.692   4.780 -0.5863 -0.8355 -1.7894
 3015SOL    HW220679   4.014   2.765   4.661  0.2695  0.4243  0.0466
 3016SOL     OW20680   4.589   1.020   3.655 -0.4337  0.1741  0.3982
 3016SOL    HW120681   4.606   1.103   3.610  2.0445 -1.2184 -1.2340
 3016SOL    HW220682   4.601   0.956   3.585  1.3557 -0.3231  1.1627
 3017SOL     OW20683   2.931   2.103  13.922 -0.2203 -0.0384 -0.3464
 3017SOL    HW120684   2.930   2.133  13.831 -1.0781  2.1064  0.3630
 3017SOL    HW220685   2.915   2.009  13.915 -0.1938 -0.0427 -0.3502
 3018SOL     OW20686   2.055   0.435   8.787 -0.4735 -0.1548 -0.2082
 3018SOL    HW120687   2.126   0.469   8.842 -0.0691 -1.3852  0.0282
 3018SOL    HW220688   1.998   0.512   8.787  1.8256  1.5541 -0.8438
 3019SOL     OW20689   0.011   0.061   3.057 -0.2863  0.5041 -0.0716
 3019SOL    HW120690   4.671   0.017   3.093 -0.8231  1.0405 -0.5610
 3019SOL    HW220691   0.010   0.049   2.963  0.1948 -1.3827  0.1644
 3020SOL     OW20692   2.307   4.292   8.582 -0.1237  0.3377 -0.3304
 3020SOL    HW120693   2.312   4.380   8.617 -0.3314  0.4494 -0.5764
 3020SOL    HW220694   2.309   4.239   8.661  2.8877  0.6956 -0.1550
 3021SOL     OW20695   0.419   4.546   6.627 -0.6506 -0.2701  0.3169
 3021SOL    HW120696   0.498   4.511   6.586 -2.0748  0.8012 -3.2983
 3021SOL    HW220697   0.359   4.569   6.556  0.8443  0.8350 -0.5845
 3022SOL     OW20698   1.086   2.731   2.043 -0.2751 -0.1564 -0.5494
 3022SOL    HW120699   1.093   2.659   1.979  1.2583  0.5101 -1.1280
 3022SOL    HW220700   1.158   2.792   2.030 -0.9281  1.0261  1.4297
 3023SOL     OW20701   2.243   0.048  11.597  0.0687 -0.3461  0.1039
 3023SOL    HW120702   2.286   0.051  11.512 -2.2471 -1.7424 -1.1072
 3023SOL    HW220703   2.271   0.131  11.634 -0.1550 -0.4727  0.5670
 3024SOL     OW20704   0.619   4.331   7.840 -0.2088 -0.1752  0.0081
 3024SOL    HW120705   0.710   4.301   7.844  0.0940  0.5543 -1.5873
 3024SOL    HW220706   0.605   4.307   7.749  0.2177 -0.0720 -0.0818
 3025SOL     OW20707   2.037   0.697   5.892 -0.1253  0.0747 -0.3696
 3025SOL    HW120708   1.986   0.702   5.974  2.5106  0.0688  1.2540
 3025SOL    HW220709   1.980   0.738   5.827 -1.3062  0.9457  1.1880
 3026SOL     OW20710   1.315   2.667  15.767  0.2099  0.7930 -0.5242
 3026SOL    HW120711   1.284   2.757  15.774 -2.3721 -0.1023 -0.4470
 3026SOL    HW220712   1.276   2.641  15.683  0.0147 -0.2033 -0.1175
 3027SOL     OW20713   1.259   0.491   7.000  0.5856 -0.3106 -0.0305
 3027SOL    HW120714   1.250   0.586   7.007 -0.9792 -0.3269 -1.9188
 3027SOL    HW220715   1.349   0.481   6.968  1.1665  2.1867  0.7923
 3028SOL     OW20716   3.704   0.655   3.219  0.2452 -0.1127  0.1033
 3028SOL    HW120717   3.797   0.668   3.205  0.3615 -1.1737 -0.0882
 3028SOL    HW220718   3.708   0.618   3.307 -0.1422  1.2740  0.7029
 3029SOL     OW20719   4.700   2.230   6.855  0.1105 -0.6360  0.0897
 3029SOL    HW120720   0.019   2.244   6.932  0.0795 -1.6823  0.2925
 3029SOL    HW220721   4.634   2.297   6.873  0.3564 -0.4018  0.1229
 3030SOL     OW20722   2.089   0.210   3.341 -0.4653  0.4178  0.3089
 3030SOL    HW120723   2.113   0.210   3.434 -0.7293 -2.8297  0.3890
 3030SOL    HW220724   2.155   0.277   3.320  0.4152 -0.1075  1.3970
 3031SOL     OW20725   1.311   1.558   0.379 -0.2958 -0.1441  0.2265
 3031SOL    HW120726   1.239   1.582   0.438  1.5042 -0.5420  2.5604
 3031SOL    HW220727   1.318   1.642   0.334  3.0611 -0.0558  0.9199
 3032SOL     OW20728   2.652   2.234  11.684 -0.5854  0.1124  0.2243
 3032SOL    HW120729   2.588   2.301  11.706 -0.8877  0.0378 -0.4322
 3032SOL    HW220730   2.681   2.212  11.773  0.8554 -0.3236 -0.3522
 3033SOL     OW20731   3.027   2.185   8.273 -0.4684  0.3709  0.7933
 3033SOL    HW120732   3.005   2.237   8.196  1.0169  2.7883  2.0053
 3033SOL    HW220733   3.053   2.101   8.235  0.4998  0.0621  2.1339
 3034SOL     OW20734   2.003   3.751  16.187  0.3109  0.5586  0.8759
 3034SOL    HW120735   1.925   3.706  16.155  0.6154 -0.1506  1.1250
 3034SOL    HW220736   2.056   3.765  16.109  1.1772 -0.5276  1.2747
 3035SOL     OW20737   3.899   2.946  12.069 -0.2149 -0.1067 -0.9736
 3035SOL    HW120738   3.927   2.879  12.007  1.4046  1.6194 -2.0943
 3035SOL    HW220739   3.961   3.014  12.046  0.3821 -0.1588  0.4943
 3036SOL     OW20740   2.275   3.359  16.892  0.5568 -0.1773 -0.2122
 3036SOL    HW120741   2.305   3.349  16.802 -2.6648  2.2939 -1.5314
 3036SOL    HW220742   2.339   3.308  16.943  0.9870  0.1265 -0.4513
 3037SOL     OW20743   3.251   3.979   8.983 -0.3723 -0.0874 -0.3612
 3037SOL    HW120744   3.215   3.891   8.987 -0.0221 -0.1383  1.8758
 3037SOL    HW220745   3.256   4.003   9.076 -0.1867 -0.2425 -0.3321
 3038SOL     OW20746   2.653   3.815   1.804 -0.5746  0.7110 -0.1204
 3038SOL    HW120747   2.562   3.816   1.834 -0.3529  3.3042  0.5217
 3038SOL    HW220748   2.639   3.749   1.737 -0.2198  0.2062  0.2973
 3039SOL     OW20749   1.159   2.974  14.122  0.7706  0.1176 -0.6414
 3039SOL    HW120750   1.183   3.029  14.048  1.2265 -0.4521 -0.9223
 3039SOL    HW220751   1.098   2.907  14.092 -0.2269  1.0668 -0.7153
 3040SOL     OW20752   3.249   0.312  12.404 -0.5171  0.0567 -0.2366
 3040SOL    HW120753   3.153   0.306  12.394 -0.5081  0.7996 -0.7686
 3040SOL    HW220754   3.267   0.259  12.481 -1.0923 -2.3726 -1.7572
 3041SOL     OW20755   0.155   3.645  14.725 -0.0801 -0.2134  0.1467
 3041SOL    HW120756   0.244   3.628  14.755  0.3609  1.2573 -0.3199
 3041SOL    HW220757   0.142   3.736  14.752  0.5105  0.2522 -1.1659
 3042SOL     OW20758   4.088   1.505   2.665  0.6716 -0.1977 -0.0120
 3042SOL    HW120759   4.166   1.519   2.611 -0.4138 -1.1710 -1.8419
 3042SOL    HW220760   4.137   1.481   2.743 -0.1790  1.6832  1.1049
 3043SOL     OW20761   3.561   3.557   5.594  0.0247 -0.1412 -0.2026
 3043SOL    HW120762   3.539   3.469   5.564  1.1183 -0.4840 -0.0023
 3043SOL    HW220763   3.513   3.610   5.530  0.4302  1.3232  0.7011
 3044SOL     OW20764   2.926   4.115   4.229  0.2519 -0.3722  0.2411
 3044SOL    HW120765   2.862   4.173   4.188 -0.2052 -0.5402  0.7059
 3044SOL    HW220766   2.904   4.044   4.169 -0.3950 -0.5592  0.7013
 3045SOL     OW20767   4.359   2.787   5.962 -0.0327  0.2043 -0.0485
 3045SOL    HW120768   4.392   2.752   6.045 -0.5824 -1.5363 -0.5646
 3045SOL    HW220769   4.306   2.857   6.000  1.4767  1.1587  0.3184
 3046SOL     OW20770   0.349   4.647   1.783 -0.0992 -0.6689 -0.2238
 3046SOL    HW120771   0.419   4.614   1.727  0.7319  2.0218 -0.7874
 3046SOL    HW220772   0.311   4.717   1.731  0.7450  0.1476  0.2600
 3047SOL     OW20773   1.158   0.231   8.170  0.1623 -0.3220 -0.5155
 3047SOL    HW120774   1.171   0.240   8.265 -2.1514 -2.7372  0.0280
 3047SOL    HW220775   1.224   0.167   8.143  0.7422  1.3783 -3.1150
 3048SOL     OW20776   1.220   1.815   5.752  0.2735 -0.5254  0.6072
 3048SOL    HW120777   1.171   1.847   5.828 -0.7340 -1.9315  0.5464
 3048SOL    HW220778   1.163   1.840   5.679  1.6513  2.9715  0.7288
 3049SOL     OW20779   3.233   0.380   2.024  0.6521  0.0693  0.1511
 3049SOL    HW120780   3.167   0.448   2.039 -0.3124 -0.6152 -1.0087
 3049SOL    HW220781   3.206   0.340   1.941 -0.2949  0.2996  0.3412
 3050SOL     OW20782   1.103   0.571   8.081  0.2680  0.7235  0.2412
 3050SOL    HW120783   1.119   0.627   8.004 -1.4796  1.3954  0.3665
 3050SOL    HW220784   1.088   0.485   8.041 -1.0053  1.2960 -0.5290
 3051SOL     OW20785   1.359   3.899   6.264 -0.2544  0.0884 -0.4451
 3051SOL    HW120786   1.321   3.911   6.351 -2.2035 -0.3067 -1.2414
 3051SOL    HW220787   1.392   3.810   6.272  0.5310  0.4484  0.3295
 3052SOL     OW20788   4.420   4.315   5.418 -0.0331  0.1404  0.1319
 3052SOL    HW120789   4.428   4.268   5.335 -1.6204  0.7318 -0.3396
 3052SOL    HW220790   4.511   4.313   5.449  0.3822 -0.5251 -1.1444
 3053SOL     OW20791   1.119   3.525   6.692 -0.2123  0.6030  0.2941
 3053SOL    HW120792   1.178   3.534   6.767 -0.6240 -1.9503  0.9122
 3053SOL    HW220793   1.037   3.555   6.730 -1.0407 -3.7095  1.8835
 3054SOL     OW20794   1.377   0.381   7.343 -0.1838 -0.2641 -0.5647
 3054SOL    HW120795   1.431   0.320   7.393 -0.6666  0.4876  0.8650
 3054SOL    HW220796   1.373   0.329   7.262 -3.2297 -3.0671  1.3756
 3055SOL     OW20797   0.280   3.021  10.132 -0.5976 -0.5065 -0.1622
 3055SOL    HW120798   0.319   3.010  10.219 -1.0633 -1.4383 -0.0782
 3055SOL    HW220799   0.268   2.930  10.106  1.0526 -1.5602  2.7622
 3056SOL     OW20800   3.279   1.242  14.839 -0.3790 -0.1879 -0.2582
 3056SOL    HW120801   3.368   1.207  14.848  0.4638  1.6075 -1.7058
 3056SOL    HW220802   3.232   1.228  14.922  0.2349  1.4976  0.3693
 3057SOL     OW20803   0.885   0.634   8.638 -0.2453  0.0942  0.0833
 3057SOL    HW120804   0.873   0.715   8.590 -1.8964  0.5875  1.3310
 3057SOL    HW220805   0.882   0.569   8.567  0.4936 -0.1170  0.2379
 3058SOL     OW20806   1.775   0.695   4.283  0.0901  0.0717 -0.4350
 3058SOL    HW120807   1.848   0.647   4.321  1.0159  0.6357 -1.4919
 3058SOL    HW220808   1.774   0.764   4.349 -2.1728 -0.8812  0.5268
 3059SOL     OW20809   1.022   4.036   7.484  0.1983  0.0388  0.3117
 3059SOL    HW120810   1.012   4.055   7.578 -0.9954  0.3342  0.1258
 3059SOL    HW220811   1.111   4.061   7.463  0.1659  0.6725  0.9241
 3060SOL     OW20812   1.431   1.996   6.279  0.8193  0.2859 -0.2071
 3060SOL    HW120813   1.479   2.046   6.345  2.9738 -1.8739 -0.1398
 3060SOL    HW220814   1.496   1.991   6.209  1.6353 -0.7364  0.6079
 3061SOL     OW20815   3.161   0.157   9.159 -0.0217 -0.1174 -0.3719
 3061SOL    HW120816   3.252   0.185   9.162 -0.3865  1.1043 -0.7717
 3061SOL    HW220817   3.130   0.199   9.239  0.9152 -1.6722  0.8006
 3062SOL     OW20818   3.206   0.497   3.469  0.4420 -0.9149 -0.1009
 3062SOL    HW120819   3.272   0.519   3.535 -1.7934  2.5457  0.9708
 3062SOL    HW220820   3.258   0.511   3.390  1.0337 -0.5829  0.3403
 3063SOL     OW20821   2.417   4.477   7.553  0.5575  0.7346  0.2630
 3063SOL    HW120822   2.369   4.555   7.580 -0.8067  0.5419 -1.5558
 3063SOL    HW220823   2.363   4.403   7.582 -0.9054  0.3842 -3.3444
 3064SOL     OW20824   3.451   4.353   1.734  0.0694  0.2943  0.0394
 3064SOL    HW120825   3.498   4.336   1.653 -1.2111  0.6355 -0.7859
 3064SOL    HW220826   3.382   4.400   1.686  2.9010  2.3764 -1.9749
 3065SOL     OW20827   1.403   1.731   2.848  0.6496 -0.0974  0.1538
 3065SOL    HW120828   1.483   1.682   2.870 -0.2553 -1.4945  0.3510
 3065SOL    HW220829   1.416   1.750   2.755  0.9368 -1.7764 -0.1517
 3066SOL     OW20830   0.170   2.982  12.101 -0.4439  0.3589 -0.1273
 3066SOL    HW120831   0.154   3.027  12.018 -0.0543 -0.8709 -0.8648
 3066SOL    HW220832   0.119   3.032  12.165 -0.9392 -0.0236 -0.2183
 3067SOL     OW20833   3.114   4.605  11.614 -0.6259 -0.4110  0.2107
 3067SOL    HW120834   3.131   4.568  11.701 -0.9150  0.6469  0.7118
 3067SOL    HW220835   3.117   4.534  11.550 -0.0634  0.5107 -0.7783
 3068SOL     OW20836   3.662   2.123   7.608 -0.7489  0.6656 -0.0524
 3068SOL    HW120837   3.651   2.054   7.542  0.3836  1.3254 -0.9303
 3068SOL    HW220838   3.569   2.141   7.622 -1.0850  0.7570 -2.2919
 3069SOL     OW20839   4.078   1.518   5.709 -0.4049 -0.0905 -0.4148
 3069SOL    HW120840   3.991   1.499   5.674  0.1512  0.0008 -1.8265
 3069SOL    HW220841   4.083   1.464   5.788  1.4900  0.8536  0.1245
 3070SOL     OW20842   2.498   1.444   1.995  0.3645 -0.1304 -0.6389
 3070SOL    HW120843   2.566   1.506   1.969 -1.0330  0.9706 -1.6823
 3070SOL    HW220844   2.520   1.366   1.945 -0.2676 -0.5170 -0.3182
 3071SOL     OW20845   1.293   4.148   2.397  0.0287  0.1471 -0.4272
 3071SOL    HW120846   1.387   4.142   2.380  0.4764  1.6187  1.5292
 3071SOL    HW220847   1.259   4.062   2.373 -2.3569  0.7402  0.8327
 3072SOL     OW20848   3.042   2.253  17.360  0.3463  0.4914 -0.0878
 3072SOL    HW120849   3.020   2.308  17.286 -1.2370 -0.5493 -0.3797
 3072SOL    HW220850   3.131   2.228  17.335 -1.0968 -0.2160 -4.3604
 3073SOL     OW20851   0.850   1.402   7.491  0.2594 -0.6097  0.1416
 3073SOL    HW120852   0.904   1.480   7.505  2.0179 -1.6578 -0.7593
 3073SOL    HW220853   0.842   1.398   7.395 -1.3218 -3.3069  0.3844
 3074SOL     OW20854   0.433   4.157   8.653 -0.0679  0.0487 -0.2360
 3074SOL    HW120855   0.346   4.191   8.631  0.1312  1.2025  0.8083
 3074SOL    HW220856   0.420   4.116   8.739 -1.1852 -2.8651 -1.7670
 3075SOL     OW20857   3.688   3.238  14.633 -0.0221  0.0941 -0.1917
 3075SOL    HW120858   3.681   3.199  14.720 -2.1456 -3.2898 -1.8803
 3075SOL    HW220859   3.780   3.263  14.639  0.5327 -2.0399  0.0173
 3076SOL     OW20860   1.578   0.207   6.243 -0.0462  0.0057 -0.5692
 3076SOL    HW120861   1.647   0.247   6.190  0.3431 -0.3284 -0.3198
 3076SOL    HW220862   1.497   0.228   6.195 -0.3363  0.7996  0.2667
 3077SOL     OW20863   4.265   2.188  10.745  0.0300  0.0006 -0.2518
 3077SOL    HW120864   4.341   2.185  10.687 -1.2249  1.1530 -1.9584
 3077SOL    HW220865   4.199   2.231  10.690  0.7660  1.1653 -0.2074
 3078SOL     OW20866   0.210   0.284   3.030 -0.0068 -0.6366 -0.1275
 3078SOL    HW120867   0.141   0.342   2.996  0.2771 -0.5464 -0.5472
 3078SOL    HW220868   0.160   0.203   3.027 -2.0801  0.6503 -0.7051
 3079SOL     OW20869   4.583   1.816   6.906  0.0132  0.0058  0.1452
 3079SOL    HW120870   4.660   1.764   6.929  0.1658 -0.1580 -0.7505
 3079SOL    HW220871   4.572   1.864   6.989  1.3803 -1.1210  0.9587
 3080SOL     OW20872   0.100   0.189  11.746 -0.1762 -0.0194  0.1564
 3080SOL    HW120873   0.193   0.176  11.726 -0.2145 -0.1100  0.0333
 3080SOL    HW220874   0.096   0.245  11.823  0.5282 -2.6313  2.1134
 3081SOL     OW20875   1.044   4.614   4.399 -0.4066 -0.2676  0.2890
 3081SOL    HW120876   1.085   4.578   4.321  0.0210  1.9219 -0.5174
 3081SOL    HW220877   0.974   4.667   4.359 -1.8930 -0.5396  2.5109
 3082SOL     OW20878   4.025   0.550   3.865 -0.2648 -0.5990  0.1775
 3082SOL    HW120879   4.004   0.554   3.958 -1.0984  0.8032 -0.0763
 3082SOL    HW220880   3.937   0.560   3.830  0.0191 -0.3333 -0.4514
 3083SOL     OW20881   4.537   3.662   6.420 -0.0636  0.6602 -0.0204
 3083SOL    HW120882   4.486   3.742   6.433 -0.2831  0.3613  0.9918
 3083SOL    HW220883   4.483   3.618   6.354  0.4237  0.8499 -0.5403
 3084SOL     OW20884   1.448   1.637   6.969  0.2855 -0.1832 -0.4927
 3084SOL    HW120885   1.495   1.706   7.016 -2.8579  1.4544  0.2798
 3084SOL    HW220886   1.521   1.593   6.926  1.0935  0.6018  0.0800
 3085SOL     OW20887   1.638   0.677   7.827  0.0028 -0.8328 -0.1309
 3085SOL    HW120888   1.629   0.620   7.751 -0.8013 -1.8251  0.6876
 3085SOL    HW220889   1.580   0.747   7.796  0.3546  0.6195  2.4551
 3086SOL     OW20890   1.304   1.465   8.705  0.5275  0.2506  0.0207
 3086SOL    HW120891   1.274   1.553   8.685 -1.2294 -0.4884 -0.6309
 3086SOL    HW220892   1.250   1.413   8.645  2.8536 -2.3544  0.1941
 3087SOL     OW20893   0.505   2.683   7.152  0.5285 -0.2865 -0.0788
 3087SOL    HW120894   0.517   2.593   7.182  0.2262 -0.3659 -0.1910
 3087SOL    HW220895   0.521   2.685   7.057  2.3455 -1.1118  0.1953
 3088SOL     OW20896   3.062   3.985  14.406 -0.5177  0.3645 -0.5161
 3088SOL    HW120897   3.152   3.965  14.431 -1.1952 -2.1605 -0.0781
 3088SOL    HW220898   3.042   4.071  14.443  0.3824  0.2807  0.1444
 3089SOL     OW20899   2.225   2.245   4.844  0.1629  0.0952 -0.5609
 3089SOL    HW120900   2.262   2.199   4.919 -0.8123  1.7391  0.9228
 3089SOL    HW220901   2.287   2.317   4.829  0.9548 -0.3387  0.6597
 3090SOL     OW20902   2.314   2.169   2.723  0.0345 -0.3106 -0.2365
 3090SOL    HW120903   2.338   2.234   2.789 -2.0369  0.1774  0.0456
 3090SOL    HW220904   2.224   2.166   2.755 -0.4495  0.9080 -1.5044
 3091SOL     OW20905   3.606   2.720   5.951 -0.0204 -0.5454  0.0695
 3091SOL    HW120906   3.656   2.644   5.921 -0.9972 -0.4298 -1.8579
 3091SOL    HW220907   3.551   2.679   6.019  0.8912  1.3301  1.9185
 3092SOL     OW20908   1.371   0.283  12.436 -0.2386 -0.3715  0.1340
 3092SOL    HW120909   1.461   0.250  12.435 -0.8970 -2.1432 -0.6941
 3092SOL    HW220910   1.376   0.326  12.522  1.5621 -0.0791 -0.1114
 3093SOL     OW20911   1.325   3.341   5.420 -0.1051  0.0874  0.0696
 3093SOL    HW120912   1.263   3.328   5.348  0.8433 -1.0497 -0.5347
 3093SOL    HW220913   1.319   3.436   5.425  2.5912  0.2727 -0.4012
 3094SOL     OW20914   2.619   4.644   2.668  0.1833  0.0309  0.0144
 3094SOL    HW120915   2.693   4.701   2.650  0.7280 -0.7279 -0.1169
 3094SOL    HW220916   2.659   4.576   2.614 -0.9197 -0.0039 -0.7731
 3095SOL     OW20917   2.550   0.834   6.674  0.3483 -0.6819  0.0980
 3095SOL    HW120918   2.548   0.773   6.747 -0.9191 -0.6174  0.1128
 3095SOL    HW220919   2.457   0.829   6.654  0.1077  0.2925  0.9888
 3096SOL     OW20920   3.969   3.998   7.535 -0.1768 -0.3897  0.1637
 3096SOL    HW120921   3.938   4.007   7.626 -1.9850  0.9889 -0.5985
 3096SOL    HW220922   3.901   4.032   7.477  0.0362  1.2500  0.8817
 3097SOL     OW20923   3.406   2.080  13.883 -0.8750 -0.2910  0.0198
 3097SOL    HW120924   3.378   2.156  13.934 -1.1448 -1.1011  1.0950
 3097SOL    HW220925   3.336   2.065  13.820  1.2347 -2.0818 -1.9137
 3098SOL     OW20926   0.126   3.647  13.339 -0.3286  0.4721  0.5335
 3098SOL    HW120927   0.047   3.701  13.337  0.8625  2.2916  2.1781
 3098SOL    HW220928   0.154   3.656  13.248  1.0086  3.3443  1.2151
 3099SOL     OW20929   0.205   0.790   4.093  0.0277  0.1439  0.4159
 3099SOL    HW120930   0.157   0.871   4.113  0.5100  0.5699 -0.1486
 3099SOL    HW220931   0.165   0.770   4.009 -0.7436  2.4675  0.2177
 3100SOL     OW20932   3.377   2.078   6.249 -0.1375 -0.3445  0.1504
 3100SOL    HW120933   3.331   2.107   6.171  0.0753 -0.1554  0.0956
 3100SOL    HW220934   3.326   2.112   6.322 -1.1609  1.6423 -1.4995
 3101SOL     OW20935   4.056   0.222   7.024  0.0828  0.5682 -0.1035
 3101SOL    HW120936   4.117   0.186   6.959 -2.2785  0.8901 -2.5110
 3101SOL    HW220937   4.033   0.143   7.073 -2.7958  0.9956 -0.7762
 3102SOL     OW20938   3.413   0.077   6.412  0.3943 -0.2898 -0.1544
 3102SOL    HW120939   3.348   0.122   6.358  0.6405  2.2776  1.6945
 3102SOL    HW220940   3.471   0.033   6.350  1.0413  0.5294 -0.1340
 3103SOL     OW20941   1.469   2.406   7.745 -0.5562 -0.2547 -0.0166
 3103SOL    HW120942   1.543   2.448   7.788 -0.5647  0.7445 -0.9880
 3103SOL    HW220943   1.439   2.346   7.813  2.8901 -0.4208  1.3628
 3104SOL     OW20944   4.332   0.422   4.197 -0.1763 -0.6675 -0.1177
 3104SOL    HW120945   4.391   0.400   4.269  0.1887  0.0815 -0.1936
 3104SOL    HW220946   4.278   0.493   4.232  0.6688  0.3980 -1.0003
 3105SOL     OW20947   2.944   1.001   8.654  0.2959  0.0631  0.1195
 3105SOL    HW120948   2.896   1.071   8.609  1.5379 -0.3171 -1.8177
 3105SOL    HW220949   2.904   0.931   8.603 -2.2067  0.3899  1.6184
 3106SOL     OW20950   2.334   2.994   4.745  0.1692  0.0130 -0.0769
 3106SOL    HW120951   2.284   2.946   4.811 -0.0259  0.6749  0.2496
 3106SOL    HW220952   2.297   3.082   4.736 -1.4487 -0.6083  0.4913
 3107SOL     OW20953   3.188   3.131  17.428 -0.1016  0.0357  0.0322
 3107SOL    HW120954   3.268   3.176  17.456 -0.8404  0.8421  0.8440
 3107SOL    HW220955   3.127   3.202  17.409 -1.7922 -1.4421 -0.1001
 3108SOL     OW20956   3.499   3.646   5.121  0.2498 -0.2558  0.7675
 3108SOL    HW120957   3.540   3.684   5.199 -0.4041 -0.5000  1.2257
 3108SOL    HW220958   3.502   3.554   5.147 -0.5073 -0.6982 -0.7049
 3109SOL     OW20959   0.586   0.782   7.282  0.1395  0.5689  0.0032
 3109SOL    HW120960   0.554   0.695   7.257  0.6677  0.5476 -0.5948
 3109SOL    HW220961   0.628   0.755   7.364 -2.7467 -0.1555  1.2420
 3110SOL     OW20962   0.367   0.646   2.988 -0.9345 -0.3663 -0.4185
 3110SOL    HW120963   0.448   0.645   3.040 -1.8978 -1.7593  1.0350
 3110SOL    HW220964   0.401   0.644   2.898 -1.7526  2.8681 -0.7976
 3111SOL     OW20965   1.924   2.973   7.953 -0.1581 -0.2673  0.4627
 3111SOL    HW120966   1.875   3.055   7.956 -0.3103 -0.3325 -0.1829
 3111SOL    HW220967   1.883   2.941   8.033 -1.2848  1.0969  0.4348
 3112SOL     OW20968   1.158   3.770   3.086 -0.1212 -0.3727 -0.1512
 3112SOL    HW120969   1.096   3.757   3.015 -0.0898 -0.1376 -0.2229
 3112SOL    HW220970   1.128   3.842   3.142 -1.3322 -1.5318  0.6773
 3113SOL     OW20971   4.721   4.410   3.191 -0.3761  0.0877 -0.8941
 3113SOL    HW120972   4.636   4.368   3.204 -0.9883  0.8852 -2.2357
 3113SOL    HW220973   4.734   4.472   3.262  0.5507  0.0866 -1.0561
 3114SOL     OW20974   3.136   3.409  17.365 -0.2980  0.3819 -0.1331
 3114SOL    HW120975   3.164   3.473  17.430 -2.5840  0.1955  1.0060
 3114SOL    HW220976   3.161   3.463  17.289  1.5270 -1.3408 -0.7659
 3115SOL     OW20977   0.000   0.616   9.864  0.2388 -0.2229  0.2886
 3115SOL    HW120978   0.080   0.593   9.816 -0.1972  0.6853 -0.8644
 3115SOL    HW220979   0.016   0.579   9.951 -1.0820  0.4169  0.8034
 3116SOL     OW20980   1.836   1.441   4.304  0.0486  0.1448  0.0555
 3116SOL    HW120981   1.817   1.448   4.398  1.4581  1.4985  0.2464
 3116SOL    HW220982   1.766   1.488   4.258 -2.1607 -1.4792  1.7359
 3117SOL     OW20983   4.511   3.208   8.431 -0.5934  0.3406  0.0104
 3117SOL    HW120984   4.600   3.213   8.465 -0.1409 -2.5042 -0.7264
 3117SOL    HW220985   4.476   3.280   8.483  0.2656  1.0359 -0.3707
 3118SOL     OW20986   0.563   2.374   7.347  0.1636 -0.4892 -0.2825
 3118SOL    HW120987   0.513   2.453   7.370 -0.8121 -1.2814  0.3475
 3118SOL    HW220988   0.510   2.301   7.381 -0.8669  0.9926  1.3220
 3119SOL     OW20989   1.458   1.399   2.294  0.3065  0.5321 -0.0024
 3119SOL    HW120990   1.508   1.321   2.270 -1.1643 -0.7423  1.1248
 3119SOL    HW220991   1.378   1.374   2.248 -0.0802  0.3960  0.7439
 3120SOL     OW20992   4.631   0.345   3.060 -0.0152  0.0639 -0.1764
 3120SOL    HW120993   4.675   0.270   3.100 -0.4777 -0.5503 -0.8344
 3120SOL    HW220994   4.595   0.396   3.133 -0.4550  0.1386 -0.4486
 3121SOL     OW20995   0.246   2.628  16.778 -0.1266  0.2092  0.7243
 3121SOL    HW120996   0.314   2.573  16.741 -1.2463  0.4199 -1.6322
 3121SOL    HW220997   0.285   2.715  16.791  0.7453  0.0271 -0.7280
 3122SOL     OW20998   4.659   1.888   4.350 -0.1451  0.6053 -0.5758
 3122SOL    HW120999   4.722   1.864   4.419 -1.7099 -2.6001 -0.2667
 3122SOL    HW221000   4.719   1.926   4.286 -1.4986 -0.6612 -2.5770
 3123SOL     OW21001   2.848   0.306   5.233  0.5666  0.1299  0.4990
 3123SOL    HW121002   2.758   0.298   5.203  1.2366 -3.4826 -0.5545
 3123SOL    HW221003   2.859   0.397   5.261  0.1428  0.4505 -0.3885
 3124SOL     OW21004   2.335   4.281  13.297  0.4492  0.0588  0.3146
 3124SOL    HW121005   2.369   4.347  13.236 -0.4026  1.7276  1.6196
 3124SOL    HW221006   2.411   4.226  13.315  1.6969  1.4785 -0.5885
 3125SOL     OW21007   0.658   3.529   4.691 -0.1934  0.0671 -0.4048
 3125SOL    HW121008   0.573   3.537   4.734  0.0446 -0.3859  0.1520
 3125SOL    HW221009   0.631   3.497   4.606  0.5050 -0.6828 -0.3470
 3126SOL     OW21010   2.018   2.681   4.418 -0.0994  0.1326  0.9300
 3126SOL    HW121011   2.011   2.738   4.341  0.2548 -0.2399  0.6225
 3126SOL    HW221012   2.082   2.616   4.388 -1.8716 -1.0385 -0.3125
 3127SOL     OW21013   4.150   2.794   8.951 -0.3138  0.4559 -0.3590
 3127SOL    HW121014   4.126   2.816   9.041  1.2497 -0.1568  0.2204
 3127SOL    HW221015   4.246   2.790   8.952 -0.2277  3.1452  2.5914
 3128SOL     OW21016   3.751   1.571   7.248  0.2878 -0.2853 -0.0621
 3128SOL    HW121017   3.694   1.597   7.321 -0.2428 -1.1883 -0.1562
 3128SOL    HW221018   3.836   1.564   7.292  0.7987  1.3471 -0.8097
 3129SOL     OW21019   2.735   1.750   6.321 -0.6511  0.1747  0.1874
 3129SOL    HW121020   2.785   1.682   6.366  1.7179  1.0764 -1.0810
 3129SOL    HW221021   2.679   1.773   6.395 -0.4670  3.9193 -0.8318
 3130SOL     OW21022   4.180   1.526   4.304 -0.3477  0.6286  0.2008
 3130SOL    HW121023   4.255   1.582   4.320  1.0939 -0.9280 -1.1442
 3130SOL    HW221024   4.186   1.523   4.209 -0.6068 -0.1234  0.2091
 3131SOL     OW21025   1.855   0.629   8.808 -0.3341 -0.0284  0.3920
 3131SOL    HW121026   1.918   0.699   8.793 -0.7801  0.1320 -0.7390
 3131SOL    HW221027   1.781   0.668   8.762  0.8248 -0.3211 -1.7463
 3132SOL     OW21028   2.389   0.500   2.105 -0.0483  0.2109  0.1063
 3132SOL    HW121029   2.306   0.547   2.098  0.8752  1.7063 -0.8320
 3132SOL    HW221030   2.419   0.521   2.193 -0.2659  0.0883  0.2085
 3133SOL     OW21031   0.499   2.850  17.219  0.9946  0.0715 -0.1232
 3133SOL    HW121032   0.493   2.887  17.131  1.9667 -3.8398 -1.8645
 3133SOL    HW221033   0.594   2.853  17.234  0.7697 -0.7153  1.4610
 3134SOL     OW21034   0.750   3.991   1.250 -0.0184 -0.2691 -0.6674
 3134SOL    HW121035   0.769   4.020   1.339 -0.8034 -1.8991  0.0214
 3134SOL    HW221036   0.737   4.070   1.198 -0.1901  0.3127  0.2629
 3135SOL     OW21037   3.492   3.147   2.336  0.3780  0.6598  0.0282
 3135SOL    HW121038   3.472   3.058   2.366 -0.4389  0.8131 -0.0790
 3135SOL    HW221039   3.584   3.158   2.362 -0.0577  0.1378  1.8217
 3136SOL     OW21040   1.591   0.384   3.673 -0.4176  0.4496 -0.0815
 3136SOL    HW121041   1.536   0.327   3.619  1.4204 -0.8585 -0.5468
 3136SOL    HW221042   1.677   0.364   3.638 -0.5876  2.0688 -1.4442
 3137SOL     OW21043   1.141   1.268  15.361  0.2055 -0.8047  0.1572
 3137SOL    HW121044   1.105   1.353  15.336 -1.5484 -1.7454 -0.5766
 3137SOL    HW221045   1.231   1.276  15.332  0.4245  0.7732  1.2737
 3138SOL     OW21046   0.533   1.373   3.882 -0.1021 -0.2570  0.1044
 3138SOL    HW121047   0.458   1.332   3.839 -0.0066  0.2834 -0.5831
 3138SOL    HW221048   0.492   1.416   3.956  1.9975  1.4833  0.2473
 3139SOL     OW21049   4.237   0.236   5.927 -0.0094  0.9008  0.1006
 3139SOL    HW121050   4.332   0.240   5.934  0.1628 -0.6788 -1.2241
 3139SOL    HW221051   4.217   0.264   5.837 -0.8929  0.2904  0.1060
 3140SOL     OW21052   0.562   1.110   6.314  0.5016 -0.2780 -0.1846
 3140SOL    HW121053   0.618   1.186   6.295  0.4818 -0.5493 -1.3481
 3140SOL    HW221054   0.618   1.046   6.268  2.2038  0.9942  0.1096
 3141SOL     OW21055   1.627   1.783   8.371 -0.2095 -0.0028 -0.1468
 3141SOL    HW121056   1.609   1.854   8.310  3.2552 -0.4988 -1.7213
 3141SOL    HW221057   1.709   1.816   8.407  1.2529 -1.1536 -2.4181
 3142SOL     OW21058   3.366   2.122   5.347  0.4661 -0.0974  0.4095
 3142SOL    HW121059   3.371   2.027   5.340 -1.7753 -0.1163 -0.8061
 3142SOL    HW221060   3.276   2.145   5.325 -0.5671 -3.4852  1.1508
 3143SOL     OW21061   0.872   3.793   4.098  0.2834 -0.3625 -0.0459
 3143SOL    HW121062   0.849   3.737   4.172 -2.9022 -0.0920 -0.8391
 3143SOL    HW221063   0.905   3.724   4.040  1.1403  1.2128 -1.4458
 3144SOL     OW21064   1.209   4.029  11.034  0.0842  0.1468 -1.0684
 3144SOL    HW121065   1.270   4.016  10.962  0.5588 -0.8658 -0.4926
 3144SOL    HW221066   1.123   4.021  10.994  0.0872 -3.6583 -0.3438
 3145SOL     OW21067   3.296   1.956   7.670  0.5954  0.1670  0.0608
 3145SOL    HW121068   3.359   1.907   7.724  1.8934  2.1909  0.3928
 3145SOL    HW221069   3.212   1.919   7.697  0.8239  0.6273  1.4232
 3146SOL     OW21070   1.012   4.425   8.211 -0.0961  0.5096  0.3036
 3146SOL    HW121071   0.951   4.431   8.285  0.8474 -0.9242  1.1968
 3146SOL    HW221072   1.077   4.490   8.239  0.4357 -0.5342  1.5052
 3147SOL     OW21073   1.831   1.329  10.225 -0.7048  0.0469 -0.6510
 3147SOL    HW121074   1.819   1.312  10.131 -0.1262 -1.5965 -0.4205
 3147SOL    HW221075   1.919   1.292  10.233  0.2597  2.2366 -1.0871
 3148SOL     OW21076   2.251   0.931   3.822 -0.0522  0.0358  0.1763
 3148SOL    HW121077   2.168   0.974   3.839  1.3559  2.7228  0.3459
 3148SOL    HW221078   2.308   1.008   3.829 -0.5372  0.4785 -0.7703
 3149SOL     OW21079   1.334   4.435  11.761  0.5062 -0.1954  0.1335
 3149SOL    HW121080   1.346   4.517  11.809  0.3977 -0.7233  1.0632
 3149SOL    HW221081   1.252   4.448  11.715  1.6272 -1.0087 -2.1079
 3150SOL     OW21082   2.292   4.230   1.112  0.2351 -0.1575 -0.7734
 3150SOL    HW121083   2.299   4.319   1.077 -0.4932 -0.5379 -1.8972
 3150SOL    HW221084   2.204   4.208   1.082 -0.0562 -1.8851  1.3833
 3151SOL     OW21085   1.016   1.185   7.415 -0.0944 -0.3747 -0.3024
 3151SOL    HW121086   0.980   1.105   7.453  1.5481 -1.3482 -0.7558
 3151SOL    HW221087   0.956   1.253   7.446 -0.3434 -1.0414  0.6945
 3152SOL     OW21088   1.828   2.419   3.407  0.1223 -0.3540 -0.0232
 3152SOL    HW121089   1.768   2.490   3.388 -2.5140 -2.2163  1.4021
 3152SOL    HW221090   1.909   2.468   3.423 -1.0321  0.3219  3.7108
 3153SOL     OW21091   4.612   0.280   1.992 -0.2972 -0.2507 -0.0138
 3153SOL    HW121092   4.575   0.256   2.077  0.6391 -1.0465  0.1649
 3153SOL    HW221093   4.568   0.208   1.947  0.9284 -0.6911 -0.5001
 3154SOL     OW21094   0.581   0.866   3.294 -0.5487 -0.2399  0.4717
 3154SOL    HW121095   0.592   0.802   3.223  0.4067  0.4177  0.0312
 3154SOL    HW221096   0.622   0.945   3.258  0.1947 -1.5714 -1.6048
 3155SOL     OW21097   2.583   2.746   3.285  0.4282  0.5515  0.3017
 3155SOL    HW121098   2.627   2.730   3.202 -2.0360  0.8378 -1.0456
 3155SOL    HW221099   2.549   2.832   3.259 -0.3128 -0.4327 -1.9824
 3156SOL     OW21100   2.506   4.022   5.804 -0.1694  0.1210  0.1712
 3156SOL    HW121101   2.580   4.070   5.841  0.1793 -0.4678  0.2460
 3156SOL    HW221102   2.538   3.935   5.781 -0.2113 -0.7280  3.2733
 3157SOL     OW21103   2.434   4.109  13.693  0.1559 -0.1709 -0.2627
 3157SOL    HW121104   2.369   4.043  13.666 -1.0881  0.2368  1.7848
 3157SOL    HW221105   2.404   4.190  13.652 -1.1456 -1.0134 -0.9915
 3158SOL     OW21106   3.051   4.280   0.311  0.3657 -0.3523  0.3692
 3158SOL    HW121107   3.041   4.186   0.296 -0.0394 -0.2711  0.1353
 3158SOL    HW221108   3.112   4.278   0.385  0.8579 -3.2291 -0.1195
 3159SOL     OW21109   3.130   3.687  11.441 -0.2054 -0.1756 -0.0145
 3159SOL    HW121110   3.056   3.640  11.402 -0.3368  0.3686 -0.4222
 3159SOL    HW221111   3.195   3.687  11.370  0.7696  1.7215  0.8874
 3160SOL     OW21112   0.053   1.165   7.638  0.1210  0.2545 -0.5360
 3160SOL    HW121113   4.718   1.138   7.696  1.4657 -0.6985  0.6689
 3160SOL    HW221114   0.102   1.228   7.691 -1.5396 -0.2752  1.6325
 3161SOL     OW21115   3.839   3.207   1.397 -0.0827  0.0506 -0.8253
 3161SOL    HW121116   3.793   3.134   1.438  1.9012  0.3827  2.0144
 3161SOL    HW221117   3.786   3.225   1.320 -1.3579  0.5716  0.1652
 3162SOL     OW21118   4.393   0.929  11.322 -0.0183 -0.4805 -0.1953
 3162SOL    HW121119   4.340   0.880  11.259  0.7366  0.5091 -1.6106
 3162SOL    HW221120   4.468   0.871  11.334 -0.9094 -1.3124  1.3884
 3163SOL     OW21121   2.434   4.540   6.812  1.3504 -0.4024  0.1030
 3163SOL    HW121122   2.384   4.459   6.804  1.3030 -0.2334 -1.2610
 3163SOL    HW221123   2.467   4.526   6.901 -0.1887 -1.7509  0.4440
 3164SOL     OW21124   4.267   0.646   7.952 -0.1045  0.5607 -0.0834
 3164SOL    HW121125   4.182   0.630   7.910 -1.0686  1.3505  1.5938
 3164SOL    HW221126   4.288   0.558   7.984  0.3485  0.4336 -0.7321
 3165SOL     OW21127   0.175   0.897   1.448 -0.0587  0.2836  0.1633
 3165SOL    HW121128   0.113   0.824   1.452  1.9202 -1.5334 -1.2300
 3165SOL    HW221129   0.150   0.953   1.521  1.5103  1.1991  0.0019
 3166SOL     OW21130   1.458   2.476   2.583 -0.5692  0.0815 -0.0445
 3166SOL    HW121131   1.441   2.500   2.492  2.3247 -0.1545 -0.6585
 3166SOL    HW221132   1.375   2.491   2.628  0.2151  0.4202  1.2861
 3167SOL     OW21133   3.659   2.361   7.216  0.0416 -0.2562 -0.2087
 3167SOL    HW121134   3.662   2.265   7.212 -0.8414 -0.3111  0.2953
 3167SOL    HW221135   3.706   2.391   7.139  0.7022 -0.6643  0.0274
 3168SOL     OW21136   0.116   0.386   2.064  0.0192  0.2175  0.1966
 3168SOL    HW121137   0.032   0.347   2.038  0.1799  0.0945 -0.1401
 3168SOL    HW221138   0.095   0.389   2.157  1.7823  3.0549  0.5243
 3169SOL     OW21139   2.798   3.100   0.587 -0.3807  0.0133 -0.0564
 3169SOL    HW121140   2.836   3.173   0.538 -2.8639  1.9762  0.9749
 3169SOL    HW221141   2.752   3.056   0.516 -1.1670  0.8197 -0.0445
 3170SOL     OW21142   0.447   1.665   4.348 -0.2552  0.0896  0.6137
 3170SOL    HW121143   0.520   1.692   4.404  0.5085 -0.1563 -0.2651
 3170SOL    HW221144   0.380   1.636   4.411  1.9506 -2.9711  1.5438
 3171SOL     OW21145   0.600   1.969   4.653 -0.6004  0.2806  0.0397
 3171SOL    HW121146   0.527   1.933   4.703 -2.9344  1.5377 -2.5158
 3171SOL    HW221147   0.597   1.919   4.571  0.5931  1.4387 -0.7127
 3172SOL     OW21148   1.094   1.316  16.172  0.2453 -0.3661  0.3516
 3172SOL    HW121149   1.141   1.250  16.224 -1.1951 -3.2729 -2.0119
 3172SOL    HW221150   1.022   1.263  16.139  0.2106 -1.1273  1.6595
 3173SOL     OW21151   3.723   2.159  16.457 -0.0116  0.5249 -0.1892
 3173SOL    HW121152   3.646   2.103  16.447 -0.0811  0.2025  2.1930
 3173SOL    HW221153   3.686   2.246  16.446 -0.3864  1.0446  5.0758
 3174SOL     OW21154   0.338   2.139  11.596 -0.3229 -0.5494  0.2151
 3174SOL    HW121155   0.352   2.227  11.631  1.9452 -0.3231 -1.2805
 3174SOL    HW221156   0.372   2.081  11.665  0.3721  0.5366  0.7962
 3175SOL     OW21157   4.213   4.058   4.574  0.1494  0.1475 -0.3590
 3175SOL    HW121158   4.120   4.045   4.554 -0.0105 -0.5400  0.8111
 3175SOL    HW221159   4.224   3.993   4.644 -0.5166 -0.1275 -0.5098
 3176SOL     OW21160   3.875   0.077  15.295 -0.6158 -0.0020 -0.2814
 3176SOL    HW121161   3.953   0.028  15.268 -0.6197 -1.0669  1.6408
 3176SOL    HW221162   3.811   0.008  15.279 -2.7452  1.5918  1.4099
 3177SOL     OW21163   0.449   0.673  16.577  0.0528 -0.5389 -0.8562
 3177SOL    HW121164   0.499   0.608  16.529 -1.9101 -0.8625 -2.4622
 3177SOL    HW221165   0.385   0.686  16.506  0.4951 -1.4983 -1.4283
 3178SOL     OW21166   0.388   2.988   8.966  0.6186  0.1604 -0.2540
 3178SOL    HW121167   0.324   2.958   9.030  0.4897 -1.2913 -1.0787
 3178SOL    HW221168   0.458   2.993   9.031 -0.4409 -1.6187  0.9989
 3179SOL     OW21169   4.188   1.200   2.596 -0.3789 -0.3916 -0.0239
 3179SOL    HW121170   4.096   1.174   2.589 -0.9115  1.4256  0.4165
 3179SOL    HW221171   4.212   1.179   2.687  1.1130 -0.7092 -0.4801
 3180SOL     OW21172   3.623   4.289   6.351  0.0574  0.8422 -0.2015
 3180SOL    HW121173   3.541   4.339   6.346  0.1875  1.1595  1.0500
 3180SOL    HW221174   3.644   4.277   6.443  0.6680 -2.4594 -0.7625
 3181SOL     OW21175   4.211   3.709   8.270  0.2430 -0.2466  0.2810
 3181SOL    HW121176   4.162   3.788   8.248 -0.6653 -1.3041 -1.5507
 3181SOL    HW221177   4.220   3.655   8.191  0.1799  0.2809 -0.0833
 3182SOL     OW21178   0.273   0.299  11.982 -0.1023  0.1041  0.0457
 3182SOL    HW121179   0.318   0.225  11.942  0.4169  0.7727 -0.6118
 3182SOL    HW221180   0.347   0.329  12.036  1.2644 -0.5687 -1.4621
 3183SOL     OW21181   0.688   1.020   8.480 -0.1645  0.2531  0.8046
 3183SOL    HW121182   0.596   1.019   8.506 -0.0055  0.3903  1.3851
 3183SOL    HW221183   0.693   1.110   8.446 -0.6989  0.4080  1.1321
 3184SOL     OW21184   2.863   1.484   5.731 -0.1352 -0.0292  0.5729
 3184SOL    HW121185   2.853   1.520   5.819  1.4550 -0.5701  0.9746
 3184SOL    HW221186   2.874   1.570   5.692 -0.0847 -0.9398 -1.4408
 3185SOL     OW21187   0.740   3.655  13.679  0.0586 -0.2219  0.3047
 3185SOL    HW121188   0.811   3.595  13.702  0.1640  0.7810  2.5857
 3185SOL    HW221189   0.695   3.617  13.603 -0.2786 -0.4266  0.6060
 3186SOL     OW21190   0.418   0.187   1.375 -0.0039  0.1160  0.1079
 3186SOL    HW121191   0.414   0.136   1.456  0.9785  1.1168  0.7814
 3186SOL    HW221192   0.363   0.129   1.322  1.5581 -2.5306  1.3853
 3187SOL     OW21193   2.118   2.824  12.460  0.3812  0.7692 -0.8264
 3187SOL    HW121194   2.206   2.850  12.432  0.4400 -0.8531 -2.1638
 3187SOL    HW221195   2.122   2.845  12.553 -2.5563 -0.0834 -0.5259
 3188SOL     OW21196   2.274   3.649   2.695  0.0060 -0.0422  0.0134
 3188SOL    HW121197   2.226   3.665   2.614  0.2251 -0.5843 -0.2200
 3188SOL    HW221198   2.342   3.597   2.653  0.9487  1.1936  0.0069
 3189SOL     OW21199   2.152   2.375   7.069 -0.1337  0.3111 -0.3176
 3189SOL    HW121200   2.095   2.392   7.143  2.2448  0.5932  1.4419
 3189SOL    HW221201   2.090   2.317   7.025 -1.7307  0.9890  1.0368
 3190SOL     OW21202   1.167   1.940   2.004  0.3522  0.2187 -0.4603
 3190SOL    HW121203   1.213   1.989   2.071  1.9169 -0.6692 -0.8944
 3190SOL    HW221204   1.233   1.940   1.935 -0.9649 -0.6533 -1.7287
 3191SOL     OW21205   2.404   0.013   9.962  0.4516 -0.1309 -0.2500
 3191SOL    HW121206   2.443   0.074   9.899  0.3006 -0.4312 -0.6339
 3191SOL    HW221207   2.332   0.070   9.988  0.6218  0.5090 -1.1695
 3192SOL     OW21208   1.237   3.371   0.212 -0.3762  0.2231 -0.3345
 3192SOL    HW121209   1.195   3.423   0.144  1.0091  1.5895 -0.1545
 3192SOL    HW221210   1.303   3.439   0.221 -0.0273 -0.3529  1.6212
 3193SOL     OW21211   2.519   2.011   2.658 -0.1632 -0.0409 -0.4108
 3193SOL    HW121212   2.454   2.079   2.676  1.3072  1.7448 -1.7945
 3193SOL    HW221213   2.566   2.012   2.741  0.7557  1.2436 -0.9360
 3194SOL     OW21214   3.765   1.713   4.146 -0.1134 -0.1243 -0.7363
 3194SOL    HW121215   3.811   1.704   4.062 -0.7598 -0.5986 -1.0417
 3194SOL    HW221216   3.838   1.685   4.201 -1.3652  2.4888  2.2242
 3195SOL     OW21217   4.574   0.272   7.667 -0.2540  0.4671  0.5237
 3195SOL    HW121218   4.591   0.224   7.586 -0.8052 -0.2712  0.8451
 3195SOL    HW221219   4.658   0.294   7.706  1.8300 -3.4435 -1.8770
 3196SOL     OW21220   1.500   3.654   4.508 -0.5938 -0.0490 -0.2427
 3196SOL    HW121221   1.520   3.640   4.416  0.7331  0.6660 -0.0668
 3196SOL    HW221222   1.506   3.749   4.517 -0.4187  0.0773 -1.7367
 3197SOL     OW21223   0.422   1.174   6.571 -0.3815 -0.3779  0.1907
 3197SOL    HW121224   0.400   1.084   6.548  0.4677 -0.3664 -0.6457
 3197SOL    HW221225   0.511   1.187   6.539 -0.5953 -0.9516 -0.6388
 3198SOL     OW21226   3.924   0.026   6.048  0.1267 -0.0423 -0.3175
 3198SOL    HW121227   3.845   4.715   6.072  1.1538 -2.1121 -1.0444
 3198SOL    HW221228   3.976   4.686   6.023  0.1593 -0.1049 -0.0576
 3199SOL     OW21229   3.621   2.397  16.382 -0.0736  0.6626 -0.2887
 3199SOL    HW121230   3.640   2.456  16.309  1.3640  1.1464  0.4730
 3199SOL    HW221231   3.620   2.460  16.454  0.4372 -1.8485  1.9048
 3200SOL     OW21232   2.561   3.881   3.750  0.0436  0.7301 -0.0928
 3200SOL    HW121233   2.611   3.890   3.669  0.3618 -1.0452 -0.0745
 3200SOL    HW221234   2.527   3.971   3.755  2.1584  1.4950  0.7784
 3201SOL     OW21235   1.174   0.608  16.029 -0.5537 -0.2104  0.2304
 3201SOL    HW121236   1.196   0.613  15.936  0.0224  2.4691  0.4945
 3201SOL    HW221237   1.254   0.646  16.068 -1.7334  0.6077  1.8883
 3202SOL     OW21238   0.627   0.112   8.237 -0.4284 -0.1325 -0.1569
 3202SOL    HW121239   0.562   0.056   8.194 -1.9675  2.0527 -0.6389
 3202SOL    HW221240   0.565   0.182   8.257  0.2113  0.4394 -0.1912
 3203SOL     OW21241   1.713   1.404   7.915  0.0943 -0.1945 -0.6019
 3203SOL    HW121242   1.781   1.471   7.907 -0.3795  0.2849 -0.6600
 3203SOL    HW221243   1.633   1.455   7.931  0.3585 -0.1823  0.7442
 3204SOL     OW21244   3.941   0.047  13.523 -0.3670 -0.3819 -0.3536
 3204SOL    HW121245   3.884   4.710  13.544  1.0957 -1.3714  0.1709
 3204SOL    HW221246   3.930   0.033  13.429 -0.5243 -0.4257 -0.3295
 3205SOL     OW21247   0.862   0.181   6.675  0.4439 -0.6931  0.3555
 3205SOL    HW121248   0.789   0.225   6.719  1.8742  0.8138  1.2065
 3205SOL    HW221249   0.876   0.109   6.737  0.8792 -0.4760  0.5048
 3206SOL     OW21250   1.934   3.380   3.097  0.3412 -0.4868  0.2495
 3206SOL    HW121251   1.899   3.311   3.040  2.1133 -0.5149 -0.8015
 3206SOL    HW221252   1.875   3.453   3.074 -0.1633 -0.2565  2.2990
 3207SOL     OW21253   0.304   3.742   5.566 -0.0405  0.1625 -0.2889
 3207SOL    HW121254   0.320   3.651   5.592 -1.5246  0.0407  0.2204
 3207SOL    HW221255   0.374   3.785   5.615  0.3224  1.0392 -1.5996
 3208SOL     OW21256   3.463   4.574   7.610 -0.5570  0.6418  0.1494
 3208SOL    HW121257   3.495   4.636   7.676 -2.5957  0.9521  0.8456
 3208SOL    HW221258   3.370   4.592   7.618 -0.7805 -0.5887  0.2858
 3209SOL     OW21259   1.006   4.223   4.547 -0.0765  0.0873 -0.3913
 3209SOL    HW121260   0.984   4.284   4.618  0.1346  0.0419 -0.2886
 3209SOL    HW221261   0.929   4.166   4.543 -2.1506  2.5653  3.3356
 3210SOL     OW21262   1.617   0.185   7.709  0.6679 -0.4818 -0.2956
 3210SOL    HW121263   1.697   0.148   7.746  0.8035 -0.0728 -0.1796
 3210SOL    HW221264   1.573   0.236   7.777 -1.0515  0.7602 -2.3482
 3211SOL     OW21265   2.336   0.769   7.013  0.1631  0.6628 -0.0290
 3211SOL    HW121266   2.423   0.736   6.992  1.1174  1.8321  2.1141
 3211SOL    HW221267   2.304   0.822   6.940  0.2676  0.2990 -0.3354
 3212SOL     OW21268   0.011   3.128   0.671  0.1355 -0.1264  0.0023
 3212SOL    HW121269   4.701   3.138   0.588  0.1293 -0.0771  0.0117
 3212SOL    HW221270   4.698   3.205   0.697 -1.3709 -1.1939  0.2501
 3213SOL     OW21271   3.563   1.645   1.512 -0.0202 -1.0517  0.4482
 3213SOL    HW121272   3.618   1.633   1.590  1.9777 -4.0148 -1.4114
 3213SOL    HW221273   3.597   1.576   1.455  0.1997  0.4824 -1.2763
 3214SOL     OW21274   1.304   1.592  10.105 -0.2445 -0.4769 -0.5070
 3214SOL    HW121275   1.375   1.547  10.059  0.5195  0.6576 -0.4485
 3214SOL    HW221276   1.324   1.573  10.197  2.6569 -1.3330 -1.3294
 3215SOL     OW21277   4.097   4.375  10.963 -0.0342 -0.3964  0.2187
 3215SOL    HW121278   4.044   4.446  10.999  2.0819  0.8709  0.8462
 3215SOL    HW221279   4.026   4.320  10.932  0.6643 -0.4462 -1.2985
 3216SOL     OW21280   4.212   3.736  10.124 -0.5125  0.0880 -0.2983
 3216SOL    HW121281   4.130   3.717  10.169  0.4751 -0.9154  1.0742
 3216SOL    HW221282   4.268   3.664  10.153  1.1647  0.9059 -1.4970
 3217SOL     OW21283   3.937   1.722   2.670 -0.5455  0.1557 -0.0259
 3217SOL    HW121284   3.981   1.637   2.678  0.7689  0.7212 -1.2812
 3217SOL    HW221285   4.009   1.783   2.686  0.0096 -0.1167 -1.4385
 3218SOL     OW21286   1.024   1.358   8.048 -0.8318  0.4291 -0.2549
 3218SOL    HW121287   1.050   1.307   8.124 -1.2765  0.8158  0.1594
 3218SOL    HW221288   0.955   1.295   8.023  0.4776 -0.7112 -0.9961
 3219SOL     OW21289   4.601   1.245   8.513 -0.2902 -0.0753 -0.1095
 3219SOL    HW121290   4.619   1.202   8.429 -0.2479 -1.4168  0.5890
 3219SOL    HW221291   4.577   1.330   8.476  1.3310  0.6921  0.5931
 3220SOL     OW21292   2.901   1.514   8.036  0.9018 -0.4341  0.0095
 3220SOL    HW121293   2.925   1.541   8.125  1.6247 -1.1667  0.0355
 3220SOL    HW221294   2.833   1.577   8.015 -0.4622 -1.7074  0.5454
 3221SOL     OW21295   3.512   3.023  16.177  0.7387 -0.2241 -0.5249
 3221SOL    HW121296   3.426   3.051  16.209  0.3977 -3.3434  1.3020
 3221SOL    HW221297   3.565   3.101  16.190 -0.8095  0.8838 -0.9233
 3222SOL     OW21298   0.076   1.406  15.981  0.0423  0.2797 -0.6869
 3222SOL    HW121299   0.037   1.382  16.065 -1.3039  0.8404 -1.1554
 3222SOL    HW221300   0.087   1.315  15.955 -0.5012  0.0178  0.0136
 3223SOL     OW21301   4.002   1.840   2.164  0.6879 -0.5530 -0.1099
 3223SOL    HW121302   3.952   1.789   2.100  0.5511  0.8340 -1.1165
 3223SOL    HW221303   3.946   1.828   2.241  1.2533 -3.5428 -0.1428
 3224SOL     OW21304   0.429   0.750  15.936 -0.0971  0.7304  0.2505
 3224SOL    HW121305   0.418   0.673  15.880 -4.8123  1.6385 -0.1341
 3224SOL    HW221306   0.513   0.724  15.973  0.0362  1.2044  0.2691
 3225SOL     OW21307   1.371   3.989   1.096  0.0856 -0.2565 -0.3463
 3225SOL    HW121308   1.456   4.030   1.115  0.2743 -0.9786  0.4089
 3225SOL    HW221309   1.343   4.048   1.026 -2.1275 -0.5476  0.3214
 3226SOL     OW21310   1.368   0.332   5.697 -0.1009 -0.3793 -0.2290
 3226SOL    HW121311   1.288   0.340   5.750  0.2366 -2.0062  0.5146
 3226SOL    HW221312   1.421   0.407   5.725 -1.5601  0.7874 -0.5942
 3227SOL     OW21313   3.192   4.161   4.164  0.0648  0.3140 -0.0165
 3227SOL    HW121314   3.108   4.202   4.183 -0.3355  0.1284 -1.3858
 3227SOL    HW221315   3.235   4.213   4.095 -1.1559 -0.4114 -1.3350
 3228SOL     OW21316   0.039   2.018   6.733 -0.3833 -0.5175  0.1385
 3228SOL    HW121317   4.736   2.094   6.775 -0.0609 -0.7320  0.8235
 3228SOL    HW221318   4.729   1.948   6.778  1.1111 -1.3046  0.4565
 3229SOL     OW21319   1.431   3.779   6.579 -0.0897  0.2997  0.2739
 3229SOL    HW121320   1.469   3.833   6.648 -1.1599  0.2025  0.9402
 3229SOL    HW221321   1.353   3.833   6.562 -0.9790 -0.8486  0.7041
 3230SOL     OW21322   0.773   1.285  16.024 -0.1105 -0.0550  0.3152
 3230SOL    HW121323   0.686   1.259  15.993  0.1040  1.3524 -1.4551
 3230SOL    HW221324   0.758   1.353  16.089 -0.3475  0.3169 -0.1258
 3231SOL     OW21325   2.840   1.305   9.757 -0.7055 -0.2114 -0.3277
 3231SOL    HW121326   2.811   1.234   9.699  0.3914 -1.3182  0.4915
 3231SOL    HW221327   2.825   1.378   9.697 -1.1253 -1.3044 -1.5629
 3232SOL     OW21328   3.637   0.203   2.435  0.2668 -0.1158 -0.1413
 3232SOL    HW121329   3.688   0.280   2.412  0.3966  0.4855  2.1297
 3232SOL    HW221330   3.633   0.210   2.531 -1.7483 -0.0614 -0.2295
 3233SOL     OW21331   4.496   0.956   3.907 -0.0229 -0.3884  0.4407
 3233SOL    HW121332   4.548   1.001   3.841 -1.4992 -0.5522 -0.8238
 3233SOL    HW221333   4.412   0.997   3.886  0.7473  0.7338 -0.4382
 3234SOL     OW21334   2.179   3.001   7.859 -0.4652  0.0637  0.3130
 3234SOL    HW121335   2.093   2.982   7.897  0.5420 -1.7173  1.6929
 3234SOL    HW221336   2.183   2.930   7.795 -3.5209  0.1374  0.0145
 3235SOL     OW21337   3.795   3.566   4.357 -0.1298  0.0786  0.0561
 3235SOL    HW121338   3.824   3.656   4.342  1.4241 -0.7879 -2.1317
 3235SOL    HW221339   3.733   3.558   4.285 -0.3544  0.3216  0.2224
 3236SOL     OW21340   2.715   3.495   7.664 -0.1149  0.3616  0.4332
 3236SOL    HW121341   2.720   3.457   7.576 -3.1343  1.3703 -0.1779
 3236SOL    HW221342   2.658   3.570   7.648  0.5333  0.7491 -0.0343
 3237SOL     OW21343   3.947   1.844   3.391 -0.6469  0.3899  0.8522
 3237SOL    HW121344   3.944   1.929   3.347 -0.3588 -0.2932 -0.4725
 3237SOL    HW221345   4.028   1.849   3.442 -0.5538  1.2924  0.6207
 3238SOL     OW21346   0.845   2.707   6.378 -0.0209  0.3890  0.0416
 3238SOL    HW121347   0.903   2.780   6.401 -0.5203  0.4628  1.0872
 3238SOL    HW221348   0.762   2.756   6.379 -1.3241 -1.8073 -1.7086
 3239SOL     OW21349   1.226   1.809   4.176 -0.3050 -0.3304  0.0172
 3239SOL    HW121350   1.204   1.740   4.113  0.5815 -1.4993  0.9958
 3239SOL    HW221351   1.141   1.834   4.212 -0.8850 -0.9365 -0.9159
 3240SOL     OW21352   0.884   4.243   8.087 -0.3750 -0.1310  0.1271
 3240SOL    HW121353   0.924   4.190   8.155  0.0435  0.3452  0.2553
 3240SOL    HW221354   0.935   4.322   8.106 -1.2759  0.5668 -0.3754
 3241SOL     OW21355   3.010   2.990  13.176  0.4960 -0.0923 -0.4333
 3241SOL    HW121356   2.979   2.971  13.264  1.2871 -2.2606 -0.6374
 3241SOL    HW221357   2.945   3.049  13.139  1.5862  0.0949 -2.0517
 3242SOL     OW21358   1.142   3.544   7.099  0.0140  0.2291  0.5029
 3242SOL    HW121359   1.138   3.449   7.094  0.9246  0.0790  2.4670
 3242SOL    HW221360   1.198   3.554   7.176 -0.0533 -0.0184  0.5821
 3243SOL     OW21361   4.625   4.000   3.631 -0.2610  0.0266  0.2129
 3243SOL    HW121362   4.595   3.982   3.720 -3.8935 -0.7797 -1.2230
 3243SOL    HW221363   4.654   4.092   3.634  0.8001 -0.3339  0.8884
 3244SOL     OW21364   2.869   1.177   3.451  0.0690 -0.2378 -0.0624
 3244SOL    HW121365   2.889   1.086   3.475 -1.2643 -1.1325 -2.3312
 3244SOL    HW221366   2.796   1.200   3.507  0.7908  0.8284  0.4495
 3245SOL     OW21367   4.709   2.325   7.689 -0.0083 -0.1318 -0.5447
 3245SOL    HW121368   4.701   2.315   7.594 -1.7697 -1.6579 -0.2304
 3245SOL    HW221369   4.623   2.353   7.718 -0.6894 -2.0642 -0.6524
 3246SOL     OW21370   0.896   0.109   4.213  0.2173  0.4177  0.0974
 3246SOL    HW121371   0.906   0.046   4.142  1.5840  1.2833 -0.4870
 3246SOL    HW221372   0.834   0.174   4.180 -1.5967 -1.7160 -0.6886
 3247SOL     OW21373   3.790   1.375   3.129 -0.4891  0.5449  0.1226
 3247SOL    HW121374   3.823   1.390   3.217 -1.2352  2.3017  0.1098
 3247SOL    HW221375   3.794   1.280   3.127 -2.0864  0.4983 -1.0132
 3248SOL     OW21376   0.895   2.538   8.824 -0.3258 -0.3787 -1.2799
 3248SOL    HW121377   0.858   2.626   8.819  1.1808  0.5522  4.0830
 3248SOL    HW221378   0.818   2.482   8.822 -1.1051  0.6762 -0.4895
 3249SOL     OW21379   4.270   1.236   5.808  1.0590  0.3948 -0.1924
 3249SOL    HW121380   4.242   1.228   5.717  1.6720  1.9080 -0.5218
 3249SOL    HW221381   4.194   1.273   5.851 -2.0699 -2.5350 -3.1406
 3250SOL     OW21382   4.274   3.519   1.854 -0.1247 -0.1545 -0.7154
 3250SOL    HW121383   4.293   3.469   1.934  1.9046  0.3367 -0.8846
 3250SOL    HW221384   4.183   3.498   1.831 -0.4425  2.3416 -1.7024
 3251SOL     OW21385   3.845   2.183   6.304 -0.6273  0.4061 -0.2047
 3251SOL    HW121386   3.853   2.242   6.379 -0.6295  0.1343  0.0059
 3251SOL    HW221387   3.877   2.242   6.235  1.2505 -0.6594 -0.2356
 3252SOL     OW21388   0.835   1.595   7.081 -0.7259 -0.3793 -0.3540
 3252SOL    HW121389   0.824   1.514   7.131 -0.9035  1.5951  2.8399
 3252SOL    HW221390   0.744   1.621   7.070 -0.2582  2.3974  2.1831
 3253SOL     OW21391   4.040   0.468   5.211  0.1816 -0.0984 -0.1219
 3253SOL    HW121392   4.023   0.536   5.276 -1.7256 -0.8625  0.1934
 3253SOL    HW221393   4.106   0.511   5.157  0.3777  0.4749  0.5646
 3254SOL     OW21394   4.611   2.344   9.869 -0.3934  0.0305  0.4981
 3254SOL    HW121395   4.540   2.382   9.817  0.0567 -0.7923 -0.6913
 3254SOL    HW221396   4.676   2.338   9.799  0.6938  1.3010  1.3828
 3255SOL     OW21397   4.466   0.433   6.874  0.4209 -0.4962 -0.1234
 3255SOL    HW121398   4.539   0.474   6.921  0.2561 -0.8934  0.4738
 3255SOL    HW221399   4.393   0.493   6.889 -0.5985 -1.2115 -2.1943
 3256SOL     OW21400   4.247   3.814   8.552 -0.7492  0.0898 -0.5001
 3256SOL    HW121401   4.247   3.753   8.478  2.1855  1.3420 -1.5118
 3256SOL    HW221402   4.196   3.884   8.511 -1.4180  0.8331  1.5730
 3257SOL     OW21403   3.962   2.369   1.854 -0.0120 -0.1076  0.2676
 3257SOL    HW121404   3.931   2.342   1.941  0.6774  0.2099  0.6120
 3257SOL    HW221405   3.998   2.285   1.824 -0.7662 -0.1664 -0.4763
 3258SOL     OW21406   0.618   2.015  17.459 -0.4817  0.4005 -0.5173
 3258SOL    HW121407   0.558   1.973  17.398  0.1423  1.7283 -2.0299
 3258SOL    HW221408   0.578   2.102  17.466 -0.2297  0.4980 -0.3036
 3259SOL     OW21409   2.422   0.142  10.692 -0.5577  0.5385 -0.3324
 3259SOL    HW121410   2.468   0.103  10.618 -0.1098  1.5782 -0.5911
 3259SOL    HW221411   2.367   0.214  10.662 -0.3739  1.1988  0.9006
 3260SOL     OW21412   1.282   3.147   1.542  0.2741 -0.1370  0.0419
 3260SOL    HW121413   1.223   3.144   1.466  0.6307 -0.8897 -0.2020
 3260SOL    HW221414   1.246   3.230   1.573  0.2462 -0.9297  2.1649
 3261SOL     OW21415   0.687   2.258  14.723  0.4191  0.2749  0.2293
 3261SOL    HW121416   0.723   2.265  14.812 -1.8982 -0.9658  1.2662
 3261SOL    HW221417   0.699   2.345  14.687  0.4981  0.6992  1.2719
 3262SOL     OW21418   0.239   0.512   4.271  0.5547  0.0846  0.4533
 3262SOL    HW121419   0.263   0.481   4.184 -0.6297  2.6780 -0.7987
 3262SOL    HW221420   0.155   0.552   4.249 -0.9464 -2.1583  2.1722
 3263SOL     OW21421   0.040   2.443   1.582 -0.0528 -0.0922  0.0858
 3263SOL    HW121422   0.122   2.493   1.575 -1.6656  2.7648  1.9824
 3263SOL    HW221423   0.079   2.355   1.580  1.1498  0.3718  2.2091
 3264SOL     OW21424   1.812   4.440   4.690  0.1443 -0.4867  0.2370
 3264SOL    HW121425   1.784   4.527   4.660 -0.5997 -1.5381 -2.1118
 3264SOL    HW221426   1.728   4.394   4.691 -0.6132  0.9346  1.6633
 3265SOL     OW21427   3.550   1.838  11.541  0.0049 -0.1387 -0.2534
 3265SOL    HW121428   3.513   1.768  11.596 -2.8320 -0.6445 -2.8130
 3265SOL    HW221429   3.589   1.784  11.472 -1.8777  0.2996 -1.6627
 3266SOL     OW21430   3.434   0.681   5.804 -0.1620 -0.4076 -0.3628
 3266SOL    HW121431   3.386   0.703   5.884 -2.7377  1.6431 -2.4257
 3266SOL    HW221432   3.524   0.664   5.831 -0.6107 -1.4088  0.5001
 3267SOL     OW21433   1.741   0.807   5.258  0.0298  0.1192 -0.4063
 3267SOL    HW121434   1.685   0.766   5.192 -2.0311  1.6792  0.3725
 3267SOL    HW221435   1.811   0.847   5.206  0.2678  1.0318  0.6198
 3268SOL     OW21436   0.619   0.471  14.608 -0.0350  0.6224  0.2013
 3268SOL    HW121437   0.618   0.433  14.696 -2.1927 -0.8414 -0.4494
 3268SOL    HW221438   0.658   0.403  14.553 -0.2194  1.3477 -0.8133
 3269SOL     OW21439   1.888   3.688   2.732 -0.0712  0.5455  0.1462
 3269SOL    HW121440   1.892   3.784   2.726 -0.9721  0.6725  1.7802
 3269SOL    HW221441   1.910   3.658   2.644  1.6590  2.2687 -0.0210
 3270SOL     OW21442   0.347   1.926   1.494  0.4440 -0.4457 -0.2203
 3270SOL    HW121443   0.428   1.960   1.454  0.8229  1.4583  2.1542
 3270SOL    HW221444   0.368   1.931   1.587 -1.9056  0.4996  0.2515
 3271SOL     OW21445   4.339   4.655   0.945 -0.3209 -0.1086 -0.2899
 3271SOL    HW121446   4.365   4.718   1.012  0.3678  0.3694 -1.0000
 3271SOL    HW221447   4.368   4.571   0.980 -0.0008  1.1233  2.3901
 3272SOL     OW21448   0.035   1.061   6.188  0.5719 -0.0169 -0.2529
 3272SOL    HW121449   0.115   1.085   6.235  0.7706  0.0548 -0.6233
 3272SOL    HW221450   4.721   1.001   6.241 -0.8865  1.3082 -0.1641
 3273SOL     OW21451   3.459   1.298   4.073 -0.4321 -0.6284 -0.1760
 3273SOL    HW121452   3.482   1.371   4.129  2.1742 -0.8655 -0.9395
 3273SOL    HW221453   3.479   1.237   4.144  0.8906  0.5234  0.4181
 3274SOL     OW21454   4.055   1.672   0.079 -0.3530 -0.1320 -0.4079
 3274SOL    HW121455   4.049   1.632   0.165 -0.5227  0.1654 -0.2817
 3274SOL    HW221456   4.023   1.761   0.093  1.7560  0.4641  0.5722
 3275SOL     OW21457   4.195   1.705   6.454  0.2866  0.0735 -0.1100
 3275SOL    HW121458   4.273   1.758   6.439  1.5624 -2.0909 -1.1891
 3275SOL    HW221459   4.177   1.702   6.548 -0.6512  3.5211 -0.1978
 3276SOL     OW21460   1.120   3.584  12.829  0.0307 -0.0124 -0.2771
 3276SOL    HW121461   1.205   3.590  12.787 -0.5247  1.0578 -1.2397
 3276SOL    HW221462   1.072   3.624  12.757 -2.5242  1.6645  2.3693
 3277SOL     OW21463   2.389   2.135   5.654  0.1902  0.4055 -0.5338
 3277SOL    HW121464   2.375   2.194   5.728  2.6155  0.0855  0.1672
 3277SOL    HW221465   2.474   2.093   5.667 -0.4859 -0.8196 -0.0684
 3278SOL     OW21466   4.451   1.831   5.385  1.0241 -0.5553  0.1351
 3278SOL    HW121467   4.492   1.891   5.322  1.3139  0.3751  1.1975
 3278SOL    HW221468   4.511   1.842   5.459 -1.9775  3.7152  1.9633
 3279SOL     OW21469   4.609   1.887  14.168 -0.3557  0.2488  0.7282
 3279SOL    HW121470   4.593   1.869  14.260  0.2692  0.3844  0.8680
 3279SOL    HW221471   4.705   1.891  14.172 -0.4964  2.6448  1.2917
 3280SOL     OW21472   2.355   4.226   1.526  0.1060  0.4417 -0.1814
 3280SOL    HW121473   2.332   4.312   1.560 -0.0400  0.0167  0.8113
 3280SOL    HW221474   2.337   4.171   1.602  3.0919 -0.4806 -0.1481
 3281SOL     OW21475   4.241   3.545   3.624 -0.7715 -0.2986  0.1914
 3281SOL    HW121476   4.237   3.598   3.544 -0.1560  0.7310  0.8308
 3281SOL    HW221477   4.336   3.551   3.637 -0.7854  1.4895 -0.4312
 3282SOL     OW21478   3.182   4.568   0.386  0.1922 -0.1400 -0.0754
 3282SOL    HW121479   3.165   4.477   0.360 -0.6841 -0.2913  1.0646
 3282SOL    HW221480   3.142   4.612   0.311  0.2117  1.8973  1.1204
 3283SOL     OW21481   4.002   2.546   7.135  0.6240 -0.4248 -0.4976
 3283SOL    HW121482   4.028   2.500   7.215 -0.2781 -0.2318 -0.0934
 3283SOL    HW221483   3.914   2.510   7.125  0.6878  0.0205 -2.6792
 3284SOL     OW21484   1.310   3.082   2.172  0.1462 -0.3374 -0.4258
 3284SOL    HW121485   1.394   3.077   2.126 -1.2716  0.2243 -3.0804
 3284SOL    HW221486   1.326   3.022   2.245 -0.9451 -1.5759 -1.1972
 3285SOL     OW21487   1.081   2.378  10.263 -0.7396  0.2412  0.2314
 3285SOL    HW121488   1.105   2.419  10.346  2.2359 -1.6602  0.3006
 3285SOL    HW221489   1.026   2.452  10.235 -0.5731  0.4636  0.4927
 3286SOL     OW21490   3.679   4.148   4.123 -0.4313  0.3448  0.2020
 3286SOL    HW121491   3.592   4.149   4.163 -1.4232 -0.6018 -1.9544
 3286SOL    HW221492   3.660   4.187   4.038  0.1488 -1.5380 -0.7851
 3287SOL     OW21493   3.403   4.406   8.538  0.4800 -0.2676 -0.2717
 3287SOL    HW121494   3.454   4.410   8.618  0.7785 -0.0162 -0.4748
 3287SOL    HW221495   3.383   4.497   8.518  2.3738  0.6134  1.8727
 3288SOL     OW21496   1.635   1.787   4.202 -0.2569 -0.0640 -0.2770
 3288SOL    HW121497   1.727   1.808   4.217  0.2267 -2.0723 -0.4044
 3288SOL    HW221498   1.640   1.697   4.168  1.2684 -0.9127  2.1434
 3289SOL     OW21499   3.083   2.487  16.840  0.2936 -0.3213 -0.4370
 3289SOL    HW121500   3.105   2.512  16.751  1.1597  1.2209  0.2012
 3289SOL    HW221501   3.028   2.409  16.836 -1.5620  0.8615  1.3461
 3290SOL     OW21502   3.851   1.418   8.971  0.4957  0.0151 -0.2733
 3290SOL    HW121503   3.859   1.500   9.019  0.7883 -0.1857  0.0243
 3290SOL    HW221504   3.946   1.410   8.959  0.4600  0.2360 -0.7126
 3291SOL     OW21505   4.197   0.139   4.654 -0.1302  0.4028  0.3680
 3291SOL    HW121506   4.184   0.164   4.562 -0.1267 -0.6559  0.0796
 3291SOL    HW221507   4.292   0.148   4.663  0.1599 -3.1355  0.5859
 3292SOL     OW21508   0.397   1.693   3.917  0.5337  0.3127 -0.1772
 3292SOL    HW121509   0.442   1.679   3.834 -0.6201 -2.5470 -0.3270
 3292SOL    HW221510   0.330   1.625   3.923 -2.4131  3.3567  1.1994
 3293SOL     OW21511   0.659   1.154   1.741 -0.1321 -0.0640 -0.3027
 3293SOL    HW121512   0.671   1.099   1.819  1.2156  0.1003 -0.3854
 3293SOL    HW221513   0.740   1.154   1.690  0.6611 -1.8318  0.9509
 3294SOL     OW21514   2.103   4.059   2.003 -0.4423 -0.1190 -0.0010
 3294SOL    HW121515   2.026   4.115   2.014  0.0388  0.4670  0.3691
 3294SOL    HW221516   2.067   3.970   1.997 -1.1234  0.2608 -1.4983
 3295SOL     OW21517   2.354   1.505   7.828 -0.3412 -0.0257 -0.8857
 3295SOL    HW121518   2.392   1.512   7.740  2.3578  0.0994  0.2872
 3295SOL    HW221519   2.363   1.410   7.831  2.7767  0.3020 -0.1860
 3296SOL     OW21520   4.172   1.953  13.557  0.3648  0.0226  0.3374
 3296SOL    HW121521   4.192   2.036  13.600  1.6773 -0.7714  1.2482
 3296SOL    HW221522   4.106   1.916  13.616  1.0404 -1.2219  0.3133
 3297SOL     OW21523   2.172   1.049   7.851  0.1257  0.4216 -0.3382
 3297SOL    HW121524   2.186   0.997   7.930  1.8879  0.5407 -0.5870
 3297SOL    HW221525   2.127   0.978   7.806 -1.2135  0.5044  0.8555
 3298SOL     OW21526   3.689   3.865   2.444 -0.1178 -0.1255  0.0380
 3298SOL    HW121527   3.637   3.909   2.377  0.7208 -0.3930 -0.8002
 3298SOL    HW221528   3.628   3.805   2.486  0.9317 -0.4686  1.1050
 3299SOL     OW21529   2.681   2.098   5.267  0.2052 -0.3872 -0.5781
 3299SOL    HW121530   2.753   2.152   5.235  0.4837 -1.0620 -1.0693
 3299SOL    HW221531   2.603   2.151   5.248  2.1004  1.7589 -2.3179
 3300SOL     OW21532   0.028   3.359   2.685 -0.1598  0.2980 -0.4771
 3300SOL    HW121533   4.702   3.401   2.627 -1.1369 -0.6292 -0.0840
 3300SOL    HW221534   0.109   3.365   2.634  0.4580  1.4315  0.5954
 3301SOL     OW21535   0.577   0.721  14.803  0.6918 -0.3906 -0.0813
 3301SOL    HW121536   0.519   0.684  14.737 -0.9862  1.5692  0.3189
 3301SOL    HW221537   0.544   0.693  14.888 -1.0372  0.1755 -0.5707
 3302SOL     OW21538   4.020   0.997   3.397  0.7354  0.2208  0.3123
 3302SOL    HW121539   4.015   0.925   3.334  0.5003 -1.2080  1.9591
 3302SOL    HW221540   4.035   0.938   3.471 -0.7029  0.5604  0.8805
 3303SOL     OW21541   4.683   1.009   4.764  0.3201  0.1675  0.1389
 3303SOL    HW121542   4.638   1.028   4.846  1.2193  2.4547  0.0827
 3303SOL    HW221543   0.034   1.045   4.775  0.6121  0.0852 -1.9427
 3304SOL     OW21544   1.342   0.537  12.207  0.1750  0.2809 -0.4190
 3304SOL    HW121545   1.378   0.485  12.136 -2.1102 -0.0288 -1.3502
 3304SOL    HW221546   1.399   0.506  12.277 -0.2378 -1.2110 -0.7565
 3305SOL     OW21547   1.049   2.863   6.542  0.0493 -0.2644  0.4379
 3305SOL    HW121548   0.968   2.914   6.536  0.9723  0.7683 -3.0197
 3305SOL    HW221549   1.031   2.803   6.615 -0.3511 -1.4773 -0.6726
 3306SOL     OW21550   0.956   4.080  11.771 -0.5520 -0.0829  0.3492
 3306SOL    HW121551   1.010   4.133  11.712 -0.3097  0.6627  1.2524
 3306SOL    HW221552   0.933   4.002  11.720 -1.4086 -0.1694  0.8794
 3307SOL     OW21553   4.067   3.135   6.201  0.1890 -0.0623  0.3710
 3307SOL    HW121554   4.006   3.195   6.243 -1.2466 -0.2380 -1.4879
 3307SOL    HW221555   4.076   3.066   6.267 -0.0220 -0.0960  0.3651
 3308SOL     OW21556   1.229   3.726  17.254  0.1824  0.5726  0.1360
 3308SOL    HW121557   1.256   3.798  17.197  0.7737  0.6457  0.5038
 3308SOL    HW221558   1.267   3.650  17.211 -1.0329 -0.0018  0.0803
 3309SOL     OW21559   0.550   2.196   6.478  0.1572 -0.7410 -0.4119
 3309SOL    HW121560   0.589   2.248   6.407 -1.7686  1.8768  0.4651
 3309SOL    HW221561   0.584   2.108   6.461 -1.8885 -1.7325  0.6595
 3310SOL     OW21562   4.728   1.472  14.191 -0.3037  0.5870  0.3519
 3310SOL    HW121563   0.017   1.533  14.261 -0.5096 -0.1174  1.0370
 3310SOL    HW221564   0.058   1.498  14.128  0.1888 -0.6370  0.3845
 3311SOL     OW21565   2.633   2.451   5.824  0.5386 -0.8539 -0.3015
 3311SOL    HW121566   2.707   2.432   5.766 -0.0208 -0.8635 -1.0131
 3311SOL    HW221567   2.670   2.490   5.903  1.1019 -0.4350 -0.7726
 3312SOL     OW21568   3.657   2.464   5.846  0.3938 -0.0573 -0.2845
 3312SOL    HW121569   3.677   2.373   5.826 -0.0851 -0.1951 -0.1385
 3312SOL    HW221570   3.636   2.494   5.757  1.6652  2.3734  0.2385
 3313SOL     OW21571   0.815   4.425   2.342 -0.4060  0.1050 -0.9344
 3313SOL    HW121572   0.742   4.471   2.382  2.4927  2.1749  2.0099
 3313SOL    HW221573   0.780   4.395   2.258  2.1346  1.1472 -2.3834
 3314SOL     OW21574   4.499   0.126   6.550 -0.0528 -0.4508 -0.7666
 3314SOL    HW121575   4.434   0.056   6.539 -0.7915 -0.0213  0.8608
 3314SOL    HW221576   4.538   0.131   6.463 -1.3683 -1.9408 -1.4475
 3315SOL     OW21577   3.635   1.421  17.594  0.8087  0.3179 -0.0905
 3315SOL    HW121578   3.702   1.452  17.533  0.2372 -1.4189 -1.5894
 3315SOL    HW221579   3.685   1.349  17.631  0.2598  1.2242  2.4236
 3316SOL     OW21580   1.648   3.177   1.321  0.0385 -1.0199 -0.5928
 3316SOL    HW121581   1.645   3.270   1.298  0.6882 -1.1351 -1.1337
 3316SOL    HW221582   1.646   3.182   1.416  0.6923  0.7790 -0.6718
 3317SOL     OW21583   3.061   2.155   1.728  0.5675 -0.1185 -0.2020
 3317SOL    HW121584   3.038   2.183   1.639  3.1032  1.9873 -0.2068
 3317SOL    HW221585   2.996   2.184   1.792 -0.2408  1.2238 -1.6125
 3318SOL     OW21586   1.584   0.925  12.722 -0.6577  0.6281 -0.7017
 3318SOL    HW121587   1.531   0.908  12.800 -0.0343  0.0073 -0.4255
 3318SOL    HW221588   1.595   1.019  12.739 -0.3291  0.2975  0.8675
 3319SOL     OW21589   2.012   3.925  11.949  0.2290  0.3511  0.0357
 3319SOL    HW121590   2.095   3.942  11.905 -0.0759 -0.8776 -0.9972
 3319SOL    HW221591   2.049   3.933  12.037  0.1352 -0.3282  0.1337
 3320SOL     OW21592   3.902   3.429   6.573  0.1332 -0.1008  0.6093
 3320SOL    HW121593   3.866   3.341   6.579 -0.6850  0.3068  1.5476
 3320SOL    HW221594   3.920   3.444   6.666  0.6247  0.3295  0.4422
 3321SOL     OW21595   3.863   2.077   8.757 -0.1561 -0.4025 -0.2081
 3321SOL    HW121596   3.835   2.076   8.665  1.2005 -1.1575 -0.6217
 3321SOL    HW221597   3.893   1.987   8.770 -1.6687 -0.8636  0.0185
 3322SOL     OW21598   1.360   3.178   8.151 -0.3590  0.0904 -0.2169
 3322SOL    HW121599   1.291   3.243   8.162 -0.1651 -0.1553  2.4164
 3322SOL    HW221600   1.431   3.233   8.117  1.2056 -0.9382  1.3556
 3323SOL     OW21601   1.135   2.145   5.779 -0.2355  0.0123  0.0068
 3323SOL    HW121602   1.052   2.147   5.827 -0.7929  3.3490 -1.0562
 3323SOL    HW221603   1.149   2.239   5.766 -1.9615  0.2411 -0.2299
 3324SOL     OW21604   4.627   4.510   8.691 -0.3773 -0.8790 -0.0778
 3324SOL    HW121605   4.666   4.595   8.711  0.0893 -0.1262 -4.1799
 3324SOL    HW221606   4.654   4.457   8.766 -0.3403  2.4039  2.2608
 3325SOL     OW21607   0.841   0.842   3.516  0.1516  0.3204  0.2537
 3325SOL    HW121608   0.908   0.774   3.516  2.0159  2.1653  0.2896
 3325SOL    HW221609   0.763   0.787   3.518 -0.2290  0.8572  0.1584
 3326SOL     OW21610   4.557   3.957   4.561  0.2510  0.4812  0.1315
 3326SOL    HW121611   4.632   3.929   4.509 -2.3153 -0.8635 -2.8630
 3326SOL    HW221612   4.489   3.979   4.497  0.2688 -1.3040 -0.4833
 3327SOL     OW21613   0.071   3.196  12.219  0.1286 -0.6612 -0.1239
 3327SOL    HW121614   4.721   3.229  12.195  0.1715 -0.7675 -0.4163
 3327SOL    HW221615   0.057   3.194  12.314  0.7672  1.1158  0.0147
 3328SOL     OW21616   3.437   0.765   3.627 -0.1568  0.4349 -0.1908
 3328SOL    HW121617   3.361   0.818   3.649 -0.4024 -0.9537  2.3396
 3328SOL    HW221618   3.476   0.821   3.561  0.2490  0.4085  0.0303
 3329SOL     OW21619   1.187   3.222   8.391  0.2653 -0.3460  0.4226
 3329SOL    HW121620   1.123   3.155   8.416  0.6043 -0.2755  1.4910
 3329SOL    HW221621   1.145   3.260   8.314  0.5667 -0.1647  0.3496
 3330SOL     OW21622   0.461   0.887   8.027  0.0356 -0.2493  0.4311
 3330SOL    HW121623   0.485   0.817   8.088  0.6939 -0.9307 -0.6100
 3330SOL    HW221624   0.525   0.954   8.052  0.9840 -1.7220  2.0824
 3331SOL     OW21625   1.969   1.025   3.888  0.3837 -0.1634 -0.1978
 3331SOL    HW121626   1.945   1.105   3.840 -0.6781 -0.8806 -0.8714
 3331SOL    HW221627   1.935   1.044   3.976  0.8810  0.4692 -0.1418
 3332SOL     OW21628   2.214   3.670   8.035 -0.2804 -0.0682 -0.0762
 3332SOL    HW121629   2.254   3.631   7.958  0.6709 -0.4348  0.6038
 3332SOL    HW221630   2.284   3.731   8.060 -0.8053  0.4187  0.2133
 3333SOL     OW21631   0.905   1.065   6.843 -0.4427 -0.0445 -0.5580
 3333SOL    HW121632   0.957   0.984   6.841 -3.3131 -1.8604 -1.4181
 3333SOL    HW221633   0.816   1.036   6.821 -1.0840 -0.1684  2.1155
 3334SOL     OW21634   0.576   1.129   5.278 -0.3299  0.5666  0.1472
 3334SOL    HW121635   0.604   1.173   5.358 -0.7416  1.0025  0.0535
 3334SOL    HW221636   0.499   1.082   5.309 -0.4377  0.3478 -0.4410
 3335SOL     OW21637   1.063   3.385  17.466  0.5107  0.3265 -0.8736
 3335SOL    HW121638   0.982   3.404  17.419  0.6101 -0.4978 -1.3769
 3335SOL    HW221639   1.116   3.367  17.389  2.4453  1.3249  0.2204
 3336SOL     OW21640   3.161   2.811  17.014  0.0107  0.1198  0.0269
 3336SOL    HW121641   3.236   2.863  17.044  1.0150 -0.0197 -2.1776
 3336SOL    HW221642   3.203   2.731  16.980 -0.0602 -0.0796  0.4110
 3337SOL     OW21643   1.260   4.257   7.832 -0.3870  0.2570  0.3875
 3337SOL    HW121644   1.231   4.345   7.810  2.4021  0.3604 -2.9756
 3337SOL    HW221645   1.285   4.270   7.924 -2.1979 -0.1376  0.9299
 3338SOL     OW21646   0.768   0.262   3.020  0.2541 -0.2954  0.2221
 3338SOL    HW121647   0.775   0.209   2.940  0.7821 -1.2049  0.8669
 3338SOL    HW221648   0.675   0.277   3.005  0.6911  1.4277 -0.6809
 3339SOL     OW21649   2.012   1.252   2.708  0.1930 -0.2371 -0.4904
 3339SOL    HW121650   2.090   1.198   2.717  0.2990  0.1911  1.0096
 3339SOL    HW221651   1.969   1.191   2.647  1.2060  0.3429 -1.7682
 3340SOL     OW21652   4.662   1.361   4.070 -0.2877  0.2970 -0.1475
 3340SOL    HW121653   4.629   1.281   4.111 -2.7118  1.3455 -0.1054
 3340SOL    HW221654   4.684   1.338   3.980 -0.8084  1.7060 -0.6317
 3341SOL     OW21655   3.163   4.692  14.097 -0.6115 -0.1343  0.0507
 3341SOL    HW121656   3.199   0.020  14.158  1.4544 -0.9147 -0.3276
 3341SOL    HW221657   3.209   4.612  14.123 -0.1511  0.2535  0.4329
 3342SOL     OW21658   3.265   0.900  14.145  0.5118 -0.8628  0.1759
 3342SOL    HW121659   3.191   0.927  14.090  1.4648  0.6432 -0.3646
 3342SOL    HW221660   3.260   0.964  14.216  0.2908 -2.6131  1.7368
 3343SOL     OW21661   3.335   1.882  17.492 -0.1665  0.1516 -0.3662
 3343SOL    HW121662   3.271   1.832  17.543 -1.6399  0.5628 -1.8000
 3343SOL    HW221663   3.408   1.871  17.552 -0.4845 -1.3469 -0.2635
 3344SOL     OW21664   0.578   1.128   2.782 -0.1271  0.6478 -0.2544
 3344SOL    HW121665   0.506   1.087   2.830  1.7091 -1.8515  0.3885
 3344SOL    HW221666   0.533   1.111   2.699  1.2347 -3.5110 -0.1727
 3345SOL     OW21667   4.308   1.164   8.415  0.3038 -0.1789 -0.3164
 3345SOL    HW121668   4.379   1.136   8.358 -0.7904 -1.6860 -0.9430
 3345SOL    HW221669   4.283   1.251   8.384  1.0612  0.4880  0.9556
 3346SOL     OW21670   0.722   1.429   1.638  0.8316 -0.1149  0.2319
 3346SOL    HW121671   0.663   1.503   1.624  0.7858 -0.3929 -1.1227
 3346SOL    HW221672   0.685   1.364   1.578 -0.5392 -1.5325  2.6005
 3347SOL     OW21673   3.919   0.113  14.847  0.4941 -0.1313 -0.8305
 3347SOL    HW121674   3.879   0.042  14.796 -0.8872 -1.4617  2.0856
 3347SOL    HW221675   3.988   0.138  14.786 -1.5623  1.6670 -2.4338
 3348SOL     OW21676   3.894   0.710  15.736  0.5028 -0.3572  0.0677
 3348SOL    HW121677   3.858   0.686  15.651  1.1119 -0.3214 -0.1986
 3348SOL    HW221678   3.935   0.629  15.767  1.7376  0.6230  1.0082
 3349SOL     OW21679   1.277   3.148   1.071  0.3816 -0.2088  0.2644
 3349SOL    HW121680   1.330   3.081   1.027 -0.3856 -2.4026  2.7081
 3349SOL    HW221681   1.341   3.219   1.071  0.9320 -0.7106 -1.2501
 3350SOL     OW21682   0.972   1.554   8.287  0.0810 -0.3507  0.3070
 3350SOL    HW121683   0.985   1.513   8.201 -1.5307  4.5072 -2.2550
 3350SOL    HW221684   0.882   1.588   8.291 -0.6330 -2.2186  0.0497
 3351SOL     OW21685   0.392   2.792   8.013  0.1071 -0.4850 -0.0459
 3351SOL    HW121686   0.485   2.780   8.034  0.4660  2.7766  0.2337
 3351SOL    HW221687   0.404   2.867   7.955 -1.1544 -1.3648 -1.4580
 3352SOL     OW21688   3.328   1.844   5.992  0.2661  0.0468 -0.0116
 3352SOL    HW121689   3.405   1.893   5.962  1.1752 -1.0389  0.5180
 3352SOL    HW221690   3.262   1.913   5.997 -2.6788 -2.7226 -1.3481
 3353SOL     OW21691   2.639   3.653   3.358  0.0646  0.1638 -0.4904
 3353SOL    HW121692   2.717   3.604   3.381 -0.8259 -2.1391 -2.4710
 3353SOL    HW221693   2.640   3.724   3.423  3.9033 -0.6083  0.3097
 3354SOL     OW21694   4.193   3.683   1.343  0.2764 -0.2594  0.0170
 3354SOL    HW121695   4.162   3.604   1.298  0.5269  0.0800 -0.7640
 3354SOL    HW221696   4.148   3.671   1.426 -1.2059 -3.8002 -1.3059
 3355SOL     OW21697   2.300   2.009  13.404 -0.3343 -0.2450 -0.0075
 3355SOL    HW121698   2.279   1.952  13.477  0.0532 -0.3875 -0.0068
 3355SOL    HW221699   2.227   2.071  13.405 -0.3296 -0.2406  0.0500
 3356SOL     OW21700   1.261   2.052   2.852 -0.8177 -0.1625  0.3068
 3356SOL    HW121701   1.312   2.004   2.917 -2.6697 -0.1721  1.7231
 3356SOL    HW221702   1.224   2.120   2.908 -0.6646  0.8319 -0.7889
 3357SOL     OW21703   4.569   0.620  13.864  0.2982  0.1889 -0.1249
 3357SOL    HW121704   4.535   0.661  13.784  0.0605 -1.6066 -0.9263
 3357SOL    HW221705   4.520   0.538  13.855  0.7681 -0.2213  1.0267
 3358SOL     OW21706   1.131   3.693  11.517 -0.5558  0.0865 -0.1988
 3358SOL    HW121707   1.156   3.619  11.462 -0.7669 -1.1849  1.3747
 3358SOL    HW221708   1.213   3.741  11.511  1.2078 -2.8596  0.1914
 3359SOL     OW21709   0.384   0.254   5.851  0.0109 -0.2477  0.1645
 3359SOL    HW121710   0.385   0.186   5.784  0.5541 -1.7382  1.6764
 3359SOL    HW221711   0.307   0.231   5.903 -0.7837  1.3626 -0.2997
 3360SOL     OW21712   4.116   0.744   4.739 -0.4871  0.2830  1.0338
 3360SOL    HW121713   4.107   0.839   4.733  0.5122  0.2629 -0.8697
 3360SOL    HW221714   4.207   0.727   4.717 -1.2142 -1.1723 -0.8562
 3361SOL     OW21715   2.887   4.653   7.724  0.2802 -0.0688 -0.3017
 3361SOL    HW121716   2.880   4.637   7.819 -0.3033  1.7721 -0.0417
 3361SOL    HW221717   2.811   4.598   7.706  1.1149 -1.0424 -0.8355
 3362SOL     OW21718   3.704   2.437   3.970 -0.4257 -0.2160  0.0570
 3362SOL    HW121719   3.719   2.420   4.063  2.8468  0.4309 -0.3498
 3362SOL    HW221720   3.678   2.348   3.946 -1.6547  0.2088 -0.1766
 3363SOL     OW21721   1.985   1.603   4.741 -0.2568  0.3671  0.1072
 3363SOL    HW121722   2.079   1.587   4.738 -0.5251 -1.1743  0.1372
 3363SOL    HW221723   1.973   1.598   4.836 -1.8983  0.5073 -0.0915
 3364SOL     OW21724   3.634   2.226  14.273 -0.5262 -0.3705  0.0031
 3364SOL    HW121725   3.590   2.290  14.329  2.2460  2.7046 -1.3208
 3364SOL    HW221726   3.663   2.163  14.338 -0.0136 -1.5935 -1.4272
 3365SOL     OW21727   1.207   3.477   8.758  0.2675 -0.1097  0.1277
 3365SOL    HW121728   1.247   3.562   8.779 -0.1657  0.5223 -1.6021
 3365SOL    HW221729   1.275   3.440   8.702  0.2585  0.4776 -0.2703
 3366SOL     OW21730   2.942   0.070  16.808  0.2680  0.1584  0.0225
 3366SOL    HW121731   2.969   0.018  16.732 -1.0227  1.4773 -1.3366
 3366SOL    HW221732   2.944   0.155  16.763  1.7298 -1.0529 -2.1971
 3367SOL     OW21733   4.400   4.109   3.826 -0.1120 -0.1830  0.6774
 3367SOL    HW121734   4.454   4.043   3.868  0.3986 -1.0354 -1.3246
 3367SOL    HW221735   4.359   4.139   3.907 -0.0916  2.0291 -0.1230
 3368SOL     OW21736   3.288   3.315   7.431 -0.0420  0.3294 -0.0311
 3368SOL    HW121737   3.370   3.354   7.463 -0.8790  1.0186  1.2698
 3368SOL    HW221738   3.307   3.222   7.439  1.6355  0.4487 -2.5850
 3369SOL     OW21739   0.754   0.197   4.815 -0.6165  0.7042  0.1589
 3369SOL    HW121740   0.670   0.242   4.813 -1.9402 -1.8099 -0.1166
 3369SOL    HW221741   0.796   0.230   4.895  1.3737  0.3743 -0.7651
 3370SOL     OW21742   4.400   0.295   1.434  0.2874  0.2153  0.4908
 3370SOL    HW121743   4.353   0.362   1.384  0.4858  0.2661  0.3715
 3370SOL    HW221744   4.480   0.339   1.462  1.5383 -0.0667 -2.6557
 3371SOL     OW21745   0.160   2.491   8.783 -0.0332  0.6917 -0.4487
 3371SOL    HW121746   0.205   2.435   8.720 -0.7236 -1.0140  0.5681
 3371SOL    HW221747   0.070   2.477   8.756  0.2063 -0.5564 -0.5988
 3372SOL     OW21748   3.661   4.114   8.761 -0.2202  0.1920  0.3321
 3372SOL    HW121749   3.729   4.148   8.820  0.9785  0.4520 -1.1890
 3372SOL    HW221750   3.618   4.045   8.811  1.0270  0.9686  2.5150
 3373SOL     OW21751   3.831   1.107   3.086 -0.0167 -0.3350 -0.0048
 3373SOL    HW121752   3.925   1.117   3.104 -0.7453  0.9654  3.0396
 3373SOL    HW221753   3.823   1.053   3.008 -1.1848  0.2488 -0.2795
 3374SOL     OW21754   1.143   2.206  11.646 -0.5540  0.0939  0.3415
 3374SOL    HW121755   1.158   2.298  11.666 -1.9527  0.0158  1.7721
 3374SOL    HW221756   1.082   2.218  11.573  1.2999 -0.6096 -1.3267
 3375SOL     OW21757   3.209   2.218   4.485  0.3298  0.5563 -0.2499
 3375SOL    HW121758   3.152   2.141   4.491  0.5933  0.5351  1.7800
 3375SOL    HW221759   3.169   2.277   4.421  0.2388  0.2943 -0.4363
 3376SOL     OW21760   0.147   0.374   6.312  0.3513 -0.7845 -0.0245
 3376SOL    HW121761   0.071   0.403   6.260  1.3226  2.2679  0.2696
 3376SOL    HW221762   0.128   0.420   6.393  0.4712 -1.2226  0.2517
 3377SOL     OW21763   2.891   3.439  12.013 -0.2002 -0.9548 -0.7351
 3377SOL    HW121764   2.894   3.471  12.103  0.8672  2.6676 -2.0582
 3377SOL    HW221765   2.823   3.483  11.962  0.0848  0.8213  0.3980
 3378SOL     OW21766   2.255   2.660   3.858  0.6175 -0.0949 -0.2960
 3378SOL    HW121767   2.231   2.724   3.925 -1.0742 -0.2079 -0.7907
 3378SOL    HW221768   2.306   2.717   3.799  0.0744  1.8384  1.1149
 3379SOL     OW21769   1.125   4.649   0.608 -0.2190 -0.3521  0.1081
 3379SOL    HW121770   1.067   4.607   0.545 -0.8027 -2.3953  1.9986
 3379SOL    HW221771   1.156   4.721   0.555 -0.3487 -0.4348 -0.0788
 3380SOL     OW21772   3.675   2.944   3.563  0.2742  0.6143  0.0910
 3380SOL    HW121773   3.705   2.858   3.594  1.4330  0.8722 -0.3254
 3380SOL    HW221774   3.759   2.980   3.537  0.5771 -0.2020 -0.0652
 3381SOL     OW21775   1.193   2.006   6.152 -0.2476 -0.3100 -0.0394
 3381SOL    HW121776   1.283   1.992   6.183 -0.9078 -2.3456  0.9860
 3381SOL    HW221777   1.152   2.022   6.237 -0.0231 -1.2496  0.2522
 3382SOL     OW21778   3.403   0.749   3.116  0.4003  0.8598  0.4181
 3382SOL    HW121779   3.468   0.739   3.047 -1.3612  0.4038 -1.1956
 3382SOL    HW221780   3.347   0.818   3.081 -0.1807 -0.1544 -0.6366
 3383SOL     OW21781   3.711   1.528   5.939  0.6275  0.2587  0.2871
 3383SOL    HW121782   3.630   1.500   5.982  1.5493  0.5351  2.1772
 3383SOL    HW221783   3.681   1.512   5.849  0.6890  0.9290  0.1489
 3384SOL     OW21784   3.065   4.181  14.656  0.7107  0.1780 -0.1707
 3384SOL    HW121785   3.094   4.210  14.742 -2.6663 -0.6125  1.2618
 3384SOL    HW221786   3.019   4.259  14.625 -0.2613  0.3186  1.6240
 3385SOL     OW21787   2.107   0.429  12.543  0.4166 -0.0696 -0.4373
 3385SOL    HW121788   2.115   0.506  12.599 -0.8656 -0.6134  0.5079
 3385SOL    HW221789   2.158   0.371  12.600  2.4583  2.6223  0.4314
 3386SOL     OW21790   4.528   0.071   8.247  0.2128 -0.0522  1.2427
 3386SOL    HW121791   4.446   0.028   8.270  0.4212 -1.4625 -0.5885
 3386SOL    HW221792   4.506   0.090   8.156  1.6823 -0.5407  0.7813
 3387SOL     OW21793   2.355   3.652   6.201  0.6075 -0.2892 -0.1105
 3387SOL    HW121794   2.424   3.694   6.151  0.6466  2.2425  2.1150
 3387SOL    HW221795   2.392   3.631   6.287 -0.2210 -0.7804  0.1364
 3388SOL     OW21796   2.588   3.579  17.235 -0.3924  0.5032 -0.1240
 3388SOL    HW121797   2.655   3.581  17.168 -1.4572 -0.3368 -1.2142
 3388SOL    HW221798   2.639   3.584  17.316 -0.4875  1.1068 -0.0966
 3389SOL     OW21799   0.175   3.089  11.842  0.0650  0.2244  0.3954
 3389SOL    HW121800   0.124   3.167  11.864  0.8191  0.5105  1.1406
 3389SOL    HW221801   0.108   3.051  11.785 -0.1222  1.4639 -0.2081
 3390SOL     OW21802   0.942   1.024   8.240 -0.3254 -0.0630  0.3332
 3390SOL    HW121803   1.001   0.966   8.290  0.3769  0.3469 -0.0245
 3390SOL    HW221804   0.983   1.107   8.261  0.2849 -0.7507  1.8994
 3391SOL     OW21805   3.418   4.205   2.147  0.0024  0.1687  0.5352
 3391SOL    HW121806   3.513   4.207   2.134 -0.4481 -1.5762 -3.1005
 3391SOL    HW221807   3.404   4.140   2.215  0.0056 -0.3789  0.0128
 3392SOL     OW21808   1.707   2.602  12.048 -0.3189  0.3394 -0.6488
 3392SOL    HW121809   1.786   2.581  11.999  0.6182 -2.3189  1.9855
 3392SOL    HW221810   1.661   2.519  12.047 -0.8317  0.6401 -1.7064
 3393SOL     OW21811   3.491   0.391   9.043 -0.6984 -0.1887 -0.6042
 3393SOL    HW121812   3.425   0.460   9.035  1.4124  1.8624 -0.1858
 3393SOL    HW221813   3.562   0.449   9.070 -1.6636 -0.4658  2.6221
 3394SOL     OW21814   3.322   2.204   9.338  0.3446 -0.3558  0.2828
 3394SOL    HW121815   3.291   2.116   9.361  0.2654 -0.8007 -1.4990
 3394SOL    HW221816   3.401   2.172   9.294 -0.2851 -0.3240 -0.8812
 3395SOL     OW21817   1.482   3.684  11.802  0.5477  0.4639  0.2722
 3395SOL    HW121818   1.577   3.693  11.794  0.2130  3.2629 -0.2999
 3395SOL    HW221819   1.444   3.754  11.750 -1.0285 -1.0039 -0.5614
 3396SOL     OW21820   3.613   2.266   5.354 -0.4483 -0.1656 -0.0618
 3396SOL    HW121821   3.533   2.218   5.332 -0.0545 -0.6581 -0.4224
 3396SOL    HW221822   3.650   2.209   5.421  2.2080  2.3192  0.5870
 3397SOL     OW21823   0.971   2.178   1.447  0.4259 -0.7673  0.0820
 3397SOL    HW121824   0.952   2.271   1.433 -0.3791 -0.8438  0.6630
 3397SOL    HW221825   1.065   2.173   1.427  0.7913 -2.7779  2.3212
 3398SOL     OW21826   3.374   4.076   5.997  0.0126  0.7123  0.7478
 3398SOL    HW121827   3.325   4.132   5.935 -1.4144 -1.3141  0.0438
 3398SOL    HW221828   3.381   3.997   5.943 -2.7717  1.9232 -1.3934
 3399SOL     OW21829   1.969   1.626   5.646 -0.7239 -0.4996 -0.3515
 3399SOL    HW121830   1.928   1.561   5.702  2.3239  0.0813  2.5901
 3399SOL    HW221831   1.921   1.620   5.564 -0.3650 -3.0635 -0.3554
 3400SOL     OW21832   0.079   1.677   1.364 -0.1977  0.1351 -0.1652
 3400SOL    HW121833   0.040   1.726   1.437  0.3822  1.1037 -0.5070
 3400SOL    HW221834   0.133   1.741   1.317  0.3608 -0.0185  0.2670
 3401SOL     OW21835   3.989   0.622  10.148 -0.1350  0.9249  0.0627
 3401SOL    HW121836   3.951   0.595  10.065 -1.6874  0.6325  0.8562
 3401SOL    HW221837   4.029   0.538  10.173 -0.6518  0.6759  0.0617
 3402SOL     OW21838   0.707   1.430   3.184  0.5194  0.2607 -0.2896
 3402SOL    HW121839   0.751   1.415   3.100 -2.0145 -1.4448 -1.3067
 3402SOL    HW221840   0.628   1.377   3.182  0.1794  0.6405  2.0688
 3403SOL     OW21841   4.520   4.469   1.742  0.5174  0.1813 -0.1320
 3403SOL    HW121842   4.443   4.491   1.794  0.7703 -0.9612  0.7158
 3403SOL    HW221843   4.560   4.550   1.712 -0.6374  0.1447 -1.8047
 3404SOL     OW21844   4.304   4.596   2.874  0.3362  0.0965  0.4733
 3404SOL    HW121845   4.285   4.666   2.812  0.6811  0.1127  0.3888
 3404SOL    HW221846   4.349   4.527   2.826 -0.4507 -0.5911  0.7105
 3405SOL     OW21847   4.453   4.415   3.625  0.5337 -0.3814  0.5671
 3405SOL    HW121848   4.406   4.442   3.546  0.3648 -0.4129  0.6558
 3405SOL    HW221849   4.457   4.498   3.672 -1.6743  0.4198 -0.6708
 3406SOL     OW21850   0.433   1.586   2.911 -0.2224 -0.0470 -0.1242
 3406SOL    HW121851   0.419   1.567   3.003 -1.7784  0.8772 -0.1618
 3406SOL    HW221852   0.528   1.581   2.901 -0.2865  0.8991 -1.2713
 3407SOL     OW21853   1.474   3.666   6.266  0.6564  0.2433  0.3303
 3407SOL    HW121854   1.398   3.612   6.289  0.2353  0.7557  0.1646
 3407SOL    HW221855   1.537   3.599   6.240 -1.5700 -2.3806  1.6814
 3408SOL     OW21856   4.012   0.875   7.673 -0.2904 -1.0667 -0.4281
 3408SOL    HW121857   3.996   0.953   7.727 -0.5379 -1.3746 -0.0564
 3408SOL    HW221858   4.107   0.888   7.671 -0.3864 -0.1766  0.4515
 3409SOL     OW21859   0.974   3.149  17.637  0.3866 -0.3658 -0.1419
 3409SOL    HW121860   1.038   3.136  17.707  1.3552  4.0856 -0.1770
 3409SOL    HW221861   1.013   3.209  17.573  1.7493 -0.1112  0.9332
 3410SOL     OW21862   1.075   0.630  14.858 -0.6963 -0.5129 -0.1959
 3410SOL    HW121863   1.148   0.591  14.907 -0.5444 -1.1643 -0.9470
 3410SOL    HW221864   1.013   0.558  14.853  0.1837 -1.4177  1.9874
 3411SOL     OW21865   2.561   1.648   8.947 -0.1958 -0.0091  0.5176
 3411SOL    HW121866   2.469   1.643   8.973 -0.3183  2.8320  0.7142
 3411SOL    HW221867   2.557   1.743   8.931  0.5721 -0.4681 -2.5224
 3412SOL     OW21868   4.077   3.021   1.548 -0.5767  0.4378 -0.5651
 3412SOL    HW121869   4.051   3.022   1.456 -1.1551 -1.0179 -0.4168
 3412SOL    HW221870   3.988   3.013   1.582 -0.4447 -1.3803 -0.6526
 3413SOL     OW21871   2.523   1.795   7.156  0.5818 -0.1112  0.0757
 3413SOL    HW121872   2.455   1.851   7.194 -2.5792 -3.7053 -0.3042
 3413SOL    HW221873   2.551   1.853   7.085 -0.6767  0.7327  0.2539
 3414SOL     OW21874   1.031   4.421   4.739 -0.1749  0.4000  0.2083
 3414SOL    HW121875   1.112   4.392   4.781 -0.7381 -2.4321 -0.6198
 3414SOL    HW221876   1.068   4.486   4.680 -0.7175 -0.9044 -1.5793
 3415SOL     OW21877   4.499   0.085  13.577  0.3124 -0.7407 -0.1156
 3415SOL    HW121878   4.514   4.732  13.546 -1.3204 -1.2053  0.4470
 3415SOL    HW221879   4.555   0.091  13.655  1.2523 -1.6876 -0.7059
 3416SOL     OW21880   0.107   3.745   4.628 -0.2007  0.3643 -0.1011
 3416SOL    HW121881   0.181   3.771   4.574  0.3175 -1.0074 -0.0373
 3416SOL    HW221882   0.114   3.786   4.714 -1.9268  0.8071 -0.1635
 3417SOL     OW21883   0.095   3.717   5.156 -0.5895  0.1294 -0.0258
 3417SOL    HW121884   0.181   3.737   5.191 -0.5752 -1.2656  0.7183
 3417SOL    HW221885   0.041   3.790   5.188 -0.1751  0.9982 -1.2683
 3418SOL     OW21886   2.566   4.610   2.981 -0.2424 -0.7455  0.1459
 3418SOL    HW121887   2.589   4.602   2.889  1.0060 -0.0315  0.4105
 3418SOL    HW221888   2.512   4.689   2.980 -1.6117 -1.6509  2.2073
 3419SOL     OW21889   0.984   0.367  10.015  0.0437 -0.1253  0.0708
 3419SOL    HW121890   0.894   0.356  10.043  0.3589 -1.6560  0.4667
 3419SOL    HW221891   1.012   0.279  10.039 -1.4086 -0.2062  1.4172
 3420SOL     OW21892   0.446   0.853   0.162  0.5099  0.3646 -0.4881
 3420SOL    HW121893   0.410   0.794   0.228 -1.1403  0.7412 -1.0497
 3420SOL    HW221894   0.391   0.929   0.181  0.4496 -0.3635  2.2135
 3421SOL     OW21895   0.897   3.857   6.416 -0.0727  0.4837 -0.6154
 3421SOL    HW121896   0.918   3.788   6.354 -2.1427  0.9894 -1.8853
 3421SOL    HW221897   0.824   3.815   6.463 -0.5057  1.7097 -0.1988
 3422SOL     OW21898   2.997   4.122  16.085 -0.7544  0.2772 -0.1257
 3422SOL    HW121899   3.080   4.169  16.095 -1.5131  1.4247  0.8885
 3422SOL    HW221900   2.935   4.186  16.123  1.0024  2.1131 -0.3651
 3423SOL     OW21901   0.808   4.425   1.218  0.5721 -0.0808  0.2245
 3423SOL    HW121902   0.886   4.453   1.170 -1.2699  3.2070 -0.8756
 3423SOL    HW221903   0.809   4.486   1.291 -3.7906  0.4743 -0.1468
 3424SOL     OW21904   3.093   1.003   7.024  0.5546 -0.4611 -0.1416
 3424SOL    HW121905   3.148   0.948   6.969  0.7022 -2.5533  2.1100
 3424SOL    HW221906   3.115   1.091   6.992 -1.7552 -0.9729 -3.1307
 3425SOL     OW21907   2.217   3.034   2.997 -0.1232  0.7710 -0.3836
 3425SOL    HW121908   2.167   3.054   3.076 -0.1005 -0.2221 -0.1158
 3425SOL    HW221909   2.273   3.110   2.981 -0.9717  1.8286  1.7076
 3426SOL     OW21910   2.150   2.117  15.654  0.4602 -0.3870  0.4287
 3426SOL    HW121911   2.073   2.087  15.604  1.8368  0.3882 -2.1867
 3426SOL    HW221912   2.221   2.075  15.605  1.1126  0.2214  0.8572
 3427SOL     OW21913   0.066   0.671   4.803 -0.1579  0.1993  0.0348
 3427SOL    HW121914   0.037   0.716   4.724  2.6888  0.4520 -0.8857
 3427SOL    HW221915   0.110   0.748   4.839 -1.5980 -0.0664  2.3134
 3428SOL     OW21916   3.517   2.874  16.654 -0.1551 -0.6279 -0.3259
 3428SOL    HW121917   3.525   2.912  16.741  0.3209  1.1065 -1.1349
 3428SOL    HW221918   3.491   2.958  16.616  2.0423  0.7684  1.2783
 3429SOL     OW21919   2.217   4.531  11.511 -0.0496 -0.6591  0.0232
 3429SOL    HW121920   2.211   4.623  11.537  0.3892 -0.7243  0.3409
 3429SOL    HW221921   2.144   4.491  11.558 -0.7570  1.9584  1.1368
 3430SOL     OW21922   1.965   3.738   5.513 -0.3491 -0.2017  0.1436
 3430SOL    HW121923   1.892   3.677   5.517 -0.6180  0.0646 -0.8120
 3430SOL    HW221924   2.045   3.685   5.513 -1.6334 -2.1332 -0.3636
 3431SOL     OW21925   2.459   4.327   2.260 -0.5784  0.5911 -0.6331
 3431SOL    HW121926   2.435   4.310   2.168 -2.1041  1.6009 -0.4276
 3431SOL    HW221927   2.388   4.389   2.279  1.1043  2.1125  0.6415
 3432SOL     OW21928   0.283   3.256  14.049  0.2864  0.5131  0.2802
 3432SOL    HW121929   0.336   3.326  14.011 -0.4904  2.9502  3.6537
 3432SOL    HW221930   0.190   3.274  14.038  0.5400  0.8271 -1.3674
 3433SOL     OW21931   1.437   0.775   1.616 -0.0925 -0.4316 -0.4958
 3433SOL    HW121932   1.516   0.722   1.602  1.4857  2.1119 -1.2447
 3433SOL    HW221933   1.413   0.796   1.526 -0.5226 -0.7545 -0.4571
 3434SOL     OW21934   2.735   0.784  10.619  0.8559  0.5418  0.5824
 3434SOL    HW121935   2.659   0.725  10.618  0.7745  0.6286  2.0916
 3434SOL    HW221936   2.741   0.813  10.528 -2.1924  2.3405  0.9687
 3435SOL     OW21937   0.276   3.172   2.514 -0.2521  0.3997 -0.6109
 3435SOL    HW121938   0.350   3.187   2.573 -1.2535 -2.9758  1.5165
 3435SOL    HW221939   0.204   3.139   2.566 -0.4110  0.7160 -0.6360
 3436SOL     OW21940   1.691   1.770   2.593 -0.1848 -0.2512 -0.5461
 3436SOL    HW121941   1.700   1.850   2.645 -1.4125 -0.9818  0.8075
 3436SOL    HW221942   1.780   1.736   2.582  0.0034  0.3824 -0.9709
 3437SOL     OW21943   0.269   3.302   4.612 -0.5991  0.1490 -0.4332
 3437SOL    HW121944   0.222   3.349   4.543  0.4308  2.5844  0.5229
 3437SOL    HW221945   0.238   3.357   4.683  3.0399  1.2788  0.2722
 3438SOL     OW21946   2.748   3.054   6.257  0.2799 -0.6801 -0.7988
 3438SOL    HW121947   2.676   3.107   6.221  0.2451 -1.4740 -1.9109
 3438SOL    HW221948   2.783   3.122   6.314 -0.6367  0.5158 -1.6551
 3439SOL     OW21949   4.381   3.380   5.366  0.8605  0.0467  0.0618
 3439SOL    HW121950   4.436   3.426   5.303  0.2300 -1.0994 -1.3023
 3439SOL    HW221951   4.363   3.449   5.430  1.6415  0.7027 -0.4416
 3440SOL     OW21952   0.323   1.308   0.251  0.0919 -0.5255 -0.0814
 3440SOL    HW121953   0.281   1.385   0.290 -2.5238 -1.6227 -0.6985
 3440SOL    HW221954   0.360   1.265   0.328 -2.5716 -0.8189  1.0408
 3441SOL     OW21955   3.730   2.770   5.338 -0.0426 -0.6688 -0.5351
 3441SOL    HW121956   3.806   2.735   5.385 -0.8615 -1.1355  0.4467
 3441SOL    HW221957   3.691   2.826   5.405  1.2232  0.2502 -0.5747
 3442SOL     OW21958   0.050   3.762   5.789 -0.4974 -1.0235 -0.1859
 3442SOL    HW121959   4.713   3.702   5.800 -0.9557 -0.1836  1.3545
 3442SOL    HW221960   0.115   3.723   5.848 -1.1589 -0.4071  0.9409
 3443SOL     OW21961   2.093   2.257   0.679  0.4585 -0.0020 -0.0409
 3443SOL    HW121962   2.117   2.164   0.686  0.0738 -0.2931 -2.5204
 3443SOL    HW221963   2.153   2.306   0.736  0.6605  0.4776 -0.6679
 3444SOL     OW21964   2.343   4.126   3.119  0.6935 -0.0039  0.3607
 3444SOL    HW121965   2.345   4.045   3.170  0.0065  0.1866  0.6937
 3444SOL    HW221966   2.329   4.193   3.186 -0.5904 -0.6004  0.6943
 3445SOL     OW21967   1.381   2.795  16.664  0.1267  0.1292  0.2124
 3445SOL    HW121968   1.460   2.824  16.618  0.3785 -1.8226 -0.5831
 3445SOL    HW221969   1.328   2.874  16.652  0.0660  0.2557  1.3303
 3446SOL     OW21970   2.227   4.150   9.080  0.1709 -0.3508  0.0208
 3446SOL    HW121971   2.180   4.219   9.127  1.5118  1.0086 -0.6303
 3446SOL    HW221972   2.260   4.093   9.150  1.1660 -1.1436 -1.0978
 3447SOL     OW21973   3.162   2.580  16.596 -0.4612 -0.3155  0.5293
 3447SOL    HW121974   3.243   2.594  16.548  0.7817  0.7543  2.9523
 3447SOL    HW221975   3.154   2.665  16.639 -2.9764 -0.6088  0.6586
 3448SOL     OW21976   4.661   3.475   9.630  0.1159 -0.5080 -0.0932
 3448SOL    HW121977   4.701   3.552   9.590 -0.1959  1.4727  3.4575
 3448SOL    HW221978   0.005   3.427   9.650 -0.7253 -2.3063 -0.9823
 3449SOL     OW21979   0.679   1.334   4.705 -0.1516 -0.0487  0.2380
 3449SOL    HW121980   0.751   1.387   4.671  0.1383 -1.5769 -1.5055
 3449SOL    HW221981   0.634   1.405   4.751 -1.6230 -2.6631  2.8114
 3450SOL     OW21982   4.460   1.784   8.663 -0.0728  0.1016 -0.3649
 3450SOL    HW121983   4.529   1.728   8.699  0.8940  0.3287 -1.8474
 3450SOL    HW221984   4.427   1.811   8.748 -0.0755  3.3120 -1.4154
 3451SOL     OW21985   3.912   0.191   2.660  0.3521  0.7511 -0.3611
 3451SOL    HW121986   3.817   0.202   2.666 -0.0937 -3.1676 -0.3314
 3451SOL    HW221987   3.920   0.150   2.574 -2.4533  0.5719 -0.5368
 3452SOL     OW21988   4.465   4.369   8.502 -0.5187  0.2483  0.1098
 3452SOL    HW121989   4.443   4.315   8.578  1.1878  0.5406  0.8293
 3452SOL    HW221990   4.518   4.433   8.550 -0.2384 -0.7091  1.0641
 3453SOL     OW21991   3.813   4.047   1.328 -0.0628 -0.2418 -0.0141
 3453SOL    HW121992   3.806   4.062   1.233  1.4380  0.8434  0.0390
 3453SOL    HW221993   3.907   4.044   1.343 -0.1873 -0.2788  0.7313
 3454SOL     OW21994   1.878   1.436   7.437  0.1426 -0.0170 -0.0325
 3454SOL    HW121995   1.953   1.381   7.455 -0.0313 -0.5757 -0.9932
 3454SOL    HW221996   1.812   1.388   7.486 -0.4697  0.1292 -0.7064
 3455SOL     OW21997   0.690   3.749   8.442 -0.6754  0.6528  0.4757
 3455SOL    HW121998   0.717   3.787   8.526  0.2508  3.3362 -1.0354
 3455SOL    HW221999   0.615   3.697   8.470 -0.3817  0.6322  1.2357
 3456SOL     OW22000   2.933   3.708   1.843  0.3951 -0.4323 -0.3576
 3456SOL    HW122001   2.925   3.624   1.799  0.4000 -1.3559  1.3907
 3456SOL    HW222002   2.843   3.735   1.866  0.9516 -1.1376  2.7253
 3457SOL     OW22003   1.030   4.715   8.013 -0.0506  0.0338  0.4530
 3457SOL    HW122004   0.987   0.022   8.086 -1.1238  0.2625 -0.3172
 3457SOL    HW222005   1.122   4.721   8.041  0.1724 -2.7945  0.3652
 3458SOL     OW22006   3.267   0.265   1.082 -0.2950  0.0697  0.5923
 3458SOL    HW122007   3.313   0.347   1.066  0.3562  0.0464  2.3962
 3458SOL    HW222008   3.337   0.217   1.125 -0.5801 -0.1125  0.8500
 3459SOL     OW22009   0.092   2.701  11.288  0.3378  0.4220 -0.2732
 3459SOL    HW122010   0.003   2.733  11.304  0.2868 -0.8154  1.8170
 3459SOL    HW222011   0.112   2.655  11.369 -0.0866  1.3469  0.3503
 3460SOL     OW22012   3.185   3.965   2.522  0.3318 -0.1166 -0.5165
 3460SOL    HW122013   3.205   3.876   2.549  1.1929  0.4280  0.6514
 3460SOL    HW222014   3.112   3.952   2.461  1.3926  1.5320 -2.1530
 3461SOL     OW22015   1.385   4.560   4.544  0.0450  0.2871 -0.5625
 3461SOL    HW122016   1.453   4.608   4.496 -0.5720  1.0193 -0.7134
 3461SOL    HW222017   1.352   4.492   4.485 -0.8577  0.7844 -0.6319
 3462SOL     OW22018   1.977   3.395  15.710 -0.0287 -0.3109  0.0076
 3462SOL    HW122019   1.942   3.433  15.630  4.5904  2.2837 -0.7889
 3462SOL    HW222020   2.033   3.325  15.677  0.9447  1.1843 -1.4705
 3463SOL     OW22021   3.879   2.373  17.034 -0.4226  0.2917  0.4595
 3463SOL    HW122022   3.880   2.411  17.122 -1.8718  0.0850  0.5727
 3463SOL    HW222023   3.973   2.358  17.035 -0.7867 -1.8051  3.5566
 3464SOL     OW22024   3.183   1.257   5.462 -0.1025  0.1258 -0.2037
 3464SOL    HW122025   3.189   1.187   5.527  1.0369 -0.8684 -1.3987
 3464SOL    HW222026   3.094   1.288   5.483 -0.3065 -0.7956  0.2873
 3465SOL     OW22027   4.218   4.685   5.326  0.3967  0.1630  0.4357
 3465SOL    HW122028   4.216   0.030   5.278 -0.9002  0.4191  0.9304
 3465SOL    HW222029   4.314   4.676   5.325  0.2481 -1.2449 -1.1040
 3466SOL     OW22030   3.678   2.702  11.979  0.3969  0.1532 -0.0888
 3466SOL    HW122031   3.637   2.787  11.962 -0.9596 -0.2011  1.4367
 3466SOL    HW222032   3.707   2.716  12.069 -1.0501 -1.7043  0.6696
 3467SOL     OW22033   2.416   2.259   5.409  0.1453 -0.4096  0.4447
 3467SOL    HW122034   2.468   2.338   5.422  1.0743 -0.9249 -0.1582
 3467SOL    HW222035   2.424   2.214   5.493 -0.4230 -1.2765  0.0349
 3468SOL     OW22036   4.350   2.333   3.089  0.0937  0.3312 -0.0355
 3468SOL    HW122037   4.352   2.382   3.007 -1.0958  1.9779  0.9007
 3468SOL    HW222038   4.296   2.258   3.063  2.9980 -1.5408 -0.7184
 3469SOL     OW22039   1.120   0.275  12.342  0.1542 -0.0434  0.0394
 3469SOL    HW122040   1.215   0.289  12.349 -0.2403  3.1145 -1.1454
 3469SOL    HW222041   1.104   0.246  12.432 -1.6738 -1.2521 -0.6917
 3470SOL     OW22042   4.091   2.899  13.754 -0.3169 -0.6098 -0.0458
 3470SOL    HW122043   4.039   2.909  13.834 -1.3193 -0.6335 -0.6939
 3470SOL    HW222044   4.117   2.807  13.753  0.3357 -0.4084 -0.8511
 3471SOL     OW22045   2.715   0.984   7.562 -0.2981  0.0354  0.2057
 3471SOL    HW122046   2.736   0.890   7.559 -1.2181 -0.1578 -0.1896
 3471SOL    HW222047   2.624   0.973   7.589 -0.6929  0.7215 -0.8241
 3472SOL     OW22048   3.197   3.788   3.272 -0.1449 -0.2863  0.1135
 3472SOL    HW122049   3.202   3.855   3.341 -0.6457  1.1043 -1.2067
 3472SOL    HW222050   3.232   3.832   3.195 -1.2546  2.2456  1.0643
 3473SOL     OW22051   2.685   0.458   3.429 -0.2050 -0.1144  0.3641
 3473SOL    HW122052   2.730   0.497   3.355  1.7911  1.2663  2.3017
 3473SOL    HW222053   2.674   0.542   3.474  0.1982  0.7776 -1.2352
 3474SOL     OW22054   2.405   1.744   9.358 -0.5202  0.0360  0.0572
 3474SOL    HW122055   2.406   1.805   9.285 -2.0854 -1.4311 -1.1915
 3474SOL    HW222056   2.472   1.681   9.333  0.5470  2.1358 -2.3754
 3475SOL     OW22057   4.195   4.488   7.132 -0.6115  0.5365 -0.6748
 3475SOL    HW122058   4.288   4.506   7.145 -0.9168  1.0931  0.7880
 3475SOL    HW222059   4.188   4.469   7.038  3.7914 -2.4448 -0.4024
 3476SOL     OW22060   0.528   0.676   9.805  0.3336 -0.3060  0.0534
 3476SOL    HW122061   0.524   0.650   9.897 -0.5061  0.9919  0.3781
 3476SOL    HW222062   0.483   0.761   9.804  0.4038 -0.2436  4.3638
 3477SOL     OW22063   2.478   4.012  11.073  0.3410  0.3385 -0.2158
 3477SOL    HW122064   2.490   3.926  11.032 -0.6344 -1.1292  2.6095
 3477SOL    HW222065   2.413   4.041  11.009 -0.9158 -1.2768  0.3332
 3478SOL     OW22066   0.229   1.228  10.621 -0.0002  0.0815  0.3849
 3478SOL    HW122067   0.221   1.214  10.716 -1.8242  0.9692  0.3553
 3478SOL    HW222068   0.318   1.261  10.632 -0.2282  0.3183  1.5131
 3479SOL     OW22069   1.397   1.148   5.927 -0.2094 -0.2732 -0.4842
 3479SOL    HW122070   1.418   1.070   5.876  0.4164 -0.5738  0.2256
 3479SOL    HW222071   1.415   1.115   6.015  0.9203  0.5692 -0.3918
 3480SOL     OW22072   2.675   4.556  14.703  0.2109 -0.1346  0.1857
 3480SOL    HW122073   2.588   4.521  14.721  0.3381 -1.1455 -1.1900
 3480SOL    HW222074   2.653   4.626  14.642 -1.6945  0.4458  1.5312
 3481SOL     OW22075   1.065   4.301   3.599  0.2038  0.3256 -0.5176
 3481SOL    HW122076   1.063   4.238   3.671  1.1180 -0.0536 -0.8157
 3481SOL    HW222077   1.040   4.239   3.531  0.3451 -0.3948  0.0856
 3482SOL     OW22078   2.628   3.977   4.790  0.6371 -0.2090  0.6982
 3482SOL    HW122079   2.541   3.968   4.830  0.0305  4.5733  0.4670
 3482SOL    HW222080   2.605   3.970   4.697  2.1422 -0.6397  0.3688
 3483SOL     OW22081   4.399   3.022   3.323 -0.0633 -0.2409 -0.4639
 3483SOL    HW122082   4.380   3.022   3.229  0.5195 -1.8831 -0.5860
 3483SOL    HW222083   4.483   2.977   3.313 -0.3426 -1.0499  0.8386
 3484SOL     OW22084   4.451   2.960   5.728 -0.3710 -0.1852 -0.1548
 3484SOL    HW122085   4.401   2.953   5.647  2.1126  1.1297 -1.8227
 3484SOL    HW222086   4.390   3.002   5.788  0.2409 -0.7905  0.8876
 3485SOL     OW22087   4.241   0.919   5.883  0.1866 -0.1745 -0.1780
 3485SOL    HW122088   4.280   0.847   5.832  0.8851  1.0618 -1.3757
 3485SOL    HW222089   4.310   0.983   5.902  1.4636 -1.1594 -1.4294
 3486SOL     OW22090   0.720   0.880  11.050 -0.1436  0.0759 -0.4971
 3486SOL    HW122091   0.711   0.803  10.994  0.5901 -0.3657 -0.0095
 3486SOL    HW222092   0.776   0.933  10.995 -0.5644  2.2087  1.1196
 3487SOL     OW22093   4.564   0.743   5.058 -0.1432  0.3287  0.5036
 3487SOL    HW122094   4.651   0.780   5.070 -0.2377  0.2528  1.4005
 3487SOL    HW222095   4.509   0.801   5.110 -0.7462 -0.6787  1.0051
 3488SOL     OW22096   4.610   3.715  10.180 -0.3957 -0.1144  0.0280
 3488SOL    HW122097   4.654   3.717  10.095 -0.1050  0.7948  0.2031
 3488SOL    HW222098   4.676   3.717  10.249 -2.7192  4.0835  2.1166
 3489SOL     OW22099   2.586   0.017   8.891 -0.7197  0.2595 -0.0931
 3489SOL    HW122100   2.490   0.011   8.897 -0.7818  0.9287 -0.4513
 3489SOL    HW222101   2.602   0.005   8.797 -1.6111 -0.3048 -0.1758
 3490SOL     OW22102   1.363   3.239   4.018 -0.6079 -0.9513  0.5157
 3490SOL    HW122103   1.413   3.228   3.937 -0.5176  0.7931  0.3255
 3490SOL    HW222104   1.313   3.158   4.012  0.7279 -1.9465  2.6498
 3491SOL     OW22105   1.706   4.039  11.581  0.5792 -0.5410 -0.0034
 3491SOL    HW122106   1.689   3.945  11.588  0.2439 -0.6105 -1.6871
 3491SOL    HW222107   1.683   4.054  11.489  1.4878  1.7285  0.1441
 3492SOL     OW22108   2.283   1.611   2.472 -0.0582 -0.3938  0.3467
 3492SOL    HW122109   2.203   1.664   2.475  0.1417  0.1056 -3.2071
 3492SOL    HW222110   2.340   1.659   2.533  0.7986 -1.3177  0.2680
 3493SOL     OW22111   1.140   0.535   6.002 -0.3388  0.4351  0.8645
 3493SOL    HW122112   1.064   0.570   5.955 -0.5976 -1.1317  0.1200
 3493SOL    HW222113   1.155   0.606   6.064 -1.4926  0.6343  0.9243
 3494SOL     OW22114   4.005   0.762   6.810  0.7890 -0.2219  0.5585
 3494SOL    HW122115   3.973   0.674   6.829 -1.0177  0.1866 -0.5162
 3494SOL    HW222116   4.056   0.738   6.733  2.8145 -2.5837  2.6595
 3495SOL     OW22117   3.222   1.901   4.557 -0.7023 -0.2960 -0.9667
 3495SOL    HW122118   3.294   1.879   4.616 -2.2452 -3.7223 -0.3540
 3495SOL    HW222119   3.142   1.903   4.610 -0.7190 -3.4149 -0.9099
 3496SOL     OW22120   2.868   3.168   9.738 -0.5174  0.0045 -0.1781
 3496SOL    HW122121   2.903   3.083   9.765 -0.9727  0.1714  0.9243
 3496SOL    HW222122   2.776   3.151   9.754 -0.7775  1.4599 -0.1387
 3497SOL     OW22123   1.892   4.141   3.485  0.3595  0.0431 -0.1361
 3497SOL    HW122124   1.917   4.124   3.394 -0.2350 -0.1464 -0.2676
 3497SOL    HW222125   1.841   4.064   3.509 -0.1149  0.6364  0.7576
 3498SOL     OW22126   3.776   4.629  11.530  0.0918  0.0528 -0.0197
 3498SOL    HW122127   3.705   4.569  11.553 -0.0105  0.2658  0.2226
 3498SOL    HW222128   3.790   4.677  11.611 -0.0433 -2.2922  1.4012
 3499SOL     OW22129   2.822   4.152   5.468  0.2164 -0.3684  0.4783
 3499SOL    HW122130   2.739   4.198   5.484 -0.1823 -0.5307 -1.1569
 3499SOL    HW222131   2.851   4.200   5.391  2.9097 -1.1214  1.0404
 3500SOL     OW22132   1.575   0.007   3.724  0.2485  0.1386  0.3373
 3500SOL    HW122133   1.663   4.713   3.702  0.4502  1.3718 -0.6327
 3500SOL    HW222134   1.565   0.079   3.660 -0.3613 -0.1881  0.0642
 3501SOL     OW22135   2.814   0.002   9.330  0.6551  0.4114 -0.1283
 3501SOL    HW122136   2.746   0.042   9.384  0.1473  0.9530 -1.1836
 3501SOL    HW222137   2.820   4.655   9.377  0.1925  0.1579 -0.5311
 3502SOL     OW22138   0.883   4.627  17.036 -0.6373  0.3905 -0.0930
 3502SOL    HW122139   0.933   4.696  17.078  1.4762 -1.3204  0.2211
 3502SOL    HW222140   0.817   4.669  16.980  1.8764  2.0104 -1.8537
 3503SOL     OW22141   1.858   1.971   4.368 -0.2765  0.2144  0.3792
 3503SOL    HW122142   1.864   1.937   4.457  1.0612 -1.2038 -0.2465
 3503SOL    HW222143   1.869   1.890   4.317 -1.4439 -0.7636  1.6720
 3504SOL     OW22144   2.525   1.529   0.768 -0.0714 -0.5899  0.1645
 3504SOL    HW122145   2.432   1.534   0.744  0.6507 -3.3890 -3.2330
 3504SOL    HW222146   2.528   1.448   0.820  0.7545 -0.2952  0.5702
 3505SOL     OW22147   2.236   2.426   5.228  0.1283 -0.2106 -0.0193
 3505SOL    HW122148   2.247   2.343   5.274 -0.2100  0.2435  0.8801
 3505SOL    HW222149   2.160   2.458   5.277 -0.1634 -0.0888 -0.5548
 3506SOL     OW22150   3.335   2.894   3.132 -0.1264 -0.4109 -0.0233
 3506SOL    HW122151   3.425   2.880   3.162 -0.1438 -1.4531 -0.4572
 3506SOL    HW222152   3.339   2.988   3.150  0.0842 -1.1314  3.7198
 3507SOL     OW22153   0.821   3.391   3.129  0.2937 -0.1917  0.1134
 3507SOL    HW122154   0.785   3.311   3.169 -0.8329  1.1144  1.7040
 3507SOL    HW222155   0.785   3.449   3.196 -1.3685  1.0971 -1.9097
 3508SOL     OW22156   4.495   2.072  15.122 -0.3150  0.3562 -0.3058
 3508SOL    HW122157   4.422   2.020  15.155 -0.6172  1.0758  0.1516
 3508SOL    HW222158   4.561   2.002  15.127 -0.7817 -0.0077  0.7061
 3509SOL     OW22159   4.338   2.572  14.956 -0.6969 -0.0421 -0.4017
 3509SOL    HW122160   4.410   2.532  14.907 -2.3080 -0.3634 -2.5028
 3509SOL    HW222161   4.266   2.544  14.900 -0.7570 -1.8721  0.5901
 3510SOL     OW22162   1.529   2.374   6.592 -0.0960  1.0586 -0.4512
 3510SOL    HW122163   1.476   2.443   6.631 -1.5071 -0.3108  0.0366
 3510SOL    HW222164   1.516   2.398   6.500 -1.4737 -4.4502 -1.6915
 3511SOL     OW22165   0.560   1.133  10.827 -0.5042  0.0316  0.0118
 3511SOL    HW122166   0.486   1.083  10.792 -0.1604 -0.5547  0.1197
 3511SOL    HW222167   0.620   1.128  10.752 -0.2233 -1.0255  0.3002
 3512SOL     OW22168   2.704   0.401   7.339  0.1994 -0.4861 -0.3454
 3512SOL    HW122169   2.666   0.488   7.347  3.1345  0.6943  0.8301
 3512SOL    HW222170   2.729   0.384   7.430  1.0870  1.9568 -0.1428
 3513SOL     OW22171   2.108   1.850  14.370  0.1943  0.0298 -0.0122
 3513SOL    HW122172   2.200   1.871  14.386  0.2423  0.1574 -0.4588
 3513SOL    HW222173   2.105   1.864  14.276  0.2537  0.1392  0.0030
 3514SOL     OW22174   1.113   0.192  11.217  0.2680 -0.2334 -0.1312
 3514SOL    HW122175   1.028   0.176  11.259 -0.4313 -0.2058 -1.5367
 3514SOL    HW222176   1.145   0.185  11.307 -0.3998 -1.3674  0.0267
 3515SOL     OW22177   3.633   0.712  15.078  0.0548 -0.4546 -0.0987
 3515SOL    HW122178   3.612   0.648  15.010  1.6561 -0.0783 -0.9455
 3515SOL    HW222179   3.576   0.788  15.064  1.7231  0.7573 -0.3192
 3516SOL     OW22180   1.227   3.146  13.385 -0.9340  0.2583 -0.4400
 3516SOL    HW122181   1.265   3.234  13.387 -0.3846  0.0067  0.5202
 3516SOL    HW222182   1.144   3.153  13.433 -1.3564 -0.0976 -1.1301
 3517SOL     OW22183   4.046   1.623   6.252  0.2857  0.5572  0.2274
 3517SOL    HW122184   4.096   1.542   6.262  1.0522  0.9156 -0.7084
 3517SOL    HW222185   4.074   1.663   6.335  0.9710  1.2352 -0.3285
 3518SOL     OW22186   0.169   1.534  16.902  0.2297 -0.1595  0.1464
 3518SOL    HW122187   0.159   1.439  16.894  0.3144 -0.1318 -0.3210
 3518SOL    HW222188   0.100   1.575  16.953  0.6145  1.3280 -0.5272
 3519SOL     OW22189   3.772   4.038   4.365  0.1567  0.1603  0.5305
 3519SOL    HW122190   3.740   4.082   4.285 -1.8500 -0.3784  1.0533
 3519SOL    HW222191   3.693   3.987   4.381 -0.6445  1.2224 -0.0451
 3520SOL     OW22192   1.482   1.394   2.581  0.8813  0.5458  0.0614
 3520SOL    HW122193   1.469   1.418   2.489 -2.8056 -1.8610 -0.0109
 3520SOL    HW222194   1.578   1.402   2.583  0.9355 -0.2434  0.8599
 3521SOL     OW22195   2.240   2.093   5.108  0.0918 -0.0243 -0.2909
 3521SOL    HW122196   2.185   2.170   5.125  0.8551  0.3259  0.5836
 3521SOL    HW222197   2.280   2.059   5.188  1.3961 -0.7523 -1.2680
 3522SOL     OW22198   3.581   0.699  17.694  0.6619  0.5108  0.4558
 3522SOL    HW122199   3.487   0.696  17.679  1.0405 -2.4087 -1.3621
 3522SOL    HW222200   3.587   0.669   0.039  1.7909 -1.6397 -0.3498
 3523SOL     OW22201   2.779   1.578   2.881  0.0931 -0.1277  0.3695
 3523SOL    HW122202   2.810   1.654   2.833  2.0264 -0.0892  1.6444
 3523SOL    HW222203   2.685   1.588   2.891  0.1325 -0.5664  1.2067
 3524SOL     OW22204   4.437   0.432  11.014  0.1759 -0.0009 -0.1602
 3524SOL    HW122205   4.372   0.457  11.080  0.7995  2.4591 -0.4676
 3524SOL    HW222206   4.483   0.362  11.059  1.2697  2.1043  2.0248
 3525SOL     OW22207   2.496   4.376   8.082 -0.2064  0.2114  0.1233
 3525SOL    HW122208   2.466   4.322   8.008  2.6772 -0.7100 -0.3991
 3525SOL    HW222209   2.423   4.359   8.141 -0.6605 -1.7919 -0.9725
 3526SOL     OW22210   1.930   4.005   1.199 -0.3128  0.1490  0.6979
 3526SOL    HW122211   1.990   3.932   1.182 -0.9983 -0.8086  2.5029
 3526SOL    HW222212   1.943   4.006   1.293  0.0642 -2.0511  0.6547
 3527SOL     OW22213   2.579   1.837   0.082 -0.4910  0.1022  0.0477
 3527SOL    HW122214   2.597   1.767   0.144 -0.4980  0.1876  0.1471
 3527SOL    HW222215   2.484   1.829   0.082 -0.5002  0.2537  0.6330
 3528SOL     OW22216   0.780   2.280   7.545  0.2904  0.0365 -0.2748
 3528SOL    HW122217   0.725   2.278   7.467  0.4241  0.1800 -0.3727
 3528SOL    HW222218   0.855   2.330   7.512  0.7484 -0.5731 -0.1574
 3529SOL     OW22219   1.797   3.536   5.858 -0.3803  0.2975  0.7323
 3529SOL    HW122220   1.790   3.549   5.953  3.5791 -4.2324  1.6736
 3529SOL    HW222221   1.739   3.602   5.822 -1.6344 -0.2400  1.7554
 3530SOL     OW22222   2.097   2.437   0.379 -0.1024  0.3544 -0.2272
 3530SOL    HW122223   2.118   2.344   0.392  0.0973  0.5548  0.8887
 3530SOL    HW222224   2.161   2.484   0.433 -0.3775 -1.6671  1.8866
 3531SOL     OW22225   3.103   2.462   0.304 -0.1374  0.1981  0.2051
 3531SOL    HW122226   3.170   2.509   0.255 -2.2570  0.7143 -2.2104
 3531SOL    HW222227   3.076   2.391   0.246  0.1979  1.0287 -0.9610
 3532SOL     OW22228   0.502   4.035   7.662 -0.2806  0.4274 -0.7763
 3532SOL    HW122229   0.409   4.025   7.680 -0.2990 -0.1244 -1.1806
 3532SOL    HW222230   0.511   3.988   7.579 -1.2744 -1.0348 -0.0594
 3533SOL     OW22231   0.252   0.157  12.948 -0.2705 -0.3183 -0.0253
 3533SOL    HW122232   0.234   0.248  12.928  1.7702  0.3693  1.2089
 3533SOL    HW222233   0.259   0.113  12.863  0.7453 -1.2836  0.5369
 3534SOL     OW22234   2.721   0.630  11.174 -0.1886  0.6435  0.0293
 3534SOL    HW122235   2.714   0.661  11.264 -2.2634 -2.5171  0.9551
 3534SOL    HW222236   2.641   0.579  11.177  0.8486 -1.0465 -1.0645
 3535SOL     OW22237   3.374   1.430   7.406  0.3460 -0.1321 -0.0115
 3535SOL    HW122238   3.354   1.444   7.499 -0.0752  0.0222 -0.1255
 3535SOL    HW222239   3.287   1.415   7.368 -0.3212 -1.2724  1.9351
 3536SOL     OW22240   2.490   2.359   5.116  0.0592 -0.5895 -0.0391
 3536SOL    HW122241   2.526   2.397   5.196  0.4201 -0.8333 -0.0843
 3536SOL    HW222242   2.400   2.380   5.141 -0.2552 -1.7379 -0.2157
 3537SOL     OW22243   1.341   2.695   3.086 -0.0490 -0.1505 -0.0319
 3537SOL    HW122244   1.312   2.786   3.083 -1.4605 -0.5244  2.9312
 3537SOL    HW222245   1.262   2.643   3.074 -0.3381  0.4442 -0.6794
 3538SOL     OW22246   2.442   1.307   3.154  0.3664  0.2698  0.0144
 3538SOL    HW122247   2.527   1.327   3.191 -0.8809 -1.7473  3.9627
 3538SOL    HW222248   2.436   1.361   3.075 -1.5205 -0.0312 -0.0610
 3539SOL     OW22249   3.722   2.256   1.519  0.4339 -0.2938 -0.6423
 3539SOL    HW122250   3.725   2.334   1.575 -0.5134  0.6696 -1.9343
 3539SOL    HW222251   3.638   2.274   1.476 -0.5279  1.2479  1.8771
 3540SOL     OW22252   4.197   4.084  15.713  0.9274 -0.4715  0.0640
 3540SOL    HW122253   4.152   4.108  15.632 -1.3717  0.0653  1.4859
 3540SOL    HW222254   4.273   4.045  15.669  0.8405 -0.4366 -0.1168
 3541SOL     OW22255   4.515   3.451   1.722  0.7356 -0.3282  0.7826
 3541SOL    HW122256   4.512   3.516   1.652 -0.9127 -1.0377  0.1685
 3541SOL    HW222257   4.423   3.449   1.749 -0.0825  1.8143 -1.8985
 3542SOL     OW22258   4.426   0.111  13.936 -1.0950 -0.3008  0.3098
 3542SOL    HW122259   4.385   0.045  13.881  0.0315 -0.2603 -0.5741
 3542SOL    HW222260   4.519   0.103  13.914 -1.0831  0.6210  0.0520
 3543SOL     OW22261   3.081   2.513   2.575  0.8808  0.0533  0.4933
 3543SOL    HW122262   3.041   2.555   2.652 -0.4363  1.3257 -0.8891
 3543SOL    HW222263   3.071   2.420   2.595  1.5380 -0.3175 -0.8924
 3544SOL     OW22264   3.530   4.586   1.880  0.1560  0.1186 -0.5782
 3544SOL    HW122265   3.528   4.514   1.817  0.0413  0.6428 -1.1783
 3544SOL    HW222266   3.570   4.546   1.957 -2.3705  1.4487  1.4489
 3545SOL     OW22267   2.947   0.580   6.333  0.1161 -0.0184  0.5529
 3545SOL    HW122268   2.880   0.641   6.363 -0.3419 -0.3981  0.3059
 3545SOL    HW222269   2.905   0.494   6.328 -2.5290  1.2853  0.1617
 3546SOL     OW22270   4.654   3.962   1.958 -0.5017  0.4654 -0.6723
 3546SOL    HW122271   4.663   4.008   1.875  1.4065  1.9862  0.3487
 3546SOL    HW222272   4.632   3.871   1.938  0.6268  0.3415 -1.4059
 3547SOL     OW22273   4.701   0.386   2.321  0.5257  0.5746  0.4983
 3547SOL    HW122274   4.646   0.321   2.277  0.5246  0.2287  1.0205
 3547SOL    HW222275   4.667   0.383   2.410 -1.1769  0.2754 -0.1531
 3548SOL     OW22276   0.767   2.684  14.050 -0.1442  0.5066 -0.2780
 3548SOL    HW122277   0.730   2.680  14.138  0.3641  1.8269  0.0021
 3548SOL    HW222278   0.693   2.640  14.007  0.5795 -0.1612 -0.8373
 3549SOL     OW22279   1.488   1.172  16.223 -0.2102 -0.0200  0.4224
 3549SOL    HW122280   1.473   1.264  16.247  1.8000  0.7218 -1.1212
 3549SOL    HW222281   1.524   1.135  16.303  1.2441 -0.8570 -0.6204
 3550SOL     OW22282   1.500   1.250  11.965 -0.5665  0.5048  0.2134
 3550SOL    HW122283   1.467   1.210  11.885  0.2105  0.5469 -0.1243
 3550SOL    HW222284   1.464   1.190  12.031  2.2777 -1.7802 -0.3031
 3551SOL     OW22285   1.349   4.231   8.590  0.3006 -0.7322 -0.4445
 3551SOL    HW122286   1.270   4.230   8.644  0.7856  1.2929  0.2890
 3551SOL    HW222287   1.401   4.184   8.655 -1.8940 -2.7448 -0.1438
 3552SOL     OW22288   1.309   1.605   6.719  0.3654  0.6058  0.2458
 3552SOL    HW122289   1.333   1.599   6.811  1.9748 -0.0067 -0.2094
 3552SOL    HW222290   1.383   1.565   6.674 -2.2690 -1.8169 -2.0155
 3553SOL     OW22291   0.249   3.182   5.767 -0.1519 -0.4840 -0.2395
 3553SOL    HW122292   0.207   3.128   5.834 -1.8756  2.0249  0.7154
 3553SOL    HW222293   0.207   3.267   5.783  1.4458  0.3080 -0.2465
 3554SOL     OW22294   1.348   4.062   7.056  0.6079  0.2376  0.0152
 3554SOL    HW122295   1.428   4.090   7.099  0.1221  2.2503 -0.3729
 3554SOL    HW222296   1.306   4.024   7.133 -1.0266 -0.8308 -1.3896
 3555SOL     OW22297   4.326   4.458   3.884  0.4418  0.5120 -0.0567
 3555SOL    HW122298   4.237   4.462   3.849  0.2281 -0.2489  0.3903
 3555SOL    HW222299   4.363   4.373   3.861 -1.1986  0.0688 -1.0909
 3556SOL     OW22300   4.566   3.927   8.729  0.7878 -0.5082 -0.4831
 3556SOL    HW122301   4.565   3.920   8.634 -0.7590  0.7439 -0.5525
 3556SOL    HW222302   4.476   3.898   8.747  0.7929 -1.1558 -1.5332
 3557SOL     OW22303   3.206   0.439   4.919 -0.2256  0.9615  0.0459
 3557SOL    HW122304   3.237   0.418   4.831 -0.4856  0.9228 -0.0395
 3557SOL    HW222305   3.282   0.465   4.971  0.5342 -2.8766  0.8346
 3558SOL     OW22306   1.611   0.279   7.461  0.0219  0.5324  0.3093
 3558SOL    HW122307   1.614   0.223   7.538  3.3872  1.3685  0.7730
 3558SOL    HW222308   1.662   0.220   7.406 -0.3712  0.0168  0.4933
 3559SOL     OW22309   0.645   4.067   8.506  1.0056  0.6992 -0.1177
 3559SOL    HW122310   0.713   4.096   8.568 -0.2646  2.3191  0.5248
 3559SOL    HW222311   0.568   4.073   8.563  0.1466 -0.4470 -1.1781
 3560SOL     OW22312   3.668   2.597  10.309  0.1308  0.4722  0.1985
 3560SOL    HW122313   3.715   2.671  10.345 -0.0646  0.5887  0.2173
 3560SOL    HW222314   3.592   2.591  10.368  0.6654 -2.3313  0.6332
 3561SOL     OW22315   3.981   4.324   2.392  0.1894  0.2579 -0.6843
 3561SOL    HW122316   3.919   4.353   2.458  0.4180  2.2834 -1.3622
 3561SOL    HW222317   4.008   4.241   2.432 -1.6350  0.1781  0.3987
 3562SOL     OW22318   3.344   0.158   5.172  0.0307 -0.3794  0.4758
 3562SOL    HW122319   3.319   0.142   5.081  1.8279  1.7822 -0.3778
 3562SOL    HW222320   3.271   0.214   5.199 -0.9132 -1.3394 -0.0430
 3563SOL     OW22321   0.744   1.411   4.327  0.3652 -0.2743  0.3348
 3563SOL    HW122322   0.773   1.417   4.418  1.5250 -1.1707  0.0235
 3563SOL    HW222323   0.781   1.494   4.296 -0.2326  0.0574  0.5021
 3564SOL     OW22324   4.095   4.645  15.131 -0.1323 -0.5575 -0.1180
 3564SOL    HW122325   4.037   4.602  15.069  0.9544 -1.2850 -0.6269
 3564SOL    HW222326   4.179   4.604  15.112  1.6051  4.1771 -2.7184
 3565SOL     OW22327   4.470   2.010   2.544  0.3145  0.2948  0.7085
 3565SOL    HW122328   4.522   2.091   2.541  0.6532  0.0830  0.7848
 3565SOL    HW222329   4.446   2.014   2.452  2.3424 -0.2320  0.1443
 3566SOL     OW22330   0.852   0.190   0.312  0.3760 -0.2906  0.3076
 3566SOL    HW122331   0.929   0.177   0.257 -0.4460  2.4887 -1.4495
 3566SOL    HW222332   0.790   0.175   0.241  1.0437  0.5916 -0.4632
 3567SOL     OW22333   0.199   2.990   6.627 -0.5807 -0.3614  0.4936
 3567SOL    HW122334   0.121   3.043   6.611 -0.4421 -0.5457 -0.7756
 3567SOL    HW222335   0.165   2.912   6.583  3.6747 -1.5478 -0.7341
 3568SOL     OW22336   1.916   0.129  16.294 -0.2274  0.0281 -0.1435
 3568SOL    HW122337   1.872   0.112  16.377  1.4743 -0.2378  0.7001
 3568SOL    HW222338   1.850   0.115  16.226 -0.4952 -0.7393  0.2679
 3569SOL     OW22339   1.732   0.853   8.272 -0.4761 -0.7701  0.2346
 3569SOL    HW122340   1.802   0.901   8.229 -1.9924  1.8938  0.7392
 3569SOL    HW222341   1.666   0.843   8.203  0.5499  0.3972 -0.9042
 3570SOL     OW22342   1.489   3.687  10.592 -0.4446 -0.5605  0.0229
 3570SOL    HW122343   1.439   3.615  10.553  0.8904 -0.5905 -1.6518
 3570SOL    HW222344   1.487   3.751  10.520  0.5560 -1.4931 -0.8430
 3571SOL     OW22345   2.674   4.531   6.028  0.4152  0.1346  0.2703
 3571SOL    HW122346   2.760   4.553   5.991 -1.9273  3.2808 -3.2427
 3571SOL    HW222347   2.688   4.437   6.032 -1.4187 -0.1146  0.6079
 3572SOL     OW22348   4.312   1.684   3.089  0.2626 -0.4903 -0.5864
 3572SOL    HW122349   4.359   1.767   3.095  0.7604 -0.9580  1.9198
 3572SOL    HW222350   4.366   1.648   3.018  1.6055  0.5947 -0.1126
 3573SOL     OW22351   4.483   1.324  14.210 -0.6664 -0.1582 -0.1714
 3573SOL    HW122352   4.555   1.263  14.201 -0.4429  0.0260  0.3687
 3573SOL    HW222353   4.539   1.397  14.184 -0.2005  0.1450  1.6778
 3574SOL     OW22354   3.577   3.574   7.912 -0.0304 -0.0310  0.3996
 3574SOL    HW122355   3.539   3.530   7.989 -1.1810  0.1098 -0.0905
 3574SOL    HW222356   3.609   3.496   7.868 -2.3261 -1.0964  0.6342
 3575SOL     OW22357   1.101   3.325  13.903 -0.4734  0.2945 -0.3407
 3575SOL    HW122358   1.073   3.383  13.974  0.6161  0.5715 -0.1421
 3575SOL    HW222359   1.120   3.240  13.942  0.3970  1.2808  1.3762
 3576SOL     OW22360   0.450   3.331   2.146 -0.0792 -0.7382  1.0981
 3576SOL    HW122361   0.493   3.271   2.207  0.2671 -0.9806  0.6270
 3576SOL    HW222362   0.366   3.341   2.190 -0.2477 -2.4694  1.1616
 3577SOL     OW22363   2.557   4.230   9.515 -0.2940 -0.0380  0.1188
 3577SOL    HW122364   2.490   4.171   9.479  1.0032 -2.5587  1.8018
 3577SOL    HW222365   2.632   4.217   9.458  0.4184 -0.4791  1.1541
 3578SOL     OW22366   1.111   0.310   7.654  0.1772  0.0508  0.4214
 3578SOL    HW122367   1.073   0.334   7.570 -0.0542 -2.2813 -0.1614
 3578SOL    HW222368   1.036   0.280   7.705  0.9836 -0.9090  1.0597
 3579SOL     OW22369   0.734   3.743  14.837  0.2792 -0.1700  0.3832
 3579SOL    HW122370   0.678   3.669  14.814  0.3729  0.6819 -2.6214
 3579SOL    HW222371   0.764   3.766  14.749 -0.0692 -3.3905 -0.5923
 3580SOL     OW22372   0.977   1.887   4.232 -0.7294  0.3800 -0.1899
 3580SOL    HW122373   1.020   1.942   4.298  0.2795  0.9011 -1.2719
 3580SOL    HW222374   0.884   1.911   4.226 -0.6684  1.0362  1.6837
 3581SOL     OW22375   4.684   2.997   5.088  0.2771  0.7656 -0.0051
 3581SOL    HW122376   4.719   3.048   5.016 -0.2411 -2.1626 -2.3145
 3581SOL    HW222377   4.654   2.919   5.042  1.7860  0.2167 -0.0423
 3582SOL     OW22378   2.021   2.029   2.800  0.4117 -0.4612  0.6517
 3582SOL    HW122379   2.019   1.935   2.814 -0.3400 -0.3973  0.9849
 3582SOL    HW222380   1.947   2.055   2.745  0.2639  4.5745  3.1702
 3583SOL     OW22381   0.721   4.048   0.472 -0.5419  0.3686  0.5555
 3583SOL    HW122382   0.710   3.975   0.411  2.5565 -0.7919  1.4214
 3583SOL    HW222383   0.761   4.016   0.552 -0.2504 -0.9755 -0.1291
 3584SOL     OW22384   2.363   2.464   3.136 -0.1498  0.3022 -0.4713
 3584SOL    HW122385   2.346   2.530   3.204 -0.9601  1.1644 -1.5088
 3584SOL    HW222386   2.278   2.421   3.138 -0.4079  0.8347  0.2392
 3585SOL     OW22387   0.825   4.432   1.653 -0.6315 -0.5928  0.1990
 3585SOL    HW122388   0.878   4.508   1.676 -1.4243  0.0577 -0.1365
 3585SOL    HW222389   0.783   4.391   1.729  0.7467  0.6008  1.5873
 3586SOL     OW22390   2.965   2.299   3.344 -0.4566 -0.3332  0.5818
 3586SOL    HW122391   2.991   2.376   3.294  2.2148 -0.0138  2.4433
 3586SOL    HW222392   3.040   2.282   3.401  1.0611 -1.2208 -1.6663
 3587SOL     OW22393   0.711   1.207  10.597 -0.1885 -0.9199 -0.0455
 3587SOL    HW122394   0.742   1.295  10.578  2.2206 -0.9723  3.5870
 3587SOL    HW222395   0.796   1.168  10.579  0.5110  2.1461 -3.2426
 3588SOL     OW22396   2.525   0.197   6.783 -0.5803 -0.4971  0.1994
 3588SOL    HW122397   2.557   0.225   6.697 -1.9776 -0.1797 -0.2205
 3588SOL    HW222398   2.448   0.146   6.757 -0.4605  1.2149 -3.5376
 3589SOL     OW22399   1.287   1.200   5.078 -0.0490  0.4388  0.6842
 3589SOL    HW122400   1.280   1.184   5.172 -0.9983 -1.0985  0.3608
 3589SOL    HW222401   1.367   1.151   5.058 -0.7507 -0.5422  0.2799
 3590SOL     OW22402   1.941   4.720   4.832 -0.2024 -0.7483  0.3335
 3590SOL    HW122403   1.974   4.631   4.837  3.5880  0.7075  1.2765
 3590SOL    HW222404   1.867   4.706   4.774 -0.4836  0.9606  0.2682
 3591SOL     OW22405   1.580   3.191   6.355 -0.5292 -0.0622  0.2289
 3591SOL    HW122406   1.634   3.124   6.398 -2.0816 -1.5661 -0.1456
 3591SOL    HW222407   1.513   3.201   6.422  0.7398 -2.0982  1.8213
 3592SOL     OW22408   2.399   1.975  12.666  0.8595  0.1924 -0.2104
 3592SOL    HW122409   2.397   1.948  12.758 -0.2026 -0.7382 -0.4906
 3592SOL    HW222410   2.385   1.889  12.626  2.2213  0.2612 -0.8340
 3593SOL     OW22411   0.762   4.236   9.977 -0.0473 -0.2190 -0.0039
 3593SOL    HW122412   0.689   4.178   9.957 -0.1076 -0.5473  1.1385
 3593SOL    HW222413   0.754   4.306   9.913  1.2706 -1.1281 -1.1551
 3594SOL     OW22414   2.936   3.421  12.308 -0.3976 -0.0635  0.2823
 3594SOL    HW122415   3.017   3.391  12.266 -1.7623  1.7630 -3.6712
 3594SOL    HW222416   2.975   3.504  12.335  1.6511 -0.9717  0.1038
 3595SOL     OW22417   3.973   0.920  16.806  0.0159  0.1294  0.1386
 3595SOL    HW122418   3.981   0.882  16.719  0.3419 -1.3270  0.8132
 3595SOL    HW222419   3.906   0.862  16.842  0.3756 -0.8501 -0.7727
 3596SOL     OW22420   0.567   3.868  15.326  0.0148  0.4492  0.3688
 3596SOL    HW122421   0.612   3.844  15.245  1.2555 -0.8160  1.4449
 3596SOL    HW222422   0.636   3.927  15.355  0.8956 -0.1146 -0.5805
 3597SOL     OW22423   3.618   1.967  16.021 -0.1807 -0.5293 -0.7562
 3597SOL    HW122424   3.679   1.931  16.085  0.6018  0.9985 -0.6285
 3597SOL    HW222425   3.616   2.061  16.040  3.8322 -0.5198 -0.3742
 3598SOL     OW22426   1.042   4.301  16.760  0.2345 -0.1714  0.0014
 3598SOL    HW122427   1.074   4.391  16.750  1.0091 -0.4481 -0.0463
 3598SOL    HW222428   0.953   4.321  16.731  0.2307 -0.0395  0.1053
 3599SOL     OW22429   0.644   4.291   2.162 -0.1827 -0.2290 -0.1762
 3599SOL    HW122430   0.553   4.295   2.190 -0.0921  0.9221 -0.0486
 3599SOL    HW222431   0.637   4.202   2.127  0.3455 -0.1081 -0.5972
 3600SOL     OW22432   3.118   3.277  13.134 -1.0970 -0.6908  0.0516
 3600SOL    HW122433   3.183   3.219  13.096 -0.8816 -0.7106  0.4534
 3600SOL    HW222434   3.040   3.258  13.082 -1.3362 -0.8060  0.4521
 3601SOL     OW22435   0.620   4.472  16.280 -0.1740 -0.9862 -0.0664
 3601SOL    HW122436   0.670   4.548  16.309  0.3252 -0.7720 -1.4686
 3601SOL    HW222437   0.634   4.409  16.351 -3.0264 -0.9247  0.5352
 3602SOL     OW22438   4.218   2.603   2.949  0.4109 -0.2416 -0.7783
 3602SOL    HW122439   4.129   2.568   2.956 -0.6778  2.9586  1.6181
 3602SOL    HW222440   4.243   2.583   2.859 -0.6921 -0.7108 -0.9781
 3603SOL     OW22441   0.388   4.588  13.945 -0.2339 -0.1587 -0.7308
 3603SOL    HW122442   0.469   4.638  13.948 -0.2006 -0.3147  0.9937
 3603SOL    HW222443   0.395   4.553  14.034 -3.8428 -0.3840 -0.5217
 3604SOL     OW22444   1.612   0.886  11.547 -0.4135 -0.4178  0.5824
 3604SOL    HW122445   1.601   0.800  11.507  2.1998 -0.1593 -0.7415
 3604SOL    HW222446   1.618   0.869  11.641 -0.5815 -1.1598  0.4576
 3605SOL     OW22447   4.692   1.110  11.320 -0.5008  0.3205  0.5894
 3605SOL    HW122448   4.623   1.137  11.382 -2.1146  0.8421 -1.4427
 3605SOL    HW222449   0.028   1.105  11.382 -1.4122 -3.8059  1.2790
 3606SOL     OW22450   0.806   3.272   2.473 -0.7202 -0.0230  0.1039
 3606SOL    HW122451   0.861   3.346   2.448 -1.3234  1.4675  3.0704
 3606SOL    HW222452   0.864   3.219   2.528 -2.4514 -1.7615  0.2742
 3607SOL     OW22453   2.704   1.903  17.604  0.1077 -0.1079  0.5581
 3607SOL    HW122454   2.769   1.968  17.632 -0.7594  1.3244 -0.7741
 3607SOL    HW222455   2.647   1.897  17.680 -0.0804 -1.6025  0.3057
 3608SOL     OW22456   2.797   1.837   7.344  0.5663 -0.4096 -0.6917
 3608SOL    HW122457   2.726   1.774   7.358  2.0803 -1.8075  0.6628
 3608SOL    HW222458   2.812   1.869   7.433  0.9856 -0.5584 -0.7110
 3609SOL     OW22459   3.655   1.733  11.822 -0.3277  0.0494  0.1604
 3609SOL    HW122460   3.640   1.813  11.771 -2.3180  0.0376  0.7076
 3609SOL    HW222461   3.644   1.769  11.910 -2.1147 -3.6082  1.4537
 3610SOL     OW22462   2.030   3.293   4.111 -0.3736 -0.2504 -0.0044
 3610SOL    HW122463   2.102   3.231   4.121  0.2064  0.8292  2.4415
 3610SOL    HW222464   1.956   3.244   4.076  1.0034 -0.2732 -2.8650
 3611SOL     OW22465   0.899   0.025   8.242 -0.5444  0.3258  0.2248
 3611SOL    HW122466   0.805   0.031   8.258 -0.2504 -1.4581  2.6589
 3611SOL    HW222467   0.920   4.705   8.317 -2.5832  0.4669  0.9013
 3612SOL     OW22468   2.327   2.542   8.419  0.2848  0.0983  0.1544
 3612SOL    HW122469   2.299   2.626   8.456  1.7440  1.0821 -0.9983
 3612SOL    HW222470   2.414   2.566   8.388  1.2670 -2.9563  0.4994
 3613SOL     OW22471   2.909   2.872  13.969 -0.8705 -0.6244  0.5577
 3613SOL    HW122472   2.826   2.854  13.925 -0.5079 -1.9790  0.4119
 3613SOL    HW222473   2.889   2.960  14.000 -1.6661 -0.3915 -0.6179
 3614SOL     OW22474   3.293   1.602   3.198  0.2427  0.1898 -0.6671
 3614SOL    HW122475   3.341   1.539   3.144  1.3226  2.0543 -1.9250
 3614SOL    HW222476   3.254   1.538   3.256  0.5960  1.1924  0.6902
 3615SOL     OW22477   0.943   0.373  14.083  0.7105 -0.8111  0.7552
 3615SOL    HW122478   1.024   0.422  14.074  0.4962 -0.4161  0.9865
 3615SOL    HW222479   0.880   0.429  14.037  0.5271 -1.0094  0.7617
 3616SOL     OW22480   3.995   0.718   7.089  0.2264  1.1355  0.2105
 3616SOL    HW122481   4.006   0.773   7.012  1.2975  2.3047  1.2021
 3616SOL    HW222482   4.046   0.637   7.079 -2.6566 -0.8599  1.5100
 3617SOL     OW22483   0.178   2.674   8.419  0.2502  0.0938  0.7906
 3617SOL    HW122484   0.087   2.679   8.448 -0.3859 -0.7702 -1.0552
 3617SOL    HW222485   0.202   2.766   8.408 -0.3661  0.4851  2.6929
 3618SOL     OW22486   0.715   4.394  10.927 -0.0715  0.2009  0.3913
 3618SOL    HW122487   0.703   4.305  10.959  0.9417  0.2701  0.9589
 3618SOL    HW222488   0.787   4.375  10.868 -0.8757 -2.4647  0.2905
 3619SOL     OW22489   3.549   2.512   5.597  0.0715 -0.8170  0.2486
 3619SOL    HW122490   3.486   2.579   5.624 -1.2925 -2.8848  2.2289
 3619SOL    HW222491   3.519   2.492   5.508 -0.4626 -3.2348  0.9645
 3620SOL     OW22492   1.896   4.502   5.676 -0.2268  0.1459 -0.0954
 3620SOL    HW122493   1.865   4.420   5.712 -0.3017 -0.5703 -1.7682
 3620SOL    HW222494   1.832   4.564   5.710 -3.1679 -2.5429 -0.7837
 3621SOL     OW22495   1.336   1.434   3.817 -0.6708  0.3782 -0.1297
 3621SOL    HW122496   1.281   1.356   3.807  1.0494 -0.6938 -1.2466
 3621SOL    HW222497   1.360   1.455   3.727 -0.1612 -1.4657 -0.4289
 3622SOL     OW22498   3.174   2.966   6.031 -0.4516  0.1961 -0.0420
 3622SOL    HW122499   3.237   2.932   6.094 -2.3611 -1.9451  0.7107
 3622SOL    HW222500   3.236   3.017   5.979 -0.0667  0.2334  0.4586
 3623SOL     OW22501   4.397   2.775  16.344 -0.4303  0.2229 -0.2150
 3623SOL    HW122502   4.408   2.746  16.253 -0.2798 -0.1207 -0.0844
 3623SOL    HW222503   4.304   2.760  16.361 -0.5692  0.4786 -0.7231
 3624SOL     OW22504   2.651   3.028  15.191  0.4472 -0.4521  0.1536
 3624SOL    HW122505   2.742   2.999  15.188  0.5839 -0.1503  1.4689
 3624SOL    HW222506   2.638   3.033  15.286  2.8641  1.9983  0.3309
 3625SOL     OW22507   4.399   2.186  16.620 -0.9915  0.3345  0.2588
 3625SOL    HW122508   4.439   2.244  16.685  0.4937  0.7422 -1.0093
 3625SOL    HW222509   4.351   2.242  16.560 -1.1281 -0.0607  0.0027
 3626SOL     OW22510   4.545   2.025   9.777 -0.2328  0.4010  0.0744
 3626SOL    HW122511   4.450   2.017   9.789  0.0954 -0.8777  1.8641
 3626SOL    HW222512   4.547   2.049   9.684 -2.2584 -1.0446 -0.3486
 3627SOL     OW22513   3.510   2.858   0.543 -1.1485 -0.2041 -0.5537
 3627SOL    HW122514   3.418   2.876   0.523 -1.5353 -0.2019  1.2129
 3627SOL    HW222515   3.499   2.833   0.635  1.5403  1.3548  0.2156
 3628SOL     OW22516   3.489   2.198   3.819  0.6767 -0.0947  0.1559
 3628SOL    HW122517   3.485   2.279   3.869  0.3734  0.0756 -0.1346
 3628SOL    HW222518   3.514   2.129   3.880  0.2757  1.1208  1.6770
 3629SOL     OW22519   2.516   3.857   2.383  0.1791  0.2931  0.3161
 3629SOL    HW122520   2.529   3.939   2.430  3.3598 -0.8000  1.3196
 3629SOL    HW222521   2.507   3.802   2.460 -0.7828 -0.9994 -0.7276
 3630SOL     OW22522   0.478   2.070   7.405  0.1225  0.6268 -0.0555
 3630SOL    HW122523   0.444   1.999   7.459  1.8889 -0.4473 -0.3360
 3630SOL    HW222524   0.532   2.034   7.335 -0.9185 -1.2737  0.1270
 3631SOL     OW22525   1.174   2.661   5.837 -0.6252  0.1084 -0.1726
 3631SOL    HW122526   1.196   2.673   5.929 -0.7706  0.7195 -0.2199
 3631SOL    HW222527   1.098   2.602   5.838 -0.4661 -0.1049 -0.6081
 3632SOL     OW22528   1.696   0.604  13.478  0.3000 -0.3429 -0.2674
 3632SOL    HW122529   1.713   0.576  13.388  4.5129 -2.5866  1.2440
 3632SOL    HW222530   1.754   0.548  13.529 -1.7347 -2.1304  0.0772
 3633SOL     OW22531   0.953   4.104   8.312  0.5443  0.5815  0.3148
 3633SOL    HW122532   0.901   4.026   8.329  0.0920  1.0091  0.9066
 3633SOL    HW222533   1.040   4.068   8.334 -0.5044 -2.8209 -1.1715
 3634SOL     OW22534   2.340   1.252   3.598 -0.4486  0.2556  0.1514
 3634SOL    HW122535   2.295   1.236   3.515  3.4987  2.8607 -2.4944
 3634SOL    HW222536   2.416   1.306   3.575 -1.1906 -0.7973 -4.7046
 3635SOL     OW22537   3.450   2.433  10.965 -0.4499 -0.5023 -0.5095
 3635SOL    HW122538   3.452   2.516  11.013  2.0815  1.7638 -4.5172
 3635SOL    HW222539   3.541   2.405  10.974 -0.7170 -0.6886  1.7882
 3636SOL     OW22540   0.990   1.058   3.288  0.0776 -0.0022  0.1652
 3636SOL    HW122541   1.011   0.996   3.358  1.3696 -0.2268 -0.4164
 3636SOL    HW222542   1.041   1.135   3.313  0.7880 -1.0504  1.9469
 3637SOL     OW22543   2.991   0.236  17.039  0.0041  0.1032  0.3203
 3637SOL    HW122544   2.996   0.329  17.019 -0.3016 -0.1554 -0.9529
 3637SOL    HW222545   2.962   0.192  16.959  2.2181 -1.9340  0.6287
 3638SOL     OW22546   0.095   1.350   8.676  0.3765 -0.1793 -0.1123
 3638SOL    HW122547   0.013   1.303   8.659  0.3576 -0.6225  1.1498
 3638SOL    HW222548   0.149   1.289   8.727  0.5445  0.7110  0.7643
 3639SOL     OW22549   1.579   4.346   1.000  0.7210 -0.3044  0.3014
 3639SOL    HW122550   1.530   4.275   0.959  2.9096 -0.3448 -2.2350
 3639SOL    HW222551   1.588   4.304   1.086 -1.9521  2.3908  1.9014
 3640SOL     OW22552   0.651   0.258   6.137 -0.0920 -0.1577  0.1809
 3640SOL    HW122553   0.668   0.314   6.213 -0.7543  1.5708 -0.9425
 3640SOL    HW222554   0.572   0.220   6.175  0.7140  1.3703  3.4153
 3641SOL     OW22555   2.071   4.265  10.686  0.2847  0.6672  0.1131
 3641SOL    HW122556   2.044   4.212  10.611  3.3407  0.4155 -0.7970
 3641SOL    HW222557   2.155   4.298  10.653  2.2994 -0.7017  3.9424
 3642SOL     OW22558   3.808   3.372   1.611 -0.2101 -0.5471 -0.2461
 3642SOL    HW122559   3.892   3.410   1.636 -1.0396 -0.3748  2.4039
 3642SOL    HW222560   3.831   3.309   1.544 -1.9820 -1.5894  0.1048
 3643SOL     OW22561   0.664   2.334   7.806  0.0902 -0.4291 -0.3366
 3643SOL    HW122562   0.583   2.350   7.758 -0.5250  0.8393  1.1297
 3643SOL    HW222563   0.728   2.357   7.738 -0.9198  0.8143 -0.8602
 3644SOL     OW22564   0.849   3.866   1.995  0.0904 -0.2147 -0.1311
 3644SOL    HW122565   0.940   3.858   2.022 -0.1880  1.1476  1.1967
 3644SOL    HW222566   0.822   3.774   1.985  1.8120 -1.3051  4.9403
 3645SOL     OW22567   3.759   2.336   1.112 -0.4029  0.2283  0.1296
 3645SOL    HW122568   3.717   2.380   1.186 -0.7034 -0.6497  0.4793
 3645SOL    HW222569   3.740   2.390   1.036 -0.5732  0.7876  0.5731
 3646SOL     OW22570   1.567   1.680  17.403  0.3098  0.2951 -0.3521
 3646SOL    HW122571   1.554   1.737  17.479 -0.1600  1.7446 -1.5293
 3646SOL    HW222572   1.490   1.624  17.413 -0.7721  1.5871 -1.4413
 3647SOL     OW22573   2.093   3.721   3.817 -0.1002 -0.1522  0.7047
 3647SOL    HW122574   2.121   3.812   3.828 -0.3893 -0.1496  1.4110
 3647SOL    HW222575   2.012   3.731   3.767 -0.7377 -1.8570  1.4072
 3648SOL     OW22576   3.163   3.274  12.206  0.4102 -0.0600  0.1816
 3648SOL    HW122577   3.247   3.318  12.213  0.1106  0.4795  0.4024
 3648SOL    HW222578   3.193   3.184  12.220 -1.1095 -0.1611  2.9620
 3649SOL     OW22579   3.701   0.931   1.665 -0.1429  0.2103  0.3091
 3649SOL    HW122580   3.612   0.956   1.691 -0.1427  1.5497 -1.0014
 3649SOL    HW222581   3.746   0.932   1.750  0.3144 -2.3621  0.0994
 3650SOL     OW22582   2.210   3.569   2.040 -0.2924 -0.3512 -0.2956
 3650SOL    HW122583   2.143   3.638   2.037 -0.3680 -0.3410  1.4698
 3650SOL    HW222584   2.167   3.499   2.088 -1.5569  0.6423  0.0420
 3651SOL     OW22585   0.985   3.191   9.685 -0.4569 -0.4029  0.4594
 3651SOL    HW122586   0.967   3.115   9.629  0.1299  1.9012 -2.8618
 3651SOL    HW222587   0.960   3.166   9.774  1.6181 -1.0730  0.8602
 3652SOL     OW22588   3.799   2.336   4.195  0.0288  0.4532  0.1447
 3652SOL    HW122589   3.801   2.373   4.283  0.6969  1.7416 -0.4111
 3652SOL    HW222590   3.894   2.346   4.191  0.1878 -1.0963  0.0422
 3653SOL     OW22591   1.062   3.310  15.476  0.1398 -0.0484 -0.6106
 3653SOL    HW122592   1.021   3.308  15.390  0.5874  0.1326 -0.8313
 3653SOL    HW222593   1.063   3.220  15.507  0.4251 -0.1440 -0.9030
 3654SOL     OW22594   0.030   3.316   8.520  0.0137 -0.1075  0.0636
 3654SOL    HW122595   0.038   3.406   8.487  1.1452 -0.0152  0.6119
 3654SOL    HW222596   0.111   3.271   8.497  0.0215  0.6386 -1.4085
 3655SOL     OW22597   1.775   3.978   8.019  0.6136  0.0297 -0.1003
 3655SOL    HW122598   1.734   3.987   7.933  2.2258  0.6427 -0.8108
 3655SOL    HW222599   1.825   3.897   8.008 -0.8672 -0.9507  0.3616
 3656SOL     OW22600   2.255   2.141   3.851 -0.0363  1.0160  0.1074
 3656SOL    HW122601   2.239   2.227   3.812  2.1536  0.8578 -1.1403
 3656SOL    HW222602   2.217   2.082   3.786 -0.8924 -0.8752  2.3332
 3657SOL     OW22603   3.356   1.755   2.806  0.4405 -0.4045  0.4193
 3657SOL    HW122604   3.354   1.839   2.853  1.0316 -0.3825  0.3972
 3657SOL    HW222605   3.326   1.784   2.720 -0.3049 -1.4688  0.3262
 3658SOL     OW22606   0.360   3.475   8.719  0.0377 -0.3892  0.2058
 3658SOL    HW122607   0.393   3.408   8.779 -0.1919 -0.8163 -0.1454
 3658SOL    HW222608   0.267   3.453   8.720  0.1065 -0.6836  0.5637
 3659SOL     OW22609   1.337   3.851  11.431 -0.7930  0.2296  0.1226
 3659SOL    HW122610   1.402   3.824  11.366 -1.2949  0.0622 -0.3131
 3659SOL    HW222611   1.346   3.945  11.417 -0.9882  0.1352 -0.6385
 3660SOL     OW22612   2.440   1.749   6.879 -0.1573 -0.3992  0.1858
 3660SOL    HW122613   2.478   1.661   6.878  3.4355  1.1546 -0.2256
 3660SOL    HW222614   2.363   1.731   6.932 -0.7428 -0.5795 -0.7205
 3661SOL     OW22615   0.879   1.109  15.686  0.8056 -0.3209  0.1971
 3661SOL    HW122616   0.841   1.125  15.600  2.8973 -1.3494 -0.9213
 3661SOL    HW222617   0.860   1.018  15.710 -0.5224  0.1768  1.0501
 3662SOL     OW22618   4.229   0.148  10.478  0.5111 -0.5716  0.9375
 3662SOL    HW122619   4.162   0.114  10.537 -1.1435  1.9772  0.5267
 3662SOL    HW222620   4.302   0.097  10.512  1.6905 -0.3156 -1.2339
 3663SOL     OW22621   4.238   1.950   1.579  0.5959  0.6368 -0.0970
 3663SOL    HW122622   4.214   1.980   1.491  1.3741  1.4934 -0.0200
 3663SOL    HW222623   4.171   1.991   1.634  0.6730 -1.3274  1.4376
 3664SOL     OW22624   2.911   0.693   0.356  0.4519 -0.2191 -0.1472
 3664SOL    HW122625   2.832   0.747   0.356  0.2032 -0.5804 -1.8098
 3664SOL    HW222626   2.867   0.614   0.325  0.9626 -0.6332  0.1924
 3665SOL     OW22627   1.862   4.487   4.193  0.5652  0.0887  0.0713
 3665SOL    HW122628   1.935   4.467   4.134  0.7347  2.6546 -0.5767
 3665SOL    HW222629   1.882   4.430   4.268 -0.0607 -1.5545 -1.0252
 3666SOL     OW22630   1.410   1.734  15.365 -0.5400  0.5558 -0.1217
 3666SOL    HW122631   1.466   1.675  15.315 -0.0813  1.5167 -0.7510
 3666SOL    HW222632   1.376   1.788  15.293  1.5997 -0.1378 -1.6694
 3667SOL     OW22633   4.378   2.375   5.655 -0.0334 -0.1445 -0.6084
 3667SOL    HW122634   4.301   2.376   5.598 -0.6303  1.3384  0.2343
 3667SOL    HW222635   4.439   2.433   5.609 -0.5654  0.6464 -0.3032
 3668SOL     OW22636   1.546   3.810  11.270  0.0165 -0.0687  0.2025
 3668SOL    HW122637   1.567   3.900  11.293 -0.0257 -0.0797  0.2863
 3668SOL    HW222638   1.634   3.774  11.255  0.8118  1.6355  0.7489
 3669SOL     OW22639   3.774   0.778   6.203 -0.0670  0.4900 -0.0199
 3669SOL    HW122640   3.757   0.685   6.190  3.5575 -0.1553 -0.3623
 3669SOL    HW222641   3.857   0.787   6.156 -1.7067  1.1219 -2.7792
 3670SOL     OW22642   2.583   1.853  16.226 -0.1339 -0.4524  0.1998
 3670SOL    HW122643   2.499   1.816  16.198 -0.1188 -0.0912 -0.3303
 3670SOL    HW222644   2.627   1.770  16.210  3.7901  1.6694  0.1073
 3671SOL     OW22645   1.071   0.746   2.018  0.4505  0.0618  0.3367
 3671SOL    HW122646   1.093   0.829   1.977  1.0174 -1.3033 -2.0917
 3671SOL    HW222647   0.987   0.726   1.976  0.9265  1.4448 -1.2433
 3672SOL     OW22648   4.377   1.571   8.977  0.3522  0.1247 -0.0162
 3672SOL    HW122649   4.451   1.619   8.939  0.8442 -1.1171 -0.6238
 3672SOL    HW222650   4.378   1.620   9.059  2.7502  2.0552 -1.2032
 3673SOL     OW22651   4.649   3.387   6.217  0.3314 -0.3922 -0.1512
 3673SOL    HW122652   4.627   3.325   6.147  0.1394 -0.1952 -0.2645
 3673SOL    HW222653   4.591   3.363   6.289 -0.5034  0.3285 -0.5862
 3674SOL     OW22654   3.777   0.311   3.776  0.0149  0.3693 -0.3104
 3674SOL    HW122655   3.783   0.304   3.872 -2.1593 -3.1867 -0.4401
 3674SOL    HW222656   3.754   0.402   3.762  1.5144  0.6992 -0.6504
 3675SOL     OW22657   3.531   1.221  13.148 -0.0312 -0.4350 -0.3873
 3675SOL    HW122658   3.546   1.315  13.157 -1.7804 -0.2868  1.0943
 3675SOL    HW222659   3.455   1.210  13.206  2.0494  2.2850  2.8624
 3676SOL     OW22660   0.587   3.798   1.420  0.1912 -0.4103  0.0984
 3676SOL    HW122661   0.521   3.804   1.352 -1.5431 -0.9106  1.7320
 3676SOL    HW222662   0.671   3.812   1.377  0.6826 -0.3398  1.0668
 3677SOL     OW22663   0.030   1.005   5.756  0.5135  0.7132 -0.0304
 3677SOL    HW122664   0.085   1.062   5.810 -0.2811 -0.6879  2.2664
 3677SOL    HW222665   4.698   1.069   5.740  0.3106  0.2657 -0.9452
 3678SOL     OW22666   4.385   0.248   3.986 -1.1795 -0.4510 -0.1009
 3678SOL    HW122667   4.347   0.305   4.052  2.0070  1.5665  0.0065
 3678SOL    HW222668   4.476   0.272   4.004 -0.6539 -1.8276 -0.9165
 3679SOL     OW22669   3.223   2.455   9.156 -0.9780  0.2386  0.2343
 3679SOL    HW122670   3.242   2.492   9.070 -2.3295  0.0092 -0.1610
 3679SOL    HW222671   3.307   2.457   9.202 -0.3227  1.6682 -1.0157
 3680SOL     OW22672   3.400   1.050   6.643  0.7882  0.3435 -0.8308
 3680SOL    HW122673   3.443   0.965   6.645  0.7859  0.3158 -1.7198
 3680SOL    HW222674   3.447   1.091   6.570 -1.0963  0.6585 -1.8544
 3681SOL     OW22675   2.954   3.323  15.728 -0.2500  0.6423  0.1121
 3681SOL    HW122676   2.895   3.303  15.801 -0.0633 -0.1279  0.0509
 3681SOL    HW222677   3.011   3.392  15.763 -0.8675  0.5196  1.3350
 3682SOL     OW22678   2.874   4.399  14.639  0.3341  0.1097  0.3483
 3682SOL    HW122679   2.818   4.471  14.668  1.3443  1.2750 -0.5914
 3682SOL    HW222680   2.909   4.445  14.563  0.2587  0.1159  0.3173
 3683SOL     OW22681   3.867   0.052  11.922  0.2306  0.0954 -0.3274
 3683SOL    HW122682   3.830   0.107  11.852 -0.7459  0.2599  0.3093
 3683SOL    HW222683   3.868   4.703  11.881 -0.7401 -0.9262  1.7856
 3684SOL     OW22684   0.159   1.688   3.153 -0.3566 -0.2848  0.0288
 3684SOL    HW122685   0.162   1.713   3.061 -1.0082 -0.8118 -0.1377
 3684SOL    HW222686   0.151   1.777   3.188 -0.4297 -1.0137  1.8973
 3685SOL     OW22687   0.324   1.447   1.850  0.0846  0.5334 -0.6129
 3685SOL    HW122688   0.299   1.505   1.778 -0.6882 -1.2191 -1.7447
 3685SOL    HW222689   0.346   1.504   1.924  1.5539  1.1003 -1.4835
 3686SOL     OW22690   3.014   1.501   8.730 -0.0303 -0.1422  0.6715
 3686SOL    HW122691   3.053   1.446   8.798  2.1176 -0.1895 -0.6030
 3686SOL    HW222692   3.045   1.587   8.759 -0.0493  0.3113 -0.6837
 3687SOL     OW22693   0.360   2.904   9.350  0.1240  0.0827 -0.7275
 3687SOL    HW122694   0.389   2.831   9.405 -0.5931  0.4537  0.1579
 3687SOL    HW222695   0.344   2.967   9.421 -1.1278  0.3241 -1.2208
 3688SOL     OW22696   2.929   0.011  15.960  0.3584  0.2520 -0.0485
 3688SOL    HW122697   2.937   4.667  16.010 -1.3962 -0.7096 -1.3272
 3688SOL    HW222698   2.860   0.059  16.005 -2.2596 -2.5424 -1.0597
 3689SOL     OW22699   1.200   3.627   5.681 -0.1308  0.0549  0.6331
 3689SOL    HW122700   1.208   3.533   5.670 -0.0979  0.2522 -0.9301
 3689SOL    HW222701   1.244   3.649   5.599  1.9925  2.6096  2.4386
 3690SOL     OW22702   1.522   3.879   5.452  0.6411  0.0121 -0.1276
 3690SOL    HW122703   1.594   3.899   5.512  0.5234  0.3391 -0.0937
 3690SOL    HW222704   1.466   3.957   5.458 -0.8268 -0.9652 -1.0854
 3691SOL     OW22705   1.355   0.150   4.253  0.0430  0.0727 -0.2046
 3691SOL    HW122706   1.354   0.083   4.185  0.0711 -1.2893  1.1349
 3691SOL    HW222707   1.262   0.154   4.278 -0.3691 -1.2967 -1.5047
 3692SOL     OW22708   2.412   2.300   5.898  0.4189 -0.7700 -0.4376
 3692SOL    HW122709   2.483   2.344   5.852  0.6390  0.1759  0.8004
 3692SOL    HW222710   2.460   2.234   5.950  0.3660  0.3407  1.0359
 3693SOL     OW22711   2.983   3.868   5.799 -0.2734  0.0410  0.2823
 3693SOL    HW122712   3.029   3.853   5.881  0.2474  0.7738  0.1240
 3693SOL    HW222713   2.950   3.956   5.814 -3.0381 -1.3036  2.1695
 3694SOL     OW22714   2.725   3.752   2.194  1.0726 -0.2919  0.2265
 3694SOL    HW122715   2.663   3.784   2.260  1.3791  1.5519 -0.3747
 3694SOL    HW222716   2.806   3.766   2.244  1.2401  1.0334 -0.4172
 3695SOL     OW22717   0.210   4.290   9.067 -0.1573  0.1327 -0.3254
 3695SOL    HW122718   0.204   4.260   9.158  0.1971  3.7769  0.9166
 3695SOL    HW222719   0.203   4.384   9.083  0.5112  0.5449 -2.5084
 3696SOL     OW22720   2.401   3.301  11.416 -0.0634  0.9452  0.1590
 3696SOL    HW122721   2.481   3.263  11.380 -0.2339  0.5241  0.2252
 3696SOL    HW222722   2.372   3.230  11.473 -1.5417  0.9665 -0.5800
 3697SOL     OW22723   4.559   2.871   4.621 -0.6679 -0.5500 -0.1746
 3697SOL    HW122724   4.506   2.794   4.639 -0.0087 -0.7647  0.8598
 3697SOL    HW222725   4.496   2.938   4.649 -1.1413 -0.5223 -1.3387
 3698SOL     OW22726   1.091   3.538  11.778  0.4762 -0.0024  0.1306
 3698SOL    HW122727   1.041   3.458  11.759  1.2528 -0.1093 -1.4575
 3698SOL    HW222728   1.061   3.585  11.701 -1.6115 -1.7554 -0.1127
 3699SOL     OW22729   2.435   2.625   5.787 -0.0357 -0.0523 -0.0106
 3699SOL    HW122730   2.497   2.552   5.780  2.0807  1.5727  1.5617
 3699SOL    HW222731   2.470   2.680   5.857  0.4373 -0.7271  0.2837
 3700SOL     OW22732   3.503   0.284   7.589  0.0210  0.1719  0.1794
 3700SOL    HW122733   3.578   0.230   7.615  0.6188  0.5191 -0.8193
 3700SOL    HW222734   3.465   0.222   7.527  3.7500 -0.0330 -1.8806
 3701SOL     OW22735   3.507   4.256   5.683  0.1263  0.5129 -0.2844
 3701SOL    HW122736   3.427   4.269   5.632  0.8523  1.4049 -1.2158
 3701SOL    HW222737   3.576   4.291   5.626 -0.8332  1.1223 -1.0791
 3702SOL     OW22738   0.747   0.963  11.569 -0.4552  0.0528 -0.2255
 3702SOL    HW122739   0.803   0.983  11.494 -0.7173  2.5353  0.2220
 3702SOL    HW222740   0.693   1.042  11.572 -0.0682  0.3297 -0.5975
 3703SOL     OW22741   1.288   0.493   8.637 -0.1726  0.0695 -0.3677
 3703SOL    HW122742   1.249   0.580   8.650  0.1280  0.1414  0.0724
 3703SOL    HW222743   1.223   0.454   8.579 -0.2107 -1.8527  0.9518
 3704SOL     OW22744   0.162   3.291   7.328 -0.1363  0.6125 -0.1569
 3704SOL    HW122745   0.094   3.291   7.261  0.2937  1.9576 -0.6052
 3704SOL    HW222746   0.167   3.200   7.356 -0.0169  0.6359 -0.1033
 3705SOL     OW22747   2.626   3.644  15.249 -0.0509 -0.2999 -0.1837
 3705SOL    HW122748   2.659   3.563  15.209 -2.1843 -1.2455  0.0066
 3705SOL    HW222749   2.685   3.671  15.319 -0.2184 -1.4791  0.4142
 3706SOL     OW22750   4.287   2.787   4.683 -0.5481 -0.3567 -0.1084
 3706SOL    HW122751   4.202   2.746   4.697  0.9698 -2.4770  2.8777
 3706SOL    HW222752   4.300   2.832   4.766 -0.5605 -0.6688  0.0620
 3707SOL     OW22753   1.275   3.078   2.864  0.2704 -0.5437  0.1756
 3707SOL    HW122754   1.216   3.005   2.845  2.4993 -2.5863  1.1237
 3707SOL    HW222755   1.311   3.100   2.778 -2.4002  3.8906  0.1601
 3708SOL     OW22756   2.738   0.984  14.973 -0.1199  0.0725  0.2304
 3708SOL    HW122757   2.816   1.040  14.965 -0.2990  0.3659  0.5004
 3708SOL    HW222758   2.743   0.943  14.887  1.1064 -0.0968  0.3738
 3709SOL     OW22759   3.091   3.984   6.028  0.5522  0.8114  0.7696
 3709SOL    HW122760   3.116   4.040   5.954  0.6311 -0.0782  0.1232
 3709SOL    HW222761   3.136   4.022   6.103 -1.7929 -0.1666  2.6933
 3710SOL     OW22762   1.974   3.823   1.957 -0.0290  0.0601 -0.1921
 3710SOL    HW122763   1.920   3.839   1.880 -1.1597 -0.8767  0.3950
 3710SOL    HW222764   1.935   3.738   1.982  1.0467 -0.9948 -2.1299
 3711SOL     OW22765   4.562   2.031   0.615 -0.1632 -0.3390 -0.3027
 3711SOL    HW122766   4.484   1.980   0.638 -0.4842  1.0461  1.6495
 3711SOL    HW222767   4.533   2.116   0.649 -0.0084 -2.3097  4.7458
 3712SOL     OW22768   3.281   4.252   9.485 -0.2017  0.6939  0.0935
 3712SOL    HW122769   3.233   4.182   9.439  0.6404  0.9875 -1.2202
 3712SOL    HW222770   3.282   4.328   9.427 -0.5976 -0.4399 -1.4114
 3713SOL     OW22771   2.886   2.869   6.565 -0.0938 -0.0465 -0.3099
 3713SOL    HW122772   2.946   2.799   6.591  0.7422  1.7904  2.7333
 3713SOL    HW222773   2.871   2.908   6.651  0.3675  1.5820 -0.9567
 3714SOL     OW22774   1.231   1.210   3.082  0.5559 -0.3470 -0.1529
 3714SOL    HW122775   1.273   1.126   3.065 -0.7494 -0.7174 -1.5365
 3714SOL    HW222776   1.235   1.256   2.999  0.3825 -1.0425 -0.5452
 3715SOL     OW22777   2.253   2.021   6.266 -0.3988  0.0479 -0.0388
 3715SOL    HW122778   2.346   2.004   6.279  0.1910  2.7060 -0.8232
 3715SOL    HW222779   2.235   2.028   6.172  0.3819 -1.1036 -0.2683
 3716SOL     OW22780   3.845   2.140  14.674 -0.3873 -0.8365  0.5132
 3716SOL    HW122781   3.751   2.153  14.687 -0.4642 -1.0311  0.1427
 3716SOL    HW222782   3.861   2.148  14.580 -1.8467 -3.8685  0.0058
 3717SOL     OW22783   2.481   4.317   2.872 -0.0271  0.7435  0.2703
 3717SOL    HW122784   2.396   4.275   2.864  0.8561 -0.7631 -1.2148
 3717SOL    HW222785   2.477   4.366   2.954  3.6453  0.0858  0.8725
 3718SOL     OW22786   0.073   1.380  12.298  0.3014  1.1463 -0.0988
 3718SOL    HW122787   4.719   1.400  12.318  0.5194  0.9451  1.1036
 3718SOL    HW222788   0.080   1.288  12.270 -0.0883  1.9500 -2.8666
 3719SOL     OW22789   1.117   0.459  15.530 -0.4409 -0.6247 -0.2525
 3719SOL    HW122790   1.146   0.525  15.467  0.4084 -0.6500  0.1148
 3719SOL    HW222791   1.148   0.384  15.481  2.9233 -0.2771  1.3666
 3720SOL     OW22792   0.496   0.929   2.195 -0.1598  0.1837  0.0553
 3720SOL    HW122793   0.461   0.843   2.172  2.9199 -0.7529 -1.1116
 3720SOL    HW222794   0.416   0.981   2.204 -1.4082 -1.5844 -0.7614
 3721SOL     OW22795   0.631   2.428  13.016  0.1353 -0.0561 -0.2713
 3721SOL    HW122796   0.554   2.421  13.072  0.7851 -2.9942  0.2728
 3721SOL    HW222797   0.613   2.372  12.940  1.4578 -1.9802  0.8271
 3722SOL     OW22798   0.273   0.862   0.979 -0.3444  0.1711 -0.2035
 3722SOL    HW122799   0.196   0.850   1.036 -0.1986 -3.0470 -0.6612
 3722SOL    HW222800   0.232   0.869   0.893  0.1717  0.2708 -0.4349
 3723SOL     OW22801   4.196   3.382   8.793 -0.5544 -0.1112  0.0098
 3723SOL    HW122802   4.260   3.316   8.766  0.8157  1.4991 -0.6769
 3723SOL    HW222803   4.125   3.368   8.730 -1.0187  2.3135 -0.0047
 3724SOL     OW22804   3.696   1.775   4.618 -0.0746  0.4201  0.6050
 3724SOL    HW122805   3.729   1.794   4.706  1.6812 -1.8451  0.4189
 3724SOL    HW222806   3.775   1.789   4.566 -1.1592 -0.2171 -1.2196
 3725SOL     OW22807   4.586   2.163   1.810 -0.0517  0.3970 -0.1211
 3725SOL    HW122808   4.524   2.189   1.741 -0.6478  0.1675  0.3274
 3725SOL    HW222809   4.518   2.185   1.875 -0.3953 -0.9513 -0.0334
 3726SOL     OW22810   0.245   2.259   4.539  0.3743 -0.5430 -0.2394
 3726SOL    HW122811   0.306   2.322   4.500  0.0639 -0.0314  0.1061
 3726SOL    HW222812   0.255   2.190   4.474  4.0233  0.7716 -1.0651
 3727SOL     OW22813   0.133   2.008   7.562  0.1414 -0.3925  0.2661
 3727SOL    HW122814   0.040   1.992   7.581  0.4059 -0.9418  1.0700
 3727SOL    HW222815   0.164   1.928   7.603  0.3761  0.5727  1.9827
 3728SOL     OW22816   1.196   4.567   8.345  0.2648  0.4075 -0.6119
 3728SOL    HW122817   1.187   4.617   8.426 -3.0531 -3.5195  1.4603
 3728SOL    HW222818   1.261   4.501   8.370 -1.4141 -1.0668 -0.1441
 3729SOL     OW22819   4.529   0.087   5.129  0.0881 -0.3719 -0.3625
 3729SOL    HW122820   4.472   0.164   5.136  1.8737  0.9185 -0.0396
 3729SOL    HW222821   4.615   0.121   5.105 -0.4933 -0.1262 -2.0656
 3730SOL     OW22822   3.919   1.288   2.822  0.2599 -0.0030  0.0369
 3730SOL    HW122823   3.945   1.376   2.793  1.5780 -0.5959 -0.5832
 3730SOL    HW222824   3.858   1.310   2.892 -0.2012  0.7981 -0.6138
 3731SOL     OW22825   0.687   2.388   8.729 -0.3085  0.1044  0.4147
 3731SOL    HW122826   0.719   2.320   8.788  0.7724 -0.7043 -1.0870
 3731SOL    HW222827   0.594   2.374   8.742 -0.3446 -2.2868 -2.5460
 3732SOL     OW22828   3.943   3.553   1.217 -0.4112  0.0513  0.1561
 3732SOL    HW122829   3.977   3.632   1.176  0.8920 -1.1320 -1.0344
 3732SOL    HW222830   3.852   3.556   1.188 -1.3354 -2.3179  2.8530
 3733SOL     OW22831   2.931   2.885   9.764  0.3597  0.2614 -0.2999
 3733SOL    HW122832   2.860   2.826   9.739 -0.4543  1.7229 -1.3621
 3733SOL    HW222833   2.936   2.863   9.857  1.2913  1.0899 -0.1486
 3734SOL     OW22834   2.727   4.241  15.290  0.1426  0.3779 -0.4381
 3734SOL    HW122835   2.729   4.147  15.309 -2.8335  0.8339  2.2016
 3734SOL    HW222836   2.635   4.253  15.313  0.1568  0.7356 -0.5781
 3735SOL     OW22837   2.927   2.622   2.229  0.0757  0.3303 -0.0526
 3735SOL    HW122838   2.892   2.669   2.305 -2.4759  2.3578 -2.4835
 3735SOL    HW222839   2.926   2.686   2.158 -1.5374  0.1891 -0.1665
 3736SOL     OW22840   1.621   3.104   5.951  0.6639 -0.0982 -0.1152
 3736SOL    HW122841   1.637   3.038   5.884 -2.0188 -1.8779  0.9976
 3736SOL    HW222842   1.671   3.173   5.908 -0.2325  0.7131  0.1431
 3737SOL     OW22843   4.503   2.249  12.319  0.2919  0.3525 -0.8366
 3737SOL    HW122844   4.530   2.166  12.280 -1.1132 -0.2293 -0.5798
 3737SOL    HW222845   4.445   2.210  12.385  0.1369  0.6931 -0.7738
 3738SOL     OW22846   4.033   0.602   7.809 -0.5499  0.1973  0.0258
 3738SOL    HW122847   3.991   0.686   7.792 -0.6403 -0.1420 -1.4580
 3738SOL    HW222848   4.083   0.584   7.729 -1.3266  0.3726 -0.5087
 3739SOL     OW22849   3.197   3.922  11.608  0.0869  0.1036  0.2634
 3739SOL    HW122850   3.149   3.998  11.574 -2.9540 -1.7662  0.3300
 3739SOL    HW222851   3.161   3.851  11.554 -2.5999  0.8790  1.0327
 3740SOL     OW22852   0.576   1.334  10.149  0.3345  0.2339  0.6059
 3740SOL    HW122853   0.561   1.427  10.165 -1.7280  0.0641 -0.2312
 3740SOL    HW222854   0.559   1.304  10.239  0.4989  2.7138  1.4600
 3741SOL     OW22855   3.540   4.505   1.259 -0.1359  0.1821  0.4711
 3741SOL    HW122856   3.557   4.548   1.175  0.2501 -1.4633 -0.3001
 3741SOL    HW222857   3.630   4.494   1.289 -0.6033 -1.0296  1.4255
 3742SOL     OW22858   0.640   1.918   6.442  0.1554 -0.1480  0.5014
 3742SOL    HW122859   0.620   1.851   6.376  0.0713  0.8420 -0.4947
 3742SOL    HW222860   0.713   1.882   6.493 -0.8818 -0.4416  1.7593
 3743SOL     OW22861   2.104   1.057   6.154 -0.4240  0.4179 -0.5062
 3743SOL    HW122862   2.194   1.072   6.127 -0.0405  0.2325  0.6841
 3743SOL    HW222863   2.095   0.964   6.136 -1.1799  0.3262  0.3481
 3744SOL     OW22864   2.224   0.241   6.460  0.8514 -0.1216  0.3170
 3744SOL    HW122865   2.230   0.211   6.550 -0.1630 -1.1367  0.0493
 3744SOL    HW222866   2.148   0.188   6.435  0.8613 -0.1222  0.2877
 3745SOL     OW22867   0.677   0.370   5.422  0.0096 -0.2895  0.0619
 3745SOL    HW122868   0.638   0.445   5.468 -1.4983 -1.2865  0.3955
 3745SOL    HW222869   0.655   0.395   5.332  1.1995 -0.2570 -0.2178
 3746SOL     OW22870   1.620   3.384   4.219 -0.1785  0.2342 -0.0755
 3746SOL    HW122871   1.692   3.436   4.255 -2.9494  3.7797  0.4164
 3746SOL    HW222872   1.640   3.367   4.127 -0.9952  1.2966 -0.4528
 3747SOL     OW22873   0.321   1.258   1.385 -0.5426 -0.0083 -0.1855
 3747SOL    HW122874   0.320   1.262   1.481 -3.6486  1.6971 -0.3135
 3747SOL    HW222875   0.233   1.294   1.375 -0.6659 -0.4073 -0.5162
 3748SOL     OW22876   4.649   3.800  10.530  0.2342 -0.4931 -0.6202
 3748SOL    HW122877   4.675   3.877  10.481  1.4639 -0.6253 -0.1727
 3748SOL    HW222878   4.651   3.735  10.460  2.0866  0.0670 -1.0778
 3749SOL     OW22879   2.598   1.798   5.467  0.3502  0.2263  0.2198
 3749SOL    HW122880   2.595   1.795   5.371  0.0978 -1.1398  0.2652
 3749SOL    HW222881   2.546   1.724   5.497  0.0274  0.1228 -0.5879
 3750SOL     OW22882   4.558   1.987   7.768 -0.2110 -0.3136  0.6188
 3750SOL    HW122883   4.581   1.980   7.675 -2.4288 -1.1240  0.1357
 3750SOL    HW222884   4.476   2.033   7.750 -0.9678 -1.7552  0.3789
 3751SOL     OW22885   3.017   4.313   2.378  0.3178 -0.0227 -0.6464
 3751SOL    HW122886   2.944   4.374   2.379 -0.0514 -0.4599 -1.0606
 3751SOL    HW222887   3.051   4.335   2.291 -1.9326  2.2237 -0.9502
 3752SOL     OW22888   0.996   0.735   5.267 -0.5201 -0.3818 -0.4551
 3752SOL    HW122889   1.032   0.788   5.196 -1.5245  2.0652  0.8403
 3752SOL    HW222890   0.925   0.792   5.297 -1.6336 -2.5300  0.9607
 3753SOL     OW22891   2.845   0.714  16.590 -0.4114  0.1311 -0.3796
 3753SOL    HW122892   2.764   0.673  16.557 -0.5267 -1.3977  1.8340
 3753SOL    HW222893   2.884   0.738  16.505  1.5013 -1.0163  0.1689
 3754SOL     OW22894   1.713   0.720  12.555 -0.1495  0.0424 -0.3950
 3754SOL    HW122895   1.751   0.644  12.599 -0.0535 -0.7422 -1.8301
 3754SOL    HW222896   1.671   0.769  12.626  0.9314  1.2236 -0.5627
 3755SOL     OW22897   2.284   2.889  15.771 -0.2549 -0.4373 -0.9261
 3755SOL    HW122898   2.189   2.878  15.766 -0.2353 -1.3736  0.7551
 3755SOL    HW222899   2.289   2.971  15.819 -0.2061 -0.3263 -1.1209
 3756SOL     OW22900   2.665   3.483   9.143 -0.0235 -0.1322 -0.2864
 3756SOL    HW122901   2.591   3.536   9.174 -0.2461  0.2949 -1.5447
 3756SOL    HW222902   2.691   3.447   9.228 -0.3633  0.2034 -0.0357
 3757SOL     OW22903   4.365   0.326   3.435 -0.2020  0.2118 -0.3693
 3757SOL    HW122904   4.417   0.334   3.515  1.4862  0.5325 -1.5056
 3757SOL    HW222905   4.339   0.233   3.434  0.6220 -0.0278  0.2459
 3758SOL     OW22906   1.511   0.775   0.570  0.1292 -0.0843  0.6853
 3758SOL    HW122907   1.452   0.846   0.596 -1.1389 -0.3116 -1.6009
 3758SOL    HW222908   1.466   0.746   0.490  0.8989  1.3906 -0.2927
 3759SOL     OW22909   3.849   0.524  15.215 -0.2197  0.3407 -0.4668
 3759SOL    HW122910   3.839   0.442  15.166 -0.2986 -0.7146  1.2960
 3759SOL    HW222911   3.812   0.582  15.148 -0.9040 -1.6481 -1.8044
 3760SOL     OW22912   1.222   3.932   2.703  0.9731  0.0932 -0.0411
 3760SOL    HW122913   1.135   3.940   2.664  1.1805  0.7936 -0.3679
 3760SOL    HW222914   1.248   4.020   2.732  2.9881 -0.2629 -0.8012
 3761SOL     OW22915   3.256   3.609   1.776  0.0134  0.7855 -0.5411
 3761SOL    HW122916   3.192   3.566   1.720 -1.0441  0.8136  0.6338
 3761SOL    HW222917   3.301   3.536   1.819  0.2483  1.0019 -0.4150
 3762SOL     OW22918   3.731   0.058   1.084  0.0655  0.2673  0.4011
 3762SOL    HW122919   3.697   4.734   1.018  0.6667  0.5094 -0.1266
 3762SOL    HW222920   3.785   0.110   1.025 -0.8913 -0.3547 -1.0280
 3763SOL     OW22921   3.791   3.861  12.544 -0.3031 -0.1428  0.3657
 3763SOL    HW122922   3.750   3.947  12.531  1.2286  0.8490  2.1096
 3763SOL    HW222923   3.805   3.859  12.638  1.4514 -2.4652  0.0363
 3764SOL     OW22924   0.657   3.992  12.721 -0.1950  0.3136  0.7850
 3764SOL    HW122925   0.640   3.919  12.661 -3.8273  1.1765  0.7623
 3764SOL    HW222926   0.741   4.020  12.684  0.9197 -0.3396  2.8598
 3765SOL     OW22927   3.790   4.045   0.776  0.5218  1.0117 -0.7618
 3765SOL    HW122928   3.712   4.047   0.720 -0.0525  0.6799  0.0297
 3765SOL    HW222929   3.860   4.081   0.721 -0.6248  1.9564 -1.6017
 3766SOL     OW22930   1.359   2.641   8.773 -0.3869 -0.1868 -0.4396
 3766SOL    HW122931   1.324   2.558   8.805  1.9620 -0.7354  0.7459
 3766SOL    HW222932   1.278   2.690   8.785  0.3200  0.8308  0.2152
 3767SOL     OW22933   2.356   0.072   0.869  0.2086  0.5869 -0.8476
 3767SOL    HW122934   2.374   0.165   0.877 -0.9872  0.8000 -0.6298
 3767SOL    HW222935   2.434   0.044   0.822  0.4595 -1.2372  0.6489
 3768SOL     OW22936   1.676   3.107   2.251 -0.2604  0.0266  0.2305
 3768SOL    HW122937   1.632   3.174   2.199  1.8588  0.8478 -0.5033
 3768SOL    HW222938   1.663   3.135   2.342 -1.9657 -2.7858  0.8623
 3769SOL     OW22939   4.029   2.992   7.865  0.0287  0.3455  0.1402
 3769SOL    HW122940   4.122   2.968   7.870  0.0920  0.2350 -1.3759
 3769SOL    HW222941   3.990   2.922   7.917 -0.7756  0.2184 -0.6332
 3770SOL     OW22942   3.934   1.604   4.352  0.1944  0.7557  0.0860
 3770SOL    HW122943   3.939   1.635   4.442  1.9715  1.3220 -0.2177
 3770SOL    HW222944   4.019   1.564   4.332  0.9901  1.7266  1.5824
 3771SOL     OW22945   3.808   1.275   4.177  0.4038  0.0433 -0.1286
 3771SOL    HW122946   3.807   1.354   4.231 -1.0042 -0.3293  0.3875
 3771SOL    HW222947   3.749   1.210   4.217  0.6504 -0.8782 -1.2489
 3772SOL     OW22948   3.197   0.968   8.742  0.0403 -0.3766  0.5211
 3772SOL    HW122949   3.115   0.974   8.694  0.4136  0.7112  0.0151
 3772SOL    HW222950   3.242   1.047   8.712 -0.0682 -1.1920 -1.7582
 3773SOL     OW22951   2.125   1.157   0.393 -0.3051  0.1658 -0.1439
 3773SOL    HW122952   2.064   1.225   0.421  0.5467 -0.1146  2.3725
 3773SOL    HW222953   2.091   1.138   0.306 -0.0287  1.7596 -0.6021
 3774SOL     OW22954   4.356   4.360   2.677  0.3832  0.8727  0.3107
 3774SOL    HW122955   4.350   4.265   2.684  2.8596  0.5737 -1.5384
 3774SOL    HW222956   4.318   4.387   2.594 -0.7063 -4.9032 -1.0241
 3775SOL     OW22957   4.108   2.960  13.130 -0.5939 -0.0144 -0.1169
 3775SOL    HW122958   4.166   2.995  13.198 -0.1330 -1.1086  0.0564
 3775SOL    HW222959   4.037   2.923  13.183 -0.8559  2.0917  0.9711
 3776SOL     OW22960   3.968   2.349  11.752  0.0368  0.0556 -0.0453
 3776SOL    HW122961   4.047   2.398  11.773 -0.1022 -0.5869  1.9735
 3776SOL    HW222962   3.903   2.417  11.732 -0.0897  0.3323  1.2871
 3777SOL     OW22963   2.509   1.396   2.748 -0.9533 -0.4291  0.9971
 3777SOL    HW122964   2.525   1.381   2.655 -2.4835 -3.6862  1.2755
 3777SOL    HW222965   2.578   1.341   2.786 -1.0454 -1.2493 -0.0226
 3778SOL     OW22966   2.289   4.546   2.298  0.2892 -0.2691  0.5481
 3778SOL    HW122967   2.304   4.633   2.334 -2.1629  0.9991 -1.5512
 3778SOL    HW222968   2.208   4.561   2.250  1.3844  2.9374 -0.2605
 3779SOL     OW22969   4.436   1.060   6.012  0.0888  0.7846 -0.2831
 3779SOL    HW122970   4.393   1.084   6.094 -1.4828 -0.4133 -0.7634
 3779SOL    HW222971   4.517   1.111   6.019  1.0623 -0.6014 -1.5949
 3780SOL     OW22972   4.512   1.620   8.157  0.5063  0.4385 -0.1605
 3780SOL    HW122973   4.514   1.712   8.181 -0.3561 -0.5287  3.6066
 3780SOL    HW222974   4.428   1.607   8.114  1.6828  1.2630 -2.7193
 3781SOL     OW22975   3.572   1.154   1.902 -0.0320  0.1132 -0.1521
 3781SOL    HW122976   3.549   1.063   1.917 -1.0826  1.1913  4.7436
 3781SOL    HW222977   3.657   1.168   1.945 -0.7635  1.8438  0.7244
 3782SOL     OW22978   3.330   1.520  17.254 -0.0865  0.1941 -0.8072
 3782SOL    HW122979   3.376   1.555  17.330 -2.7071 -0.4599  1.0768
 3782SOL    HW222980   3.292   1.600  17.216  0.1001 -0.4620 -2.3751
 3783SOL     OW22981   3.057   3.582   9.189  0.1505  0.0983 -0.1243
 3783SOL    HW122982   3.125   3.569   9.254  0.4498  0.9776 -0.2615
 3783SOL    HW222983   2.989   3.537   9.239 -0.6228 -0.5364 -1.7144
 3784SOL     OW22984   3.211   3.694   2.578 -1.1106 -0.1762 -0.4011
 3784SOL    HW122985   3.211   3.633   2.651 -1.6084  1.5093  0.9972
 3784SOL    HW222986   3.161   3.649   2.510 -2.4840  0.1542  0.3908
 3785SOL     OW22987   3.853   0.871   1.945 -0.2226  0.0663  0.4145
 3785SOL    HW122988   3.890   0.941   1.999 -1.2205  1.8916 -1.2105
 3785SOL    HW222989   3.927   0.813   1.928 -1.1741 -1.1712  0.5288
 3786SOL     OW22990   0.641   4.454   6.438  0.7122  0.3553  0.4068
 3786SOL    HW122991   0.711   4.409   6.486  0.1430 -0.8721  0.0913
 3786SOL    HW222992   0.589   4.374   6.427 -1.0530  1.1422  2.9076
 3787SOL     OW22993   4.387   3.220  17.001  0.7786  0.0255 -0.1945
 3787SOL    HW122994   4.426   3.301  16.967 -1.5550  0.9302 -0.7436
 3787SOL    HW222995   4.429   3.196  17.084  0.8306 -0.1957 -0.2870
 3788SOL     OW22996   2.500   2.710   4.798  0.5398 -0.1951 -0.0389
 3788SOL    HW122997   2.448   2.722   4.719 -1.4087  0.3665  1.3408
 3788SOL    HW222998   2.442   2.766   4.849  0.1353 -0.0961 -0.6059
 3789SOL     OW22999   2.827   2.792   5.332 -0.3829 -0.4139 -0.2466
 3789SOL    HW123000   2.821   2.876   5.377  1.5106  0.3293 -1.4200
 3789SOL    HW223001   2.799   2.736   5.404 -1.7527  1.0348  0.3498
 3790SOL     OW23002   2.590   4.292   3.816 -0.1552 -0.0599 -0.0874
 3790SOL    HW123003   2.684   4.286   3.834 -0.0914  2.5499  0.4895
 3790SOL    HW223004   2.550   4.289   3.904  0.7540 -1.2435  0.2845
 3791SOL     OW23005   2.682   3.107   5.201  0.2150 -0.3630  0.3615
 3791SOL    HW123006   2.647   3.060   5.277 -2.8578  1.1385 -0.0938
 3791SOL    HW223007   2.599   3.152   5.181  0.5271  0.5172  1.0930
 3792SOL     OW23008   2.083   1.533  17.408 -0.1964 -0.3307  0.3530
 3792SOL    HW123009   2.137   1.593  17.357  0.7098  0.2135  1.9504
 3792SOL    HW223010   1.999   1.521  17.364  0.1521  1.1709 -0.7087
 3793SOL     OW23011   3.259   0.890  11.120  1.1249 -0.3412 -0.2194
 3793SOL    HW123012   3.237   0.914  11.030 -0.8637 -1.0110  0.0734
 3793SOL    HW223013   3.174   0.884  11.164  0.3450  1.2435 -1.4996
 3794SOL     OW23014   2.086   2.186  13.382 -0.0537  0.4222 -0.0019
 3794SOL    HW123015   2.066   2.259  13.441  1.8881 -0.5985  1.9023
 3794SOL    HW223016   2.071   2.237  13.303  2.7173 -1.2319 -1.5754
 3795SOL     OW23017   3.953   1.096   5.089 -0.3501 -0.1147 -0.4059
 3795SOL    HW123018   3.998   1.124   5.168  1.2832 -0.0020 -1.3770
 3795SOL    HW223019   3.963   1.001   5.094  1.5383  0.0453 -1.2544
 3796SOL     OW23020   2.510   0.290   3.295 -0.0334  0.1670 -0.2333
 3796SOL    HW123021   2.423   0.317   3.325 -0.4784 -0.8775 -0.5894
 3796SOL    HW223022   2.570   0.344   3.346 -1.0636  0.8062  0.2913
 3797SOL     OW23023   4.580   3.230   6.004  0.0195 -0.3858 -0.3252
 3797SOL    HW123024   4.565   3.304   5.944 -2.2439 -1.5929 -1.2474
 3797SOL    HW223025   4.619   3.159   5.954 -0.0379 -0.7748  0.1889
 3798SOL     OW23026   1.948   1.670   2.637  0.2943 -0.0672 -0.1731
 3798SOL    HW123027   1.992   1.698   2.557 -1.7405 -0.8359 -1.5414
 3798SOL    HW223028   1.971   1.577   2.638  2.7863  0.5185 -1.8052
 3799SOL     OW23029   1.605   1.715   7.396 -0.2406 -0.3938  0.4928
 3799SOL    HW123030   1.691   1.749   7.420 -0.6803  1.1659 -0.1121
 3799SOL    HW223031   1.610   1.701   7.302 -2.0638  0.5769  0.2344
 3800SOL     OW23032   0.121   1.851   6.452 -0.2151  0.2245  0.1811
 3800SOL    HW123033   0.086   1.799   6.525 -0.8197  0.9962  0.4411
 3800SOL    HW223034   0.044   1.880   6.403 -1.3243  0.9985  2.3501
 3801SOL     OW23035   3.253   3.650   4.569  0.5250 -0.3602  0.0963
 3801SOL    HW123036   3.178   3.651   4.629  0.2694  0.5070 -0.2472
 3801SOL    HW223037   3.210   3.686   4.492  0.9693 -4.9504 -2.3125
 3802SOL     OW23038   4.166   4.004   2.753  0.1842 -0.0460  0.2697
 3802SOL    HW123039   4.261   4.013   2.744  0.2003 -2.3358 -1.7439
 3802SOL    HW223040   4.172   4.019   2.848 -0.5461  2.1303 -0.0235
 3803SOL     OW23041   1.003   0.019  12.234 -0.3981  0.4801  0.2757
 3803SOL    HW123042   1.017   0.092  12.175 -0.0007  0.1213 -0.0736
 3803SOL    HW223043   1.087   0.015  12.280 -0.5669  1.6147  0.6779
 3804SOL     OW23044   2.018   3.878   5.988 -0.2851  0.1214  0.2258
 3804SOL    HW123045   1.968   3.896   5.908  0.9499 -0.3527 -0.6399
 3804SOL    HW223046   2.039   3.785   5.978 -0.0209  0.0883  1.0298
 3805SOL     OW23047   4.266   2.321   6.295 -0.4191  0.2062 -0.8539
 3805SOL    HW123048   4.194   2.326   6.357 -1.1530 -0.8203 -1.6222
 3805SOL    HW223049   4.229   2.257   6.235 -0.3820 -1.3760  0.8275
 3806SOL     OW23050   4.165   1.795   5.761 -0.3800 -0.0680  0.1055
 3806SOL    HW123051   4.233   1.761   5.819 -0.2220  0.8764  0.4845
 3806SOL    HW223052   4.111   1.717   5.761 -0.1794 -0.2092  0.8124
 3807SOL     OW23053   3.078   1.331   3.340 -0.0805  0.4048  0.5665
 3807SOL    HW123054   3.109   1.409   3.388  0.6917 -0.0416  0.7919
 3807SOL    HW223055   3.024   1.286   3.405 -0.4657  2.5152  1.7127
 3808SOL     OW23056   2.309   0.685   7.542  0.2651  1.0567 -0.1868
 3808SOL    HW123057   2.281   0.720   7.458  0.9110 -1.3189 -1.3947
 3808SOL    HW223058   2.250   0.723   7.607  1.3484  1.8247  0.3580
 3809SOL     OW23059   3.706   1.509  11.697 -0.0439  0.2032 -0.1913
 3809SOL    HW123060   3.710   1.598  11.732  2.6915  0.2512 -0.6671
 3809SOL    HW223061   3.712   1.522  11.603 -1.3822 -1.3867 -0.5086
 3810SOL     OW23062   0.909   0.746   3.248  0.3851 -0.5904 -0.5832
 3810SOL    HW123063   0.979   0.804   3.217 -1.1728  0.4831 -2.0730
 3810SOL    HW223064   0.854   0.807   3.298  1.9232  0.3217 -0.0083
 3811SOL     OW23065   3.957   2.738  17.677 -0.4633 -0.1549  0.0130
 3811SOL    HW123066   3.872   2.705  17.707  0.2641 -0.1135  2.0956
 3811SOL    HW223067   4.006   2.656  17.674  0.5064  0.4735 -1.0771
 3812SOL     OW23068   3.475   2.829  10.033  0.1442  0.3960 -0.0514
 3812SOL    HW123069   3.491   2.736  10.016 -0.8408 -0.0393  1.3592
 3812SOL    HW223070   3.419   2.843   9.956 -0.8290 -0.5921  0.4760
 3813SOL     OW23071   4.021   4.561   7.544 -0.4355 -0.2815 -0.1451
 3813SOL    HW123072   4.014   4.510   7.464  1.2309  0.8794 -1.0190
 3813SOL    HW223073   3.943   4.617   7.539 -1.2224 -1.3605  0.2409
 3814SOL     OW23074   1.106   1.707   0.863 -0.9747 -0.0909  0.0490
 3814SOL    HW123075   1.140   1.706   0.953  1.6454  0.4971 -0.9472
 3814SOL    HW223076   1.121   1.799   0.843 -1.4669  0.3730  1.8293
 3815SOL     OW23077   0.343   3.075  10.406  0.0458  0.6855 -0.0738
 3815SOL    HW123078   0.436   3.091  10.386 -0.2811  1.0271 -1.3141
 3815SOL    HW223079   0.315   3.152  10.456  0.1760 -0.1077  1.2057
 3816SOL     OW23080   3.289   2.675  11.479  0.6167 -0.4770 -0.8297
 3816SOL    HW123081   3.222   2.714  11.422 -2.4092 -0.7664  2.5405
 3816SOL    HW223082   3.338   2.616  11.422  0.2142 -2.1438  0.5341
 3817SOL     OW23083   1.006   3.772   7.370  0.0426 -0.2128  0.0942
 3817SOL    HW123084   1.013   3.678   7.386  0.6050 -0.2660 -0.4745
 3817SOL    HW223085   0.961   3.798   7.450 -0.1917  2.4991 -0.9172
 3818SOL     OW23086   1.980   4.040   0.545 -0.4529  0.1238 -0.1834
 3818SOL    HW123087   2.050   4.007   0.601 -1.2642 -0.6045  0.4016
 3818SOL    HW223088   1.991   3.977   0.474 -2.5329 -2.2691  1.5950
 3819SOL     OW23089   0.897   3.694   1.501 -0.3633  0.3620  0.4520
 3819SOL    HW123090   0.935   3.772   1.541 -0.7782 -0.1799  1.8982
 3819SOL    HW223091   0.943   3.698   1.417  0.8950  0.0772  1.1402
 3820SOL     OW23092   3.679   2.008  12.512  0.9403  0.0685  0.0023
 3820SOL    HW123093   3.610   2.073  12.527  0.1121 -0.6488 -0.6996
 3820SOL    HW223094   3.636   1.931  12.475 -0.3165  1.2466 -1.0251
 3821SOL     OW23095   3.601   3.233   7.037 -0.5956 -0.8891  0.3847
 3821SOL    HW123096   3.611   3.309   6.979 -2.0004 -1.2524 -0.3487
 3821SOL    HW223097   3.623   3.267   7.124 -0.6706 -1.0364  0.4612
 3822SOL     OW23098   2.653   4.391   6.400 -0.0291 -0.3583  0.1824
 3822SOL    HW123099   2.732   4.439   6.425  0.2423 -0.1386 -1.0550
 3822SOL    HW223100   2.587   4.434   6.454 -0.2763 -0.0781 -0.3345
 3823SOL     OW23101   3.500   0.668  15.685  0.0366  0.4106  0.4557
 3823SOL    HW123102   3.553   0.597  15.649 -3.0777 -0.5430 -2.1864
 3823SOL    HW223103   3.528   0.661  15.776 -1.0216  2.0059  0.9028
 3824SOL     OW23104   1.666   1.213   2.764  0.2666 -0.3041 -0.7576
 3824SOL    HW123105   1.737   1.249   2.819 -0.9450  3.1222 -1.4290
 3824SOL    HW223106   1.623   1.290   2.726  0.2425 -0.9878 -2.1103
 3825SOL     OW23107   3.879   3.697   9.969  0.7448 -0.1316 -0.2732
 3825SOL    HW123108   3.965   3.666   9.940  0.4615 -2.1668  1.0797
 3825SOL    HW223109   3.819   3.656   9.906  2.3619 -2.3730 -0.3620
 3826SOL     OW23110   0.869   2.579  10.254  0.5687 -0.1018 -0.0699
 3826SOL    HW123111   0.841   2.670  10.244  3.0214  0.7072  0.3739
 3826SOL    HW223112   0.825   2.546  10.332 -0.9746 -1.7755 -1.6386
 3827SOL     OW23113   2.783   1.457   7.626 -0.4257 -0.2126 -0.1941
 3827SOL    HW123114   2.773   1.367   7.655 -2.6779 -0.3862 -1.4967
 3827SOL    HW223115   2.867   1.454   7.579 -0.4132  1.2114 -0.2928
 3828SOL     OW23116   2.152   2.323   4.578 -0.4248  0.2432 -0.1101
 3828SOL    HW123117   2.205   2.314   4.657  0.8190 -1.1392 -1.0891
 3828SOL    HW223118   2.062   2.336   4.608 -0.7244 -1.3531 -0.2800
 3829SOL     OW23119   2.346   0.424  14.755 -0.0677  0.3140  0.0281
 3829SOL    HW123120   2.363   0.490  14.822  0.4547 -0.4114  0.6097
 3829SOL    HW223121   2.379   0.469  14.677  0.6832  1.8607  1.2537
 3830SOL     OW23122   4.238   0.107   2.751 -0.6529  0.2656  0.5915
 3830SOL    HW123123   4.320   0.113   2.800  0.2049 -2.1903 -0.5207
 3830SOL    HW223124   4.219   0.199   2.735  0.7012  0.8043  2.1343
 3831SOL     OW23125   2.838   0.834   2.994  0.6925  0.1482 -0.1709
 3831SOL    HW123126   2.893   0.825   3.072 -0.2080 -0.7760  0.3576
 3831SOL    HW223127   2.909   0.827   2.930 -0.5488 -0.3416 -1.4783
 3832SOL     OW23128   0.286   4.682   3.150 -0.2161 -0.0589  0.1136
 3832SOL    HW123129   0.281   4.724   3.236  0.0650  2.8568 -1.2760
 3832SOL    HW223130   0.215   4.730   3.105  1.9408  1.7245 -1.3888
 3833SOL     OW23131   3.848   2.667   7.577  0.1127  0.5748 -0.3186
 3833SOL    HW123132   3.792   2.680   7.654 -2.5189 -1.1841 -1.9281
 3833SOL    HW223133   3.844   2.576   7.549  2.6340  0.1263  0.8450
 3834SOL     OW23134   3.797   2.955   7.687 -0.6358  0.2353 -0.1380
 3834SOL    HW123135   3.867   3.001   7.733  0.4664 -0.1462 -1.4261
 3834SOL    HW223136   3.797   2.877   7.743 -0.6199  2.0981  2.4619
 3835SOL     OW23137   3.104   4.457   2.590 -0.5563  0.4053 -0.6551
 3835SOL    HW123138   3.061   4.387   2.541  0.2868 -1.0250  0.6867
 3835SOL    HW223139   3.169   4.488   2.527 -1.7215  1.8599 -1.1580
 3836SOL     OW23140   0.490   3.056   5.138 -0.0785 -0.1173  0.2152
 3836SOL    HW123141   0.486   3.139   5.092  1.3586 -0.4128 -0.4392
 3836SOL    HW223142   0.585   3.045   5.137 -0.0166  0.5211 -0.6139
 3837SOL     OW23143   4.166   0.711   1.376 -0.2320 -0.0618  0.2310
 3837SOL    HW123144   4.241   0.757   1.338 -0.3130 -1.4004 -1.5424
 3837SOL    HW223145   4.145   0.759   1.457  2.1135 -0.7525  1.2545
 3838SOL     OW23146   1.920   1.780   2.888  0.2947  0.1471  0.6483
 3838SOL    HW123147   1.959   1.731   2.816  0.9464  2.1226 -0.3419
 3838SOL    HW223148   1.836   1.736   2.902  0.2099  0.9342  2.6356
 3839SOL     OW23149   1.263   4.387   1.754  0.3292 -0.5963 -0.1039
 3839SOL    HW123150   1.279   4.403   1.848  0.6248 -1.5917  0.0091
 3839SOL    HW223151   1.256   4.474   1.715 -0.4909 -1.0701 -1.0069
 3840SOL     OW23152   0.605   0.474   2.780  0.2710  0.0099  0.0084
 3840SOL    HW123153   0.607   0.506   2.689  0.0745 -1.2893 -0.4439
 3840SOL    HW223154   0.644   0.550   2.823 -1.6168  2.1197 -1.9881
 3841SOL     OW23155   4.507   2.422  12.097 -0.5873  0.1251  0.3734
 3841SOL    HW123156   4.429   2.383  12.057 -0.0451 -0.5849  0.0015
 3841SOL    HW223157   4.505   2.372  12.178 -1.0890 -1.9007 -0.8841
 3842SOL     OW23158   3.750   0.240   7.457  0.2322  0.2003 -0.1890
 3842SOL    HW123159   3.784   0.302   7.393 -0.2464 -0.8318 -1.4316
 3842SOL    HW223160   3.766   0.303   7.528  1.4993  1.3313 -1.4656
 3843SOL     OW23161   0.041   1.651  14.383 -0.4375  0.1498  0.8317
 3843SOL    HW123162   4.712   1.714  14.412  0.1408  0.9108  0.5030
 3843SOL    HW223163   0.088   1.646  14.466  1.6343 -0.7988 -0.4054
 3844SOL     OW23164   2.009   2.663  17.537  0.2352  0.4030 -0.0442
 3844SOL    HW123165   2.031   2.650  17.629  0.9775 -1.9417 -0.5622
 3844SOL    HW223166   2.094   2.684  17.498  1.3814  1.6193  3.0520
 3845SOL     OW23167   4.273   0.095   6.929 -0.0602 -0.2375  0.1456
 3845SOL    HW123168   4.345   0.050   6.974 -0.1160  1.4300  1.8936
 3845SOL    HW223169   4.279   0.052   6.844 -0.6203 -0.0465  0.0137
 3846SOL     OW23170   1.721   1.832   6.420 -0.0187 -0.1069 -0.1171
 3846SOL    HW123171   1.703   1.793   6.335  2.2428  0.1235 -0.7049
 3846SOL    HW223172   1.718   1.924   6.393  1.6572 -0.2875 -0.9527
 3847SOL     OW23173   3.075   2.221   3.032  0.1160  0.4339  0.1412
 3847SOL    HW123174   2.988   2.200   3.065  0.3402 -2.1704 -0.8927
 3847SOL    HW223175   3.095   2.295   3.089  0.4692  0.0248  0.5439
 3848SOL     OW23176   1.007   2.726   7.529  0.1297  0.3779  0.0183
 3848SOL    HW123177   0.930   2.737   7.474 -1.6236  2.8450  3.0201
 3848SOL    HW223178   1.021   2.814   7.563 -3.3166 -0.0468  2.4635
 3849SOL     OW23179   2.871   3.767  15.366 -0.3761  0.1110 -1.0293
 3849SOL    HW123180   2.889   3.682  15.406 -2.3957  0.3182  0.3045
 3849SOL    HW223181   2.942   3.772  15.302  0.9430  0.1738  0.4232
 3850SOL     OW23182   2.946   2.883   2.330 -0.6042 -0.1915  0.0347
 3850SOL    HW123183   2.918   2.972   2.352  1.1108 -0.3267  2.6439
 3850SOL    HW223184   2.975   2.852   2.415  0.4244 -0.9433 -0.5917
 3851SOL     OW23185   2.109   3.141   4.571  0.0824  0.4598  0.0792
 3851SOL    HW123186   2.040   3.139   4.637 -1.2225 -2.5706 -1.3882
 3851SOL    HW223187   2.058   3.192   4.510  1.5955 -0.7061 -2.1584
 3852SOL     OW23188   4.627   3.602   4.805 -0.1694 -0.0548 -0.0282
 3852SOL    HW123189   4.534   3.626   4.798 -0.4729 -0.7296  1.6615
 3852SOL    HW223190   4.663   3.688   4.826 -2.6629  0.9690  0.0610
 3853SOL     OW23191   2.492   2.548  11.250  0.0964 -0.0091 -0.1355
 3853SOL    HW123192   2.522   2.464  11.283 -1.7265 -1.9516 -3.3979
 3853SOL    HW223193   2.412   2.509  11.214 -0.9877  2.5463 -0.5284
 3854SOL     OW23194   1.456   2.939   5.147 -0.3136 -0.0697 -0.6963
 3854SOL    HW123195   1.458   2.846   5.123 -0.5699 -0.9646  2.6614
 3854SOL    HW223196   1.507   2.942   5.228  1.1640 -1.3370 -1.5633
 3855SOL     OW23197   1.541   2.270   8.209 -0.4364  0.3492 -0.0377
 3855SOL    HW123198   1.518   2.268   8.116  0.4512 -0.6180 -0.2319
 3855SOL    HW223199   1.618   2.327   8.210 -0.4131  0.4209 -3.0208
 3856SOL     OW23200   3.566   1.540   9.976  1.0070  0.0629 -0.0146
 3856SOL    HW123201   3.580   1.457   9.931 -1.4516 -0.2460 -0.1677
 3856SOL    HW223202   3.618   1.524  10.055  2.5960 -1.0614 -1.2918
 3857SOL     OW23203   4.143   2.427   7.377  0.0251 -0.0078 -0.3257
 3857SOL    HW123204   4.167   2.336   7.356  1.1958 -0.0800  1.3228
 3857SOL    HW223205   4.221   2.456   7.425 -0.5786  1.9706 -0.5565
 3858SOL     OW23206   4.392   2.141   4.488  0.3425 -0.2903  0.4742
 3858SOL    HW123207   4.381   2.075   4.419  1.2454  0.7339 -0.6468
 3858SOL    HW223208   4.323   2.121   4.552 -1.0403  1.2093 -0.5369
 3859SOL     OW23209   2.038   3.633   8.268  0.7477 -0.2736  0.0362
 3859SOL    HW123210   2.104   3.655   8.333  1.1752  0.6182 -0.6922
 3859SOL    HW223211   2.088   3.649   8.188 -1.0139  0.6496 -0.8902
 3860SOL     OW23212   1.233   4.050   1.986  0.2391  0.4635  0.2715
 3860SOL    HW123213   1.190   4.090   2.062 -3.0642 -0.8341 -0.8808
 3860SOL    HW223214   1.203   3.961   2.004 -0.8321  0.9820  1.0614
 3861SOL     OW23215   4.174   0.173   9.941  0.5126 -0.1601 -0.3510
 3861SOL    HW123216   4.269   0.176   9.940  0.4890 -1.0346 -3.2282
 3861SOL    HW223217   4.164   0.081   9.915 -0.0593 -0.5079  1.0611
 3862SOL     OW23218   4.150   3.328   3.022 -0.2408  0.0694 -0.6421
 3862SOL    HW123219   4.107   3.252   3.061  1.9160  0.0214  1.6218
 3862SOL    HW223220   4.086   3.399   3.024  0.5768  0.7004  3.2966
 3863SOL     OW23221   2.134   4.134   7.082  0.0725  0.5341 -0.1529
 3863SOL    HW123222   2.105   4.189   7.008 -2.4422  1.0757  1.2426
 3863SOL    HW223223   2.072   4.166   7.148  0.3864  0.4309  0.1842
 3864SOL     OW23224   0.038   0.293   2.755  0.5534  0.0325  0.2734
 3864SOL    HW123225   4.695   0.241   2.746 -0.9267  1.9856  1.8872
 3864SOL    HW223226   0.086   0.260   2.680 -1.0298  0.1753 -0.7936
 3865SOL     OW23227   4.028   3.433   8.535  0.0534  0.3159  0.3309
 3865SOL    HW123228   4.031   3.481   8.618 -0.7372  1.5075 -0.3230
 3865SOL    HW223229   3.957   3.474   8.485  1.2717 -1.0978 -2.5333
 3866SOL     OW23230   0.525   2.962   4.403  0.0875  0.4997  0.3788
 3866SOL    HW123231   0.479   2.925   4.478 -1.2320 -0.7829 -1.0737
 3866SOL    HW223232   0.532   3.054   4.428 -1.3510  1.1029 -1.4930
 3867SOL     OW23233   4.674   0.229  12.861  0.0017  0.0646 -0.3581
 3867SOL    HW123234   0.027   0.231  12.827 -0.3446  0.2008 -1.2706
 3867SOL    HW223235   4.648   0.140  12.840  1.5940 -0.7062  0.9337
 3868SOL     OW23236   4.688   1.509   1.631 -0.1443  0.2767  0.0107
 3868SOL    HW123237   4.684   1.604   1.619  3.1660  0.2883 -0.9438
 3868SOL    HW223238   4.706   1.505   1.725  1.0853  0.2268 -0.2208
 3869SOL     OW23239   1.257   1.235  14.281  0.0881 -0.3488  0.5561
 3869SOL    HW123240   1.238   1.175  14.354  0.1365 -0.4587  0.4770
 3869SOL    HW223241   1.174   1.284  14.274 -0.2682 -0.6613  2.3562
 3870SOL     OW23242   3.305   1.945   3.068  0.2384 -0.2777 -0.9935
 3870SOL    HW123243   3.310   1.909   3.157 -0.3773  1.1420 -0.3853
 3870SOL    HW223244   3.216   1.979   3.057 -0.5258 -1.1841  2.4079
 3871SOL     OW23245   4.659   4.591   6.447  0.0534 -0.0364  0.8338
 3871SOL    HW123246   4.725   4.617   6.511  1.1976  0.8810 -0.7409
 3871SOL    HW223247   4.634   4.676   6.411  1.8742 -0.7611 -2.1609
 3872SOL     OW23248   4.171   4.218   5.960  0.2212 -0.1222  0.2582
 3872SOL    HW123249   4.097   4.240   6.017  0.1356 -0.5214  0.3002
 3872SOL    HW223250   4.132   4.151   5.904  0.7042 -0.3045  0.1373
 3873SOL     OW23251   3.230   4.645   8.497 -0.1445 -0.7654  0.6071
 3873SOL    HW123252   3.295   4.713   8.480 -0.5905 -1.2551 -3.1319
 3873SOL    HW223253   3.170   4.711   8.534 -1.3748  0.3420 -3.2732
 3874SOL     OW23254   0.273   1.455   0.631 -0.0485  0.0320 -0.0280
 3874SOL    HW123255   0.253   1.372   0.587  0.7250  0.1311 -0.5744
 3874SOL    HW223256   0.317   1.432   0.713 -0.7449 -0.5072  0.1932
 3875SOL     OW23257   1.943   3.416   4.881 -1.2489  0.0572 -0.6035
 3875SOL    HW123258   2.005   3.404   4.953 -0.7062 -0.8038 -1.2135
 3875SOL    HW223259   1.879   3.472   4.925 -0.9901  0.7701 -1.1525
 3876SOL     OW23260   3.098   0.400   6.938  0.2889  0.0060  0.2180
 3876SOL    HW123261   3.118   0.447   7.019  1.3316 -0.3460  0.1599
 3876SOL    HW223262   3.033   0.455   6.895 -2.7717 -2.0274  2.2376
 3877SOL     OW23263   3.395   0.542   3.301 -0.4740  0.5106  0.4840
 3877SOL    HW123264   3.392   0.630   3.263  0.1742 -0.5407 -2.0632
 3877SOL    HW223265   3.391   0.489   3.221  0.5322  0.2773  0.5764
 3878SOL     OW23266   2.339   1.060   4.808 -0.5736  0.4295  0.0747
 3878SOL    HW123267   2.330   1.129   4.742  1.3227  0.7515  0.1695
 3878SOL    HW223268   2.248   1.030   4.811 -0.9612  1.8931  2.5843
 3879SOL     OW23269   0.278   3.665   1.933 -0.3102  0.5515  1.0374
 3879SOL    HW123270   0.245   3.750   1.905 -3.7648 -1.5784 -1.4458
 3879SOL    HW223271   0.213   3.607   1.894  0.2848 -0.0709  0.9595
 3880SOL     OW23272   1.262   1.887  17.421 -0.6561 -0.1617 -0.2338
 3880SOL    HW123273   1.264   1.792  17.428 -0.1014 -0.3690 -3.0519
 3880SOL    HW223274   1.288   1.911  17.510 -2.5880  0.1076  0.2681
 3881SOL     OW23275   2.223   2.138   9.076  0.3568  0.2031 -0.4461
 3881SOL    HW123276   2.215   2.207   9.143 -1.2435  0.7033 -1.1479
 3881SOL    HW223277   2.175   2.068   9.118 -1.2619  1.6823  0.1659
 3882SOL     OW23278   2.030   2.872   3.342 -0.1081  0.3189 -0.3278
 3882SOL    HW123279   2.052   2.952   3.295 -0.3263  0.1991 -0.6348
 3882SOL    HW223280   2.102   2.819   3.307 -0.4984 -0.7914  0.5296
 3883SOL     OW23281   4.475   0.367  13.896 -0.4402  0.0517  0.2895
 3883SOL    HW123282   4.437   0.280  13.910 -2.0070  0.9208  1.4424
 3883SOL    HW223283   4.557   0.353  13.944 -0.3372  0.6404  0.2809
 3884SOL     OW23284   0.143   0.315   8.391  0.5926  0.1712  0.3593
 3884SOL    HW123285   0.073   0.284   8.449  0.3282 -0.8835 -0.5274
 3884SOL    HW223286   0.099   0.326   8.307  0.5363  2.0340  0.6481
 3885SOL     OW23287   1.719   0.366  16.648  0.0738  0.3760 -0.4777
 3885SOL    HW123288   1.802   0.329  16.619 -0.8179 -1.6728 -0.4668
 3885SOL    HW223289   1.659   0.306  16.603 -1.0838  1.5228 -0.4536
 3886SOL     OW23290   2.479   2.589  15.208  0.5319  0.2130 -0.1003
 3886SOL    HW123291   2.573   2.604  15.220  0.4050  1.3337 -0.5513
 3886SOL    HW223292   2.454   2.672  15.168  2.3869 -0.7273 -3.2799
 3887SOL     OW23293   3.222   1.585   2.043  0.7922 -0.7709 -0.3488
 3887SOL    HW123294   3.256   1.616   1.959 -0.9106 -2.2364 -1.5743
 3887SOL    HW223295   3.278   1.509   2.060  3.0009  0.6671 -1.2128
 3888SOL     OW23296   4.082   4.676   1.379  0.0987 -0.6960  0.4699
 3888SOL    HW123297   4.106   0.006   1.315  0.5120 -0.5793  0.7461
 3888SOL    HW223298   3.989   4.693   1.394 -0.0716 -3.6608  2.7224
 3889SOL     OW23299   2.611   1.648   7.362  0.4695  0.1150  0.7708
 3889SOL    HW123300   2.648   1.570   7.321 -1.2039 -0.6190  0.6775
 3889SOL    HW223301   2.571   1.683   7.282  0.1781 -0.4890  0.6566
 3890SOL     OW23302   2.444   2.647   4.416 -0.5930 -0.5193  0.2777
 3890SOL    HW123303   2.370   2.662   4.476 -0.5629 -0.6027  0.3352
 3890SOL    HW223304   2.414   2.571   4.366  2.1620 -3.0411  2.4621
 3891SOL     OW23305   1.010   0.426  16.166  0.2347  0.2151  0.4156
 3891SOL    HW123306   1.025   0.471  16.082 -0.7539  1.6901  1.0322
 3891SOL    HW223307   1.086   0.470  16.205 -0.5716  1.2975  0.7649
 3892SOL     OW23308   2.327   2.143   2.194  0.2028  0.1697 -0.4107
 3892SOL    HW123309   2.331   2.225   2.242  0.8840 -0.6034  0.8351
 3892SOL    HW223310   2.394   2.091   2.238 -0.7546 -0.6272  0.1205
 3893SOL     OW23311   3.113   3.312   4.158 -0.4547  0.6261 -0.3842
 3893SOL    HW123312   3.143   3.358   4.236  0.3571 -2.3016  1.0180
 3893SOL    HW223313   3.152   3.379   4.101 -2.7094  1.7848 -0.5458
 3894SOL     OW23314   3.592   0.774   9.276  0.2215  0.3512 -0.7137
 3894SOL    HW123315   3.587   0.867   9.253  2.4868  0.8359  0.7841
 3894SOL    HW223316   3.661   0.780   9.342 -0.3516  0.3379 -0.1155
 3895SOL     OW23317   0.630   1.852  12.750 -0.5228 -0.1471 -0.1066
 3895SOL    HW123318   0.694   1.810  12.693 -0.2466 -2.3380  1.7731
 3895SOL    HW223319   0.684   1.900  12.814 -0.1706 -0.8223  0.1065
 3896SOL     OW23320   0.324   4.618   6.866  0.2256  0.3029  1.3401
 3896SOL    HW123321   0.298   4.536   6.908  0.9956 -0.3569  0.5107
 3896SOL    HW223322   0.354   4.588   6.780 -0.2525  2.0570  0.5553
 3897SOL     OW23323   1.653   1.166   9.076 -0.5261 -0.4435  0.0895
 3897SOL    HW123324   1.602   1.098   9.032 -1.0386  0.3593 -0.5593
 3897SOL    HW223325   1.660   1.121   9.161  3.3002  1.0497  0.5702
 3898SOL     OW23326   3.408   0.786   6.352 -0.0054 -0.0044  0.5693
 3898SOL    HW123327   3.481   0.845   6.371  1.1075 -2.3242  3.5543
 3898SOL    HW223328   3.455   0.702   6.350 -0.2401 -0.0773 -1.5314
 3899SOL     OW23329   1.763   2.421   8.176 -1.4240  0.0346  0.1652
 3899SOL    HW123330   1.755   2.516   8.187 -3.4442 -0.1581  0.2802
 3899SOL    HW223331   1.828   2.416   8.105 -1.4645 -1.0540  0.2073
 3900SOL     OW23332   4.498   0.097   5.933  0.0085  0.2522 -0.0624
 3900SOL    HW123333   4.590   0.125   5.939  0.3451 -0.6414 -0.9861
 3900SOL    HW223334   4.514   0.003   5.944  0.9031  0.5009  0.7754
 3901SOL     OW23335   3.953   0.338  17.204 -0.7547  0.1752  0.0000
 3901SOL    HW123336   3.912   0.423  17.193 -0.0506 -0.0178 -4.1363
 3901SOL    HW223337   3.904   0.300  17.131  0.2252 -0.6092 -0.2458
 3902SOL     OW23338   2.577   3.875   5.232  0.0197 -0.6374 -0.0831
 3902SOL    HW123339   2.544   3.829   5.155  0.9308  0.1577 -0.9470
 3902SOL    HW223340   2.672   3.862   5.226  0.1530 -0.0200  0.7377
 3903SOL     OW23341   3.632   2.636   8.035  0.4724  0.4537 -0.2876
 3903SOL    HW123342   3.573   2.676   8.099 -1.3687  2.1945 -3.0669
 3903SOL    HW223343   3.607   2.546   8.053 -0.1357  0.5571 -0.6272
 3904SOL     OW23344   1.852   4.640  15.788  0.5993 -0.3780  0.0040
 3904SOL    HW123345   1.828   4.548  15.792 -3.0745  0.5782  0.0499
 3904SOL    HW223346   1.903   4.642  15.707  0.8187 -2.3846  0.0944
 3905SOL     OW23347   3.048   1.120   6.399 -0.2985  0.4963  0.3593
 3905SOL    HW123348   2.992   1.131   6.323 -2.5000 -0.6107  1.8165
 3905SOL    HW223349   3.091   1.034   6.397 -0.0677  0.6340 -0.4435
 3906SOL     OW23350   0.967   3.814   0.994 -0.3845  0.5723  0.3924
 3906SOL    HW123351   0.999   3.774   0.913 -0.1971 -1.5523  1.5270
 3906SOL    HW223352   0.872   3.807   0.986 -0.0972  0.1405 -2.6950
 3907SOL     OW23353   3.380   0.678   3.992  0.4055 -0.3356  0.4005
 3907SOL    HW123354   3.332   0.662   3.911  1.9912  0.5705 -0.7127
 3907SOL    HW223355   3.322   0.741   4.034 -0.6223 -2.0273  1.5436
 3908SOL     OW23356   0.776   0.641   0.919  0.7382  0.2884  0.2875
 3908SOL    HW123357   0.816   0.659   1.004 -0.5971 -0.5834  1.0918
 3908SOL    HW223358   0.729   0.724   0.905  0.2186  0.3706  2.5869
 3909SOL     OW23359   3.688   3.177   3.278 -0.5319 -0.1902  0.2363
 3909SOL    HW123360   3.664   3.176   3.185  0.5879 -0.5106 -0.0444
 3909SOL    HW223361   3.755   3.244   3.292 -1.0552  0.2602  0.5921
 3910SOL     OW23362   4.731   1.570   3.501  0.4917 -0.3540  0.0750
 3910SOL    HW123363   4.660   1.527   3.454  1.0321  1.3552 -2.2959
 3910SOL    HW223364   4.720   1.663   3.481  0.4255 -0.0923  1.2849
 3911SOL     OW23365   4.437   1.842   6.430  0.2519  0.6653  0.4217
 3911SOL    HW123366   4.434   1.934   6.455  0.3316  0.6264  0.5703
 3911SOL    HW223367   4.460   1.839   6.337  1.1091  0.9843  0.6313
 3912SOL     OW23368   3.346   3.690  15.275  0.3668  0.3329 -0.1514
 3912SOL    HW123369   3.291   3.618  15.243 -0.0396  2.2072 -3.6269
 3912SOL    HW223370   3.434   3.660  15.252  0.7928 -0.3171  2.3405
 3913SOL     OW23371   1.001   3.594   8.589  0.5524 -0.3841 -0.0488
 3913SOL    HW123372   0.931   3.647   8.626 -0.2168 -1.6165  0.2786
 3913SOL    HW223373   1.049   3.577   8.670  1.5074  0.2268 -0.4801
 3914SOL     OW23374   3.210   1.476  15.093 -0.2331 -0.2057 -0.4999
 3914SOL    HW123375   3.298   1.448  15.118  0.0682  2.1485  1.0907
 3914SOL    HW223376   3.237   1.548  15.036  0.6184 -1.1778 -1.3107
 3915SOL     OW23377   4.146   2.201   3.505  0.2233  0.3302 -0.7300
 3915SOL    HW123378   4.077   2.246   3.555  2.8549 -0.4303  3.4990
 3915SOL    HW223379   4.167   2.264   3.436  0.5480  0.2777 -0.6782
 3916SOL     OW23380   0.589   0.713   3.512 -0.1512  0.1780  0.2370
 3916SOL    HW123381   0.597   0.780   3.445 -0.1521 -1.1173 -1.0606
 3916SOL    HW223382   0.494   0.712   3.526 -0.2368  1.2527 -0.3136
 3917SOL     OW23383   1.629   3.632   3.990 -0.4989  0.1466  0.4330
 3917SOL    HW123384   1.695   3.562   3.995  0.1943  0.8019  0.4227
 3917SOL    HW223385   1.683   3.700   3.951 -1.4572  0.5855 -0.1030
 3918SOL     OW23386   1.575   3.727   4.973  0.3017 -0.5394 -0.0941
 3918SOL    HW123387   1.605   3.790   5.038 -1.4418  1.2511 -1.0084
 3918SOL    HW223388   1.488   3.755   4.943  0.4681 -2.2177 -2.1112
 3919SOL     OW23389   0.602   3.824   0.670 -0.6284 -0.6248  0.0148
 3919SOL    HW123390   0.622   3.774   0.591  2.4634  1.0581 -0.2832
 3919SOL    HW223391   0.582   3.755   0.733 -1.9935  0.2288  0.5210
 3920SOL     OW23392   1.522   1.772   3.539 -0.8882 -0.2042 -0.3733
 3920SOL    HW123393   1.500   1.792   3.630 -0.6297 -1.5241 -0.0155
 3920SOL    HW223394   1.577   1.850   3.528 -1.2533  0.3468  1.6646
 3921SOL     OW23395   3.437   1.633   5.605 -0.5224  0.4096  1.5203
 3921SOL    HW123396   3.359   1.668   5.648  0.0766  1.9282  1.3636
 3921SOL    HW223397   3.499   1.700   5.633 -0.3813  0.3378  1.3837
 3922SOL     OW23398   3.726   1.617   1.715 -0.5056 -0.3830 -0.1005
 3922SOL    HW123399   3.687   1.659   1.791 -2.1243 -1.5995 -0.2521
 3922SOL    HW223400   3.765   1.543   1.761  1.1760 -0.0546 -1.0022
 3923SOL     OW23401   2.052   3.212   5.831 -0.2629  0.1518 -0.3249
 3923SOL    HW123402   2.043   3.229   5.925  3.1632  0.2122 -0.0194
 3923SOL    HW223403   2.123   3.148   5.832  0.8538  1.3977 -0.3601
 3924SOL     OW23404   3.159   0.283   8.478  0.4878 -0.2739 -0.1652
 3924SOL    HW123405   3.158   0.357   8.539  0.3467 -0.7172  0.3687
 3924SOL    HW223406   3.130   0.209   8.531  0.5750 -1.1764 -1.3755
 3925SOL     OW23407   1.396   2.442  14.402  0.4431 -0.0488 -0.3163
 3925SOL    HW123408   1.477   2.421  14.448 -0.2891  0.1184  1.0436
 3925SOL    HW223409   1.391   2.537  14.410 -1.8607 -0.3465  1.9508
 3926SOL     OW23410   2.175   1.424   6.386 -0.1247  0.2016  0.5084
 3926SOL    HW123411   2.248   1.361   6.386 -0.8591 -0.6528 -0.8940
 3926SOL    HW223412   2.115   1.378   6.327 -0.8088  3.2787 -1.1492
 3927SOL     OW23413   2.350   1.695   5.284 -0.4511 -0.5787  0.2670
 3927SOL    HW123414   2.388   1.664   5.366  1.8687 -1.7320 -1.2657
 3927SOL    HW223415   2.334   1.786   5.309  2.8152  0.2032 -0.5384
 3928SOL     OW23416   2.938   3.153   6.469 -0.2447 -0.2768  0.0326
 3928SOL    HW123417   2.927   3.058   6.479  1.3491 -0.5649 -0.9357
 3928SOL    HW223418   3.033   3.156   6.454 -0.5664  2.7716 -1.3637
 3929SOL     OW23419   4.437   4.635   5.653 -0.0577  0.3848  0.2539
 3929SOL    HW123420   4.528   4.664   5.660 -0.0951  0.8626 -1.1637
 3929SOL    HW223421   4.424   4.651   5.559  1.8443  0.2765 -0.0225
 3930SOL     OW23422   3.023   0.048   8.588 -0.2632 -0.1071  0.0679
 3930SOL    HW123423   2.978   0.086   8.663 -1.0854 -0.7428 -0.1082
 3930SOL    HW223424   2.950   0.000   8.550 -0.2356 -1.2623  1.4927
 3931SOL     OW23425   3.899   0.458   0.525 -0.7664  0.2675 -0.3685
 3931SOL    HW123426   3.903   0.508   0.443  0.9635 -1.7648 -1.5364
 3931SOL    HW223427   3.861   0.378   0.488 -0.5620  0.0441 -0.0913
 3932SOL     OW23428   4.098   1.687   9.230  1.1707  0.2052 -0.1898
 3932SOL    HW123429   4.022   1.633   9.250  0.2549  1.6478  0.2003
 3932SOL    HW223430   4.066   1.776   9.243  1.7928  0.4101 -0.0675
 3933SOL     OW23431   1.766   0.718   6.480  0.1795  0.0460 -0.2551
 3933SOL    HW123432   1.723   0.693   6.398  0.0640  0.7102 -0.4056
 3933SOL    HW223433   1.838   0.769   6.442  0.9154 -1.2324 -0.5681
 3934SOL     OW23434   3.764   0.256   9.147 -0.3303  0.3795 -0.3573
 3934SOL    HW123435   3.801   0.280   9.062 -0.2554 -0.1084 -0.4609
 3934SOL    HW223436   3.761   0.340   9.193  1.5295  0.2913 -0.0641
 3935SOL     OW23437   3.731   2.765   1.590 -0.1086  0.0995  0.1546
 3935SOL    HW123438   3.672   2.736   1.660 -0.1366  1.1863  0.5678
 3935SOL    HW223439   3.811   2.717   1.611  1.1593  1.9687 -0.4682
 3936SOL     OW23440   4.185   3.794   0.909  0.6013  0.4086  0.0732
 3936SOL    HW123441   4.110   3.781   0.966  0.6408  1.8638  0.4573
 3936SOL    HW223442   4.237   3.852   0.965  0.9227  1.3130 -1.1405
 3937SOL     OW23443   0.203   1.469   4.389  0.1068 -0.0786 -0.2700
 3937SOL    HW123444   0.200   1.547   4.334 -3.4206 -2.0482 -2.8378
 3937SOL    HW223445   0.111   1.451   4.405 -0.5722  2.4983 -1.3249
 3938SOL     OW23446   1.124   3.458   3.617  0.1346  0.1383 -0.6772
 3938SOL    HW123447   1.213   3.445   3.649 -0.1043 -1.1180 -0.5158
 3938SOL    HW223448   1.089   3.456   3.706  2.0385  0.1380  0.0676
 3939SOL     OW23449   1.346   1.356   7.555 -0.2290  0.3199 -0.3743
 3939SOL    HW123450   1.314   1.355   7.645 -2.0243 -1.2641 -1.0481
 3939SOL    HW223451   1.415   1.292   7.574  0.3049  1.4957  1.6542
 3940SOL     OW23452   2.097   3.924   1.447 -0.4851  0.0247  0.5367
 3940SOL    HW123453   2.167   3.988   1.457  0.7537 -1.6476  2.4976
 3940SOL    HW223454   2.131   3.839   1.475  1.9161  1.2891  1.4692
 3941SOL     OW23455   2.890   3.192   3.106  0.0808 -0.4628  0.0406
 3941SOL    HW123456   2.876   3.098   3.096 -2.6764  0.2362 -2.4867
 3941SOL    HW223457   2.839   3.209   3.185  1.4615  2.2116  0.3548
 3942SOL     OW23458   1.393   2.300   9.346  0.0313  0.1890 -0.0059
 3942SOL    HW123459   1.422   2.361   9.414  0.7557  0.0534 -0.1961
 3942SOL    HW223460   1.466   2.239   9.345 -1.6259 -1.7651 -0.9509
 3943SOL     OW23461   3.009   4.433   8.588 -0.4709  0.1441  0.4089
 3943SOL    HW123462   2.961   4.453   8.668 -1.0374  0.2929  0.0372
 3943SOL    HW223463   3.065   4.510   8.580 -1.8420  1.2884  1.8784
 3944SOL     OW23464   3.190   4.584   6.495  0.1596 -0.3486 -0.2490
 3944SOL    HW123465   3.199   4.667   6.448  3.1337 -0.2592  0.4563
 3944SOL    HW223466   3.124   4.612   6.559 -2.3707 -0.1811 -2.9604
 3945SOL     OW23467   4.631   3.881   2.862  0.1301 -0.4611 -0.5047
 3945SOL    HW123468   4.552   3.840   2.898  0.3258 -0.1792  0.2534
 3945SOL    HW223469   4.699   3.836   2.912 -0.8312 -0.6190  0.6528
 3946SOL     OW23470   2.104   0.651  16.448  0.0396  0.3354 -0.5462
 3946SOL    HW123471   2.177   0.643  16.510  0.0296  1.2466 -0.4085
 3946SOL    HW223472   2.111   0.741  16.415  0.3847  0.0267 -1.3001
 3947SOL     OW23473   4.042   2.776   6.046  0.3001 -0.2909  0.2506
 3947SOL    HW123474   4.087   2.692   6.051 -1.2817 -1.0265  2.2072
 3947SOL    HW223475   3.970   2.769   6.110 -1.4107  2.5875 -1.3691
 3948SOL     OW23476   2.196   0.153   7.506 -0.0399  0.5859 -0.3391
 3948SOL    HW123477   2.192   0.060   7.529 -1.0181  1.2545  2.2480
 3948SOL    HW223478   2.121   0.183   7.558  1.6003  0.3737  2.1774
 3949SOL     OW23479   1.745   3.489   6.338  0.3149 -0.0430 -0.0267
 3949SOL    HW123480   1.679   3.426   6.367  2.8648 -1.5367  2.5182
 3949SOL    HW223481   1.799   3.521   6.410 -0.4836 -0.8352  0.9244
 3950SOL     OW23482   3.067   0.755  13.842 -0.2220 -0.0500 -0.2786
 3950SOL    HW123483   2.997   0.699  13.808  0.3569 -0.5804 -0.5898
 3950SOL    HW223484   3.105   0.691  13.902 -1.6059 -2.0334 -1.5327
 3951SOL     OW23485   3.566   2.540  13.571  0.4096 -0.3190 -0.1381
 3951SOL    HW123486   3.504   2.467  13.564 -0.2462  0.2917 -0.7774
 3951SOL    HW223487   3.517   2.622  13.560  0.1882 -0.4885 -0.4338
 3952SOL     OW23488   4.446   4.135   9.137 -0.3337 -0.0396  0.0049
 3952SOL    HW123489   4.512   4.189   9.180  0.1379 -1.3615  0.9217
 3952SOL    HW223490   4.493   4.137   9.053  1.0804 -0.3411  0.7957
 3953SOL     OW23491   2.135   1.896   4.152 -0.1239  0.2803 -0.2889
 3953SOL    HW123492   2.148   1.809   4.190  0.8191 -0.7486 -2.9778
 3953SOL    HW223493   2.100   1.958   4.217  1.0108  0.8463 -0.2269
 3954SOL     OW23494   3.145   4.564   5.469 -0.3399 -0.0008 -0.1690
 3954SOL    HW123495   3.212   4.626   5.441  2.0475 -2.2012  0.6655
 3954SOL    HW223496   3.089   4.560   5.391 -0.0422  1.0615 -0.4310
 3955SOL     OW23497   0.726   4.280   3.548  0.3559 -0.1526  0.0622
 3955SOL    HW123498   0.660   4.257   3.483  1.7064  0.0188 -1.3516
 3955SOL    HW223499   0.755   4.193   3.574 -0.0104 -0.2150  0.2677
 3956SOL     OW23500   1.113   1.597   3.077  0.1080  0.2633  0.3021
 3956SOL    HW123501   1.094   1.530   3.011 -1.9503  1.6582 -0.5381
 3956SOL    HW223502   1.071   1.557   3.153 -0.3220  0.5683  0.2248
 3957SOL     OW23503   2.142   2.524   2.844 -0.1362 -0.1372  0.5051
 3957SOL    HW123504   2.181   2.591   2.788 -3.0315  0.2075 -1.1111
 3957SOL    HW223505   2.148   2.449   2.786 -1.4309 -0.7079  1.1156
 3958SOL     OW23506   3.384   2.968   8.255 -0.3469 -0.8786  0.5081
 3958SOL    HW123507   3.341   3.028   8.315 -0.0108 -0.9507  0.8204
 3958SOL    HW223508   3.477   2.982   8.271 -0.8608  2.1136  0.8197
 3959SOL     OW23509   1.031   4.419   7.138 -0.4128  0.3132  0.2831
 3959SOL    HW123510   1.048   4.395   7.047  0.9396  1.2529  0.2888
 3959SOL    HW223511   1.088   4.367   7.194  1.8190  1.4475 -0.9340
 3960SOL     OW23512   3.447   1.042   2.452  0.5925  0.1822 -0.7705
 3960SOL    HW123513   3.401   0.963   2.482  0.4399 -0.5791 -3.0300
 3960SOL    HW223514   3.426   1.101   2.524  1.0954 -0.9867  0.3492
 3961SOL     OW23515   0.709   3.301   8.783 -0.6106 -0.3038 -0.4761
 3961SOL    HW123516   0.745   3.389   8.797 -0.7706 -0.2335 -0.5033
 3961SOL    HW223517   0.786   3.247   8.766  0.6819  1.2212  0.5303
 3962SOL     OW23518   1.490   1.470   5.383  0.0342 -0.1950 -0.1222
 3962SOL    HW123519   1.414   1.461   5.441  0.6472  0.2117  0.7551
 3962SOL    HW223520   1.540   1.543   5.420 -0.0816  0.5242 -1.4166
 3963SOL     OW23521   2.055   1.684   3.796  0.2576  0.1729 -0.5037
 3963SOL    HW123522   2.015   1.771   3.807  1.8472  0.7632  0.5073
 3963SOL    HW223523   2.093   1.698   3.710 -0.1171  0.0723 -0.6870
 3964SOL     OW23524   1.804   2.266   4.093  0.6815  0.0479 -0.0280
 3964SOL    HW123525   1.831   2.287   4.182  1.8811 -0.2145 -0.3308
 3964SOL    HW223526   1.880   2.222   4.055 -0.2741 -1.4675 -0.1860
 3965SOL     OW23527   3.468   1.883   7.111  0.5657 -0.5439  0.4083
 3965SOL    HW123528   3.462   1.836   7.194 -1.1186  0.5502  0.8769
 3965SOL    HW223529   3.390   1.844   7.072 -0.1009 -0.0840  1.2935
 3966SOL     OW23530   2.165   3.734  12.996 -0.0454  0.6001 -0.3435
 3966SOL    HW123531   2.163   3.686  12.913 -2.9298 -2.5849  1.5800
 3966SOL    HW223532   2.225   3.680  13.047  0.5748 -0.1525 -1.8720
 3967SOL     OW23533   2.715   3.377   3.410 -0.4190 -0.1606 -0.2404
 3967SOL    HW123534   2.682   3.409   3.495 -1.1621 -1.6630  0.0296
 3967SOL    HW223535   2.801   3.351   3.442 -0.1562  0.1076 -0.7369
 3968SOL     OW23536   2.388   4.257   7.853 -0.0317 -0.2344 -0.2344
 3968SOL    HW123537   2.344   4.178   7.822  0.1210  0.2105 -1.6014
 3968SOL    HW223538   2.471   4.253   7.805  0.1092  2.1776 -0.1827
 3969SOL     OW23539   2.831   1.085  15.642 -0.6472 -0.1020 -0.2579
 3969SOL    HW123540   2.869   1.097  15.729 -1.1909 -0.5259  0.0412
 3969SOL    HW223541   2.881   1.013  15.603 -0.5682  1.0214 -2.2279
 3970SOL     OW23542   1.377   1.491  15.945  0.3099  0.1535  0.2025
 3970SOL    HW123543   1.309   1.524  15.887  0.3421  1.9355  1.1677
 3970SOL    HW223544   1.377   1.398  15.921  1.1222 -0.1365  1.3025
 3971SOL     OW23545   0.580   2.965   9.185 -0.4842  0.7133  0.0698
 3971SOL    HW123546   0.510   2.957   9.251 -0.3838  1.7242  0.3021
 3971SOL    HW223547   0.647   2.919   9.235  1.5333  1.3152 -2.1261
 3972SOL     OW23548   0.753   0.195  11.008 -0.3796  0.6388 -0.3550
 3972SOL    HW123549   0.788   0.282  11.032 -2.8273  1.7714 -0.9480
 3972SOL    HW223550   0.757   0.160  11.096 -1.1776  0.2718 -0.4706
 3973SOL     OW23551   2.695   2.836   2.163 -0.4745 -0.7764 -1.0104
 3973SOL    HW123552   2.722   2.844   2.072 -0.5709 -1.3760 -1.0920
 3973SOL    HW223553   2.777   2.813   2.208 -1.7019 -3.3663 -0.0664
 3974SOL     OW23554   4.634   0.395   6.169  0.3996  0.4240  0.1215
 3974SOL    HW123555   4.613   0.411   6.077 -0.3657 -1.6553 -0.0823
 3974SOL    HW223556   4.581   0.464   6.208  1.4278 -0.3360  2.8335
 3975SOL     OW23557   3.026   3.790   2.813  0.6008 -0.1402  0.2309
 3975SOL    HW123558   2.997   3.763   2.725 -0.3386 -2.0834  1.1217
 3975SOL    HW223559   3.092   3.723   2.831 -0.7417 -1.2282  1.1370
 3976SOL     OW23560   0.924   4.250  16.479 -0.1384  0.7915  0.2891
 3976SOL    HW123561   0.996   4.274  16.537 -0.3690 -0.4538  1.0923
 3976SOL    HW223562   0.858   4.316  16.501 -0.3166  0.6441  0.2026
 3977SOL     OW23563   0.442   3.818   4.242 -0.3226 -0.8973 -0.5844
 3977SOL    HW123564   0.449   3.878   4.167  1.4674  1.4386  1.4352
 3977SOL    HW223565   0.532   3.798   4.269 -0.3124 -0.5187 -0.3381
 3978SOL     OW23566   2.085   1.058   2.406 -0.0157 -0.6601  0.4845
 3978SOL    HW123567   2.007   1.021   2.449  1.6462 -1.2115  2.9982
 3978SOL    HW223568   2.054   1.117   2.337 -1.2968 -1.3835  0.4265
 3979SOL     OW23569   3.195   4.494  16.802 -0.1997 -0.2187 -0.5707
 3979SOL    HW123570   3.119   4.544  16.771  0.5549  1.2792  0.0213
 3979SOL    HW223571   3.173   4.403  16.823 -3.0771  0.4658 -0.5173
 3980SOL     OW23572   0.707   0.259   5.877  0.2268  0.4758  0.5305
 3980SOL    HW123573   0.699   0.249   5.972  2.0572  1.3738  0.7694
 3980SOL    HW223574   0.613   0.275   5.866 -0.0756 -0.4170  1.7751
 3981SOL     OW23575   2.383   2.144   8.453 -0.3933 -0.5622  0.2253
 3981SOL    HW123576   2.291   2.129   8.474 -0.7333  2.7771  1.1665
 3981SOL    HW223577   2.409   2.063   8.410  2.3033  0.0450  0.7072
 3982SOL     OW23578   0.966   4.333   5.476  0.1631  0.9558  0.3596
 3982SOL    HW123579   1.055   4.308   5.450 -0.0027  0.2509  0.4673
 3982SOL    HW223580   0.956   4.422   5.443 -0.5010  0.6339 -0.3022
 3983SOL     OW23581   3.226   3.971  14.839  0.2783  0.3590 -0.0624
 3983SOL    HW123582   3.232   4.050  14.785  0.1234 -0.0584 -0.6987
 3983SOL    HW223583   3.137   3.973  14.873 -0.1324  0.6326 -1.1440
 3984SOL     OW23584   2.452   2.223   1.820 -0.0173 -0.6873  0.4475
 3984SOL    HW123585   2.537   2.229   1.864  0.7475 -0.5031 -1.0412
 3984SOL    HW223586   2.392   2.221   1.894  0.5002 -0.5859  0.8686
 3985SOL     OW23587   2.180   2.487   6.525  0.7075 -0.0488 -0.6410
 3985SOL    HW123588   2.198   2.449   6.611  0.0461 -3.1590 -1.8864
 3985SOL    HW223589   2.191   2.408   6.473  1.1363 -0.2840 -0.1964
 3986SOL     OW23590   2.418   0.396  13.409  0.4288 -0.8153 -0.0782
 3986SOL    HW123591   2.479   0.330  13.376  1.4073 -0.2615  0.6691
 3986SOL    HW223592   2.446   0.396  13.500 -1.9601 -1.1737  0.6661
 3987SOL     OW23593   0.583   4.026   5.329 -0.2487 -0.1125  0.3710
 3987SOL    HW123594   0.588   4.025   5.234  2.5414 -0.4525  0.5212
 3987SOL    HW223595   0.620   3.941   5.355 -0.3042  0.0523  0.9855
 3988SOL     OW23596   1.263   1.333  10.729 -0.7756 -0.4973 -0.0701
 3988SOL    HW123597   1.186   1.277  10.744 -1.3600  0.4142  0.2869
 3988SOL    HW223598   1.272   1.370  10.816  0.7372 -1.4041  0.1596
 3989SOL     OW23599   4.481   1.767   2.656 -0.0291  0.5150 -0.2976
 3989SOL    HW123600   4.474   1.853   2.617 -2.8718 -0.1439 -1.2678
 3989SOL    HW223601   4.575   1.752   2.650 -0.0563  0.3522 -0.3291
 3990SOL     OW23602   2.958   1.179  14.477 -0.8713  0.0000  0.0184
 3990SOL    HW123603   3.047   1.176  14.511 -0.5930 -0.0064 -0.7255
 3990SOL    HW223604   2.970   1.236  14.401  0.9188  0.7765  0.8794
 3991SOL     OW23605   3.168   0.565   3.806  0.1226 -0.1401  0.2830
 3991SOL    HW123606   3.103   0.522   3.862 -0.3298  0.8908  0.5367
 3991SOL    HW223607   3.115   0.631   3.761  1.5544 -0.6187 -2.1450
 3992SOL     OW23608   4.450   1.153   7.525 -0.0969 -0.1708  0.5006
 3992SOL    HW123609   4.368   1.148   7.476 -0.2331 -1.8549  0.9085
 3992SOL    HW223610   4.500   1.230   7.498  0.5504 -0.5851  0.5120
 3993SOL     OW23611   0.467   3.995   4.037  0.1797  0.1198 -0.0422
 3993SOL    HW123612   0.449   3.951   3.954 -0.1579 -2.8394  1.6214
 3993SOL    HW223613   0.561   4.007   4.028 -0.0097  2.1716  0.6334
 3994SOL     OW23614   0.746   2.643   5.635 -0.7048 -0.3819 -0.5671
 3994SOL    HW123615   0.700   2.712   5.587  2.1637  0.1377 -2.5900
 3994SOL    HW223616   0.811   2.618   5.569 -1.3591  0.0730 -1.3827
 3995SOL     OW23617   2.706   2.815   5.572 -0.3077  0.2205 -0.3134
 3995SOL    HW123618   2.780   2.809   5.631  0.7387  1.4601 -1.5081
 3995SOL    HW223619   2.663   2.729   5.576  1.6358 -0.8576 -2.4760
 3996SOL     OW23620   2.129   2.865  13.099  0.1860  0.3210 -0.2470
 3996SOL    HW123621   2.133   2.842  13.006  0.1909  3.3096 -1.0097
 3996SOL    HW223622   2.134   2.781  13.144 -2.6777  0.0109 -0.5150
 3997SOL     OW23623   3.752   1.834   7.099 -0.1691  0.1195 -0.7900
 3997SOL    HW123624   3.710   1.781   7.166  1.0185  0.0205 -0.1244
 3997SOL    HW223625   3.687   1.817   7.031  1.4254  1.2557 -2.5872
 3998SOL     OW23626   3.572   3.951   3.316 -0.2046  0.1695 -0.0222
 3998SOL    HW123627   3.649   4.007   3.313 -1.3395  1.5432 -3.0655
 3998SOL    HW223628   3.510   4.023   3.320  2.3394  2.4367 -1.2644
 3999SOL     OW23629   0.112   1.886   7.260 -0.2483  0.4738 -0.1290
 3999SOL    HW123630   0.158   1.943   7.322 -0.1691  1.2849 -0.9259
 3999SOL    HW223631   0.134   1.929   7.177  0.8559  0.3302  0.0893
 4000SOL     OW23632   1.216   0.346  13.960 -0.4224 -0.0385  0.3438
 4000SOL    HW123633   1.287   0.399  13.924 -0.3299 -0.2209  0.2589
 4000SOL    HW223634   1.152   0.340  13.890 -0.0862  0.2328  0.0124
 4001SOL     OW23635   2.519   3.687   3.102  0.3800  0.0347 -0.2326
 4001SOL    HW123636   2.547   3.686   3.193 -0.2715  0.9368 -0.0219
 4001SOL    HW223637   2.602   3.676   3.056  1.2494  3.1987  0.6053
 4002SOL     OW23638   2.657   0.112   4.189  0.2925  0.1610  0.4051
 4002SOL    HW123639   2.581   0.170   4.194 -0.3992 -0.5316 -1.7754
 4002SOL    HW223640   2.621   0.036   4.234  0.1720  1.3325  2.2618
 4003SOL     OW23641   2.056   4.474   6.753  0.3766 -0.6454 -0.3218
 4003SOL    HW123642   2.001   4.447   6.826  0.5913 -1.0637 -0.3124
 4003SOL    HW223643   2.002   4.549   6.729 -1.0883 -1.4735  0.4040
 4004SOL     OW23644   3.132   2.839  16.683 -0.0391  0.3783  0.3468
 4004SOL    HW123645   3.162   2.909  16.624  1.2962  0.8259  1.5595
 4004SOL    HW223646   3.178   2.867  16.762 -1.0447  0.9608  0.7369
 4005SOL     OW23647   4.714   0.263   8.127  0.1361 -0.1374 -0.0510
 4005SOL    HW123648   4.676   0.350   8.114 -1.9734 -1.0960 -0.3378
 4005SOL    HW223649   4.666   0.207   8.066  0.0063 -0.0452 -0.0328
 4006SOL     OW23650   2.002   1.139   2.983 -0.9345  0.1755 -0.5326
 4006SOL    HW123651   2.057   1.089   2.923  1.3897  0.2590  1.5172
 4006SOL    HW223652   2.052   1.143   3.064 -1.5608 -0.0646 -0.1317
 4007SOL     OW23653   0.855   2.890   8.006  0.0137  0.0446  0.1390
 4007SOL    HW123654   0.774   2.920   8.047 -0.2218 -1.2455  0.6562
 4007SOL    HW223655   0.831   2.805   7.969  0.9136  0.3143 -1.0408
 4008SOL     OW23656   3.134   3.477   6.363 -0.0069 -0.5502 -0.1961
 4008SOL    HW123657   3.188   3.524   6.300 -1.3045  0.1907 -0.7454
 4008SOL    HW223658   3.166   3.387   6.362 -0.8353 -0.8259 -1.7198
 4009SOL     OW23659   1.469   4.511   4.891  0.2722  1.1018  0.1518
 4009SOL    HW123660   1.435   4.594   4.858 -1.6893  0.3506  0.2243
 4009SOL    HW223661   1.523   4.536   4.965  1.3033  1.7021 -0.7994
 4010SOL     OW23662   3.321   0.395   1.336  0.5125  0.1753  0.2866
 4010SOL    HW123663   3.257   0.339   1.380 -1.1243  0.1639 -2.1437
 4010SOL    HW223664   3.398   0.345   1.363  2.8479  2.7436 -1.6076
 4011SOL     OW23665   2.839   4.704  17.036  0.0774 -0.3471 -0.3129
 4011SOL    HW123666   2.913   4.726  17.093 -0.0108  1.8516 -1.0383
 4011SOL    HW223667   2.870   0.006  16.954  0.3735  0.2116  0.0636
 4012SOL     OW23668   2.262   2.251   6.451 -0.2382 -0.0989  0.8578
 4012SOL    HW123669   2.259   2.198   6.371 -2.4895 -0.3990  1.1493
 4012SOL    HW223670   2.355   2.257   6.474  0.3239 -3.1411 -0.5488
 4013SOL     OW23671   0.988   1.489   5.754 -0.1734  0.0427 -0.1607
 4013SOL    HW123672   0.980   1.408   5.805  0.3409  0.9726  1.4054
 4013SOL    HW223673   1.026   1.548   5.819 -0.1696 -0.0039 -0.1205
 4014SOL     OW23674   2.486   0.609   5.827  0.2899 -0.2548 -0.1364
 4014SOL    HW123675   2.567   0.653   5.853  0.2819 -0.4543  0.2229
 4014SOL    HW223676   2.511   0.583   5.738  1.4896  1.0765 -0.1893
 4015SOL     OW23677   2.348   3.842   5.559 -0.0105  0.4311 -0.3417
 4015SOL    HW123678   2.328   3.825   5.651  0.9168 -2.0734 -0.6374
 4015SOL    HW223679   2.374   3.934   5.554 -1.0041  0.8269  2.0401
 4016SOL     OW23680   2.948   0.857   1.110  0.3465  0.3564  0.4232
 4016SOL    HW123681   2.995   0.903   1.040  1.9103  0.3284  1.4660
 4016SOL    HW223682   2.970   0.767   1.086 -1.2693  0.7267 -2.4991
 4017SOL     OW23683   1.098   0.472   9.786 -0.0832  0.2092 -0.4794
 4017SOL    HW123684   1.045   0.454   9.865 -1.4282  3.5862 -0.6043
 4017SOL    HW223685   1.101   0.386   9.744  1.8604 -0.7787  1.6661
 4018SOL     OW23686   0.766   3.570   5.857  0.1399 -0.3234 -0.4377
 4018SOL    HW123687   0.849   3.618   5.859 -0.0060 -0.0882  0.1286
 4018SOL    HW223688   0.782   3.479   5.832  0.8351  0.0368 -1.2886
 4019SOL     OW23689   0.148   2.279   5.239  0.6987 -0.1185 -0.5436
 4019SOL    HW123690   0.079   2.258   5.302  1.6743 -1.0528  0.1979
 4019SOL    HW223691   0.090   2.267   5.164 -1.5874  0.0179  1.2103
 4020SOL     OW23692   3.903   2.157   7.786  0.0078 -0.1105 -0.1889
 4020SOL    HW123693   3.963   2.101   7.736 -1.8653 -3.5630  1.3624
 4020SOL    HW223694   3.831   2.177   7.725 -1.5461  0.2690  1.7776
 4021SOL     OW23695   1.430   0.883   5.218 -0.0878 -0.0292  0.0352
 4021SOL    HW123696   1.339   0.911   5.203  0.1927  1.3498  0.9128
 4021SOL    HW223697   1.477   0.888   5.135 -0.6623  0.0816 -0.2881
 4022SOL     OW23698   3.839   0.533   3.445 -0.3520  0.1041  0.0805
 4022SOL    HW123699   3.899   0.458   3.443 -0.1952  0.2549 -1.1701
 4022SOL    HW223700   3.762   0.504   3.493 -0.2878 -0.4969 -0.1670
 4023SOL     OW23701   2.782   1.371  14.082  0.3241 -0.1013 -0.0098
 4023SOL    HW123702   2.732   1.422  14.019  2.4508  1.5092 -0.4045
 4023SOL    HW223703   2.723   1.363  14.157 -1.5992 -1.9034 -1.6877
 4024SOL     OW23704   2.063   3.807  13.255  0.0379 -0.0645  0.1516
 4024SOL    HW123705   2.146   3.780  13.293 -0.2407  0.1011  0.8718
 4024SOL    HW223706   2.086   3.813  13.162  1.4293  0.7505  0.5669
 4025SOL     OW23707   0.450   2.013   5.592 -0.8554  0.0179 -0.0114
 4025SOL    HW123708   0.375   2.061   5.556  0.1606  0.9275 -0.9265
 4025SOL    HW223709   0.510   1.997   5.518  1.8883  0.2926  2.1518
 4026SOL     OW23710   3.860   2.873   9.170 -0.2295 -0.3545  0.4084
 4026SOL    HW123711   3.905   2.789   9.175  0.7556 -0.0640 -3.4268
 4026SOL    HW223712   3.813   2.861   9.087 -0.6286  1.6867  0.3337
 4027SOL     OW23713   0.454   4.584   3.502  0.3630 -0.5851  0.1843
 4027SOL    HW123714   0.517   4.653   3.482 -0.7525  0.3892  0.0106
 4027SOL    HW223715   0.459   4.524   3.427 -0.3906 -3.6669  2.5890
 4028SOL     OW23716   2.897   3.297   8.533 -0.0051 -0.0642 -0.1275
 4028SOL    HW123717   2.819   3.327   8.580  0.6151  0.8262  0.3306
 4028SOL    HW223718   2.917   3.220   8.586 -1.0829 -0.5775 -0.4828
 4029SOL     OW23719   4.471   1.905   3.046 -0.1462 -0.0118  0.1401
 4029SOL    HW123720   4.492   1.977   2.986 -1.7627  1.4979  1.3738
 4029SOL    HW223721   4.500   1.938   3.131 -1.0641  0.2739  0.3398
 4030SOL     OW23722   3.548   1.640  15.543 -0.5696  0.5833  0.1203
 4030SOL    HW123723   3.489   1.565  15.547 -0.5179  0.6532  2.0786
 4030SOL    HW223724   3.573   1.632  15.635  0.9333  0.0689 -0.3321
 4031SOL     OW23725   2.644   0.035   8.625 -0.4811 -0.6487 -0.4396
 4031SOL    HW123726   2.684   4.716   8.559  0.4395 -0.7090  0.1641
 4031SOL    HW223727   2.595   0.089   8.564  0.1697  0.3292 -0.1047
 4032SOL     OW23728   1.970   3.267   7.497 -0.1892 -0.7535 -0.2878
 4032SOL    HW123729   2.023   3.341   7.468 -1.4356  0.3113  0.1498
 4032SOL    HW223730   2.038   3.223   7.548 -0.3237  0.0930  0.6246
 4033SOL     OW23731   2.844   3.246   7.061  0.6334  0.2829 -0.1287
 4033SOL    HW123732   2.829   3.152   7.069 -1.3355  0.6131  0.2148
 4033SOL    HW223733   2.751   3.269   7.069  0.4229 -0.3214 -0.8408
 4034SOL     OW23734   2.454   2.032   0.269 -0.6010 -0.3834  0.0976
 4034SOL    HW123735   2.512   2.020   0.194  0.3245 -0.5174  0.8323
 4034SOL    HW223736   2.491   1.981   0.341 -2.0152  1.9283  2.4780
 4035SOL     OW23737   0.184   2.847   4.871 -0.0450 -0.1182 -0.1415
 4035SOL    HW123738   0.178   2.924   4.928  0.3926 -0.5170  0.4500
 4035SOL    HW223739   0.104   2.861   4.821  0.4802 -0.4267 -1.0754
 4036SOL     OW23740   0.463   0.574  10.038  0.0915 -0.3003  0.0392
 4036SOL    HW123741   0.431   0.485  10.047 -1.3515  0.3765  1.5237
 4036SOL    HW223742   0.377   0.616  10.035 -0.6990 -2.1379 -3.4851
 4037SOL     OW23743   0.203   3.297   8.887 -0.5668 -0.1757 -0.0785
 4037SOL    HW123744   0.298   3.289   8.890 -0.6193 -0.2490  1.8229
 4037SOL    HW223745   0.176   3.296   8.979  1.2645  1.3311  0.4752
 4038SOL     OW23746   4.060   2.005   0.097  0.3663  0.3472 -0.4384
 4038SOL    HW123747   4.150   1.974   0.099 -0.0388 -0.9196 -2.0480
 4038SOL    HW223748   4.069   2.100   0.099 -1.6788  0.5628 -0.6542
 4039SOL     OW23749   4.290   2.403   1.511 -0.0452 -0.2781  0.7253
 4039SOL    HW123750   4.264   2.494   1.524 -0.9486 -0.2679 -1.2399
 4039SOL    HW223751   4.333   2.402   1.425  0.3817  3.5201  0.9151
 4040SOL     OW23752   1.935   0.743   3.924  0.4046  0.0794 -0.3306
 4040SOL    HW123753   2.029   0.733   3.940  0.5161 -0.2631 -1.1799
 4040SOL    HW223754   1.931   0.837   3.910  0.6268  0.1232 -0.1133
 4041SOL     OW23755   2.740   1.696   0.425  0.0855 -0.0071 -0.2246
 4041SOL    HW123756   2.742   1.609   0.464 -0.9465  0.9633  1.9516
 4041SOL    HW223757   2.828   1.696   0.387 -0.0979  0.7150 -0.6449
 4042SOL     OW23758   0.914   1.743   5.702  0.4595  0.0147  0.6511
 4042SOL    HW123759   0.958   1.658   5.703  1.0143  0.3080  0.9429
 4042SOL    HW223760   0.982   1.804   5.674  0.3906 -0.0635  0.3069
 4043SOL     OW23761   0.464   1.688   8.463 -0.3445  0.7075 -0.0285
 4043SOL    HW123762   0.424   1.775   8.464  1.1509  1.3926 -0.8569
 4043SOL    HW223763   0.557   1.708   8.459 -0.6322  2.0058 -0.2725
 4044SOL     OW23764   1.660   1.823  12.686  0.3519 -0.6016  0.1756
 4044SOL    HW123765   1.676   1.735  12.720 -1.2031 -1.2029 -0.6297
 4044SOL    HW223766   1.737   1.846  12.634 -0.3121 -0.0914 -0.5878
 4045SOL     OW23767   3.070   3.665   7.580  0.0191  0.1160 -0.0691
 4045SOL    HW123768   3.133   3.665   7.508  0.8648 -1.5703  0.6601
 4045SOL    HW223769   3.041   3.574   7.572  0.2597 -0.0032  0.4736
 4046SOL     OW23770   1.210   0.664   5.452 -0.4139 -0.4041 -0.3788
 4046SOL    HW123771   1.124   0.664   5.410 -1.0075  1.5726  0.8695
 4046SOL    HW223772   1.256   0.726   5.395  1.2931 -2.2680 -1.0748
 4047SOL     OW23773   3.253   3.042   3.835 -0.4259  0.4658  0.0600
 4047SOL    HW123774   3.341   3.032   3.870 -0.4823 -2.0225 -0.5439
 4047SOL    HW223775   3.208   2.968   3.876  0.6973  0.3332  1.0724
 4048SOL     OW23776   3.857   0.035   6.932 -0.1348 -0.3457 -0.2884
 4048SOL    HW123777   3.906   0.106   6.974  0.3730 -0.2820 -0.9769
 4048SOL    HW223778   3.771   0.071   6.951 -0.7772 -0.4520 -3.0127
 4049SOL     OW23779   1.334   0.948   2.082 -0.7411  0.5387  0.3169
 4049SOL    HW123780   1.322   1.030   2.035 -1.3804  1.8226  2.7495
 4049SOL    HW223781   1.406   0.919   2.025 -2.5562  2.2515 -2.8645
 4050SOL     OW23782   3.986   3.648   8.706  0.1680 -0.2859  0.0937
 4050SOL    HW123783   3.901   3.692   8.709  0.4566  0.3184 -0.5237
 4050SOL    HW223784   4.046   3.716   8.738 -0.1624  0.7289 -1.4208
 4051SOL     OW23785   3.055   0.058   1.049  0.0262  0.2689  0.2585
 4051SOL    HW123786   3.101   0.013   1.120  0.4319  1.2845  0.6245
 4051SOL    HW223787   3.123   0.104   1.001  0.6626  0.4428  1.3225
 4052SOL     OW23788   3.965   1.156   8.315  0.3405 -0.2284 -0.0389
 4052SOL    HW123789   4.008   1.097   8.254  1.3958  1.1116 -0.5686
 4052SOL    HW223790   3.880   1.153   8.272  0.3446 -1.7818  0.0535
 4053SOL     OW23791   0.236   2.084  14.673 -0.0124  0.8073 -0.2893
 4053SOL    HW123792   0.273   2.173  14.672  0.6900  0.5176  0.6953
 4053SOL    HW223793   0.308   2.027  14.698  0.6963  1.5067 -0.7234
 4054SOL     OW23794   1.766   1.262   9.947 -0.5097  0.4252  0.3579
 4054SOL    HW123795   1.846   1.210   9.950 -0.3903  0.5810 -0.1488
 4054SOL    HW223796   1.755   1.271   9.852  2.8134 -1.3266 -0.1762
 4055SOL     OW23797   4.677   1.437   4.328  0.2735  0.4006 -0.0715
 4055SOL    HW123798   4.682   1.424   4.233 -1.3302  0.3781 -0.1478
 4055SOL    HW223799   4.629   1.519   4.324  0.3956  0.4651 -0.2110
 4056SOL     OW23800   2.626   3.801   6.058 -0.0555  0.0687  0.4541
 4056SOL    HW123801   2.707   3.843   6.088  1.0896 -1.0610 -1.0610
 4056SOL    HW223802   2.614   3.845   5.974  1.0735 -0.0286  0.2412
 4057SOL     OW23803   3.813   1.844   5.352 -0.3900 -0.0440  0.6237
 4057SOL    HW123804   3.857   1.929   5.348  0.3019 -0.3266  2.0794
 4057SOL    HW223805   3.865   1.801   5.420 -0.1485  2.4170  1.9970
 4058SOL     OW23806   3.443   4.561   4.867  0.2087  0.3548 -0.0502
 4058SOL    HW123807   3.433   4.644   4.821 -0.6762  0.7856  0.9143
 4058SOL    HW223808   3.533   4.543   4.838  0.1657  0.1079 -0.0330
 4059SOL     OW23809   3.489   3.855  11.684 -0.1863 -0.2151  0.7203
 4059SOL    HW123810   3.398   3.885  11.688 -0.2526 -0.0060 -2.4971
 4059SOL    HW223811   3.526   3.929  11.731  1.5798  0.5484 -1.8864
 4060SOL     OW23812   2.372   4.478  14.596  0.3506  0.0143 -0.2293
 4060SOL    HW123813   2.308   4.438  14.656  1.6916 -3.6832 -1.2681
 4060SOL    HW223814   2.360   4.423  14.518 -0.8745  2.5124 -1.7947
 4061SOL     OW23815   1.187   1.722   5.007  0.0673  0.4372  0.3340
 4061SOL    HW123816   1.166   1.630   5.026 -1.4088  0.8799  0.8926
 4061SOL    HW223817   1.107   1.747   4.960  1.2597  2.2700 -0.7347
 4062SOL     OW23818   1.854   1.851   8.512 -0.1840  0.5953 -0.0026
 4062SOL    HW123819   1.836   1.801   8.591  0.1240  2.0131  0.9781
 4062SOL    HW223820   1.845   1.936   8.556 -1.0511  2.4712 -3.7834
 4063SOL     OW23821   3.912   2.782   8.021 -1.1430 -0.3915 -0.0204
 4063SOL    HW123822   3.974   2.710   8.036  0.1486  0.5924 -0.6476
 4063SOL    HW223823   3.826   2.742   8.033 -0.7582 -1.0916  0.4633
 4064SOL     OW23824   0.270   2.865  16.948  0.2963  1.1035 -0.0436
 4064SOL    HW123825   0.229   2.906  16.871  0.3464 -1.3350 -1.3771
 4064SOL    HW223826   0.325   2.934  16.983 -0.1331  1.7542 -0.6352
 4065SOL     OW23827   0.402   1.217   7.535  0.0660  0.0832 -0.3209
 4065SOL    HW123828   0.426   1.144   7.479  0.3515  0.7080 -1.0144
 4065SOL    HW223829   0.420   1.179   7.621  0.1052  2.5968  0.7850
 4066SOL     OW23830   4.014   4.069   4.148 -0.1128 -0.0778 -0.0747
 4066SOL    HW123831   3.988   4.106   4.232 -0.9810 -0.6914 -0.0637
 4066SOL    HW223832   4.032   4.139   4.085  3.2536 -1.0720 -0.2398
 4067SOL     OW23833   2.087   4.102   5.188  0.0532 -0.7909  0.4450
 4067SOL    HW123834   2.154   4.040   5.219 -0.2950 -3.1191 -3.4378
 4067SOL    HW223835   2.014   4.041   5.174  2.0991 -2.3300 -3.5261
 4068SOL     OW23836   3.890   0.831   8.710  0.2776  0.4253  0.4702
 4068SOL    HW123837   3.949   0.806   8.781  0.9865 -2.2446 -1.0504
 4068SOL    HW223838   3.946   0.884   8.653 -1.1599  3.0869  1.5289
 4069SOL     OW23839   3.939   0.452   6.408 -0.0748  0.7568  0.2611
 4069SOL    HW123840   3.848   0.427   6.423 -0.1583  1.5294  0.9958
 4069SOL    HW223841   3.979   0.428   6.491  4.1881  0.7085 -1.7912
 4070SOL     OW23842   2.542   0.902   4.771 -0.6032  0.1601  0.8269
 4070SOL    HW123843   2.463   0.955   4.783  0.2944  1.1768  2.2494
 4070SOL    HW223844   2.601   0.970   4.741 -0.0600 -0.6753  0.0077
 4071SOL     OW23845   3.776   3.240   5.915 -0.4652 -0.2352  0.1884
 4071SOL    HW123846   3.800   3.154   5.950 -1.5696 -0.8262 -0.4725
 4071SOL    HW223847   3.720   3.209   5.843 -1.7731 -1.3230  1.6804
 4072SOL     OW23848   0.640   2.669   8.147  0.5272 -0.4208  0.4789
 4072SOL    HW123849   0.647   2.580   8.112  0.6864 -0.3760  0.3966
 4072SOL    HW223850   0.724   2.677   8.192  0.2433  0.3627  0.8694
 4073SOL     OW23851   0.927   4.570   5.351  0.3226 -0.3937  0.6426
 4073SOL    HW123852   0.925   4.589   5.258 -1.2551  1.3558  1.0300
 4073SOL    HW223853   0.993   4.633   5.382 -0.0581  0.8908 -1.1713
 4074SOL     OW23854   2.550   0.624  12.415 -0.5209  0.0228  0.5294
 4074SOL    HW123855   2.532   0.621  12.509  0.7084 -0.6832  0.7380
 4074SOL    HW223856   2.474   0.670  12.380  0.0634 -0.1717 -0.9917
 4075SOL     OW23857   1.452   4.218   3.669 -0.0695 -0.2174 -0.5061
 4075SOL    HW123858   1.451   4.312   3.688  0.5909 -0.5442  1.1302
 4075SOL    HW223859   1.504   4.190   3.744  1.6643 -0.1489 -1.6840
 4076SOL     OW23860   2.799   1.666  14.295  0.2989 -0.0522 -0.2648
 4076SOL    HW123861   2.881   1.635  14.334 -0.6835 -1.4784  0.6799
 4076SOL    HW223862   2.839   1.734  14.242  1.1657 -0.8918 -0.7003
 4077SOL     OW23863   1.482   3.541   1.668 -0.9521  0.4077  0.0021
 4077SOL    HW123864   1.471   3.636   1.676  2.4922  0.6417  1.9545
 4077SOL    HW223865   1.437   3.509   1.747  0.7338  0.4183  0.9589
 4078SOL     OW23866   1.051   1.931   1.262  0.1717 -0.1976  0.2750
 4078SOL    HW123867   0.971   1.982   1.263  0.4377  0.2376 -0.5071
 4078SOL    HW223868   1.110   2.003   1.284 -0.2277  0.4692 -0.8692
 4079SOL     OW23869   3.475   2.239  14.985 -0.1312 -0.0391 -0.0306
 4079SOL    HW123870   3.387   2.268  15.009  0.2334  1.1239 -0.0763
 4079SOL    HW223871   3.528   2.290  15.047  0.1713  0.1658 -0.4572
 4080SOL     OW23872   3.106   1.731   0.951  0.2894  0.3777  0.4299
 4080SOL    HW123873   3.069   1.666   0.891 -0.7283  0.0801  1.3815
 4080SOL    HW223874   3.123   1.681   1.031  2.8748 -0.8569 -0.8763
 4081SOL     OW23875   4.126   1.329   3.819 -0.1069 -0.3572 -0.3534
 4081SOL    HW123876   4.032   1.339   3.834 -0.1457 -1.8770  0.4045
 4081SOL    HW223877   4.153   1.421   3.814 -1.8258  0.2348  1.2983
 4082SOL     OW23878   0.176   3.934   8.778  0.3331  0.1340 -0.4893
 4082SOL    HW123879   0.088   3.920   8.742 -0.4471  2.3622  0.5401
 4082SOL    HW223880   0.211   3.991   8.709  0.3378  0.7890  0.0538
 4083SOL     OW23881   2.908   3.706   7.791  0.4030 -0.5268  0.1639
 4083SOL    HW123882   2.852   3.628   7.792  1.8812 -1.5824 -1.7215
 4083SOL    HW223883   2.963   3.700   7.713 -1.4457  0.1060 -1.1855
 4084SOL     OW23884   0.536   4.235   1.314  0.1747  0.4047 -0.2020
 4084SOL    HW123885   0.600   4.229   1.385 -1.8983  0.9298  1.6919
 4084SOL    HW223886   0.591   4.263   1.240  0.1997 -0.6674 -0.5947
 4085SOL     OW23887   0.546   4.486   1.654  0.6474 -0.1833 -0.3818
 4085SOL    HW123888   0.506   4.402   1.677  0.4816 -1.0643 -3.8920
 4085SOL    HW223889   0.637   4.476   1.680  0.3004  0.4738  1.0584
 4086SOL     OW23890   2.970   0.547   1.841  0.3931 -0.4954  0.0810
 4086SOL    HW123891   3.061   0.553   1.811 -0.4923  0.2461 -2.4847
 4086SOL    HW223892   2.928   0.515   1.762  0.7148 -2.2430  0.6112
 4087SOL     OW23893   2.885   0.187   3.099  0.6228 -0.1932  0.1362
 4087SOL    HW123894   2.947   0.235   3.043  0.4485 -0.8002 -0.5676
 4087SOL    HW223895   2.915   0.096   3.098  0.3633 -0.2706 -1.4178
 4088SOL     OW23896   2.122   0.552   6.690  0.1361 -0.1253  0.5723
 4088SOL    HW123897   2.204   0.512   6.718  0.7123  0.0325 -0.9071
 4088SOL    HW223898   2.056   0.494   6.728  0.8317 -1.0329  0.3949
 4089SOL     OW23899   4.667   0.824  12.067  0.1126 -0.2097  0.0336
 4089SOL    HW123900   4.698   0.909  12.035 -1.4153  0.4296  0.2280
 4089SOL    HW223901   4.728   0.761  12.029 -0.9156  0.2569 -2.4228
 4090SOL     OW23902   2.539   3.694   7.545  0.1968  0.5579  0.4382
 4090SOL    HW123903   2.562   3.648   7.464 -2.1856 -0.1997  0.2116
 4090SOL    HW223904   2.445   3.705   7.534  0.2493 -1.7764 -2.3510
 4091SOL     OW23905   4.732   3.541   3.736 -0.7240  0.8703  0.2983
 4091SOL    HW123906   0.024   3.628   3.709  4.1164 -0.7814  0.2255
 4091SOL    HW223907   4.672   3.522   3.664 -0.3658  1.1969 -0.0891
 4092SOL     OW23908   4.398   2.403   2.045  0.0362  0.0838 -0.2616
 4092SOL    HW123909   4.342   2.450   1.983  0.4479  0.0150 -0.6860
 4092SOL    HW223910   4.375   2.310   2.037  3.2992 -0.8191  0.8782
 4093SOL     OW23911   2.522   4.046   0.355  0.0132  0.3915  0.2804
 4093SOL    HW123912   2.598   4.055   0.413 -0.7471  0.6262  1.2474
 4093SOL    HW223913   2.485   3.971   0.400 -1.2483  0.9344  0.1351
 4094SOL     OW23914   1.800   3.129   5.558 -1.1494 -0.2553 -0.0943
 4094SOL    HW123915   1.715   3.123   5.515  0.0812 -1.8393 -2.3359
 4094SOL    HW223916   1.780   3.158   5.647  1.9314 -1.7182  1.1102
 4095SOL     OW23917   0.347   0.835   7.016 -0.5399  0.2198  0.2635
 4095SOL    HW123918   0.416   0.808   6.956 -1.1304 -1.0615  0.1685
 4095SOL    HW223919   0.384   0.922   7.032  1.5762 -0.9046  1.4353
 4096SOL     OW23920   4.050   0.347   3.456 -0.0370 -0.0919  0.2457
 4096SOL    HW123921   4.028   0.298   3.536 -1.0941 -1.3495 -0.8176
 4096SOL    HW223922   4.138   0.374   3.482 -0.6757 -0.3799  2.6959
 4097SOL     OW23923   4.405   4.712   3.664 -0.1074  0.2196  0.0881
 4097SOL    HW123924   4.379   4.731   3.574 -1.2260 -1.7131  0.0005
 4097SOL    HW223925   4.341   0.025   3.716  3.7851  1.8001  3.3161
 4098SOL     OW23926   2.003   4.022  13.411 -0.4278  0.6965  0.1076
 4098SOL    HW123927   2.016   4.067  13.328 -0.0216  1.1438  0.4165
 4098SOL    HW223928   1.993   3.934  13.374 -5.4845  0.8959  0.9965
 4099SOL     OW23929   0.267   0.157   1.695 -0.0792  0.0549  0.5922
 4099SOL    HW123930   0.348   0.198   1.724  0.6360 -0.9548 -0.0081
 4099SOL    HW223931   0.197   0.219   1.717 -1.1454 -1.4769  1.5172
 4100SOL     OW23932   0.417   1.128  17.568  0.0352  0.0969  0.1900
 4100SOL    HW123933   0.378   1.041  17.559 -0.0523  0.2439 -0.8907
 4100SOL    HW223934   0.350   1.159  17.628 -0.9995  0.0483 -0.9405
 4101SOL     OW23935   1.240   2.558  12.773 -0.0108  0.3422  0.2386
 4101SOL    HW123936   1.219   2.648  12.750  0.0973 -0.0987 -1.5973
 4101SOL    HW223937   1.197   2.550  12.858  2.0658  1.1434  1.3659
 4102SOL     OW23938   2.165   1.414   5.971 -0.1585  0.4803 -0.0091
 4102SOL    HW123939   2.253   1.383   5.992 -0.0107  1.8536  1.3426
 4102SOL    HW223940   2.186   1.507   5.962  0.8014  0.4777  2.3105
 4103SOL     OW23941   0.797   1.282  15.434 -0.5105 -0.9640  0.1783
 4103SOL    HW123942   0.796   1.338  15.512 -0.4384 -0.1307 -0.4202
 4103SOL    HW223943   0.705   1.283  15.408  0.5723 -1.0999 -3.5978
 4104SOL     OW23944   4.271   0.971   7.337 -0.1353 -0.0379  1.0481
 4104SOL    HW123945   4.326   1.020   7.276 -1.1709  0.9486  0.9289
 4104SOL    HW223946   4.185   0.990   7.301 -0.0789  0.5222  1.2102
 4105SOL     OW23947   2.764   3.712  12.635 -0.0901 -0.1295  0.3138
 4105SOL    HW123948   2.836   3.663  12.675  1.5610  0.9463 -1.3592
 4105SOL    HW223949   2.807   3.786  12.592 -1.5180 -0.5025 -1.7981
 4106SOL     OW23950   0.890   3.117   3.214 -0.0543 -0.0372 -0.0499
 4106SOL    HW123951   0.951   3.176   3.259 -0.6773  0.7323 -0.2125
 4106SOL    HW223952   0.938   3.037   3.234 -2.3670 -0.9938  1.7081
 4107SOL     OW23953   1.212   0.425   4.392 -0.5723  0.7300 -0.0191
 4107SOL    HW123954   1.252   0.422   4.478 -3.0634 -0.6294  1.1098
 4107SOL    HW223955   1.140   0.365   4.409 -1.8729  2.6124  1.1812
 4108SOL     OW23956   2.894   4.617  16.373 -0.7489  0.2891 -0.2881
 4108SOL    HW123957   2.844   4.696  16.353 -3.0709 -0.9965  0.4466
 4108SOL    HW223958   2.917   4.582  16.287 -0.9361  0.1257 -0.2709
 4109SOL     OW23959   2.334   2.934   2.417 -0.4846 -0.5717 -0.2972
 4109SOL    HW123960   2.381   2.862   2.374  0.8941  0.1695 -0.0599
 4109SOL    HW223961   2.372   3.007   2.368 -2.4330  0.3226 -0.4682
 4110SOL     OW23962   2.837   4.460   9.413 -0.1208  0.3868  0.6496
 4110SOL    HW123963   2.807   4.372   9.393  1.9098  0.2802 -1.9335
 4110SOL    HW223964   2.862   4.447   9.504 -1.3271 -0.9607  0.7780
 4111SOL     OW23965   1.130   0.963   4.385  0.2217  0.4140  0.3999
 4111SOL    HW123966   1.179   0.975   4.467  1.0216 -0.4654  0.0407
 4111SOL    HW223967   1.046   0.936   4.423  0.1051 -2.5397 -2.0149
 4112SOL     OW23968   1.247   2.934   3.751  0.1733 -0.4769 -0.1465
 4112SOL    HW123969   1.189   2.887   3.811 -1.1087 -1.4579 -2.1374
 4112SOL    HW223970   1.325   2.880   3.753 -0.2479 -1.0798  0.0063
 4113SOL     OW23971   1.083   3.887   3.329  0.4396  0.5429 -0.3727
 4113SOL    HW123972   1.138   3.923   3.399  0.1347  1.1781 -0.4541
 4113SOL    HW223973   1.068   3.798   3.362  0.8464  0.4194 -0.5204
 4114SOL     OW23974   4.663   3.555  13.090  0.1918 -0.3764 -0.0740
 4114SOL    HW123975   0.003   3.588  13.043  0.3744 -1.3338 -0.4419
 4114SOL    HW223976   4.650   3.621  13.158 -0.5203  0.2674 -0.8307
 4115SOL     OW23977   3.700   2.595   8.820 -0.3969  0.5191 -0.4288
 4115SOL    HW123978   3.756   2.570   8.894  1.6326  1.8023 -1.5541
 4115SOL    HW223979   3.730   2.531   8.756 -0.6230 -0.7950  0.7571
 4116SOL     OW23980   2.801   3.144   1.545  0.5534  0.5191 -0.5274
 4116SOL    HW123981   2.893   3.138   1.519  0.1515 -1.8945 -1.3996
 4116SOL    HW223982   2.799   3.238   1.528 -0.5210  0.5078 -0.4870
 4117SOL     OW23983   3.137   2.848   8.240  0.1940  0.0761  0.2072
 4117SOL    HW123984   3.170   2.818   8.324  1.3196 -2.6099 -1.1921
 4117SOL    HW223985   3.204   2.902   8.196 -1.2950  0.5985 -1.4559
 4118SOL     OW23986   2.477   4.288   4.867  0.6007 -0.4679  0.0175
 4118SOL    HW123987   2.464   4.266   4.960  0.9873 -0.8643 -0.0231
 4118SOL    HW223988   2.553   4.345   4.878  0.4659 -0.1554 -0.6907
 4119SOL     OW23989   4.070   1.489  16.115  0.5091 -0.4562  0.1233
 4119SOL    HW123990   3.982   1.480  16.152  0.3571 -2.5644 -0.7893
 4119SOL    HW223991   4.062   1.409  16.064  2.8759 -0.8657  0.3831
 4120SOL     OW23992   0.409   3.081   6.744 -0.1523  0.0037  0.1633
 4120SOL    HW123993   0.386   3.170   6.769  0.0320 -0.1909  1.0298
 4120SOL    HW223994   0.330   3.050   6.700  0.8386 -0.6591 -1.1577
 4121SOL     OW23995   0.041   0.255   9.602 -0.2741  0.1539  0.2438
 4121SOL    HW123996   0.014   0.225   9.515 -1.8692 -0.1122  0.8347
 4121SOL    HW223997   4.698   0.229   9.649 -0.2605 -0.0260  0.1684
 4122SOL     OW23998   0.887   0.162  12.808  0.3996  0.3085 -0.1370
 4122SOL    HW123999   0.834   0.137  12.732  0.1612 -0.7544  0.3831
 4122SOL    HW224000   0.830   0.227  12.850  1.3427  1.8161 -1.1657
 4123SOL     OW24001   2.851   2.270   8.054  0.2788  0.2455  0.1232
 4123SOL    HW124002   2.830   2.337   8.119  2.5611  2.0668 -1.0136
 4123SOL    HW224003   2.799   2.307   7.982  1.2918  0.3794 -0.5250
 4124SOL     OW24004   0.558   1.440  16.757  0.0980  0.4553 -0.9248
 4124SOL    HW124005   0.643   1.425  16.716  0.0398  1.4057 -1.4057
 4124SOL    HW224006   0.545   1.535  16.749  0.5390  0.6737  0.8998
 4125SOL     OW24007   3.744   3.838   0.446 -0.0063  0.2482 -0.3485
 4125SOL    HW124008   3.825   3.788   0.454 -0.1661  0.2670  1.4189
 4125SOL    HW224009   3.692   3.793   0.512  1.4624 -0.7603  0.1093
 4126SOL     OW24010   3.057   0.770   3.214 -0.4687  0.2941 -0.6374
 4126SOL    HW124011   3.090   0.858   3.196 -0.4660  1.0289  2.9215
 4126SOL    HW224012   3.062   0.769   3.310 -0.6995  3.1006 -0.5789
 4127SOL     OW24013   0.500   2.481   3.725 -0.1618  0.9306  0.1959
 4127SOL    HW124014   0.506   2.386   3.719  2.1385  1.0564  0.3511
 4127SOL    HW224015   0.587   2.497   3.763 -0.0245  1.2300 -0.2420
 4128SOL     OW24016   2.518   0.252  10.946  0.1644 -0.1838  0.0181
 4128SOL    HW124017   2.501   0.346  10.942 -0.3348 -0.2817 -0.1798
 4128SOL    HW224018   2.471   0.221  10.869 -2.1662  1.0558  0.9151
 4129SOL     OW24019   3.513   0.561   7.650  0.0044 -0.4478  0.2850
 4129SOL    HW124020   3.535   0.469   7.634  1.8861 -0.1346  1.1020
 4129SOL    HW224021   3.529   0.606   7.567 -1.5509  1.1745  0.8780
 4130SOL     OW24022   2.001   2.721  14.154 -0.4094 -0.7184 -0.6454
 4130SOL    HW124023   2.007   2.737  14.248 -1.8859 -1.0894 -0.4754
 4130SOL    HW224024   1.967   2.805  14.122 -1.6184 -0.3082  1.6936
 4131SOL     OW24025   0.527   2.727   2.708 -0.0933 -0.6371  0.2122
 4131SOL    HW124026   0.501   2.811   2.747  0.0764 -1.1928  1.4974
 4131SOL    HW224027   0.480   2.742   2.626 -0.6637 -1.8659  0.3127
 4132SOL     OW24028   4.342   0.199   9.239  0.3565 -0.1745 -0.2128
 4132SOL    HW124029   4.352   0.270   9.303 -1.9326 -1.1852  1.2715
 4132SOL    HW224030   4.287   0.137   9.287 -0.6746 -0.4024 -1.7374
 4133SOL     OW24031   0.053   3.125   3.149 -0.3820 -0.0115 -0.1444
 4133SOL    HW124032   0.041   3.218   3.169  0.4808  0.5831 -2.4587
 4133SOL    HW224033   0.020   3.138   3.060  2.0630 -3.0247 -1.4635
 4134SOL     OW24034   2.670   1.935   6.938  0.5908  0.2024 -0.0773
 4134SOL    HW124035   2.581   1.921   6.905  0.6998 -2.2708  0.6882
 4134SOL    HW224036   2.721   1.885   6.874  0.3021  0.5322 -0.5651
 4135SOL     OW24037   3.076   3.528   2.388 -0.0501 -0.1271 -0.8000
 4135SOL    HW124038   3.006   3.506   2.326 -0.0152  1.8813 -1.5368
 4135SOL    HW224039   3.138   3.475   2.338  2.0521  1.4616  0.1365
 4136SOL     OW24040   0.293   2.004   8.905  0.1108 -0.1799 -0.4073
 4136SOL    HW124041   0.234   2.041   8.840 -1.0763 -2.8576 -0.8359
 4136SOL    HW224042   0.235   1.981   8.978 -0.6756  2.3603 -0.2298
 4137SOL     OW24043   2.624   3.764  16.115 -0.3305  0.0371 -0.4404
 4137SOL    HW124044   2.634   3.769  16.020 -1.4913 -1.1511 -0.6108
 4137SOL    HW224045   2.708   3.725  16.139 -0.1979 -0.1909 -1.3003
 4138SOL     OW24046   3.646   3.454   3.554  0.3517 -0.1452 -0.2951
 4138SOL    HW124047   3.712   3.470   3.620  0.9396 -0.7434 -0.7387
 4138SOL    HW224048   3.618   3.540   3.522 -0.4672  0.3948  1.9033
 4139SOL     OW24049   4.417   1.333   7.848  0.4783 -0.0148 -0.0139
 4139SOL    HW124050   4.481   1.348   7.917 -0.8586 -0.0733  1.2440
 4139SOL    HW224051   4.369   1.256   7.879  1.8158 -0.6131  0.5622
 4140SOL     OW24052   2.106   2.794   7.063  0.3080 -0.1586 -0.2771
 4140SOL    HW124053   2.104   2.876   7.013 -0.8177 -1.8014 -2.8968
 4140SOL    HW224054   2.136   2.732   6.996  1.7669 -1.3877  1.5419
 4141SOL     OW24055   3.195   1.228  14.562 -0.2872  0.6525  0.1435
 4141SOL    HW124056   3.249   1.306  14.550  0.5246 -0.0166 -0.6752
 4141SOL    HW224057   3.204   1.223  14.657 -0.5393 -3.0627 -0.0309
 4142SOL     OW24058   3.226   2.137   6.018 -0.3230 -0.2553 -0.2264
 4142SOL    HW124059   3.282   2.186   5.958 -0.3649  0.0500 -0.0167
 4142SOL    HW224060   3.145   2.187   6.003 -0.3014  0.2619  1.3571
 4143SOL     OW24061   2.608   1.388   4.601  0.5371  0.0560 -0.5719
 4143SOL    HW124062   2.660   1.452   4.553  0.9598 -0.6217 -1.0209
 4143SOL    HW224063   2.526   1.380   4.554 -0.6703  0.6566  1.4360
 4144SOL     OW24064   4.132   3.647   1.602 -0.5560  0.2883  0.3444
 4144SOL    HW124065   4.047   3.625   1.640 -0.5685  0.7262  0.5683
 4144SOL    HW224066   4.168   3.559   1.610 -0.7316  0.0238 -1.7666
 4145SOL     OW24067   4.599   4.529  16.560 -0.3061 -0.2839  0.2788
 4145SOL    HW124068   4.507   4.532  16.533  0.4304  0.0894 -2.1533
 4145SOL    HW224069   4.604   4.606  16.617 -3.2370 -0.3325  0.5877
 4146SOL     OW24070   4.586   1.873  13.306 -0.8002  0.1082  0.5484
 4146SOL    HW124071   4.643   1.867  13.230 -0.3653 -2.1349  1.0295
 4146SOL    HW224072   4.547   1.954  13.274  0.3767 -0.1300 -1.4844
 4147SOL     OW24073   1.686   0.377   6.705  0.5247 -0.1661  0.0207
 4147SOL    HW124074   1.658   0.418   6.624 -1.9776  0.9931  1.4645
 4147SOL    HW224075   1.719   0.294   6.671  0.6981 -0.4309  0.8400
 4148SOL     OW24076   3.429   4.141   6.625  0.1529 -0.2736  0.9262
 4148SOL    HW124077   3.437   4.234   6.602  1.9970 -0.6266  0.1157
 4148SOL    HW224078   3.378   4.140   6.706  1.2874  1.3143  1.6664
 4149SOL     OW24079   2.798   2.457   2.944  0.5243 -0.0832 -0.7850
 4149SOL    HW124080   2.819   2.371   2.980 -1.8068  0.1710  1.1787
 4149SOL    HW224081   2.723   2.434   2.889  1.1271  1.2240 -2.1702
 4150SOL     OW24082   0.675   2.946   3.427 -0.4450 -0.3439  0.1022
 4150SOL    HW124083   0.636   2.958   3.514  0.4302  1.0150  0.3139
 4150SOL    HW224084   0.747   3.010   3.429  0.6667 -1.5490 -1.2332
 4151SOL     OW24085   1.734   2.416  13.398 -0.4508  0.1028  0.3035
 4151SOL    HW124086   1.688   2.492  13.434  2.3252  1.1919  1.5557
 4151SOL    HW224087   1.822   2.414  13.437 -0.1172 -0.5316 -0.4822
 4152SOL     OW24088   0.247   1.640   2.394  0.6181 -0.6815 -0.1729
 4152SOL    HW124089   0.317   1.613   2.454  0.5339 -1.3337 -0.3608
 4152SOL    HW224090   0.245   1.567   2.332 -0.0198 -2.0824  1.4990
 4153SOL     OW24091   2.393   0.484   6.461  0.4099  0.1867 -0.4469
 4153SOL    HW124092   2.431   0.471   6.548  0.3926 -4.1185 -1.0983
 4153SOL    HW224093   2.331   0.411   6.459 -0.9125  1.2066  3.0880
 4154SOL     OW24094   3.272   0.937   2.823  0.0437  0.3177  0.0562
 4154SOL    HW124095   3.288   0.887   2.743 -2.7313  0.1277 -0.3694
 4154SOL    HW224096   3.332   1.012   2.815  2.4553 -1.4200  1.5835
 4155SOL     OW24097   4.018   3.229   4.412 -0.0469 -0.0225 -0.2355
 4155SOL    HW124098   4.012   3.301   4.475 -1.8354 -0.4934  0.1529
 4155SOL    HW224099   3.923   3.226   4.397 -0.2150  0.7473  0.6220
 4156SOL     OW24100   2.588   0.372   6.235  0.5538  0.2217  0.7703
 4156SOL    HW124101   2.633   0.456   6.236 -0.4314  0.7372  1.6406
 4156SOL    HW224102   2.621   0.340   6.152 -0.6688  0.8368  0.0482
 4157SOL     OW24103   0.719   0.778   4.184 -0.4417 -0.6603 -0.1911
 4157SOL    HW124104   0.732   0.723   4.106  1.0351  1.8460 -1.7150
 4157SOL    HW224105   0.625   0.790   4.193 -0.3632  0.7382 -1.3051
 4158SOL     OW24106   2.483   0.328   4.381  0.3297  0.7284 -0.1888
 4158SOL    HW124107   2.434   0.257   4.340 -0.0756  0.6659  0.4086
 4158SOL    HW224108   2.461   0.319   4.474 -1.6088 -0.2105 -0.7585
 4159SOL     OW24109   2.990   1.790   0.664  0.3158  0.0026 -0.0813
 4159SOL    HW124110   2.989   1.762   0.573  1.5503 -1.7013  0.4332
 4159SOL    HW224111   2.963   1.706   0.702  1.9186 -0.6829 -0.4830
 4160SOL     OW24112   2.314   0.269   7.291 -0.0218 -0.3805  0.0652
 4160SOL    HW124113   2.287   0.209   7.361  0.7087  0.3805  0.9986
 4160SOL    HW224114   2.396   0.310   7.318 -0.5467 -0.1497  1.2991
 4161SOL     OW24115   4.426   0.800  15.038  0.3454  0.0634 -0.1304
 4161SOL    HW124116   4.378   0.809  14.955 -2.3029 -2.1194  1.1511
 4161SOL    HW224117   4.507   0.849  15.023  0.2752 -0.1973 -1.3663
 4162SOL     OW24118   1.392   2.412   1.973 -0.5302  0.2260  0.1934
 4162SOL    HW124119   1.341   2.409   1.891 -1.5081 -0.9624  0.8368
 4162SOL    HW224120   1.464   2.473   1.959 -0.3178  0.4331  2.2199
 4163SOL     OW24121   2.010   3.487   9.396  0.0977 -0.5919  0.1100
 4163SOL    HW124122   1.926   3.469   9.438  0.3401  0.5724  1.0811
 4163SOL    HW224123   2.044   3.565   9.439  0.8792 -0.0396 -1.5098
 4164SOL     OW24124   0.472   4.323   3.711 -0.0227 -0.6225 -0.1584
 4164SOL    HW124125   0.417   4.333   3.633  0.6899  0.6703 -0.5025
 4164SOL    HW224126   0.560   4.320   3.673  0.1444  2.3480 -0.0458
 4165SOL     OW24127   2.236   2.595   6.229 -0.3708  0.0360 -0.0493
 4165SOL    HW124128   2.292   2.665   6.194  2.3191 -1.1874  1.7709
 4165SOL    HW224129   2.228   2.546   6.147  2.5171  0.7576 -0.7851
 4166SOL     OW24130   2.097   3.650   2.914  0.1038  0.6189  0.2450
 4166SOL    HW124131   2.015   3.637   2.867 -0.2064 -0.3506  1.0693
 4166SOL    HW224132   2.166   3.638   2.849  1.3345  1.5857  1.3456
 4167SOL     OW24133   3.555   1.038   9.229 -0.3529  0.1764  0.0558
 4167SOL    HW124134   3.612   1.113   9.250 -3.1148  2.0783  0.7465
 4167SOL    HW224135   3.537   1.046   9.136  3.8785  0.1449 -0.7800
 4168SOL     OW24136   2.926   2.185  15.656 -0.0821  1.0506  0.1264
 4168SOL    HW124137   2.835   2.166  15.633 -0.5644  3.1373  0.3035
 4168SOL    HW224138   2.916   2.201  15.749  0.9096 -4.2903  1.1654
 4169SOL     OW24139   0.411   2.849   4.676  0.2393 -0.0776  0.3240
 4169SOL    HW124140   0.347   2.899   4.624  3.2643  1.5767 -1.7956
 4169SOL    HW224141   0.354   2.783   4.716 -1.0603  0.1478 -1.1896
 4170SOL     OW24142   4.357   3.448   6.893  1.0611  0.1811 -0.0540
 4170SOL    HW124143   4.416   3.492   6.832 -0.1406  0.0027 -1.3430
 4170SOL    HW224144   4.268   3.483   6.889 -0.2088 -3.1756 -0.8640
 4171SOL     OW24145   1.507   2.620   1.154 -0.1409 -0.4371 -0.0405
 4171SOL    HW124146   1.535   2.529   1.152  0.7196 -0.1289 -2.1065
 4171SOL    HW224147   1.500   2.631   1.059 -1.2761 -0.9014 -0.0019
 4172SOL     OW24148   2.574   0.919   8.540  0.3120 -0.4301 -0.5155
 4172SOL    HW124149   2.592   0.927   8.634 -1.1472  1.8256 -0.4465
 4172SOL    HW224150   2.502   0.856   8.535 -1.4048  1.4199  1.2403
 4173SOL     OW24151   0.571   1.553  17.015 -0.5920 -0.4474 -0.4008
 4173SOL    HW124152   0.635   1.508  16.960 -0.9562 -0.4035 -0.8707
 4173SOL    HW224153   0.519   1.481  17.050 -1.3057 -0.5501 -1.6470
 4174SOL     OW24154   0.741   0.107  17.667 -0.3250  0.0108  0.4190
 4174SOL    HW124155   0.785   0.135  17.587 -0.9617  1.4721  0.5852
 4174SOL    HW224156   0.801   0.047  17.711  2.4618  3.1813  0.9109
 4175SOL     OW24157   1.173   0.779   3.065 -0.1033  0.1566  0.1833
 4175SOL    HW124158   1.192   0.844   2.997  1.3241  1.7899  2.1279
 4175SOL    HW224159   1.150   0.692   3.033 -0.9322  0.0524  1.0595
 4176SOL     OW24160   4.123   3.056   3.175  0.3316 -0.0492 -0.7009
 4176SOL    HW124161   4.097   2.979   3.224 -0.2900  0.7841  0.2782
 4176SOL    HW224162   4.088   3.028   3.090 -2.1192 -1.6273  0.8659
 4177SOL     OW24163   0.396   0.576   8.708 -0.1785  0.5530  0.7196
 4177SOL    HW124164   0.420   0.516   8.638  1.3478  2.1081 -0.1122
 4177SOL    HW224165   0.459   0.549   8.775  1.7261  1.5919 -0.6442
 4178SOL     OW24166   1.945   0.903   8.102  0.6936  0.0650  0.2924
 4178SOL    HW124167   2.010   0.834   8.089  1.1253  0.5154  0.0831
 4178SOL    HW224168   1.990   0.961   8.163  3.3905  0.8042 -2.4158
 4179SOL     OW24169   3.518   1.093   8.938  0.0742  0.3008 -0.1416
 4179SOL    HW124170   3.503   1.175   8.891  0.8325 -0.2914 -1.4404
 4179SOL    HW224171   3.613   1.094   8.933  0.2121  1.3111  3.0178
 4180SOL     OW24172   0.558   3.368   1.013 -0.3239  0.5649  0.5091
 4180SOL    HW124173   0.535   3.294   1.070  0.5125  1.0222  1.4552
 4180SOL    HW224174   0.569   3.330   0.926  0.4316 -0.2822  0.9767
 4181SOL     OW24175   2.550   0.126   2.350  0.2460 -0.2127 -0.2226
 4181SOL    HW124176   2.500   0.077   2.415 -0.0804  0.8149  0.2963
 4181SOL    HW224177   2.639   0.099   2.375 -0.1949 -0.7253  0.7982
 4182SOL     OW24178   1.611   0.729   5.051 -0.2558 -0.0995  0.1712
 4182SOL    HW124179   1.633   0.794   4.985  1.0561 -1.1387 -0.4322
 4182SOL    HW224180   1.644   0.647   5.014  0.2419  0.0514  0.2830
 4183SOL     OW24181   4.357   3.989   5.314  0.8144 -0.1302 -0.2385
 4183SOL    HW124182   4.372   3.992   5.409  1.7636  0.1632 -0.4003
 4183SOL    HW224183   4.372   3.902   5.279 -0.4981 -0.2151 -0.6083
 4184SOL     OW24184   1.977   0.415   2.622  0.9306  0.0095  0.1740
 4184SOL    HW124185   1.978   0.340   2.682 -0.9216 -0.9600 -0.9776
 4184SOL    HW224186   2.044   0.398   2.555  1.6864  0.4347  0.8359
 4185SOL     OW24187   0.997   0.254   4.421 -0.3244  0.0343 -0.6569
 4185SOL    HW124188   0.922   0.269   4.479  0.5265 -1.8060  0.9166
 4185SOL    HW224189   0.966   0.207   4.344 -1.2322 -1.7561  0.7922
 4186SOL     OW24190   3.651   0.271   7.000  0.3537  0.1076  0.6475
 4186SOL    HW124191   3.671   0.364   6.996 -1.6380  0.4362 -2.2579
 4186SOL    HW224192   3.641   0.266   7.095 -0.1594 -0.8014  0.5441
 4187SOL     OW24193   4.067   4.082   9.137  0.2154 -0.6567 -0.1342
 4187SOL    HW124194   3.982   4.061   9.176  0.0071 -0.7188 -0.6234
 4187SOL    HW224195   4.056   4.167   9.094  3.7666 -0.3791 -0.4232
 4188SOL     OW24196   4.308   1.240   4.861 -0.8964 -0.3896 -0.0126
 4188SOL    HW124197   4.269   1.315   4.816  2.4889  0.2641 -1.8609
 4188SOL    HW224198   4.399   1.269   4.861 -0.8978 -0.3847  0.0396
 4189SOL     OW24199   0.655   4.643   4.962  0.1338  0.0538  0.5611
 4189SOL    HW124200   0.667   4.651   4.868 -0.4059  1.9172  0.6519
 4189SOL    HW224201   0.715   4.572   4.987  1.9378  2.3030  2.5717
 4190SOL     OW24202   2.666   0.634   6.146  0.5014 -0.1007  0.3237
 4190SOL    HW124203   2.683   0.625   6.053 -1.2472 -0.9486  0.0682
 4190SOL    HW224204   2.700   0.722   6.162  2.2958 -0.4968 -1.4282
 4191SOL     OW24205   3.381   1.319   2.054 -0.0196  0.2845  0.4365
 4191SOL    HW124206   3.414   1.292   1.968  1.3038  1.3965  0.6007
 4191SOL    HW224207   3.340   1.238   2.085  0.0199 -0.0368 -0.3332
 4192SOL     OW24208   3.131   3.628   7.922  0.2164 -0.4587  0.5615
 4192SOL    HW124209   3.057   3.657   7.870  0.6099  0.5867  0.5836
 4192SOL    HW224210   3.186   3.704   7.939 -1.2631  0.6636  0.3158
 4193SOL     OW24211   0.134   4.493   4.863 -0.2664  0.2242 -0.0873
 4193SOL    HW124212   0.219   4.450   4.878  0.2980  1.2919 -0.1928
 4193SOL    HW224213   0.141   4.576   4.910 -1.6559 -0.7250  1.7824
 4194SOL     OW24214   1.490   0.762   4.012 -0.7437  0.0339  0.0903
 4194SOL    HW124215   1.466   0.699   3.944 -0.3654 -0.6989  0.6385
 4194SOL    HW224216   1.415   0.746   4.068 -2.4225 -0.4110 -2.2596
 4195SOL     OW24217   1.432   0.291   8.428  0.2524  0.1107 -0.0020
 4195SOL    HW124218   1.375   0.324   8.497 -1.5986 -1.1989 -0.8734
 4195SOL    HW224219   1.459   0.204   8.459 -3.6148 -1.0376  0.1829
 4196SOL     OW24220   4.572   4.089   2.187  0.1518 -0.3296 -0.4076
 4196SOL    HW124221   4.610   4.057   2.105  0.1379  0.7287 -0.8414
 4196SOL    HW224222   4.514   4.158   2.153  0.5330  0.6310  0.8724
 4197SOL     OW24223   1.862   2.770   5.050 -0.2012  0.1062 -0.3778
 4197SOL    HW124224   1.826   2.798   4.966  0.3191  0.8138 -0.3635
 4197SOL    HW224225   1.890   2.847   5.100 -1.4109  2.3823 -3.1806
 4198SOL     OW24226   2.179   3.794  10.901  0.1437  0.5502  0.0551
 4198SOL    HW124227   2.242   3.801  10.972  0.6065  0.7159 -0.3718
 4198SOL    HW224228   2.101   3.758  10.944 -0.7812  2.7766  0.2465
 4199SOL     OW24229   2.574   1.258  14.996 -0.1155 -0.0988 -0.2350
 4199SOL    HW124230   2.639   1.286  15.060 -0.3444 -1.6406  0.6868
 4199SOL    HW224231   2.588   1.164  15.008  0.4737  0.1124  0.7340
 4200SOL     OW24232   0.771   2.066   1.266 -0.8718 -0.3874  0.3570
 4200SOL    HW124233   0.681   2.043   1.289 -0.4022 -2.1104  0.4781
 4200SOL    HW224234   0.803   2.121   1.337 -2.4341 -1.0941  1.6138
 4201SOL     OW24235   0.021   2.712   6.247 -0.5103  0.4060 -0.1814
 4201SOL    HW124236   0.087   2.734   6.313 -0.4928 -1.7203  0.4900
 4201SOL    HW224237   0.024   2.617   6.241  0.5822  0.4157  0.2489
 4202SOL     OW24238   2.463   0.845   4.469  0.1963  0.3829  0.0147
 4202SOL    HW124239   2.495   0.853   4.559 -0.2239  1.5922  0.0612
 4202SOL    HW224240   2.548   0.845   4.424 -1.7553 -0.2337 -3.6348
 4203SOL     OW24241   3.609   0.437   4.157 -0.5096  0.3058 -0.6096
 4203SOL    HW124242   3.633   0.455   4.248  0.5781 -2.0651 -0.4175
 4203SOL    HW224243   3.519   0.407   4.161  0.1708 -1.6286  0.2542
 4204SOL     OW24244   1.271   1.191   3.691  0.4803 -0.0133  0.1893
 4204SOL    HW124245   1.209   1.194   3.763  0.8900 -0.0222  0.5383
 4204SOL    HW224246   1.270   1.097   3.671  2.0927  0.0745 -0.3680
 4205SOL     OW24247   2.996   0.690  16.333  0.2743  0.0628 -0.1356
 4205SOL    HW124248   2.991   0.786  16.344 -1.4888  0.0683 -1.0333
 4205SOL    HW224249   2.945   0.685  16.253 -0.7999  0.0848  0.5435
 4206SOL     OW24250   0.214   1.534  16.616 -0.5775 -0.0457  0.1129
 4206SOL    HW124251   0.201   1.545  16.710 -0.0021 -0.3250  0.2232
 4206SOL    HW224252   0.131   1.573  16.588 -1.2523 -2.6841 -1.5715
 4207SOL     OW24253   4.692   1.867   3.554  0.1561 -0.6085 -0.3229
 4207SOL    HW124254   0.027   1.905   3.504  0.6800 -0.9910  0.1333
 4207SOL    HW224255   4.634   1.943   3.549  0.7111 -0.1635 -0.0408
 4208SOL     OW24256   4.587   0.791   8.378  0.1002 -0.7900 -0.1947
 4208SOL    HW124257   4.524   0.729   8.417  0.3958 -0.8942  0.1220
 4208SOL    HW224258   4.635   0.737   8.315 -1.8430 -1.6605 -0.9114
 4209SOL     OW24259   2.855   0.280   1.913  0.4283 -0.1465 -0.0041
 4209SOL    HW124260   2.892   0.368   1.911 -1.7554  0.7662  0.7982
 4209SOL    HW224261   2.764   0.300   1.932 -0.4531 -2.7249 -1.4075
 4210SOL     OW24262   3.894   3.088   3.504 -0.2503  0.0609  0.2341
 4210SOL    HW124263   3.986   3.078   3.528 -0.0664  1.7114  0.1757
 4210SOL    HW224264   3.870   3.173   3.540 -1.1441 -0.0085 -0.1974
 4211SOL     OW24265   4.232   0.866   4.347 -0.1092 -0.1395  0.0279
 4211SOL    HW124266   4.150   0.911   4.367 -0.1991 -0.1150 -0.3847
 4211SOL    HW224267   4.282   0.947   4.338 -1.4965  0.4213 -2.9052
 4212SOL     OW24268   2.654   2.354   7.355  0.5901  0.7908  0.0656
 4212SOL    HW124269   2.622   2.436   7.317 -1.8429 -0.8086 -1.3742
 4212SOL    HW224270   2.618   2.286   7.297 -1.6562  1.7883  0.2826
 4213SOL     OW24271   1.505   0.936  15.258 -1.0211  0.2874 -0.1701
 4213SOL    HW124272   1.468   0.962  15.343 -1.0155  0.9396 -0.3754
 4213SOL    HW224273   1.589   0.982  15.254 -0.0433 -1.4935 -0.1005
 4214SOL     OW24274   4.710   3.262   7.122 -0.1306  0.6138 -0.2609
 4214SOL    HW124275   4.663   3.339   7.091 -0.1336  0.4970 -0.5408
 4214SOL    HW224276   4.670   3.189   7.075  1.3435 -0.8866  0.7984
 4215SOL     OW24277   1.668   2.835   1.769 -0.4171 -0.0432  0.1375
 4215SOL    HW124278   1.609   2.909   1.784 -0.1270  0.4866 -1.2843
 4215SOL    HW224279   1.673   2.827   1.673  1.9375  0.5228  0.2212
 4216SOL     OW24280   4.718   1.202   2.432 -0.0161 -0.2501  0.1970
 4216SOL    HW124281   4.625   1.224   2.434  0.3857  1.3370  1.1593
 4216SOL    HW224282   0.002   1.204   2.339  2.0059  0.3971  0.6804
 4217SOL     OW24283   1.663   4.465   3.470 -0.3139  0.1531 -0.3203
 4217SOL    HW124284   1.741   4.424   3.507 -1.1511 -1.4936 -0.3787
 4217SOL    HW224285   1.607   4.454   3.548 -0.1529  2.1700  0.0747
 4218SOL     OW24286   1.222   4.405   5.698  0.3073 -0.2572  0.2909
 4218SOL    HW124287   1.218   4.342   5.771 -1.9669 -0.5735 -0.1048
 4218SOL    HW224288   1.167   4.472   5.737 -1.8179 -1.6236 -0.3658
 4219SOL     OW24289   1.350   0.023  16.451 -0.1122  0.2146  0.0816
 4219SOL    HW124290   1.342   0.110  16.491 -1.3603  1.0934 -2.0760
 4219SOL    HW224291   1.396   4.708  16.517  1.2827  1.0850 -0.2309
 4220SOL     OW24292   2.665   0.094   3.410 -0.1839 -0.0524 -0.2676
 4220SOL    HW124293   2.676   0.001   3.390  1.5756 -0.0240  0.6076
 4220SOL    HW224294   2.639   0.136   3.328  2.0140 -1.7758 -1.8452
 4221SOL     OW24295   3.210   3.689  13.618 -0.1340 -0.5018 -0.0280
 4221SOL    HW124296   3.174   3.777  13.635 -1.8722 -0.9641 -1.2765
 4221SOL    HW224297   3.143   3.639  13.666 -0.6125  1.3632  1.2699
 4222SOL     OW24298   3.392   2.318   5.882  0.4596 -0.0219  0.1490
 4222SOL    HW124299   3.443   2.237   5.885  2.3943  1.2432  1.3730
 4222SOL    HW224300   3.457   2.388   5.876  1.1057 -0.4175  2.4623
 4223SOL     OW24301   4.046   0.705   5.381 -0.3995 -0.1733 -0.1023
 4223SOL    HW124302   4.062   0.687   5.473 -1.9502 -1.3991 -0.0680
 4223SOL    HW224303   3.956   0.671   5.377 -1.6002  2.7580  1.6834
 4224SOL     OW24304   1.037   2.731  14.036 -0.4837  0.3232 -0.3334
 4224SOL    HW124305   0.953   2.691  14.058 -0.3980 -0.5882 -1.6316
 4224SOL    HW224306   1.028   2.729  13.940  0.8749  3.9510 -0.5469
 4225SOL     OW24307   2.664   2.105   2.894 -0.0517 -0.0114  0.4304
 4225SOL    HW124308   2.618   2.109   2.978 -0.4266  0.7526  0.1869
 4225SOL    HW224309   2.734   2.042   2.910  0.5928  0.9022  1.1887
 4226SOL     OW24310   0.433   1.410   3.155  0.2760  0.1964 -0.3457
 4226SOL    HW124311   0.409   1.326   3.194 -2.5330 -0.1549 -2.7975
 4226SOL    HW224312   0.348   1.432   3.117 -1.0058 -0.5035  2.1316
 4227SOL     OW24313   2.770   2.756   0.567 -0.2280 -0.2309  0.3987
 4227SOL    HW124314   2.692   2.772   0.514 -0.9402 -1.2300  1.1403
 4227SOL    HW224315   2.835   2.738   0.499 -0.4359  0.1528  0.1018
 4228SOL     OW24316   4.445   2.979   9.014 -0.2976 -0.6773 -0.6742
 4228SOL    HW124317   4.460   2.980   8.919  1.7228  3.0549 -0.3280
 4228SOL    HW224318   4.508   3.045   9.044  0.6589 -2.0945  0.4624
 4229SOL     OW24319   2.076   3.519   7.358 -0.3342 -0.0322 -0.1016
 4229SOL    HW124320   2.127   3.598   7.340  1.4266 -1.5369 -1.7185
 4229SOL    HW224321   2.078   3.485   7.269  0.7701  2.8493 -1.1924
 4230SOL     OW24322   3.797   1.017   4.041 -0.4351  0.7850  0.2754
 4230SOL    HW124323   3.825   1.102   4.074 -0.5334  0.9924 -0.1759
 4230SOL    HW224324   3.833   0.967   4.115 -1.2702 -1.0371 -0.5380
 4231SOL     OW24325   1.126   3.169   0.644  0.5220 -0.1987  0.1734
 4231SOL    HW124326   1.197   3.129   0.693 -1.1859 -1.0910  1.9107
 4231SOL    HW224327   1.167   3.165   0.557  1.0353 -2.5671  0.5210
 4232SOL     OW24328   4.611   1.475   8.344 -0.2149 -0.6722  0.3782
 4232SOL    HW124329   4.573   1.544   8.400 -2.2252 -0.8441 -0.7534
 4232SOL    HW224330   4.584   1.513   8.261 -0.4102 -2.9468 -0.5945
 4233SOL     OW24331   3.220   4.167   3.027 -0.1278  0.0264  0.4895
 4233SOL    HW124332   3.132   4.132   3.040 -1.0610  1.3723 -2.0667
 4233SOL    HW224333   3.203   4.256   2.993 -1.6796  0.1827  1.6690
 4234SOL     OW24334   1.761   1.878  10.312 -0.3887 -1.3879 -0.1866
 4234SOL    HW124335   1.734   1.787  10.326  0.1018 -1.2331  1.8255
 4234SOL    HW224336   1.813   1.870  10.232 -0.3352 -0.4913 -0.2403
 4235SOL     OW24337   0.976   2.562   2.247 -0.1631  0.0377 -0.1810
 4235SOL    HW124338   0.920   2.542   2.172 -0.8545 -2.2078  0.9248
 4235SOL    HW224339   1.034   2.618   2.196  0.1025 -0.6855 -0.6708
 4236SOL     OW24340   4.696   3.079  16.836  0.1736  0.0816  0.1123
 4236SOL    HW124341   0.039   3.078  16.783  0.7990  0.3387  1.0515
 4236SOL    HW224342   4.708   2.997  16.884 -2.0424 -0.3535 -0.0789
 4237SOL     OW24343   3.450   3.630   6.534  0.1696 -0.9976  0.1532
 4237SOL    HW124344   3.371   3.671   6.569  1.4883  1.3298  0.3594
 4237SOL    HW224345   3.413   3.554   6.488 -2.0013 -0.8820  1.7047
 4238SOL     OW24346   1.160   0.063   5.723  0.1031  0.0621 -0.1355
 4238SOL    HW124347   1.161   0.146   5.771  0.0215  0.6056 -1.0818
 4238SOL    HW224348   1.065   0.059   5.733  0.3754 -0.0534  2.5335
 4239SOL     OW24349   1.304   2.019   0.715 -0.2213  0.3015  0.4294
 4239SOL    HW124350   1.265   2.030   0.802 -2.8337 -1.3265 -0.5592
 4239SOL    HW224351   1.346   2.105   0.706  1.8081 -0.8232 -0.7777
 4240SOL     OW24352   0.276   4.700  15.225 -0.4440 -0.2883 -0.1020
 4240SOL    HW124353   0.284   4.606  15.208  1.1715 -0.3807  1.1727
 4240SOL    HW224354   0.362   4.733  15.250 -0.7449  1.9365 -2.0445
 4241SOL     OW24355   0.477   2.923   3.175 -0.0673  0.0394  0.0517
 4241SOL    HW124356   0.386   2.951   3.187  0.1141 -0.0449  1.6864
 4241SOL    HW224357   0.503   2.916   3.268 -0.2220  0.5517  0.1334
 4242SOL     OW24358   2.202   3.985  13.596  0.0697  0.5072 -0.0640
 4242SOL    HW124359   2.162   3.997  13.509 -0.6985 -0.0778  0.2076
 4242SOL    HW224360   2.143   4.043  13.645  0.6936  1.7682 -0.8006
 4243SOL     OW24361   0.926   3.851  11.644  0.3277  0.0069  0.7546
 4243SOL    HW124362   0.989   3.796  11.598  2.0455  0.9572  1.9816
 4243SOL    HW224363   0.871   3.791  11.695  2.0189 -1.1128  1.2580
 4244SOL     OW24364   3.076   0.780   2.884 -0.0937  0.2859  0.0985
 4244SOL    HW124365   3.145   0.846   2.888  0.0777  0.2019 -1.3027
 4244SOL    HW224366   3.132   0.706   2.857 -1.6913 -1.0204  0.3804
 4245SOL     OW24367   3.698   0.731  16.295  0.1452  0.6008  0.4350
 4245SOL    HW124368   3.692   0.826  16.302  1.2255  0.7858 -1.3529
 4245SOL    HW224369   3.724   0.708  16.384  1.6631  0.6247 -0.0117
 4246SOL     OW24370   3.531   1.809   7.756 -0.6325 -0.3757 -0.8275
 4246SOL    HW124371   3.499   1.728   7.796  0.5945 -1.5244 -2.1690
 4246SOL    HW224372   3.613   1.799   7.708  0.0448  1.0913  0.0235
 4247SOL     OW24373   0.508   3.801   1.949 -0.1790  0.3611 -0.2553
 4247SOL    HW124374   0.462   3.725   1.986 -1.3739 -0.5315 -3.5903
 4247SOL    HW224375   0.519   3.760   1.864 -0.2168 -1.2011  0.4941
 4248SOL     OW24376   4.128   0.630  13.967 -0.0828  0.6448  0.6096
 4248SOL    HW124377   4.197   0.643  14.032  1.7633  3.4356 -1.8669
 4248SOL    HW224378   4.055   0.650  14.025 -1.0317 -0.1536 -0.3127
 4249SOL     OW24379   0.436   2.811   5.912 -0.3783  0.0219  0.2466
 4249SOL    HW124380   0.381   2.818   5.834 -0.2652 -2.5661 -0.0705
 4249SOL    HW224381   0.500   2.881   5.898 -0.4179  0.0083 -0.0094
 4250SOL     OW24382   1.440   0.373   2.467  0.6245 -0.6422 -0.0199
 4250SOL    HW124383   1.371   0.433   2.496 -0.4231 -2.4028  1.1272
 4250SOL    HW224384   1.514   0.433   2.467  0.7118 -0.7525 -0.9519
 4251SOL     OW24385   1.558   3.086  12.374 -0.3838  0.4963 -0.0631
 4251SOL    HW124386   1.579   3.084  12.281  1.3971  2.7020  0.2989
 4251SOL    HW224387   1.636   3.048  12.414  0.1740 -0.4351 -2.0516
 4252SOL     OW24388   0.755   2.766   7.449  0.2323  0.0076 -0.6341
 4252SOL    HW124389   0.782   2.817   7.526  0.2640  0.2531 -0.8109
 4252SOL    HW224390   0.659   2.771   7.453  0.2632 -0.3760  0.7746
 4253SOL     OW24391   3.221   2.535   5.969 -0.0166  0.4256 -0.0434
 4253SOL    HW124392   3.126   2.526   5.979 -0.0266  0.0490 -0.5011
 4253SOL    HW224393   3.240   2.450   5.930 -0.6937  1.0425 -1.7095
 4254SOL     OW24394   2.206   0.180  10.036  0.0509  0.5755  0.2112
 4254SOL    HW124395   2.162   0.265  10.025 -0.6068  0.3435  1.0898
 4254SOL    HW224396   2.179   0.161  10.125 -0.0274  1.3346  0.3502
 4255SOL     OW24397   0.119   2.488   7.161  0.1435 -0.0454  0.0724
 4255SOL    HW124398   0.130   2.406   7.112  0.5680  0.6940 -1.0635
 4255SOL    HW224399   0.127   2.555   7.094  0.1180  2.1719  2.3128
 4256SOL     OW24400   4.565   0.753   0.631  0.2393  0.2092  0.7813
 4256SOL    HW124401   4.477   0.725   0.655  0.9227 -1.1696  1.6610
 4256SOL    HW224402   4.592   0.672   0.589  0.6887  1.8482 -2.0986
 4257SOL     OW24403   0.468   1.493  14.393 -0.4350  0.4648  0.0466
 4257SOL    HW124404   0.482   1.439  14.471  1.3626  0.9210  0.0337
 4257SOL    HW224405   0.411   1.439  14.338  0.0950  1.0862 -1.1186
 4258SOL     OW24406   1.100   3.252   7.110 -0.1689 -0.1280  0.5344
 4258SOL    HW124407   1.121   3.251   7.017 -3.3528  2.6016 -0.2304
 4258SOL    HW224408   1.007   3.231   7.099 -0.1183 -1.7827  3.3360
 4259SOL     OW24409   1.445   0.206   3.523 -0.4619  0.7613 -0.0652
 4259SOL    HW124410   1.456   0.189   3.430 -0.0460 -0.1169  0.1515
 4259SOL    HW224411   1.354   0.234   3.530 -1.0841 -0.9960 -1.1673
 4260SOL     OW24412   3.530   2.482   4.681  0.2254  0.4307 -0.0190
 4260SOL    HW124413   3.591   2.540   4.635 -0.2725  1.8543  1.1320
 4260SOL    HW224414   3.501   2.536   4.755  0.8040  1.3996 -0.5041
 4261SOL     OW24415   3.271   4.400   1.155  0.1088 -0.1803  0.8360
 4261SOL    HW124416   3.329   4.393   1.230  1.8560 -0.7322 -0.5456
 4261SOL    HW224417   3.312   4.478   1.117 -1.3581 -0.7968 -2.0816
 4262SOL     OW24418   0.762   3.274   9.062  0.2784 -0.2156 -0.3230
 4262SOL    HW124419   0.723   3.190   9.039 -1.0277  0.0785  0.7981
 4262SOL    HW224420   0.712   3.317   9.131 -0.2552 -1.5498  0.1323
 4263SOL     OW24421   0.494   4.689   6.134 -0.1406  0.3253  0.1352
 4263SOL    HW124422   0.422   4.668   6.076  0.3580  1.3693 -0.8642
 4263SOL    HW224423   0.569   4.644   6.094 -1.8587 -2.3786  0.0024
 4264SOL     OW24424   3.199   0.880   4.040 -0.0075  0.3118 -0.1475
 4264SOL    HW124425   3.167   0.946   3.979  2.1886  0.9969 -0.5521
 4264SOL    HW224426   3.126   0.819   4.043  1.0472 -0.7377  3.9966
 4265SOL     OW24427   3.829   1.703   9.025 -0.5162 -0.1088  0.2421
 4265SOL    HW124428   3.830   1.680   9.118 -0.0093 -0.8570  0.0489
 4265SOL    HW224429   3.782   1.787   9.032  1.4476  1.2124 -2.3234
 4266SOL     OW24430   4.673   1.612   5.518  0.3449  0.2912  0.4518
 4266SOL    HW124431   4.587   1.572   5.503 -0.6408  2.0090  1.4437
 4266SOL    HW224432   4.669   1.623   5.613 -0.7613  0.7973  0.3495
 4267SOL     OW24433   2.261   1.884   0.806 -0.1874  0.2932 -0.3781
 4267SOL    HW124434   2.230   1.850   0.890  1.6588  0.6483  0.4227
 4267SOL    HW224435   2.348   1.844   0.809 -0.2628  0.2512  0.9604
 4268SOL     OW24436   2.253   3.025   6.240 -0.4167  0.5513 -0.1952
 4268SOL    HW124437   2.204   3.075   6.305  0.4776  0.7991  0.2825
 4268SOL    HW224438   2.215   3.057   6.158  1.6993  1.6801 -0.7316
 4269SOL     OW24439   3.525   2.552  13.236  0.3714 -0.2619 -0.0633
 4269SOL    HW124440   3.498   2.610  13.308  0.2943  0.5728 -0.7625
 4269SOL    HW224441   3.453   2.489  13.238 -0.4965  0.6913 -1.0779
 4270SOL     OW24442   0.040   3.905   7.033  0.3675 -0.3070  0.0722
 4270SOL    HW124443   0.033   3.974   6.967 -1.0764 -1.4963 -1.0474
 4270SOL    HW224444   4.687   3.917   7.065  0.6917  2.5171 -0.0864
 4271SOL     OW24445   4.022   3.414   5.445 -0.4563  0.3622 -0.4105
 4271SOL    HW124446   3.988   3.359   5.515 -0.5242 -0.8836 -1.4175
 4271SOL    HW224447   3.989   3.371   5.366  0.5048  0.0397 -0.6422
 4272SOL     OW24448   1.985   2.147   3.508  0.4321 -0.7608  0.2261
 4272SOL    HW124449   2.043   2.138   3.432 -0.8804 -1.2627 -0.7055
 4272SOL    HW224450   1.960   2.238   3.495 -0.2117 -0.9274  0.3227
 4273SOL     OW24451   2.246   0.049   7.941  0.5966  0.1884 -0.5568
 4273SOL    HW124452   2.233   4.705   7.891  1.2744  0.7927 -1.7257
 4273SOL    HW224453   2.337   0.047   7.971  0.9122  0.0521 -1.5033
 4274SOL     OW24454   1.741   4.296   0.460 -0.3192 -0.1870 -0.2209
 4274SOL    HW124455   1.649   4.324   0.458 -0.9015 -2.1788 -1.3945
 4274SOL    HW224456   1.781   4.378   0.430 -2.7630  1.6954  1.6751
 4275SOL     OW24457   4.451   2.259   8.018  0.9122 -0.3659 -0.5875
 4275SOL    HW124458   4.547   2.267   8.018  0.9813 -1.2366  0.1067
 4275SOL    HW224459   4.410   2.325   7.962 -1.2107  0.7535  2.3338
 4276SOL     OW24460   1.307   4.161   8.195  0.7092  0.1688  0.4105
 4276SOL    HW124461   1.299   4.070   8.167 -2.3784  0.6494 -0.3178
 4276SOL    HW224462   1.213   4.181   8.205  0.8996  1.5868 -0.6607
 4277SOL     OW24463   2.022   2.177   2.057 -0.7999 -0.4248  0.0820
 4277SOL    HW124464   1.987   2.250   2.109  0.1595 -0.5978  0.9826
 4277SOL    HW224465   1.953   2.173   1.991  0.4389  0.5500 -1.2760
 4278SOL     OW24466   2.368   0.113   1.150 -0.5793 -0.3231 -0.4177
 4278SOL    HW124467   2.280   0.148   1.140 -0.2635  0.8805  0.9012
 4278SOL    HW224468   2.382   0.084   1.060 -1.2409 -1.1767 -0.2371
 4279SOL     OW24469   2.003   0.220   8.625 -0.0685 -0.2111 -0.9341
 4279SOL    HW124470   1.936   0.242   8.561 -1.5645 -1.0871  0.3317
 4279SOL    HW224471   2.004   0.289   8.691  2.6151  1.4883 -2.7414
 4280SOL     OW24472   3.572   2.183  14.722 -0.0141  0.0780 -0.2843
 4280SOL    HW124473   3.539   2.209  14.808 -0.6331 -0.5777 -0.3228
 4280SOL    HW224474   3.532   2.096  14.715  0.6405 -0.3243  0.9452
 4281SOL     OW24475   0.064   4.440   2.911  0.0203 -0.3641 -0.1077
 4281SOL    HW124476   0.152   4.402   2.920 -0.0284 -0.7105 -1.0665
 4281SOL    HW224477   0.034   4.407   2.995 -3.5819  0.7462 -0.9547
 4282SOL     OW24478   3.386   1.373   8.454  0.1548 -0.2931  0.3467
 4282SOL    HW124479   3.360   1.410   8.370  0.6986  0.3668  0.4620
 4282SOL    HW224480   3.300   1.394   8.491 -0.3479 -1.1337 -0.3693
 4283SOL     OW24481   1.480   3.500  17.738 -0.3599 -0.8469 -0.1525
 4283SOL    HW124482   1.449   3.409  17.734  3.9083 -2.2439 -0.9709
 4283SOL    HW224483   1.450   3.525  17.650  1.2648  1.9924  0.1262
 4284SOL     OW24484   2.109   3.373  16.396 -0.3556  0.0437 -0.0466
 4284SOL    HW124485   2.128   3.448  16.453 -0.6884  0.3683 -0.3560
 4284SOL    HW224486   2.154   3.415  16.323  1.2584  0.2522  1.0576
 4285SOL     OW24487   0.831   3.535   8.859  0.2326 -0.2229 -0.0648
 4285SOL    HW124488   0.788   3.536   8.945 -1.5673 -0.7567 -0.9511
 4285SOL    HW224489   0.905   3.477   8.877 -1.0357 -2.0481 -0.7173
 4286SOL     OW24490   4.061   3.141   7.558 -0.2128  0.2267 -0.0611
 4286SOL    HW124491   4.102   3.106   7.638  1.0967 -0.2397 -0.9410
 4286SOL    HW224492   4.029   3.226   7.587 -1.6589 -0.6172  0.8155
 4287SOL     OW24493   1.826   0.348   8.176  0.1329 -0.3542 -0.1593
 4287SOL    HW124494   1.785   0.262   8.165  4.0262 -2.1972 -0.4681
 4287SOL    HW224495   1.775   0.401   8.115  1.0546  0.4976 -0.1861
 4288SOL     OW24496   2.220   2.511   5.935 -0.4439  0.6587  0.0662
 4288SOL    HW124497   2.277   2.553   5.870  1.5635  0.2238  1.5459
 4288SOL    HW224498   2.247   2.420   5.923  0.1294  1.0798 -1.9141
 4289SOL     OW24499   2.490   3.885  15.166  0.4463 -0.2540 -0.0220
 4289SOL    HW124500   2.485   3.848  15.078 -1.0830 -1.0414  0.3793
 4289SOL    HW224501   2.523   3.815  15.223  3.4727  0.3902 -1.0177
 4290SOL     OW24502   1.631   0.186  12.476 -0.0804 -0.1319  0.0717
 4290SOL    HW124503   1.643   0.092  12.495  0.0533  0.0249  0.7912
 4290SOL    HW224504   1.722   0.216  12.479  0.6491 -2.4489  1.4950
 4291SOL     OW24505   0.261   0.327   7.590  0.0166  0.4504 -0.1968
 4291SOL    HW124506   0.266   0.232   7.588 -1.1527  0.3988 -0.2889
 4291SOL    HW224507   0.277   0.326   7.496  0.7668 -2.8926 -0.0109
 4292SOL     OW24508   1.031   3.024  13.207 -0.0005 -0.3185 -0.2517
 4292SOL    HW124509   1.023   3.106  13.160  1.4835  0.4872  0.9013
 4292SOL    HW224510   1.115   3.041  13.249 -0.8576  1.1184  0.9170
 4293SOL     OW24511   3.901   4.380   6.264 -0.0384  0.3388  0.1196
 4293SOL    HW124512   3.924   4.445   6.330  1.9424 -1.9819  1.7487
 4293SOL    HW224513   3.807   4.366   6.277 -0.1061 -0.9271 -1.7161
 4294SOL     OW24514   4.325   1.383   3.176 -0.1098 -0.3983  0.6642
 4294SOL    HW124515   4.405   1.372   3.124 -0.6892 -0.5677 -0.1964
 4294SOL    HW224516   4.311   1.478   3.172  3.2579  0.0193 -1.3230
 4295SOL     OW24517   4.148   0.510   7.595  0.3701 -0.0120 -0.4184
 4295SOL    HW124518   4.232   0.500   7.639  0.4120  1.3573 -0.1760
 4295SOL    HW224519   4.163   0.516   7.500  2.2713  1.4608 -0.0206
 4296SOL     OW24520   1.748   0.676   1.704  0.0181  0.0891 -0.1530
 4296SOL    HW124521   1.693   0.670   1.782 -1.4038 -0.7272 -1.2210
 4296SOL    HW224522   1.832   0.677   1.749 -0.2294 -0.2945  0.3176
 4297SOL     OW24523   1.268   2.285   8.399 -0.1894  0.0144  0.3854
 4297SOL    HW124524   1.234   2.196   8.401  1.4941 -0.5981  2.0976
 4297SOL    HW224525   1.353   2.269   8.357 -1.4773  1.4265 -2.7201
 4298SOL     OW24526   3.824   2.677   8.509  1.3019 -0.1168  0.2369
 4298SOL    HW124527   3.858   2.692   8.597 -1.0687  1.4919  0.8867
 4298SOL    HW224528   3.892   2.709   8.449  1.9184 -0.8510  0.5489
 4299SOL     OW24529   2.290   3.741  11.129  0.2118  0.3246  0.2059
 4299SOL    HW124530   2.247   3.777  11.207  0.2396  0.2950  0.2347
 4299SOL    HW224531   2.307   3.650  11.153 -0.7670 -0.0565 -0.5633
 4300SOL     OW24532   3.290   2.530  14.571 -0.0655  0.6188 -0.1462
 4300SOL    HW124533   3.221   2.470  14.599  0.6885 -0.8667 -1.4950
 4300SOL    HW224534   3.257   2.557  14.485  0.2982  0.3232 -0.3771
 4301SOL     OW24535   1.937   2.472   0.639  0.6479  0.5611  0.0438
 4301SOL    HW124536   1.971   2.389   0.674  1.4318 -0.2830 -2.6750
 4301SOL    HW224537   1.949   2.461   0.544  2.0916 -3.2349  0.6383
 4302SOL     OW24538   0.964   1.381   5.107 -0.0647 -0.2393 -0.2350
 4302SOL    HW124539   0.925   1.322   5.042 -3.6129  0.0406  1.6156
 4302SOL    HW224540   1.047   1.338   5.129  0.2862 -0.3034 -1.7135
 4303SOL     OW24541   1.249   1.246  15.846  0.3887  0.2365  0.7877
 4303SOL    HW124542   1.214   1.222  15.760  1.5814  0.5111  0.2246
 4303SOL    HW224543   1.167   1.243  15.896  0.3723 -1.7241  0.6266
 4304SOL     OW24544   3.423   1.414  15.452 -0.6632  0.6327  0.2118
 4304SOL    HW124545   3.334   1.406  15.485 -0.8890  1.7699 -0.1191
 4304SOL    HW224546   3.433   1.326  15.416 -0.6710 -0.0169  1.8123
 4305SOL     OW24547   2.052   1.942   9.193  0.1630 -0.4280  0.3820
 4305SOL    HW124548   1.994   1.899   9.131 -0.6165  0.0486  0.7845
 4305SOL    HW224549   2.103   1.867   9.224 -1.4559 -2.0163 -0.8896
 4306SOL     OW24550   3.752   2.597   4.568 -0.2349  0.6783 -0.4009
 4306SOL    HW124551   3.741   2.647   4.487  1.6899  0.1662 -0.9690
 4306SOL    HW224552   3.738   2.668   4.632 -0.9654  0.7774 -0.6716
 4307SOL     OW24553   1.932   1.527   7.189  0.4118 -0.3212  0.0078
 4307SOL    HW124554   2.012   1.474   7.187  0.8862  0.3822  0.4230
 4307SOL    HW224555   1.915   1.519   7.283  1.2530 -0.6124  0.1357
 4308SOL     OW24556   0.948   3.200   9.981  0.1367  0.2810  0.1217
 4308SOL    HW124557   1.036   3.211  10.017 -0.0521 -0.4772  0.8080
 4308SOL    HW224558   0.894   3.251  10.041  1.0059  2.9432 -1.3263
 4309SOL     OW24559   3.586   0.564   8.039  0.1765  0.0064 -0.0655
 4309SOL    HW124560   3.491   0.558   8.047  0.3827 -0.9415  1.8220
 4309SOL    HW224561   3.608   0.476   8.009  0.1663 -0.2485  0.6718
 4310SOL     OW24562   1.168   0.788   1.196  0.1760  0.3916  0.1072
 4310SOL    HW124563   1.104   0.819   1.260 -0.4785  2.5630 -1.5917
 4310SOL    HW224564   1.155   0.693   1.192  0.2952  0.3160  1.7651
 4311SOL     OW24565   2.756   0.830   9.388  0.3045 -0.1951  0.8298
 4311SOL    HW124566   2.744   0.919   9.356  0.2299 -0.6514 -0.4020
 4311SOL    HW224567   2.842   0.802   9.358  0.3671  1.1895 -0.2556
 4312SOL     OW24568   3.910   3.536   8.159  0.5953 -0.4623 -0.3267
 4312SOL    HW124569   3.893   3.497   8.245  1.0818  1.0940  0.4884
 4312SOL    HW224570   3.830   3.584   8.138 -0.4811 -1.4425  1.5209
 4313SOL     OW24571   2.942   0.791  15.168  0.2188 -0.3721 -0.1859
 4313SOL    HW124572   2.897   0.733  15.107 -1.5190  1.8488 -1.0070
 4313SOL    HW224573   2.864   0.822  15.215 -1.0991 -2.7511 -0.8023
 4314SOL     OW24574   1.289   2.174   5.290 -0.8855  0.4543 -0.8221
 4314SOL    HW124575   1.256   2.172   5.380  0.3520 -0.4919 -0.3915
 4314SOL    HW224576   1.374   2.219   5.294 -0.6186 -0.0934 -0.3982
 4315SOL     OW24577   3.820   2.183   8.039  0.4743 -0.1789 -0.1512
 4315SOL    HW124578   3.731   2.178   8.004 -0.3419  1.5121  1.6753
 4315SOL    HW224579   3.875   2.170   7.963  1.1755  2.2055 -0.0695
 4316SOL     OW24580   0.184   3.624   9.615 -0.1332  0.2322 -0.5636
 4316SOL    HW124581   0.234   3.630   9.533  1.8181  0.6974  0.6586
 4316SOL    HW224582   0.238   3.671   9.678 -1.1088 -0.3090  0.6694
 4317SOL     OW24583   0.177   4.200   5.669 -0.0063 -0.1462  1.1223
 4317SOL    HW124584   0.110   4.134   5.689 -3.3629  2.7855 -0.5005
 4317SOL    HW224585   0.241   4.165   5.607 -1.1139  2.0344 -1.2011
 4318SOL     OW24586   3.026   3.871  12.728  0.2556  0.3602 -0.7077
 4318SOL    HW124587   3.073   3.907  12.653 -0.4864 -1.0595 -1.8597
 4318SOL    HW224588   3.024   3.951  12.780  0.7674  0.4459 -0.8206
 4319SOL     OW24589   0.329   1.926  15.492 -0.0287  0.2089  0.0497
 4319SOL    HW124590   0.369   1.960  15.572 -1.4429  0.6356  0.5619
 4319SOL    HW224591   0.276   1.856  15.531  0.5184 -0.4129 -0.3141
 4320SOL     OW24592   1.261   2.912   0.413 -0.3580  0.3040  0.2533
 4320SOL    HW124593   1.276   3.006   0.404  1.0249  0.0177 -0.5290
 4320SOL    HW224594   1.177   2.902   0.457 -1.4355  0.3130 -1.8090
 4321SOL     OW24595   4.491   4.684   3.070 -0.0210 -0.6642 -0.3330
 4321SOL    HW124596   4.439   4.627   3.014  0.5870 -0.0463 -1.5216
 4321SOL    HW224597   4.473   4.630   3.146  2.2990  1.6132  1.8554
 4322SOL     OW24598   2.295   1.198  10.300  0.3483  0.8124  0.5042
 4322SOL    HW124599   2.269   1.286  10.276 -0.3664  0.1315 -1.1804
 4322SOL    HW224600   2.211   1.151  10.307  0.5844  0.4371  0.8430
 4323SOL     OW24601   1.252   1.077  15.069  0.1181 -0.4166 -0.0125
 4323SOL    HW124602   1.284   1.159  15.105 -2.2061 -0.4669  2.1715
 4323SOL    HW224603   1.327   1.033  15.028 -0.0523  0.0213 -0.7947
 4324SOL     OW24604   1.622   2.601  15.303 -0.3070  0.5401 -0.0544
 4324SOL    HW124605   1.712   2.634  15.295  0.2332 -1.0196 -0.3658
 4324SOL    HW224606   1.634   2.517  15.259 -0.2734  1.2387 -1.4097
 4325SOL     OW24607   1.555   2.985   6.981  0.2027 -0.1052 -0.4557
 4325SOL    HW124608   1.585   3.045   6.913  0.0911  0.1881 -0.2432
 4325SOL    HW224609   1.469   3.024   6.994  0.1049 -0.5531  0.2491
 4326SOL     OW24610   3.229   1.121   6.055 -0.0242  0.6182 -0.6973
 4326SOL    HW124611   3.267   1.169   5.981  0.2605  1.7217  0.1513
 4326SOL    HW224612   3.301   1.101   6.114 -2.0264  0.5266  1.6946
 4327SOL     OW24613   2.698   1.261   5.131 -0.8691 -0.0970 -0.1398
 4327SOL    HW124614   2.657   1.280   5.046  0.5558  0.6561 -0.6657
 4327SOL    HW224615   2.791   1.263   5.107 -0.7771 -2.9114  0.0018
 4328SOL     OW24616   3.449   1.867  14.374 -0.4254 -0.3983  0.2577
 4328SOL    HW124617   3.413   1.941  14.423  0.4137  0.9605 -1.1979
 4328SOL    HW224618   3.469   1.905  14.289  0.1455 -2.7005 -0.6433
 4329SOL     OW24619   0.398   2.279   8.057 -0.6531 -0.0460 -0.0285
 4329SOL    HW124620   0.379   2.217   7.986  0.0897 -1.6423  1.1574
 4329SOL    HW224621   0.359   2.362   8.030  0.9621  0.1630 -1.6524
 4330SOL     OW24622   1.985   2.030   3.950 -0.1325  0.0377  0.4959
 4330SOL    HW124623   2.046   1.991   4.013 -0.1470  0.6094  0.8611
 4330SOL    HW224624   2.032   2.027   3.867  0.2478  0.2704  0.6996
 4331SOL     OW24625   3.083   0.279   4.685  0.4493  0.2739  0.5159
 4331SOL    HW124626   2.992   0.294   4.661  0.0734 -1.8698  0.6095
 4331SOL    HW224627   3.084   0.204   4.745  0.3678 -1.9750 -2.2853
 4332SOL     OW24628   0.890   2.879  13.489  0.1213 -0.2012 -0.1393
 4332SOL    HW124629   0.978   2.904  13.460  0.6644  0.8469  2.3756
 4332SOL    HW224630   0.912   2.820  13.562 -1.2396 -1.9588 -1.1569
 4333SOL     OW24631   0.300   1.244  16.687  0.2499  0.2871 -0.1001
 4333SOL    HW124632   0.206   1.257  16.697  0.0240  0.4264 -2.2567
 4333SOL    HW224633   0.302   1.193  16.606 -0.8602  0.3358 -0.1523
 4334SOL     OW24634   2.348   2.550   3.441 -0.4126 -0.0437  0.2615
 4334SOL    HW124635   2.346   2.624   3.502  0.2309 -1.4909  2.0331
 4334SOL    HW224636   2.441   2.528   3.453 -0.3285  0.0952 -0.1476
 4335SOL     OW24637   2.797   2.851   7.516 -0.9009 -0.5818  0.4692
 4335SOL    HW124638   2.858   2.783   7.486  0.7168  0.2204  1.9409
 4335SOL    HW224639   2.806   2.852   7.611  0.0353 -0.7609  0.3834
 4336SOL     OW24640   0.298   3.572   7.969  0.5079 -0.3960  0.3572
 4336SOL    HW124641   0.308   3.616   8.054  1.5467  2.7882 -1.3797
 4336SOL    HW224642   0.204   3.556   7.973  0.3018  0.5223 -0.9277
 4337SOL     OW24643   2.685   1.329   6.352  0.0631 -0.0041 -0.0119
 4337SOL    HW124644   2.741   1.309   6.427  2.6705  2.6715 -1.2406
 4337SOL    HW224645   2.743   1.395   6.314 -0.6525 -0.8021 -2.4786
 4338SOL     OW24646   1.485   4.552   8.939  0.5177 -0.2944  0.3494
 4338SOL    HW124647   1.505   4.484   8.874  0.5049 -1.6904  1.8166
 4338SOL    HW224648   1.544   4.615   8.897 -0.9973  0.5568 -0.5202
 4339SOL     OW24649   4.356   4.269  15.871  0.9184 -0.0966 -0.0562
 4339SOL    HW124650   4.309   4.203  15.820 -1.0446  1.0497  0.2678
 4339SOL    HW224651   4.334   4.351  15.826 -1.3417 -0.0549  1.1077
 4340SOL     OW24652   4.655   1.226   6.019  0.3517 -0.8238 -0.0945
 4340SOL    HW124653   4.710   1.182   6.083 -1.2408 -2.7467 -0.0311
 4340SOL    HW224654   4.710   1.235   5.942  0.5493  1.6232  0.3376
 4341SOL     OW24655   3.676   2.829   1.338 -0.3624  1.2242  0.1886
 4341SOL    HW124656   3.691   2.804   1.429 -0.7743  0.3004  0.0017
 4341SOL    HW224657   3.762   2.836   1.296 -0.0848 -1.9013  0.2525
 4342SOL     OW24658   0.382   1.980   1.771  0.2475  0.5346 -0.8854
 4342SOL    HW124659   0.414   2.062   1.808 -0.2180 -0.2505  1.2871
 4342SOL    HW224660   0.310   1.954   1.829  0.4410  0.7927 -0.5269
 4343SOL     OW24661   3.018   3.212   9.502  0.0101  0.3344 -0.0678
 4343SOL    HW124662   2.943   3.176   9.455  0.3402  3.2118 -2.8078
 4343SOL    HW224663   2.987   3.214   9.592  0.6450 -1.7935  0.1966
 4344SOL     OW24664   1.814   2.692   8.568 -0.2276 -0.7967 -0.5405
 4344SOL    HW124665   1.726   2.653   8.569 -0.5925  0.0131 -1.0744
 4344SOL    HW224666   1.864   2.649   8.499 -1.8574 -0.6728 -1.7950
 4345SOL     OW24667   1.056   1.663   1.452  0.7889 -0.4200 -0.8899
 4345SOL    HW124668   0.993   1.616   1.506 -0.2539  1.8147 -0.1558
 4345SOL    HW224669   0.995   1.709   1.394  0.0015 -0.8239 -0.3799
 4346SOL     OW24670   1.618   3.107   6.737 -0.1135  0.2013  0.2658
 4346SOL    HW124671   1.629   3.043   6.667 -3.3292 -1.3134  1.1560
 4346SOL    HW224672   1.548   3.159   6.695 -1.5514  0.2965  2.8025
 4347SOL     OW24673   2.907   3.962   4.004  0.2325  0.1977 -0.2457
 4347SOL    HW124674   2.962   3.942   3.928 -0.4012  1.6002 -1.0612
 4347SOL    HW224675   2.848   4.022   3.959  0.1130 -0.5498 -1.0998
 4348SOL     OW24676   1.590   2.821   4.350  0.0610 -0.1017  0.6710
 4348SOL    HW124677   1.579   2.819   4.445  2.2421 -2.0905  0.9044
 4348SOL    HW224678   1.509   2.781   4.320  0.0526  0.7003 -0.3877
 4349SOL     OW24679   4.600   4.336   4.490 -0.0976 -0.6549 -0.1067
 4349SOL    HW124680   4.545   4.290   4.553 -0.2058 -0.4493 -0.0492
 4349SOL    HW224681   4.685   4.354   4.531 -1.0517  2.1604  0.6689
 4350SOL     OW24682   3.221   4.249  12.982 -0.0900  0.0439  0.0824
 4350SOL    HW124683   3.245   4.328  12.933  0.9592  0.1091  0.7063
 4350SOL    HW224684   3.306   4.224  13.018 -0.1336 -0.3470 -0.0917
 4351SOL     OW24685   3.986   3.052   6.675  0.2307  0.6949 -0.0373
 4351SOL    HW124686   4.045   3.125   6.694  2.0290 -0.6275 -0.6235
 4351SOL    HW224687   3.898   3.087   6.689 -0.7887 -2.2686  0.8497
 4352SOL     OW24688   3.809   0.284  15.111  0.1261 -0.0476  0.0441
 4352SOL    HW124689   3.825   0.233  15.031 -2.9912 -0.9107 -0.0060
 4352SOL    HW224690   3.830   0.222  15.181  1.6635 -1.4592 -1.6422
 4353SOL     OW24691   1.077   0.048   8.502 -0.1373  0.1340 -0.0154
 4353SOL    HW124692   0.982   0.045   8.516 -0.0608 -1.8336  0.1394
 4353SOL    HW224693   1.095   0.141   8.518  2.7521 -0.5160  0.5859
 4354SOL     OW24694   0.120   1.488   8.442 -0.4420  0.3397  0.1811
 4354SOL    HW124695   0.122   1.440   8.525  1.0311  1.3082  0.7126
 4354SOL    HW224696   0.042   1.449   8.403 -0.9998  1.4883  0.1328
 4355SOL     OW24697   4.093   4.160   3.589 -0.7519 -0.5834  0.0854
 4355SOL    HW124698   4.062   4.079   3.549  0.3545 -0.9457 -0.0312
 4355SOL    HW224699   4.188   4.150   3.582 -0.6996 -0.5382  0.7168
 4356SOL     OW24700   4.642   3.067   4.411 -0.2330  0.1019 -0.1886
 4356SOL    HW124701   4.631   2.988   4.465  3.4268 -0.1193  0.2489
 4356SOL    HW224702   4.671   3.131   4.477 -0.1388 -0.3551  0.2156
 4357SOL     OW24703   4.220   1.520   7.891  0.0177  1.0473  0.2912
 4357SOL    HW124704   4.270   1.599   7.914 -2.0844  2.0246  1.4917
 4357SOL    HW224705   4.294   1.468   7.858 -0.3185  0.4137  0.5338
 4358SOL     OW24706   2.614   2.983   7.402 -0.6723  0.3588  0.1311
 4358SOL    HW124707   2.564   2.985   7.483 -0.4582  2.3688  0.2165
 4358SOL    HW224708   2.684   2.923   7.427 -0.8626 -0.2541 -0.8201
 4359SOL     OW24709   0.116   3.976  10.402  0.0630 -0.1266  0.1615
 4359SOL    HW124710   0.203   3.979  10.443  0.3813 -1.5498 -0.4363
 4359SOL    HW224711   0.133   4.047  10.341  0.9163  1.3436  2.0862
 4360SOL     OW24712   1.545   3.005   4.125  0.4601 -0.3974 -0.5874
 4360SOL    HW124713   1.562   2.963   4.210 -1.4465  0.1459  0.0670
 4360SOL    HW224714   1.454   3.035   4.133  0.7763  0.2425  0.6147
 4361SOL     OW24715   4.503   0.217   2.218  0.3640 -0.0150 -0.4932
 4361SOL    HW124716   4.413   0.206   2.250  0.5657  2.4291  0.9028
 4361SOL    HW224717   4.533   0.126   2.223 -0.7180 -0.3988 -0.8729
 4362SOL     OW24718   0.741   3.978   3.967  0.1786 -0.5375  0.0192
 4362SOL    HW124719   0.805   3.931   4.021  0.1469  1.0791  1.4894
 4362SOL    HW224720   0.770   4.064   3.999  0.4761  0.6120 -3.3858
 4363SOL     OW24721   4.242   1.094   3.896  0.4135 -0.1425  0.5367
 4363SOL    HW124722   4.165   1.038   3.885  1.4153 -0.9414 -2.4160
 4363SOL    HW224723   4.208   1.184   3.890 -1.8680 -1.0281  0.0030
 4364SOL     OW24724   1.048   3.668   4.864  0.5363 -0.0329  0.1665
 4364SOL    HW124725   1.105   3.691   4.791  0.4771 -1.4042 -0.3121
 4364SOL    HW224726   1.011   3.752   4.893  2.7444  0.5312  1.3796
 4365SOL     OW24727   3.285   2.796  16.353  0.2690 -0.1697  0.3453
 4365SOL    HW124728   3.330   2.733  16.409  0.3967  2.6161  3.3905
 4365SOL    HW224729   3.359   2.823  16.299 -1.4078  0.4637 -1.6286
 4366SOL     OW24730   2.429   0.180   5.349 -0.3334 -0.0421  0.5537
 4366SOL    HW124731   2.375   0.125   5.293 -0.2322  2.1978 -1.7164
 4366SOL    HW224732   2.376   0.259   5.357 -1.2517 -0.7488  1.4134
 4367SOL     OW24733   3.702   1.606   8.044 -0.0369  0.1916  0.5343
 4367SOL    HW124734   3.787   1.601   8.088  0.1953 -2.1030 -0.1844
 4367SOL    HW224735   3.708   1.545   7.971 -0.5987 -0.0431  0.6826
 4368SOL     OW24736   2.778   0.466   6.900 -0.5486  0.3941 -0.6866
 4368SOL    HW124737   2.840   0.505   6.838 -0.6289  0.2300 -0.8695
 4368SOL    HW224738   2.771   0.372   6.885 -1.8677  0.4296 -0.3034
 4369SOL     OW24739   2.070   3.364   1.614  0.1797 -0.3040 -0.2016
 4369SOL    HW124740   2.027   3.437   1.659 -1.4700 -0.5923 -1.3146
 4369SOL    HW224741   2.145   3.349   1.671 -1.1212  0.7323  1.7751
 4370SOL     OW24742   3.704   4.552   3.517  0.2651  0.0350  0.1588
 4370SOL    HW124743   3.643   4.588   3.453 -0.2145  0.7059  0.9946
 4370SOL    HW224744   3.777   4.612   3.502  0.2325 -0.2524 -1.1393
 4371SOL     OW24745   0.936   2.372   3.561 -0.0900  0.0809 -0.2556
 4371SOL    HW124746   0.931   2.330   3.476  0.2724  1.0680 -0.7610
 4371SOL    HW224747   1.031   2.383   3.558  0.4364 -4.0544  0.5543
 4372SOL     OW24748   2.542   2.519   5.345 -0.0026 -0.1388 -0.6648
 4372SOL    HW124749   2.492   2.559   5.416 -0.7804 -0.4153 -1.0466
 4372SOL    HW224750   2.633   2.539   5.365 -0.2270 -0.2609  0.4822
 4373SOL     OW24751   1.337   3.668   9.159  0.6641 -0.2473 -0.0801
 4373SOL    HW124752   1.244   3.690   9.158  0.3465 -1.6632 -1.7451
 4373SOL    HW224753   1.346   3.649   9.066 -0.5092 -0.5975 -0.1170
 4374SOL     OW24754   0.570   1.125   4.557  0.0471 -0.2228  0.1739
 4374SOL    HW124755   0.620   1.195   4.600 -0.4884 -0.4851  1.2298
 4374SOL    HW224756   0.493   1.176   4.532  0.1505  0.3200  0.9707
 4375SOL     OW24757   4.466   2.982   8.751 -0.6323 -0.1492 -0.1237
 4375SOL    HW124758   4.476   2.889   8.731  1.8864  0.0152  0.2845
 4375SOL    HW224759   4.558   3.007   8.739 -0.1281 -1.5399  0.8722
 4376SOL     OW24760   3.976   3.390   4.968 -0.6000 -0.2967  0.6186
 4376SOL    HW124761   4.062   3.414   4.934 -1.3126 -1.3721 -1.9633
 4376SOL    HW224762   3.941   3.352   4.887 -1.1442  1.2220  0.1403
 4377SOL     OW24763   0.538   0.667   8.244  0.0389 -0.0161 -0.4058
 4377SOL    HW124764   0.560   0.612   8.319 -1.3331  0.8962  0.6686
 4377SOL    HW224765   0.522   0.745   8.299 -3.1299 -0.9454 -0.0350
 4378SOL     OW24766   0.578   3.387  12.958 -0.1817  0.7105  0.1054
 4378SOL    HW124767   0.540   3.343  12.881  0.0004  1.4642 -0.4117
 4378SOL    HW224768   0.652   3.435  12.920  0.3054 -2.2292 -2.6428
 4379SOL     OW24769   3.316   3.489   7.770 -0.0250  0.8209 -0.1026
 4379SOL    HW124770   3.364   3.560   7.812 -1.5075  2.6740 -1.5416
 4379SOL    HW224771   3.230   3.506   7.808  1.4456 -1.0941  4.0717
 4380SOL     OW24772   1.706   4.112   8.714 -0.2149  0.1420  0.2520
 4380SOL    HW124773   1.761   4.094   8.791  0.6864 -0.3055 -0.4820
 4380SOL    HW224774   1.731   4.046   8.648  1.4925  1.5671 -0.5442
 4381SOL     OW24775   1.571   0.121   6.949  0.9259  0.0137  0.3853
 4381SOL    HW124776   1.594   0.053   6.886  0.3620 -0.5083  0.7500
 4381SOL    HW224777   1.493   0.158   6.908  1.1777 -1.0899 -1.0948
 4382SOL     OW24778   1.622   4.295   2.823 -0.3161 -0.1044 -0.3778
 4382SOL    HW124779   1.676   4.227   2.863 -1.9626 -0.1846  1.6881
 4382SOL    HW224780   1.573   4.339   2.893  1.1335 -0.3778  0.7916
 4383SOL     OW24781   2.457   0.999  10.385 -0.1925  0.4450 -0.0427
 4383SOL    HW124782   2.512   1.050  10.445  1.6936  1.6604 -2.8459
 4383SOL    HW224783   2.396   1.068  10.360 -0.4954  0.4617  0.7176
 4384SOL     OW24784   2.316   1.895   7.295 -0.4846 -0.9958  0.2973
 4384SOL    HW124785   2.222   1.886   7.310 -0.6612 -0.2381 -0.3360
 4384SOL    HW224786   2.341   1.809   7.329 -0.5639 -0.8110  0.8209
 4385SOL     OW24787   0.055   4.026  15.905 -0.0802 -0.0843  0.1716
 4385SOL    HW124788   0.049   4.034  16.000 -2.0908 -0.5171  0.0740
 4385SOL    HW224789   0.031   4.115  15.880 -0.4612 -0.1911  0.1497
 4386SOL     OW24790   2.800   3.234   5.926 -0.3208  0.3173  0.4194
 4386SOL    HW124791   2.729   3.172   5.942 -0.0241 -0.3897 -1.0033
 4386SOL    HW224792   2.835   3.238   6.015 -0.6980  1.8872  0.4939
 4387SOL     OW24793   1.461   0.261   8.012 -0.3212 -0.4831  0.0263
 4387SOL    HW124794   1.409   0.182   8.025 -0.1600 -0.5590  0.2118
 4387SOL    HW224795   1.395   0.309   7.962  0.8633  0.1330 -0.9327
 4388SOL     OW24796   1.025   3.941   1.604  0.0822 -0.0422  0.2653
 4388SOL    HW124797   1.093   4.004   1.628 -0.4209  1.1893 -1.5867
 4388SOL    HW224798   0.956   3.994   1.645 -0.4902 -0.8348  0.3194
 4389SOL     OW24799   0.707   3.500   6.903  0.4379  0.2016 -0.0177
 4389SOL    HW124800   0.626   3.535   6.942  1.4720  0.1268  2.2003
 4389SOL    HW224801   0.763   3.531   6.974 -0.6724  3.1398 -0.4289
 4390SOL     OW24802   3.011   3.938   7.121 -0.8134  0.0813  0.4883
 4390SOL    HW124803   2.958   3.986   7.184 -0.1734  1.9393 -0.3828
 4390SOL    HW224804   2.945   3.877   7.088  1.6654 -1.2841 -2.0308
 4391SOL     OW24805   4.579   4.541   5.936 -0.1550  0.7033 -0.0949
 4391SOL    HW124806   4.663   4.521   5.977 -1.2309 -1.3622  1.0664
 4391SOL    HW224807   4.564   4.465   5.880 -1.7659  0.2597  0.9391
 4392SOL     OW24808   4.314   4.644   1.801  0.3685 -0.2795  0.2645
 4392SOL    HW124809   4.314   4.670   1.709  1.4000 -0.4769  0.2059
 4392SOL    HW224810   4.240   4.585   1.816 -0.7025  1.0761  0.2400
 4393SOL     OW24811   1.645   0.078  15.814 -0.2398 -0.0740  0.0306
 4393SOL    HW124812   1.725   0.029  15.800 -0.3046 -0.5849  1.3956
 4393SOL    HW224813   1.584   0.007  15.835  1.6761 -1.2573  1.6182
 4394SOL     OW24814   3.246   1.685   5.797  0.1375  0.2008  0.4916
 4394SOL    HW124815   3.239   1.594   5.826 -1.7734 -0.0088 -0.5985
 4394SOL    HW224816   3.286   1.733   5.869  0.6453  0.5316 -0.0112
 4395SOL     OW24817   4.136   1.345   2.017 -0.2928  0.4588  0.4307
 4395SOL    HW124818   4.217   1.341   1.967  0.5225 -1.8324  1.9503
 4395SOL    HW224819   4.102   1.256   2.019  0.7656  0.0309 -0.5839
 4396SOL     OW24820   1.133   1.734   2.814 -0.0929  0.1464  0.0509
 4396SOL    HW124821   1.119   1.735   2.909  1.3974 -1.8924  0.3025
 4396SOL    HW224822   1.228   1.739   2.807 -0.0221 -1.0749  0.1100
 4397SOL     OW24823   2.778   0.235   7.119  0.0557  0.4618 -0.5872
 4397SOL    HW124824   2.708   0.180   7.083 -0.0080 -0.1081  0.4033
 4397SOL    HW224825   2.744   0.272   7.200  0.8825 -0.8536  0.3675
 4398SOL     OW24826   1.371   2.529   2.318  0.2564 -0.1709  1.0066
 4398SOL    HW124827   1.392   2.578   2.238 -0.0054  0.2375  1.1920
 4398SOL    HW224828   1.323   2.593   2.369  0.5619  0.6224  0.2954
 4399SOL     OW24829   3.389   4.455  10.544 -0.6959 -0.1385 -0.4690
 4399SOL    HW124830   3.361   4.520  10.608  0.7210  0.5608 -0.5546
 4399SOL    HW224831   3.402   4.379  10.601  0.7372  1.5899  1.5070
 4400SOL     OW24832   4.287   1.382   8.669  0.4316  0.2632  0.3850
 4400SOL    HW124833   4.250   1.412   8.752  2.1667  1.1378  0.8415
 4400SOL    HW224834   4.326   1.298   8.694 -1.8222 -1.1831 -0.9093
 4401SOL     OW24835   3.136   0.137   6.417  0.1362  0.0371  0.2324
 4401SOL    HW124836   3.107   0.203   6.480 -1.7993 -1.1999  0.6317
 4401SOL    HW224837   3.054   0.121   6.370  1.4815  0.0057 -2.0692
 4402SOL     OW24838   1.607   1.842   7.103 -0.0025 -0.1089 -0.5955
 4402SOL    HW124839   1.595   1.920   7.050 -2.7609 -0.3929 -0.3912
 4402SOL    HW224840   1.633   1.884   7.184 -1.3059 -1.9794  0.8030
 4403SOL     OW24841   1.814   3.850   9.165  0.0865  0.0996 -0.0065
 4403SOL    HW124842   1.782   3.855   9.255 -1.9801 -2.3144 -0.6120
 4403SOL    HW224843   1.752   3.787   9.128 -1.0495  0.9813  0.4002
 4404SOL     OW24844   4.041   3.619   2.233  0.1195  0.3409 -0.3297
 4404SOL    HW124845   4.027   3.656   2.146  0.8911  1.6110  0.0972
 4404SOL    HW224846   4.135   3.628   2.250  0.4553 -1.5415 -1.1619
 4405SOL     OW24847   0.840   3.201  13.632 -0.6145 -0.7042 -0.5925
 4405SOL    HW124848   0.768   3.197  13.695 -1.2812 -1.0017 -1.3597
 4405SOL    HW224849   0.793   3.235  13.556  0.0223  0.3677 -0.5130
 4406SOL     OW24850   0.598   1.780  11.884  0.1852  0.3380  0.4202
 4406SOL    HW124851   0.689   1.777  11.857 -0.0783  0.8111 -0.5209
 4406SOL    HW224852   0.605   1.748  11.974  0.7312  4.5455  1.8551
 4407SOL     OW24853   3.941   1.072   2.684 -0.2313  0.3702 -0.7381
 4407SOL    HW124854   3.965   0.993   2.733 -4.0632  1.3843  2.7388
 4407SOL    HW224855   3.939   1.142   2.749 -3.4595 -0.8247  0.4861
 4408SOL     OW24856   3.992   0.323  13.458 -0.3419 -0.0094  0.2351
 4408SOL    HW124857   3.956   0.236  13.475 -0.5317  0.0290  0.0223
 4408SOL    HW224858   4.079   0.294  13.485  0.3588  0.1361 -1.9131
 4409SOL     OW24859   3.921   2.671  11.669 -0.0905 -1.1002 -0.0777
 4409SOL    HW124860   3.969   2.708  11.594 -0.2145 -2.0789 -0.6415
 4409SOL    HW224861   3.832   2.687  11.637 -0.1988  0.4906  1.0352
 4410SOL     OW24862   1.811   3.555   3.366  0.3030 -0.5886  0.4979
 4410SOL    HW124863   1.764   3.543   3.284 -0.7139 -1.0432  1.1450
 4410SOL    HW224864   1.896   3.583   3.332  0.0855 -0.0957  0.3593
 4411SOL     OW24865   4.434   2.626   8.352 -0.6778 -0.1284  0.0750
 4411SOL    HW124866   4.394   2.546   8.387 -0.4729 -0.0433  0.5003
 4411SOL    HW224867   4.366   2.660   8.294 -0.9410  0.5199  0.7674
 4412SOL     OW24868   0.188   2.108   3.621  0.5286  0.0535 -0.2962
 4412SOL    HW124869   0.241   2.056   3.561 -0.3372 -1.0841 -0.0777
 4412SOL    HW224870   0.176   2.182   3.562  2.2468 -0.3394 -1.1293
 4413SOL     OW24871   0.869   0.563  11.964  0.4088 -0.0419  0.3022
 4413SOL    HW124872   0.907   0.509  12.033 -1.7441  0.1444  1.6324
 4413SOL    HW224873   0.942   0.582  11.905  0.7704 -1.5027  0.2814
 4414SOL     OW24874   1.274   3.538   2.483  0.0991 -0.2037  0.2292
 4414SOL    HW124875   1.210   3.600   2.446  2.1123  1.5248 -0.3410
 4414SOL    HW224876   1.310   3.588   2.556 -0.0444  1.1079 -0.6049
 4415SOL     OW24877   1.992   2.604   0.134  0.6059 -0.3094  0.0184
 4415SOL    HW124878   2.004   2.626   0.227  1.2616  0.2498 -0.2054
 4415SOL    HW224879   2.072   2.633   0.091 -0.6436  1.6288 -0.9839
 4416SOL     OW24880   3.412   0.320   0.107 -0.1282  0.0012 -0.5426
 4416SOL    HW124881   3.350   0.299   0.038 -0.6758 -2.9734  0.8409
 4416SOL    HW224882   3.367   0.309   0.191 -1.6395  0.6231 -1.2763
 4417SOL     OW24883   1.802   0.587   8.446 -0.4980  0.0923 -0.0587
 4417SOL    HW124884   1.740   0.601   8.517  1.4502 -0.3439  1.7219
 4417SOL    HW224885   1.746   0.573   8.370 -1.6957  0.4162  0.7641
 4418SOL     OW24886   2.811   2.665   3.119  0.1825  0.2617 -0.1607
 4418SOL    HW124887   2.822   2.609   3.041 -1.1757  0.7796 -0.7257
 4418SOL    HW224888   2.879   2.632   3.178  0.1925  0.4749 -0.0550
 4419SOL     OW24889   3.674   2.796  12.229  0.1943 -0.6129 -0.5078
 4419SOL    HW124890   3.587   2.769  12.259 -0.0479  1.1138  0.3185
 4419SOL    HW224891   3.734   2.773  12.300 -1.0114  1.2843  1.1531
 4420SOL     OW24892   0.534   0.430  16.448  0.4976 -0.2199  0.1550
 4420SOL    HW124893   0.471   0.362  16.424 -0.6611  0.3001  1.7441
 4420SOL    HW224894   0.575   0.435  16.362  0.1143  0.6989  0.0213
 4421SOL     OW24895   0.633   4.640   9.094 -0.1251  0.4159  0.1482
 4421SOL    HW124896   0.639   4.575   9.024 -0.3593  0.4177  0.1248
 4421SOL    HW224897   0.714   4.689   9.090  0.8984 -1.4037 -1.3847
 4422SOL     OW24898   4.310   4.313   8.298  0.0132 -0.5830 -0.3356
 4422SOL    HW124899   4.267   4.366   8.365  0.1972 -1.4671  0.4803
 4422SOL    HW224900   4.397   4.300   8.337  0.4627 -1.9346 -1.8001
 4423SOL     OW24901   4.658   1.669   4.914  0.6080 -0.1821 -0.1542
 4423SOL    HW124902   4.671   1.763   4.926 -1.6707  0.2156 -0.6785
 4423SOL    HW224903   0.002   1.630   4.945  1.9353  0.6360 -2.5989
 4424SOL     OW24904   3.551   4.734   3.376 -0.6116  0.2938 -0.4288
 4424SOL    HW124905   3.496   0.012   3.300 -4.0338  1.2001  2.2220
 4424SOL    HW224906   3.488   0.032   3.439  0.1779  0.9338  0.0232
 4425SOL     OW24907   2.388   1.903   7.634  0.0266 -0.1345  0.5112
 4425SOL    HW124908   2.392   1.981   7.689 -0.0608  0.0663  0.2348
 4425SOL    HW224909   2.379   1.952   7.552  2.2438 -0.1703  0.2314
 4426SOL     OW24910   2.056   4.394   2.824 -0.0991 -0.1085 -0.3603
 4426SOL    HW124911   2.053   4.440   2.740  2.8869 -0.1944 -0.5222
 4426SOL    HW224912   2.047   4.466   2.886  2.6103 -0.1885  0.1199
 4427SOL     OW24913   2.420   2.369   2.897 -0.0808 -0.2451 -0.0157
 4427SOL    HW124914   2.437   2.462   2.881  2.1681 -1.1965 -3.2169
 4427SOL    HW224915   2.434   2.367   2.992 -2.5531  0.4440  0.3604
 4428SOL     OW24916   3.710   3.941   3.821  0.4600 -0.5076  0.7679
 4428SOL    HW124917   3.747   3.853   3.824  2.5511  0.3080 -1.7235
 4428SOL    HW224918   3.784   4.001   3.828 -0.5159  0.7246  0.4909
 4429SOL     OW24919   3.466   3.502   2.748  0.4361  0.4220 -0.6548
 4429SOL    HW124920   3.539   3.442   2.758 -0.8375 -1.3155 -1.7445
 4429SOL    HW224921   3.500   3.554   2.675  1.9459 -0.2210 -0.3959
 4430SOL     OW24922   2.233   0.395   4.217 -0.5251 -0.3630  0.7594
 4430SOL    HW124923   2.304   0.457   4.198 -0.9856  0.5630  2.0164
 4430SOL    HW224924   2.165   0.425   4.157  1.6039  1.3122 -0.8065
 4431SOL     OW24925   0.637   4.601   9.932  0.1872  0.4021 -0.4366
 4431SOL    HW124926   0.699   4.529   9.919  0.4288  0.2068  1.7446
 4431SOL    HW224927   0.555   4.553   9.925 -0.9307  2.1319  0.7429
 4432SOL     OW24928   0.938   3.376   5.692 -0.3044 -0.2238  0.3414
 4432SOL    HW124929   1.033   3.381   5.693 -0.3730  1.3897 -0.0837
 4432SOL    HW224930   0.920   3.301   5.749 -1.4197  0.8532  1.4069
 4433SOL     OW24931   4.320   0.674   5.758 -0.3034 -0.0693  0.2314
 4433SOL    HW124932   4.407   0.713   5.755 -0.7014  0.8301  0.3369
 4433SOL    HW224933   4.345   0.583   5.772  1.4910  0.3891  0.0342
 4434SOL     OW24934   1.936   1.787   7.135 -0.1368 -0.4318 -0.6322
 4434SOL    HW124935   1.878   1.781   7.059 -1.3626 -1.2699  0.3714
 4434SOL    HW224936   1.946   1.695   7.158  1.6313  0.0476  0.5042
 4435SOL     OW24937   4.499   0.571   4.853 -0.2345 -0.2159 -0.6824
 4435SOL    HW124938   4.545   0.630   4.914  0.5873 -1.6683  0.0999
 4435SOL    HW224939   4.482   0.633   4.781 -1.9173 -0.1622 -0.2377
 4436SOL     OW24940   4.737   3.379   3.289  0.3864 -0.4926  0.0556
 4436SOL    HW124941   4.734   3.343   3.378 -1.3592  2.9374  1.3635
 4436SOL    HW224942   0.090   3.409   3.292 -0.0421  0.7789  0.0608
 4437SOL     OW24943   4.539   1.396   3.027 -0.1033  0.0752 -0.7435
 4437SOL    HW124944   4.628   1.378   2.996 -0.4275 -1.2593 -0.9089
 4437SOL    HW224945   4.537   1.489   3.005 -1.1662  0.2244  0.0235
 4438SOL     OW24946   4.107   4.226  16.061 -1.0264  0.2504  0.5201
 4438SOL    HW124947   4.182   4.279  16.037 -0.7324  0.6037  2.2240
 4438SOL    HW224948   4.090   4.274  16.142 -0.4609 -0.5417  1.1139
 4439SOL     OW24949   4.036   0.355  10.145  0.3988  0.0735 -0.8737
 4439SOL    HW124950   4.074   0.271  10.118  0.1636 -0.0034 -0.9668
 4439SOL    HW224951   3.943   0.339  10.126  0.0764  0.7726  0.0906
 4440SOL     OW24952   4.713   3.086   4.142  0.2845 -0.0858 -0.0670
 4440SOL    HW124953   4.648   3.022   4.114 -2.1767  2.3036  0.1734
 4440SOL    HW224954   4.714   3.081   4.237 -0.0371  0.0042 -0.0596
 4441SOL     OW24955   3.305   1.223   7.066  0.2757  0.3015  0.2915
 4441SOL    HW124956   3.250   1.266   7.000  2.2620 -0.7629 -2.0411
 4441SOL    HW224957   3.375   1.200   7.006 -0.2422 -2.3990  0.7372
 4442SOL     OW24958   1.849   1.611   5.417  0.6185 -0.1094 -0.1518
 4442SOL    HW124959   1.821   1.533   5.370  0.9219 -0.5577  0.4206
 4442SOL    HW224960   1.888   1.662   5.345  1.3478 -0.1951  0.1835
 4443SOL     OW24961   3.702   3.565   9.603  0.0958  0.0174 -0.0311
 4443SOL    HW124962   3.651   3.567   9.522 -0.4355  0.0316  0.3013
 4443SOL    HW224963   3.769   3.501   9.578  0.6114  0.6205 -0.1881
 4444SOL     OW24964   2.238   4.590   5.411  0.0667 -0.2267 -0.3384
 4444SOL    HW124965   2.147   4.617   5.396 -0.4011 -1.1440  0.8421
 4444SOL    HW224966   2.234   4.495   5.399  1.1527 -0.3917  0.6126
 4445SOL     OW24967   2.563   4.182   7.276  0.1397 -0.2588 -0.2450
 4445SOL    HW124968   2.516   4.104   7.303 -0.4198  0.5419  1.1027
 4445SOL    HW224969   2.587   4.231   7.354  0.8919 -1.5155  0.3007
 4446SOL     OW24970   4.125   2.229  13.078  0.1998  0.6986  0.2221
 4446SOL    HW124971   4.047   2.265  13.037 -1.4882  0.0834  2.9110
 4446SOL    HW224972   4.107   2.209  13.170  1.4538 -1.7945 -0.0573
 4447SOL     OW24973   3.254   0.910   1.627  0.4088  0.0412 -0.0457
 4447SOL    HW124974   3.204   0.832   1.603 -2.3471  1.4662  1.0432
 4447SOL    HW224975   3.222   0.971   1.561  3.3413 -0.4311 -1.8618
 4448SOL     OW24976   1.858   1.109  11.210  0.2159 -0.1236 -0.1205
 4448SOL    HW124977   1.936   1.164  11.222 -0.7389  1.2280 -0.1330
 4448SOL    HW224978   1.797   1.167  11.256 -0.2573 -0.1272 -0.7447
 4449SOL     OW24979   1.232   2.557   3.879  0.3362 -0.0062  0.5895
 4449SOL    HW124980   1.326   2.538   3.882 -0.0493 -1.4706  3.7687
 4449SOL    HW224981   1.192   2.473   3.903 -0.5809  0.4021  0.5041
 4450SOL     OW24982   3.845   4.126  15.279 -0.3385 -0.0357  0.3321
 4450SOL    HW124983   3.778   4.058  15.288 -1.1677  0.4089 -2.6284
 4450SOL    HW224984   3.850   4.122  15.184 -1.6229  0.9134  0.2115
 4451SOL     OW24985   0.378   0.523  11.012  0.2962  0.0713 -0.1055
 4451SOL    HW124986   0.459   0.522  10.961  0.0770 -0.6524 -0.4278
 4451SOL    HW224987   0.336   0.437  11.009  0.2516  0.0789  0.3031
 4452SOL     OW24988   0.641   2.192  11.898 -0.2204 -0.0739  0.1268
 4452SOL    HW124989   0.606   2.269  11.942 -1.3671  0.1401 -1.1628
 4452SOL    HW224990   0.561   2.160  11.857  0.4115 -1.9478  0.3287
 4453SOL     OW24991   2.819   2.232   3.136 -0.2973 -0.0639  0.0866
 4453SOL    HW124992   2.737   2.188   3.155 -3.4070  5.0158 -1.3588
 4453SOL    HW224993   2.835   2.270   3.223 -0.9708 -1.1020  0.6552
 4454SOL     OW24994   4.319   3.100  13.745 -0.4727 -0.4114 -0.3666
 4454SOL    HW124995   4.360   3.092  13.832  2.6740 -0.7031 -1.8620
 4454SOL    HW224996   4.246   3.038  13.753 -0.2736 -0.2286  2.9427
 4455SOL     OW24997   2.735   4.318   4.142  0.0694  0.0321 -0.1157
 4455SOL    HW124998   2.735   4.363   4.226  0.4973 -0.1195 -0.0351
 4455SOL    HW224999   2.650   4.275   4.141  0.1988 -0.2000 -1.8084
 4456SOL     OW25000   3.966   0.963   9.391 -0.4236 -0.3546  0.1111
 4456SOL    HW125001   4.028   0.892   9.406  1.5438  1.4244  0.4700
 4456SOL    HW225002   3.890   0.931   9.439 -1.5931  0.2245 -1.3761
 4457SOL     OW25003   0.740   0.652   4.920  0.5239 -0.2450 -0.7954
 4457SOL    HW125004   0.755   0.745   4.934 -2.7766 -0.0228  1.1070
 4457SOL    HW225005   0.812   0.626   4.862 -0.4731 -1.0760 -1.6855
 4458SOL     OW25006   0.368   3.538   4.403 -0.0466  0.1718  0.0152
 4458SOL    HW125007   0.272   3.531   4.404  0.0912 -1.8829 -2.3049
 4458SOL    HW225008   0.386   3.632   4.407 -0.1778  0.1726  0.5466
 4459SOL     OW25009   4.182   2.762   5.708  0.5472 -0.0938  0.4601
 4459SOL    HW125010   4.236   2.799   5.639 -1.5251  0.2986 -0.9389
 4459SOL    HW225011   4.248   2.714   5.759  3.9416  0.2762 -3.5638
 4460SOL     OW25012   2.778   2.714   6.827  0.2249 -0.0045 -0.1145
 4460SOL    HW125013   2.714   2.751   6.766 -0.5745 -2.7847 -0.9367
 4460SOL    HW225014   2.790   2.626   6.793 -0.1568  0.5927 -1.7624
 4461SOL     OW25015   0.162   2.987   2.066  0.5419 -0.1897 -0.2212
 4461SOL    HW125016   0.095   2.955   2.126 -2.1389 -0.0896 -3.1881
 4461SOL    HW225017   0.231   3.009   2.130  1.2539  0.8775 -1.3570
 4462SOL     OW25018   1.018   1.432  11.704  1.2758  0.6661  0.4353
 4462SOL    HW125019   0.937   1.437  11.754  1.5160 -0.4481  0.9383
 4462SOL    HW225020   0.973   1.454  11.623  0.2302  0.3661  0.9425
 4463SOL     OW25021   4.141   2.397   7.688  1.0199 -0.3807 -0.0106
 4463SOL    HW125022   4.046   2.392   7.694  0.9598  0.4836 -0.2815
 4463SOL    HW225023   4.149   2.452   7.610  1.9780 -0.2534  0.1698
 4464SOL     OW25024   3.413   0.281   5.742 -0.4453  0.3637 -0.2640
 4464SOL    HW125025   3.361   0.295   5.663 -1.1576 -3.1560 -0.4069
 4464SOL    HW225026   3.504   0.285   5.714 -0.3128 -1.9324 -0.1261
 4465SOL     OW25027   4.223   3.307   4.860  0.1553  0.4986 -0.3409
 4465SOL    HW125028   4.218   3.377   4.795 -0.3642 -1.3684 -2.3042
 4465SOL    HW225029   4.162   3.244   4.822 -0.2857  2.1964 -2.4651
 4466SOL     OW25030   0.249   1.579   1.105 -0.2553 -0.1119 -0.2861
 4466SOL    HW125031   0.220   1.666   1.132  3.3518  0.6533  1.0568
 4466SOL    HW225032   0.333   1.615   1.080 -0.9549  1.8791  0.2099
 4467SOL     OW25033   3.718   2.555  15.548 -0.2183  0.7676 -0.3375
 4467SOL    HW125034   3.718   2.601  15.632  3.2990 -2.3615  1.3407
 4467SOL    HW225035   3.810   2.531  15.544 -0.5456 -0.9499  2.1029
 4468SOL     OW25036   1.593   0.964  12.427  0.1846 -0.8054  0.0509
 4468SOL    HW125037   1.658   0.894  12.425  2.0401  0.9929 -1.8826
 4468SOL    HW225038   1.566   0.954  12.519  0.5404  4.6623  0.7661
 4469SOL     OW25039   1.197   4.423   3.291 -0.5658 -0.5205 -0.1722
 4469SOL    HW125040   1.187   4.518   3.303 -1.2109 -0.7123  0.8524
 4469SOL    HW225041   1.162   4.406   3.204 -0.0143 -2.9792  0.0848
 4470SOL     OW25042   2.068   0.407  16.326 -0.0195  0.3629  0.2266
 4470SOL    HW125043   1.973   0.414  16.334  0.0141  0.3030  0.6788
 4470SOL    HW225044   2.087   0.497  16.350  0.9320  0.1930  0.1094
 4471SOL     OW25045   3.760   4.309  17.350 -0.1947  0.3214 -0.4248
 4471SOL    HW125046   3.820   4.266  17.290 -0.7500 -0.3926 -0.4635
 4471SOL    HW225047   3.807   4.391  17.364 -0.4593  0.4438 -0.2402
 4472SOL     OW25048   0.282   2.734  10.172  0.6300 -0.3045  0.5597
 4472SOL    HW125049   0.225   2.665  10.139  0.7565 -1.1898  2.2446
 4472SOL    HW225050   0.363   2.691  10.144  1.3152  1.8484 -0.8034
 4473SOL     OW25051   1.551   1.149   3.176 -1.1631  0.5936 -0.1365
 4473SOL    HW125052   1.522   1.067   3.135 -2.3294  1.4172 -0.9512
 4473SOL    HW225053   1.484   1.159   3.245 -0.1155 -1.1376  1.1358
 4474SOL     OW25054   2.985   4.202   7.958  0.1864 -0.3688  0.2158
 4474SOL    HW125055   3.024   4.217   8.044  2.3081  1.9548 -1.1510
 4474SOL    HW225056   2.928   4.279   7.956  0.5806 -0.0241  2.3345
 4475SOL     OW25057   2.167   3.671   4.808 -0.2656  0.4140 -0.1411
 4475SOL    HW125058   2.158   3.724   4.887  1.6564  0.4541  0.0582
 4475SOL    HW225059   2.093   3.694   4.751  0.8013  0.6929 -1.4319
 4476SOL     OW25060   3.395   2.826  11.230 -0.1768 -0.2068  0.2160
 4476SOL    HW125061   3.410   2.753  11.169 -0.0512  0.8936 -1.0551
 4476SOL    HW225062   3.300   2.824  11.243 -0.2191 -1.5235 -0.2786
 4477SOL     OW25063   3.590   1.567  10.413  0.2415 -0.2845 -0.0053
 4477SOL    HW125064   3.605   1.646  10.360 -0.6005 -0.7261 -0.8927
 4477SOL    HW225065   3.613   1.509  10.341 -2.0550 -0.2821 -0.7458
 4478SOL     OW25066   0.345   2.572   4.752  0.1146 -0.1407  0.1951
 4478SOL    HW125067   0.386   2.594   4.836  0.8946  0.5641 -0.3833
 4478SOL    HW225068   0.322   2.480   4.765  1.2794 -0.2526  1.4591
 4479SOL     OW25069   1.938   0.479   5.617  0.0450 -0.0283  0.3658
 4479SOL    HW125070   1.977   0.495   5.531  1.1203  1.6665  1.1854
 4479SOL    HW225071   1.875   0.551   5.626 -1.1350 -0.9580 -0.3222
 4480SOL     OW25072   2.629   3.007   2.590  0.0269 -0.3128  0.0462
 4480SOL    HW125073   2.590   3.035   2.508  0.8572  2.1194  0.4787
 4480SOL    HW225074   2.548   2.990   2.637 -0.9747  1.4524 -1.0684
 4481SOL     OW25075   0.607   1.633   3.344 -0.2662 -0.3684 -0.2869
 4481SOL    HW125076   0.699   1.634   3.372 -0.3043 -1.3168 -0.1253
 4481SOL    HW225077   0.610   1.548   3.299  0.7946 -0.4053 -0.1476
 4482SOL     OW25078   3.256   3.925   8.068  0.3432 -0.0193  0.1597
 4482SOL    HW125079   3.204   3.996   8.107  0.3465 -1.2999  2.4970
 4482SOL    HW225080   3.203   3.925   7.989 -1.4193 -3.1514  1.3202
 4483SOL     OW25081   2.725   2.974  10.410  0.2226 -0.3251  0.0162
 4483SOL    HW125082   2.738   2.911  10.339  1.3165  1.5964 -1.5029
 4483SOL    HW225083   2.750   2.926  10.488  2.8336  0.1890 -0.4983
 4484SOL     OW25084   3.645   0.922   6.670  0.3042  0.4376 -0.2406
 4484SOL    HW125085   3.693   0.842   6.645  1.6118  1.0273  0.3912
 4484SOL    HW225086   3.722   0.979   6.672  0.5218  0.1927 -1.5154
 4485SOL     OW25087   2.109   3.962  10.212  0.3082 -0.0436  0.2257
 4485SOL    HW125088   2.173   4.014  10.260  1.2007  1.7217 -2.9158
 4485SOL    HW225089   2.058   3.919  10.280 -1.7065  1.0844 -0.5812
 4486SOL     OW25090   4.069   1.835   8.452  0.1910  0.4422  0.7094
 4486SOL    HW125091   4.113   1.824   8.537 -2.4887 -0.6685  1.9640
 4486SOL    HW225092   4.105   1.764   8.400 -2.1404 -0.5559  0.4509
 4487SOL     OW25093   0.742   4.026  14.097  0.1018  0.0656 -0.1983
 4487SOL    HW125094   0.723   3.959  14.032 -1.0674  0.0594  0.1491
 4487SOL    HW225095   0.668   4.085  14.082  0.6882  0.8313 -0.1162
 4488SOL     OW25096   1.768   1.810   1.999 -0.0817 -0.0880  0.3689
 4488SOL    HW125097   1.773   1.892   1.950 -2.0537  0.2754  0.7664
 4488SOL    HW225098   1.716   1.758   1.938 -0.7220  3.2288 -1.8660
 4489SOL     OW25099   0.061   0.715   0.808 -0.2242  0.5130 -0.1304
 4489SOL    HW125100   4.726   0.753   0.757  1.8758  2.6987 -1.4658
 4489SOL    HW225101   0.012   0.659   0.868 -2.0975  0.2534 -1.8919
 4490SOL     OW25102   3.062   2.849  15.405  0.4306  0.2033  0.3482
 4490SOL    HW125103   3.070   2.942  15.384 -2.0199  0.4266  0.3531
 4490SOL    HW225104   3.142   2.808  15.372  0.7061  0.1485  1.0910
 4491SOL     OW25105   1.091   1.217   0.676 -0.0104 -0.5289  0.0736
 4491SOL    HW125106   1.080   1.258   0.590 -1.6778  1.6030  1.2947
 4491SOL    HW225107   1.074   1.127   0.651  0.3516 -0.9290  1.2815
 4492SOL     OW25108   2.024   4.138   3.260 -0.0613  0.6616  0.3082
 4492SOL    HW125109   1.998   4.220   3.218  1.8501  1.1358  0.0542
 4492SOL    HW225110   2.017   4.077   3.187  0.1284 -2.8449  3.2302
 4493SOL     OW25111   4.372   4.368   5.739 -0.5865 -0.1708  0.8873
 4493SOL    HW125112   4.390   4.449   5.691 -1.9738 -0.8870 -0.8514
 4493SOL    HW225113   4.387   4.389   5.831  1.3652 -1.2455  0.8028
 4494SOL     OW25114   2.439   3.521   8.342  0.5896  0.1071 -0.6360
 4494SOL    HW125115   2.371   3.572   8.387 -0.5708 -2.2018  0.2272
 4494SOL    HW225116   2.518   3.548   8.388 -2.2119 -1.5132  5.0322
 4495SOL     OW25117   3.874   3.165   8.477  0.0596  0.0893 -0.9060
 4495SOL    HW125118   3.933   3.144   8.405 -1.0021  0.0524 -1.7645
 4495SOL    HW225119   3.896   3.255   8.500  1.7709 -0.5270 -0.0859
 4496SOL     OW25120   0.823   2.359  14.963 -0.4613 -0.4433 -0.2134
 4496SOL    HW125121   0.843   2.389  15.052 -0.3421  0.1634 -0.4447
 4496SOL    HW225122   0.878   2.424  14.918 -2.0913  0.3810 -1.0133
 4497SOL     OW25123   3.826   3.978   2.707  0.1641 -0.6491  0.0971
 4497SOL    HW125124   3.780   3.970   2.623  2.6618 -1.3184 -1.2107
 4497SOL    HW225125   3.883   4.055   2.701  0.3397 -0.8993 -1.5691
 4498SOL     OW25126   2.533   3.047  12.992  0.0704 -0.1193 -0.4531
 4498SOL    HW125127   2.510   3.083  12.907  0.1480 -2.3097 -1.4127
 4498SOL    HW225128   2.523   2.957  12.960 -1.0038 -0.2249  0.1614
 4499SOL     OW25129   1.206   0.783   9.942  0.2987  0.1392  0.8863
 4499SOL    HW125130   1.269   0.712   9.935  2.9448  2.3980  1.4004
 4499SOL    HW225131   1.152   0.736  10.006  0.1331  0.7035  1.1722
 4500SOL     OW25132   2.638   2.336   2.763 -0.4236 -0.1902 -0.1281
 4500SOL    HW125133   2.667   2.253   2.801 -0.1922 -0.2951 -0.5353
 4500SOL    HW225134   2.546   2.340   2.792 -0.1438 -0.7668  0.8338
 4501SOL     OW25135   3.046   1.346   3.071 -0.5094 -0.1759 -0.2629
 4501SOL    HW125136   3.073   1.438   3.077  1.9525 -0.9280  0.2393
 4501SOL    HW225137   3.052   1.315   3.161  1.1145  3.4814  0.8850
 4502SOL     OW25138   3.678   4.362   7.131  0.3717 -0.2501 -0.9478
 4502SOL    HW125139   3.610   4.413   7.088  1.3727  0.3080 -1.8870
 4502SOL    HW225140   3.722   4.323   7.056  1.1987  1.3863 -1.3038
 4503SOL     OW25141   1.439   3.773   8.076  0.0893 -0.2872 -0.6020
 4503SOL    HW125142   1.474   3.694   8.116  1.7604  0.4770 -0.5293
 4503SOL    HW225143   1.348   3.744   8.080 -0.9120  2.9699  0.2878
 4504SOL     OW25144   0.821   4.418  16.665  0.0752 -0.0899  0.1913
 4504SOL    HW125145   0.729   4.401  16.647  0.0287 -0.7977  1.0874
 4504SOL    HW225146   0.823   4.511  16.643  1.1368 -0.0137  0.5848
 4505SOL     OW25147   1.210   0.933   8.482  0.1789 -0.0282 -0.2021
 4505SOL    HW125148   1.179   0.866   8.422  0.7722  0.0830 -0.6335
 4505SOL    HW225149   1.303   0.914   8.493  0.7586  0.9830 -3.4894
 4506SOL     OW25150   1.039   4.028  16.380  0.0474  0.1541  0.4216
 4506SOL    HW125151   0.997   4.106  16.417 -1.1828 -1.5610  2.5791
 4506SOL    HW225152   0.957   3.994  16.343 -0.0314  2.0122 -1.1417
 4507SOL     OW25153   2.229   0.695   5.347  0.4757 -0.4876 -0.3884
 4507SOL    HW125154   2.198   0.757   5.282 -1.7211  0.6284  1.7409
 4507SOL    HW225155   2.255   0.752   5.419 -0.7941 -1.5011  0.8880
 4508SOL     OW25156   3.634   1.931   4.181  0.0509 -0.3970  0.1673
 4508SOL    HW125157   3.625   1.957   4.273  1.3576  0.3261  0.0847
 4508SOL    HW225158   3.665   1.841   4.184 -0.1136 -0.5162 -1.5030
 4509SOL     OW25159   2.483   1.969  14.772 -0.1239  0.2623 -0.7752
 4509SOL    HW125160   2.512   1.928  14.853  0.7748  1.2327 -0.5965
 4509SOL    HW225161   2.569   1.961  14.729  0.3276 -2.9300  0.7729
 4510SOL     OW25162   4.412   2.732  11.300 -0.0226  0.1242  0.7460
 4510SOL    HW125163   4.391   2.743  11.393  0.2576 -0.5178  0.8827
 4510SOL    HW225164   4.436   2.640  11.307  2.1885  0.6722  0.5702
 4511SOL     OW25165   2.837   4.067  13.091 -0.2536 -0.8342 -0.0137
 4511SOL    HW125166   2.742   4.065  13.079 -0.5297  1.4898  1.7880
 4511SOL    HW225167   2.837   4.117  13.173  1.1687 -1.1761  0.1795
 4512SOL     OW25168   0.831   0.541   2.544 -0.3706 -0.1783 -0.4508
 4512SOL    HW125169   0.817   0.454   2.506 -0.3799  0.6958 -2.4657
 4512SOL    HW225170   0.888   0.522   2.619 -1.8958 -3.2762 -0.0586
 4513SOL     OW25171   1.914   4.385   3.572  0.4966  0.1744 -0.2233
 4513SOL    HW125172   1.918   4.357   3.664  1.4853 -0.5236 -0.4948
 4513SOL    HW225173   1.916   4.298   3.533 -1.1985 -0.6281  1.4962
 4514SOL     OW25174   2.200   0.017   6.063  0.0165  0.0324 -1.1682
 4514SOL    HW125175   2.238   0.008   5.976  0.8910 -1.6468 -0.6109
 4514SOL    HW225176   2.234   4.676   6.106  1.9374  2.2230  1.2648
 4515SOL     OW25177   3.312   1.794  16.249  0.7096 -0.3141  0.5966
 4515SOL    HW125178   3.238   1.838  16.289  1.3114 -1.1074  2.5599
 4515SOL    HW225179   3.270   1.713  16.220 -1.4508  1.0552 -0.0686
 4516SOL     OW25180   0.804   0.998   2.801  0.0625  0.3294  0.1152
 4516SOL    HW125181   0.860   1.021   2.875  0.2268 -2.0189  0.7232
 4516SOL    HW225182   0.731   1.060   2.808 -1.2080 -1.3125  1.4149
 4517SOL     OW25183   3.976   3.698   0.495 -0.2003 -0.1272 -0.4812
 4517SOL    HW125184   3.972   3.602   0.488 -0.6306  0.0360 -2.6336
 4517SOL    HW225185   4.071   3.712   0.491 -0.3191  0.7963  0.0144
 4518SOL     OW25186   4.474   1.905   9.321 -0.5288 -0.1440  0.2266
 4518SOL    HW125187   4.564   1.905   9.288  0.2854  0.3122  2.4715
 4518SOL    HW225188   4.445   1.822   9.283 -1.4691  0.2422  0.1011
 4519SOL     OW25189   1.817   3.865   3.519  0.1367  0.2824 -0.1422
 4519SOL    HW125190   1.757   3.852   3.446  0.1795 -0.7207  0.0009
 4519SOL    HW225191   1.837   3.775   3.547  0.7541 -0.4212 -2.8893
 4520SOL     OW25192   4.455   0.383  14.227  0.1519 -0.2773  0.4676
 4520SOL    HW125193   4.454   0.471  14.189  1.7270 -0.8487 -0.8638
 4520SOL    HW225194   4.362   0.376  14.250 -0.1104  1.4654 -0.0320
 4521SOL     OW25195   2.172   1.725  17.224  0.5023  0.0425 -0.5296
 4521SOL    HW125196   2.154   1.723  17.130  3.1622  1.2569 -1.0489
 4521SOL    HW225197   2.128   1.808  17.241  0.9451  0.1953 -0.1424
 4522SOL     OW25198   4.617   2.941   8.204 -0.2540  0.1166 -0.1988
 4522SOL    HW125199   4.683   2.958   8.271 -0.0844 -1.9248  0.1504
 4522SOL    HW225200   4.668   2.871   8.163  1.3550  0.7883  0.6560
 4523SOL     OW25201   2.594   1.180   8.436  0.4546 -0.6143  0.1920
 4523SOL    HW125202   2.547   1.107   8.477  0.8537  0.1795  2.0722
 4523SOL    HW225203   2.539   1.183   8.358 -0.3079  0.7808  0.7770
 4524SOL     OW25204   0.873   0.318   5.185  0.0672  0.1400  0.7387
 4524SOL    HW125205   0.818   0.240   5.190 -1.4130  0.9854 -2.4964
 4524SOL    HW225206   0.897   0.317   5.093  0.7093 -1.6505  0.9285
 4525SOL     OW25207   3.507   1.564   8.850  0.3191 -0.1215  0.0973
 4525SOL    HW125208   3.549   1.622   8.914  0.5948  0.2422 -0.4173
 4525SOL    HW225209   3.575   1.568   8.783  0.4018 -0.6669  0.1547
 4526SOL     OW25210   1.324   4.237   5.390  1.0054  0.2374 -0.0086
 4526SOL    HW125211   1.323   4.193   5.475  2.0167 -0.1068 -0.1810
 4526SOL    HW225212   1.339   4.329   5.412  1.2574 -0.0300  0.9482
 4527SOL     OW25213   4.289   3.176   2.153  0.0644  0.0107 -0.2285
 4527SOL    HW125214   4.245   3.246   2.202 -0.4286 -0.4509 -0.0100
 4527SOL    HW225215   4.368   3.222   2.123 -0.0138  1.0314  1.1284
 4528SOL     OW25216   1.139   0.940   3.487 -0.6867  0.1319 -0.5797
 4528SOL    HW125217   1.217   0.907   3.444 -0.3745  0.4533 -0.2653
 4528SOL    HW225218   1.146   0.898   3.572 -0.9005 -1.8556 -1.5515
 4529SOL     OW25219   1.336   1.255  10.479 -0.2276  0.3406 -0.5072
 4529SOL    HW125220   1.411   1.206  10.514  0.1104  0.6009 -0.8711
 4529SOL    HW225221   1.291   1.275  10.561  2.9406  1.1531  1.0434
 4530SOL     OW25222   0.992   3.667   6.228 -0.0602 -0.2859 -0.8825
 4530SOL    HW125223   1.003   3.600   6.295 -0.7392  1.9150  1.4510
 4530SOL    HW225224   0.944   3.614   6.164 -1.2879 -2.0701  1.5442
 4531SOL     OW25225   4.646   0.650   7.359 -0.3750  0.5984 -0.3643
 4531SOL    HW125226   4.705   0.636   7.432 -2.0104  0.2616  0.9043
 4531SOL    HW225227   4.592   0.722   7.393 -0.8752  0.6221 -1.1922
 4532SOL     OW25228   1.012   1.965   8.065 -0.4768 -0.0093  0.8742
 4532SOL    HW125229   1.103   1.958   8.035 -0.4187 -0.9481  1.2675
 4532SOL    HW225230   1.013   2.054   8.102  2.4548 -0.4919  1.9368
 4533SOL     OW25231   2.707   2.077   8.209  0.1397  0.0825 -0.0030
 4533SOL    HW125232   2.769   2.100   8.278 -1.3602 -2.6818  2.3099
 4533SOL    HW225233   2.732   2.134   8.137 -1.2485 -0.1146 -0.6526
 4534SOL     OW25234   0.452   3.460   6.372  0.5239 -0.8385  0.9007
 4534SOL    HW125235   0.360   3.476   6.390  0.7916  1.9353 -0.1526
 4534SOL    HW225236   0.448   3.385   6.312 -0.6665  0.7934 -1.0625
 4535SOL     OW25237   1.348   0.138   2.351  0.3593  0.3983  1.4626
 4535SOL    HW125238   1.376   0.219   2.394 -3.2443  1.4065  1.9186
 4535SOL    HW225239   1.338   0.075   2.423  0.2741 -1.2780  0.0023
 4536SOL     OW25240   2.755   3.465   6.765 -0.6325  0.7731 -0.0412
 4536SOL    HW125241   2.788   3.425   6.685  1.3202  1.2776  0.5252
 4536SOL    HW225242   2.767   3.557   6.745  0.7507  0.8065  0.9849
 4537SOL     OW25243   3.091   3.849  15.212  0.1372 -0.3415 -0.5190
 4537SOL    HW125244   3.132   3.935  15.222 -1.5235  0.3235  0.6127
 4537SOL    HW225245   3.174   3.802  15.205 -0.0650 -0.5488 -1.4757
 4538SOL     OW25246   1.558   4.348   4.669  0.0027 -0.2991  0.5640
 4538SOL    HW125247   1.470   4.318   4.646  1.3246 -2.8203 -1.2149
 4538SOL    HW225248   1.523   4.428   4.708  0.2014 -0.3829  0.9060
 4539SOL     OW25249   3.792   2.076  11.573 -0.1052  0.3953 -0.0121
 4539SOL    HW125250   3.744   2.069  11.656  3.0521  1.3248  1.9073
 4539SOL    HW225251   3.797   2.170  11.555  0.0665  0.3122 -0.3997
 4540SOL     OW25252   0.837   3.567   9.168  0.1780 -0.0346  0.0326
 4540SOL    HW125253   0.786   3.506   9.220  0.9491 -0.0956  0.7217
 4540SOL    HW225254   0.791   3.643   9.205  1.8576  0.3254  1.4125
 4541SOL     OW25255   0.797   0.499   3.207  0.1462  0.2993 -0.2531
 4541SOL    HW125256   0.823   0.426   3.151  1.2144  1.0773 -0.7811
 4541SOL    HW225257   0.871   0.559   3.213  1.1789 -1.1570  1.7698
 4542SOL     OW25258   4.016   1.039   2.143  0.9554 -0.1443  0.6566
 4542SOL    HW125259   4.082   0.971   2.158  0.4834 -0.4719  1.2657
 4542SOL    HW225260   3.974   1.041   2.229  0.1477 -1.5289  0.3017
 4543SOL     OW25261   3.864   3.972   1.860  0.9960 -0.0398  0.3539
 4543SOL    HW125262   3.856   3.972   1.955  0.8226  0.9688  0.3360
 4543SOL    HW225263   3.782   3.928   1.835  0.4733  0.8636  0.4808
 4544SOL     OW25264   1.292   4.245   4.545 -0.2922 -0.1259  0.3640
 4544SOL    HW125265   1.199   4.229   4.529 -0.2192 -0.8293  0.6562
 4544SOL    HW225266   1.326   4.206   4.464  2.0079 -0.7836  1.6519
 4545SOL     OW25267   3.600   3.322   8.602  0.3718 -0.1757  0.5822
 4545SOL    HW125268   3.534   3.264   8.639 -2.6522  1.6512 -1.9877
 4545SOL    HW225269   3.542   3.397   8.590 -1.6992 -1.8070  0.6032
 4546SOL     OW25270   0.110   3.513   6.804 -0.0929  0.1233  0.1358
 4546SOL    HW125271   0.082   3.541   6.891  1.4713 -0.3180  0.7707
 4546SOL    HW225272   0.076   3.583   6.748  1.3149  0.9918  0.3631
 4547SOL     OW25273   2.688   0.617  10.175 -0.2409  0.4952  0.6208
 4547SOL    HW125274   2.763   0.566  10.206 -0.9900 -0.7418  0.3863
 4547SOL    HW225275   2.622   0.584  10.237  0.2606 -1.5842  0.0583
 4548SOL     OW25276   1.570   3.704   7.412 -0.4519  0.2041  0.0930
 4548SOL    HW125277   1.609   3.791   7.400  1.7800 -0.3931  2.9274
 4548SOL    HW225278   1.483   3.731   7.443 -0.7187 -0.5713  0.0123
 4549SOL     OW25279   4.678   1.044  11.727 -0.3050 -0.0009  0.4566
 4549SOL    HW125280   4.600   0.995  11.751 -0.2834 -0.7993 -1.0882
 4549SOL    HW225281   4.702   1.079  11.813  1.5494  0.4608 -0.2453
 4550SOL     OW25282   1.951   2.737   3.925 -0.6951  0.1694  0.3246
 4550SOL    HW125283   1.959   2.690   3.842 -2.1492  0.8950 -0.2444
 4550SOL    HW225284   1.883   2.800   3.899 -0.4347  0.6032  0.6930
 4551SOL     OW25285   0.188   4.133   5.083 -0.7131  0.3795  0.0660
 4551SOL    HW125286   0.181   4.156   5.175  0.0855 -0.0987  0.2442
 4551SOL    HW225287   0.095   4.115   5.067 -0.6200 -0.4081  0.4349
 4552SOL     OW25288   3.873   0.827   1.486 -0.7956  0.1367 -0.2609
 4552SOL    HW125289   3.942   0.804   1.548  0.1653  0.7867 -1.0876
 4552SOL    HW225290   3.808   0.868   1.543  0.5098  1.3695  0.3520
 4553SOL     OW25291   0.572   2.457  17.705 -0.7413 -0.1873 -0.0202
 4553SOL    HW125292   0.477   2.463  17.715 -0.2104  3.3728  3.1586
 4553SOL    HW225293   0.605   2.534   0.006 -2.2359  1.0212 -0.9488
 4554SOL     OW25294   3.014   2.388  17.127 -0.1493 -0.1915 -0.3085
 4554SOL    HW125295   3.044   2.437  17.050 -2.1418  2.7845  0.8355
 4554SOL    HW225296   2.926   2.419  17.144 -1.3870 -1.8647 -3.6021
 4555SOL     OW25297   2.123   1.530  15.798  0.8227  0.2151 -0.1046
 4555SOL    HW125298   2.030   1.534  15.779  0.5317 -1.1696  0.9989
 4555SOL    HW225299   2.124   1.577  15.882  0.2568 -2.2800  1.3049
 4556SOL     OW25300   4.446   3.203   5.011 -0.0525  0.0533  0.3431
 4556SOL    HW125301   4.513   3.268   4.989  2.2760 -1.4186  2.9525
 4556SOL    HW225302   4.384   3.226   4.942  1.4313  0.2216 -0.9353
 4557SOL     OW25303   3.542   0.440  13.391  0.2007  0.0028  0.0016
 4557SOL    HW125304   3.460   0.394  13.410 -1.1109  2.3367 -0.0469
 4557SOL    HW225305   3.614   0.380  13.410 -1.8517 -2.3375  0.4224
 4558SOL     OW25306   4.680   4.268   3.665 -0.7710 -0.0216 -0.2318
 4558SOL    HW125307   4.593   4.307   3.673 -0.9149 -0.5594  0.7643
 4558SOL    HW225308   4.729   4.306   3.738  0.7974 -2.6813  0.0766
 4559SOL     OW25309   2.189   1.052   8.442 -0.8350 -0.0527 -0.0205
 4559SOL    HW125310   2.156   1.092   8.522  1.5219 -0.2994  1.0710
 4559SOL    HW225311   2.108   1.025   8.398 -1.1914 -0.0319  0.6235
 4560SOL     OW25312   0.318   1.814   4.637  0.2800 -0.1558 -0.0231
 4560SOL    HW125313   0.336   1.737   4.691 -0.5647 -0.1281  0.2952
 4560SOL    HW225314   0.269   1.871   4.695  1.5899  0.5270  0.4178
 4561SOL     OW25315   0.820   2.952   6.921 -0.4081 -0.1367 -0.2566
 4561SOL    HW125316   0.831   2.881   6.858  0.8798 -0.4977  0.3661
 4561SOL    HW225317   0.725   2.959   6.921 -0.2473  2.0189  0.5319
 4562SOL     OW25318   1.343   2.085   5.561 -0.1216 -0.1647  0.4641
 4562SOL    HW125319   1.386   2.011   5.519 -0.9169  0.7145 -1.8634
 4562SOL    HW225320   1.310   2.039   5.638  1.2155 -1.8844  0.0076
 4563SOL     OW25321   2.493   2.414   4.008  0.3427  0.0926  0.1042
 4563SOL    HW125322   2.399   2.423   4.026  0.5411  0.2094  1.0809
 4563SOL    HW225323   2.494   2.461   3.924 -1.8719  0.5708  0.3366
 4564SOL     OW25324   4.563   1.928  12.529  0.0990 -0.5255  0.0809
 4564SOL    HW125325   4.542   1.976  12.449  0.3370  1.3442  1.1403
 4564SOL    HW225326   4.477   1.893  12.554  0.0296 -0.2840  0.1823
 4565SOL     OW25327   1.450   1.024   6.715 -0.2120  0.1518 -0.6343
 4565SOL    HW125328   1.356   1.009   6.712 -0.6743  2.2972  2.7785
 4565SOL    HW225329   1.480   0.933   6.719 -1.3602 -0.2872 -1.7771
 4566SOL     OW25330   2.551   0.504   5.265  0.1053  0.2500  0.2015
 4566SOL    HW125331   2.644   0.484   5.275  0.3987  0.0341 -3.0191
 4566SOL    HW225332   2.556   0.558   5.187 -0.6348 -1.8614 -1.3060
 4567SOL     OW25333   0.524   2.637   8.995 -0.2050  0.0491  0.5993
 4567SOL    HW125334   0.503   2.703   8.928  2.3765 -0.7224 -0.9569
 4567SOL    HW225335   0.468   2.566   8.964 -0.0926 -0.0143  0.5407
 4568SOL     OW25336   4.415   3.400   5.862 -0.9201 -0.4449  0.4226
 4568SOL    HW125337   4.346   3.426   5.802  0.1414 -2.8701 -1.8364
 4568SOL    HW225338   4.365   3.335   5.911  0.7170 -0.7060  1.7729
 4569SOL     OW25339   3.764   0.423   1.745  0.2652 -0.6005  0.3225
 4569SOL    HW125340   3.681   0.469   1.757 -0.6150 -2.1763  0.2927
 4569SOL    HW225341   3.747   0.358   1.676  0.7311  1.2693 -1.5399
 4570SOL     OW25342   0.349   4.312   4.958  0.3673  0.5240  0.0787
 4570SOL    HW125343   0.413   4.320   5.029  0.7577 -0.6588 -0.1363
 4570SOL    HW225344   0.282   4.261   5.005 -1.3045  2.4749 -0.1831
 4571SOL     OW25345   1.021   1.682  13.100 -0.0589 -0.5054 -0.2334
 4571SOL    HW125346   0.980   1.727  13.026  3.6141 -1.3726 -2.7996
 4571SOL    HW225347   1.003   1.736  13.177 -3.5286 -1.6395 -0.2267
 4572SOL     OW25348   1.304   3.012   4.264  0.3214 -0.6790  0.0298
 4572SOL    HW125349   1.246   3.018   4.340  0.2169  0.0265 -0.1099
 4572SOL    HW225350   1.326   2.919   4.268  2.5642 -0.0920  1.2099
 4573SOL     OW25351   4.655   2.593   4.374 -0.1522 -0.0024 -0.6051
 4573SOL    HW125352   4.689   2.510   4.342  1.2880  0.6940 -0.8692
 4573SOL    HW225353   4.734   2.628   4.415  0.5331 -2.4071  0.0963
 4574SOL     OW25354   0.711   1.789   2.888 -0.3115 -0.2988 -1.0359
 4574SOL    HW125355   0.753   1.767   2.805 -0.2902 -1.7962 -0.6373
 4574SOL    HW225356   0.763   1.860   2.928  2.0383 -2.7504  0.3273
 4575SOL     OW25357   0.440   0.619  12.310 -0.1473 -0.6051  0.2048
 4575SOL    HW125358   0.489   0.626  12.227 -1.0289 -0.3863 -0.3002
 4575SOL    HW225359   0.512   0.592  12.367  2.4625  0.7452 -2.4032
 4576SOL     OW25360   0.615   0.694   7.539  0.2212  0.1683 -0.6560
 4576SOL    HW125361   0.591   0.722   7.627  0.4228  1.4173 -0.9986
 4576SOL    HW225362   0.614   0.599   7.548 -1.2091  0.0911 -1.5905
 4577SOL     OW25363   2.295   0.872   4.189  0.1621  0.2889 -0.0546
 4577SOL    HW125364   2.380   0.913   4.199 -0.6482  1.9098  0.1769
 4577SOL    HW225365   2.320   0.800   4.247  0.6538  1.4803  1.2244
 4578SOL     OW25366   2.885   3.574   3.644 -0.0960  0.2785  0.4174
 4578SOL    HW125367   2.966   3.586   3.595  0.7174  0.1617  1.7112
 4578SOL    HW225368   2.918   3.604   3.729  2.0335 -0.7295 -0.0507
 4579SOL     OW25369   0.136   3.025   1.782  0.3190  0.0882 -0.0248
 4579SOL    HW125370   0.229   3.043   1.770  0.5469 -1.3492 -0.4522
 4579SOL    HW225371   0.139   2.997   1.874 -1.2783 -0.4931 -0.1316
 4580SOL     OW25372   3.557   3.780   3.668 -0.5687 -0.1124  0.6105
 4580SOL    HW125373   3.630   3.787   3.729 -0.8349  1.0694  0.7952
 4580SOL    HW225374   3.598   3.733   3.595 -2.1059  1.2773 -1.1530
 4581SOL     OW25375   1.906   2.523   3.696 -0.1590  0.3119  0.1162
 4581SOL    HW125376   1.948   2.461   3.637 -0.5106 -0.2280  0.4338
 4581SOL    HW225377   1.861   2.463   3.755 -0.3334 -0.1493 -0.4909
 4582SOL     OW25378   4.061   0.609   1.133 -0.7007  0.0661  0.2136
 4582SOL    HW125379   4.133   0.611   1.071 -0.3615 -0.0631  0.6017
 4582SOL    HW225380   4.109   0.642   1.209 -0.7439  1.5813 -0.4062
 4583SOL     OW25381   4.566   1.094   5.003  0.0762 -0.0598 -0.0374
 4583SOL    HW125382   4.486   1.092   5.054  1.0950  0.4096  1.5838
 4583SOL    HW225383   4.574   1.187   4.981  1.7902  0.2323  1.8346
 4584SOL     OW25384   2.672   2.567  15.981  0.0940  0.5723  0.0143
 4584SOL    HW125385   2.646   2.477  15.963 -0.6675  0.9065 -0.6086
 4584SOL    HW225386   2.741   2.549  16.044  0.9796 -0.4248 -1.2619
 4585SOL     OW25387   0.995   1.465   5.481  0.2181 -0.0552  0.7663
 4585SOL    HW125388   1.030   1.552   5.460 -2.3979  1.4764  2.6365
 4585SOL    HW225389   0.968   1.476   5.572  0.3872 -1.6594  1.0009
 4586SOL     OW25390   1.202   2.451  13.593 -0.3956 -0.1509  0.5024
 4586SOL    HW125391   1.163   2.463  13.506 -1.1097 -0.3971  0.7981
 4586SOL    HW225392   1.133   2.425  13.654 -0.4580 -0.3903  0.3303
 4587SOL     OW25393   0.918   3.457   7.955  0.2543  0.0777 -0.3291
 4587SOL    HW125394   0.965   3.427   7.877 -0.2081 -1.7293  0.1049
 4587SOL    HW225395   0.825   3.459   7.933  0.9295 -1.3280 -3.3522
 4588SOL     OW25396   3.903   2.122   1.197  0.3638  0.2094 -0.0704
 4588SOL    HW125397   3.926   2.153   1.284 -2.3565 -2.4386  1.5875
 4588SOL    HW225398   3.863   2.202   1.164 -1.0458  0.8490  3.2914
 4589SOL     OW25399   1.106   1.703   5.461  0.1989  0.0862  0.0925
 4589SOL    HW125400   1.061   1.786   5.477  1.5861  0.7013  0.8095
 4589SOL    HW225401   1.166   1.738   5.396 -0.7973  0.9447 -0.3573
 4590SOL     OW25402   3.293   1.404  14.122 -0.3316 -0.6175 -0.4435
 4590SOL    HW125403   3.323   1.482  14.076 -1.0399  0.4706  0.9611
 4590SOL    HW225404   3.337   1.335  14.073 -0.5183  0.0824 -1.5901
 4591SOL     OW25405   3.177   4.574   2.301  0.0861 -0.3650  0.0091
 4591SOL    HW125406   3.201   4.647   2.244  2.2562  0.3470  1.8443
 4591SOL    HW225407   3.147   4.501   2.246  0.0587 -0.4848  0.1835
 4592SOL     OW25408   4.346   2.956   6.958  0.1578  0.6847 -0.1267
 4592SOL    HW125409   4.268   2.920   6.999  1.8921 -2.1360  0.6881
 4592SOL    HW225410   4.375   2.883   6.904  0.7391  0.7539  0.0835
 4593SOL     OW25411   2.179   1.248   0.083  0.1654 -0.2306  0.0718
 4593SOL    HW125412   2.216   1.331   0.115 -2.1459  0.3566  1.1808
 4593SOL    HW225413   2.207   1.256  17.738 -3.9954  4.0891 -0.7960
 4594SOL     OW25414   2.703   1.630   4.494 -0.0066 -0.5791 -0.4711
 4594SOL    HW125415   2.778   1.686   4.473  0.6003 -0.5612  1.7201
 4594SOL    HW225416   2.684   1.670   4.579  2.0087 -0.6040  0.0117
 4595SOL     OW25417   1.773   0.289   1.796  0.2085 -0.4883  0.1651
 4595SOL    HW125418   1.827   0.367   1.810 -1.2344  0.4707  0.4207
 4595SOL    HW225419   1.689   0.334   1.790  1.8012  2.3927 -0.6019
 4596SOL     OW25420   3.802   4.488   1.360 -0.5587  0.3004 -0.0771
 4596SOL    HW125421   3.874   4.454   1.307 -0.5855 -0.8000  0.5896
 4596SOL    HW225422   3.811   4.429   1.435 -0.8087  2.3034  1.5424
 4597SOL     OW25423   2.149   2.045   8.600  0.4875 -0.2910  0.2268
 4597SOL    HW125424   2.065   2.083   8.626 -0.8038 -1.4449 -2.2233
 4597SOL    HW225425   2.172   1.998   8.680 -0.8400  0.0753  0.8337
 4598SOL     OW25426   2.254   4.313   8.193 -0.2761 -0.6388  0.0244
 4598SOL    HW125427   2.246   4.233   8.246  2.3796 -0.7428  0.2580
 4598SOL    HW225428   2.208   4.368   8.257  0.2263 -0.9926  0.6874
 4599SOL     OW25429   1.431   4.028   8.794 -0.2757 -0.1700 -0.2739
 4599SOL    HW125430   1.518   3.994   8.776 -0.3896  0.5884 -2.3230
 4599SOL    HW225431   1.427   4.017   8.889 -0.7483 -1.6746 -0.4638
 4600SOL     OW25432   2.996   2.766  10.372 -0.6972 -0.4363  0.3374
 4600SOL    HW125433   2.905   2.751  10.347 -1.1785  2.4461  0.3339
 4600SOL    HW225434   3.031   2.681  10.349 -0.6150 -0.2370 -0.2654
 4601SOL     OW25435   3.640   2.597   3.196 -0.0480  0.2379 -0.0871
 4601SOL    HW125436   3.734   2.582   3.192 -0.3275 -1.6546  0.3806
 4601SOL    HW225437   3.621   2.589   3.102  0.9011  2.5551 -0.4649
 4602SOL     OW25438   0.650   1.399   2.784  0.1346  0.5067 -0.3747
 4602SOL    HW125439   0.630   1.309   2.758  0.1773  0.1396  0.8811
 4602SOL    HW225440   0.683   1.371   2.869 -0.5298 -1.7422 -0.8731
 4603SOL     OW25441   3.193   3.971   1.266  0.3187 -0.1001  0.1476
 4603SOL    HW125442   3.232   4.032   1.329 -0.5178 -1.1413  1.6972
 4603SOL    HW225443   3.112   4.020   1.252  1.6704  1.7081 -1.3221
 4604SOL     OW25444   3.616   0.581   6.713 -0.9393 -0.1418  0.1119
 4604SOL    HW125445   3.679   0.622   6.654 -1.5415 -0.4582 -0.7500
 4604SOL    HW225446   3.571   0.521   6.653  0.0265 -0.6085 -0.1571
 4605SOL     OW25447   2.071   1.172  13.804  0.0796 -0.2783  0.1978
 4605SOL    HW125448   2.165   1.167  13.785 -0.1769 -0.5707 -0.9742
 4605SOL    HW225449   2.036   1.243  13.752  1.2682  1.0608  1.2232
 4606SOL     OW25450   3.312   2.215  15.383 -0.4096  0.1850 -0.0710
 4606SOL    HW125451   3.337   2.295  15.337 -0.1554  0.5944  0.7767
 4606SOL    HW225452   3.378   2.211  15.453  1.2636 -0.5247 -1.6866
 4607SOL     OW25453   4.006   1.964  17.142  1.1003 -0.1289 -0.6170
 4607SOL    HW125454   4.057   2.043  17.159  2.7227 -1.2847 -0.2043
 4607SOL    HW225455   4.005   1.975  17.047 -0.1005  0.7700 -0.4998
 4608SOL     OW25456   4.059   0.655   5.647  0.0260  0.2201  0.8132
 4608SOL    HW125457   4.037   0.692   5.733  0.8615  1.9144  0.3072
 4608SOL    HW225458   4.154   0.659   5.654  0.1867 -0.9685 -0.7027
 4609SOL     OW25459   1.620   3.950  16.586 -0.7230 -0.7310  0.2826
 4609SOL    HW125460   1.620   3.923  16.494 -2.0108 -0.3352  0.1727
 4609SOL    HW225461   1.568   3.880  16.628 -0.5885 -0.1103  1.4763
 4610SOL     OW25462   0.891   4.368  13.268 -0.1381 -0.4516 -0.2648
 4610SOL    HW125463   0.958   4.307  13.299 -0.0482 -0.6509 -0.8386
 4610SOL    HW225464   0.852   4.395  13.351 -2.1894  1.5590 -1.8714
 4611SOL     OW25465   3.259   0.310   5.503  0.8441  0.4114  0.2877
 4611SOL    HW125466   3.209   0.256   5.441 -0.0935  2.0870 -0.4322
 4611SOL    HW225467   3.325   0.352   5.448  0.8577 -0.8879 -0.7116
 4612SOL     OW25468   1.082   2.985   8.835  0.3152 -0.1410  0.0433
 4612SOL    HW125469   1.058   2.907   8.885 -0.2306  0.2880  0.4654
 4612SOL    HW225470   1.134   2.947   8.765 -1.1420 -0.8809 -0.6485
 4613SOL     OW25471   2.945   3.590  12.827 -0.0508  0.2263  0.2988
 4613SOL    HW125472   2.991   3.671  12.806  0.7826 -0.6238 -1.1755
 4613SOL    HW225473   3.010   3.547  12.882 -0.7289 -1.8723 -0.5148
 4614SOL     OW25474   4.462   3.875   6.802  0.2483 -0.2416 -0.2249
 4614SOL    HW125475   4.427   3.856   6.715 -2.1566  2.1772  0.2064
 4614SOL    HW225476   4.380   3.866   6.850 -0.1522 -1.4265 -1.1307
 4615SOL     OW25477   4.255   3.393   7.378 -0.1143  0.1379  0.2939
 4615SOL    HW125478   4.296   3.400   7.292  3.7966  2.5801  2.3849
 4615SOL    HW225479   4.175   3.356   7.341  0.8967  0.1009 -1.8254
 4616SOL     OW25480   4.631   0.507   7.997 -0.2274  0.1860  0.0731
 4616SOL    HW125481   4.589   0.559   7.929  0.9555 -0.3797 -1.0864
 4616SOL    HW225482   4.696   0.468   7.939 -0.0561 -0.8300  0.9527
 4617SOL     OW25483   2.704   2.080   4.520  0.6317  0.0529 -0.1338
 4617SOL    HW125484   2.723   2.147   4.454 -0.6499  0.8472  0.3154
 4617SOL    HW225485   2.618   2.049   4.490  0.7776 -0.0070 -0.5013
 4618SOL     OW25486   2.770   0.885   1.329 -0.1167 -0.4825 -0.1461
 4618SOL    HW125487   2.710   0.927   1.267  0.6741  0.6209 -0.1650
 4618SOL    HW225488   2.807   0.823   1.266  0.9415 -0.0053  0.0219
 4619SOL     OW25489   2.416   0.881   7.939 -0.0088 -0.1109 -0.3386
 4619SOL    HW125490   2.439   0.902   8.029  0.2940 -0.3941 -0.3485
 4619SOL    HW225491   2.421   0.786   7.949  0.3428  0.2368  2.8036
 4620SOL     OW25492   3.481   4.513  11.065 -0.3169 -0.3189  0.2403
 4620SOL    HW125493   3.426   4.436  11.081 -1.1765  0.1161 -0.5815
 4620SOL    HW225494   3.465   4.551  11.151 -0.4396  0.8505 -0.2903
 4621SOL     OW25495   4.482   2.164   4.815  0.2477  0.2908 -0.1651
 4621SOL    HW125496   4.535   2.115   4.752  0.1608  0.3217 -0.2628
 4621SOL    HW225497   4.536   2.241   4.798  3.4709 -1.3574  2.7657
 4622SOL     OW25498   1.536   1.255   3.659  0.0134  0.1370  0.1858
 4622SOL    HW125499   1.443   1.243   3.676  0.9669 -2.9179  3.1626
 4622SOL    HW225500   1.528   1.350   3.656 -1.1716  0.0113 -0.5168
 4623SOL     OW25501   2.772   0.119   3.918 -0.2175  0.0429 -0.2582
 4623SOL    HW125502   2.720   0.136   3.997 -0.1708 -1.6517  0.1546
 4623SOL    HW225503   2.773   0.023   3.923 -0.8058  0.1314  1.3873
 4624SOL     OW25504   4.733   2.407   2.755 -1.2788  0.0420 -0.1878
 4624SOL    HW125505   4.734   2.406   2.850  0.5204  2.0456 -0.1873
 4624SOL    HW225506   0.020   2.499   2.741  0.9154 -0.4246  0.4810
 4625SOL     OW25507   1.837   3.966  14.438  0.0822  0.4762 -0.0130
 4625SOL    HW125508   1.863   3.956  14.347 -1.6526 -0.6057 -0.3877
 4625SOL    HW225509   1.891   3.900  14.482  1.1970  1.5918  0.2784
 4626SOL     OW25510   3.698   2.704   0.062  0.0895  0.1958 -0.4774
 4626SOL    HW125511   3.724   2.617   0.031  1.6522  1.0754 -1.5762
 4626SOL    HW225512   3.667   2.683   0.151 -1.2014  0.6711 -0.8208
 4627SOL     OW25513   0.218   0.524   9.697 -0.4858 -0.1152 -0.1455
 4627SOL    HW125514   0.170   0.453   9.656  0.9944 -0.9114 -0.4994
 4627SOL    HW225515   0.303   0.481   9.692 -1.0585 -1.2264 -0.1867
 4628SOL     OW25516   2.074   3.011  14.390  0.1009  0.2638  0.2230
 4628SOL    HW125517   2.081   2.916  14.386  0.4476  0.4831 -3.9299
 4628SOL    HW225518   2.099   3.037  14.301  0.3532  0.1056  0.2478
 4629SOL     OW25519   4.319   1.164   3.329  0.3636 -0.3113 -0.2641
 4629SOL    HW125520   4.314   1.250   3.286  0.9432 -0.3435 -0.3945
 4629SOL    HW225521   4.268   1.179   3.409  2.2887 -0.1971  0.9418
 4630SOL     OW25522   1.882   0.694   6.126 -0.3812  0.4785  0.0799
 4630SOL    HW125523   1.914   0.766   6.181 -1.2673 -0.8333  2.3086
 4630SOL    HW225524   1.910   0.610   6.163 -2.2374 -0.5370 -0.7901
 4631SOL     OW25525   2.780   4.077   1.790  0.0492 -0.4318  0.0733
 4631SOL    HW125526   2.694   4.115   1.769  0.3044  0.3641  0.4713
 4631SOL    HW225527   2.755   3.985   1.783 -0.4531 -0.3341  0.6445
 4632SOL     OW25528   1.253   0.765   4.166  0.3938  0.4827  0.0509
 4632SOL    HW125529   1.257   0.831   4.235 -2.1946 -1.0779  1.6975
 4632SOL    HW225530   1.168   0.724   4.179  1.0088 -1.7102 -2.7907
 4633SOL     OW25531   4.346   3.877   7.726 -0.1998  0.0170  0.0706
 4633SOL    HW125532   4.277   3.812   7.715  1.3205 -1.0782 -2.7538
 4633SOL    HW225533   4.319   3.929   7.803  3.2324  0.4076  1.0331
 4634SOL     OW25534   0.373   4.686   8.920  0.0350  0.8262 -0.3828
 4634SOL    HW125535   0.462   4.710   8.944  1.2619 -1.6206 -2.5428
 4634SOL    HW225536   0.322   4.721   8.993  0.1755  2.2236 -0.9465
 4635SOL     OW25537   4.220   1.352  10.589  0.6693  0.0639  0.1734
 4635SOL    HW125538   4.199   1.439  10.553 -2.5179 -0.5249  0.5877
 4635SOL    HW225539   4.311   1.375  10.610  0.5281  0.5197  0.3000
 4636SOL     OW25540   2.633   2.943   1.603 -0.2436  0.3630  0.0780
 4636SOL    HW125541   2.708   2.998   1.582 -0.4042  0.2747 -0.7562
 4636SOL    HW225542   2.669   2.855   1.597 -1.3013 -0.0862  0.3454
 4637SOL     OW25543   4.041   3.346   5.825 -0.0705 -0.2209 -0.3276
 4637SOL    HW125544   4.041   3.300   5.741  0.6516 -0.1453 -0.3722
 4637SOL    HW225545   3.964   3.303   5.862 -1.0330  2.2486  0.5388
 4638SOL     OW25546   1.382   1.622   8.270  1.0062 -0.1528  0.1418
 4638SOL    HW125547   1.381   1.590   8.180  1.7641  0.4642 -0.0933
 4638SOL    HW225548   1.475   1.643   8.282  0.4556  2.5458 -0.2800
 4639SOL     OW25549   2.876   2.430   5.673 -0.7127 -0.1618 -0.3941
 4639SOL    HW125550   2.948   2.485   5.644 -1.4022  1.2122  0.4920
 4639SOL    HW225551   2.929   2.357   5.706  0.1163  0.4738 -0.3139
 4640SOL     OW25552   3.056   4.546   4.210  0.6492 -0.0949 -0.0575
 4640SOL    HW125553   3.141   4.541   4.254 -0.1539 -1.9219  1.2918
 4640SOL    HW225554   3.017   4.474   4.259  1.7526 -1.2790 -0.9123
 4641SOL     OW25555   1.468   2.898   2.311 -0.0346  0.5432  0.3508
 4641SOL    HW125556   1.464   2.823   2.251  0.0072 -0.5980  1.7817
 4641SOL    HW225557   1.558   2.931   2.313  0.2701 -0.1381 -1.8583
 4642SOL     OW25558   3.898   2.092   5.300 -0.0556 -0.0412 -0.7574
 4642SOL    HW125559   3.957   2.084   5.225  1.0453 -0.2850  0.1411
 4642SOL    HW225560   3.861   2.176   5.270 -2.7496 -1.3692 -1.1613
 4643SOL     OW25561   0.883   1.623   5.206  0.5256  0.4217 -0.1066
 4643SOL    HW125562   0.970   1.641   5.240  0.6506 -1.2752  0.4563
 4643SOL    HW225563   0.893   1.538   5.164  1.8311 -0.2768  1.6351
 4644SOL     OW25564   1.176   0.558   5.054  0.2700  0.1136  0.2123
 4644SOL    HW125565   1.100   0.612   5.031  0.3340 -0.6286 -1.6877
 4644SOL    HW225566   1.214   0.551   4.967  1.7166  0.1384  0.8375
 4645SOL     OW25567   0.893   0.003   9.341  0.1329 -0.1481  0.1302
 4645SOL    HW125568   0.887   0.098   9.333  0.8702  0.0622  2.0390
 4645SOL    HW225569   0.948   4.725   9.264 -1.0780  1.7431 -1.1038
 4646SOL     OW25570   4.298   4.004  17.430 -0.3160  0.5486  0.6434
 4646SOL    HW125571   4.339   3.920  17.411 -0.2698  0.9058 -0.7839
 4646SOL    HW225572   4.274   4.047  17.348 -0.7270  1.4233  1.2178
 4647SOL     OW25573   0.941   1.648   7.600 -0.3523  0.2940 -0.1201
 4647SOL    HW125574   0.995   1.726   7.617  0.1853 -0.5854  2.1587
 4647SOL    HW225575   0.914   1.604   7.680 -0.7705  0.4619 -0.1714
 4648SOL     OW25576   1.637   3.767   2.672 -0.2074  0.4865 -0.1830
 4648SOL    HW125577   1.685   3.840   2.633  0.8022  0.3335  0.7681
 4648SOL    HW225578   1.709   3.705   2.685  0.2761  1.3427  1.2622
 4649SOL     OW25579   0.321   0.185   4.728  0.2802 -0.1836  0.7607
 4649SOL    HW125580   0.244   0.217   4.680 -0.3963  0.8900  2.5693
 4649SOL    HW225581   0.338   0.096   4.698 -0.2637 -0.5317  1.5113
 4650SOL     OW25582   4.221   0.668   3.549 -0.4007 -0.1721  0.4258
 4650SOL    HW125583   4.273   0.674   3.469 -0.2133 -0.7636  0.5025
 4650SOL    HW225584   4.287   0.676   3.618  2.0277  1.8066 -2.1224
 4651SOL     OW25585   3.192   2.725  10.105  0.2295  0.0211  0.2916
 4651SOL    HW125586   3.273   2.767  10.077  0.2859  1.2848  2.3882
 4651SOL    HW225587   3.198   2.646  10.051  0.5011 -0.3987  0.9464
 4652SOL     OW25588   4.188   0.116   7.463 -0.0056  0.7700 -0.3059
 4652SOL    HW125589   4.139   0.099   7.382 -1.8155 -1.3469  1.2346
 4652SOL    HW225590   4.128   0.170   7.515 -0.2220  0.7073 -0.4901
 4653SOL     OW25591   0.943   0.857   7.550  0.0390 -0.5709  0.0369
 4653SOL    HW125592   0.923   0.798   7.478  0.6367 -0.7538  0.0216
 4653SOL    HW225593   0.905   0.812   7.626 -1.2493  2.2154  1.0500
 4654SOL     OW25594   4.087   3.168   1.948  0.6843 -0.1831  0.1025
 4654SOL    HW125595   4.047   3.081   1.944  1.0757 -0.4017  0.8149
 4654SOL    HW225596   4.173   3.151   1.986  1.0321 -0.8671 -0.9937
 4655SOL     OW25597   0.002   3.147   2.331 -0.3164  0.0936 -0.4159
 4655SOL    HW125598   4.733   3.155   2.236  0.8704 -2.1480 -0.6822
 4655SOL    HW225599   4.680   3.211   2.370  0.7032 -0.3659  1.8939
 4656SOL     OW25600   0.890   1.986   3.874  0.7568  0.0096 -0.4484
 4656SOL    HW125601   0.853   1.903   3.846 -1.5320  1.0992 -0.6413
 4656SOL    HW225602   0.980   1.975   3.843  1.1471 -0.8222  0.9817
 4657SOL     OW25603   0.146   4.590  13.644 -0.0575  0.3313 -0.1032
 4657SOL    HW125604   0.223   4.534  13.641  0.7273  1.4204 -0.0482
 4657SOL    HW225605   0.132   4.595  13.739 -0.7929 -1.6914 -0.1043
 4658SOL     OW25606   4.203   0.453  13.759  0.5146 -0.3838 -0.0912
 4658SOL    HW125607   4.263   0.413  13.822  0.0274  1.3058  1.4386
 4658SOL    HW225608   4.139   0.505  13.808 -1.2554 -1.2547 -1.4586
 4659SOL     OW25609   2.195   4.460  15.745 -0.2159 -0.2262  0.3253
 4659SOL    HW125610   2.229   4.401  15.677  3.2578 -0.4916  2.2666
 4659SOL    HW225611   2.133   4.517  15.699 -1.7477 -0.2687  2.3717
 4660SOL     OW25612   1.564   2.584   8.594  0.1250 -0.0977  0.0410
 4660SOL    HW125613   1.495   2.585   8.528 -1.3784 -0.2135  1.6174
 4660SOL    HW225614   1.509   2.630   8.657 -0.3328 -0.3028 -0.2130
 4661SOL     OW25615   0.331   3.582   5.072  0.2673  0.4296 -0.0066
 4661SOL    HW125616   0.237   3.595   5.084  0.0554 -0.0102 -1.1813
 4661SOL    HW225617   0.362   3.622   5.153  0.3314 -0.1574  0.2558
 4662SOL     OW25618   0.119   0.887  10.252  0.5593  0.4507 -0.0866
 4662SOL    HW125619   0.064   0.853  10.323  1.0134 -0.8446 -0.3394
 4662SOL    HW225620   0.183   0.938  10.301  0.6118  0.5747 -0.2847
 4663SOL     OW25621   2.693   3.805   0.516  0.0279  0.5378  0.6636
 4663SOL    HW125622   2.662   3.881   0.567  0.4123  2.3538 -1.8155
 4663SOL    HW225623   2.645   3.742   0.570 -1.1532  0.8120 -0.0771
 4664SOL     OW25624   3.565   0.044  15.055  0.1920  0.2828  0.7749
 4664SOL    HW125625   3.607   0.026  15.139  0.8646  0.3361  0.4489
 4664SOL    HW225626   3.474   0.051  15.086  0.8413  0.7995  2.5312
 4665SOL     OW25627   1.263   1.636  17.500  0.3849 -0.0721  0.2519
 4665SOL    HW125628   1.296   1.607  17.585 -0.7517  0.1073  0.7549
 4665SOL    HW225629   1.211   1.560  17.474  1.0638  0.3228 -2.3050
 4666SOL     OW25630   3.521   0.133   5.992  0.1142  0.0995 -0.3040
 4666SOL    HW125631   3.492   0.221   5.965  0.7243  0.3159 -0.2575
 4666SOL    HW225632   3.557   0.107   5.907  1.8943  0.5399  0.3296
 4667SOL     OW25633   1.170   2.441  15.239 -0.1722 -0.1051  0.1947
 4667SOL    HW125634   1.207   2.383  15.172 -1.6618 -0.3432 -0.4273
 4667SOL    HW225635   1.108   2.381  15.281  1.3572 -3.0224 -1.7342
 4668SOL     OW25636   2.500   3.910   8.407  0.2471  0.1761 -0.1131
 4668SOL    HW125637   2.533   3.861   8.482 -2.6517  1.3073  1.8785
 4668SOL    HW225638   2.580   3.958   8.384  1.3952 -0.3549  2.8296
 4669SOL     OW25639   0.454   3.191   3.692  0.2491 -0.0251  0.4542
 4669SOL    HW125640   0.397   3.149   3.757  1.8815 -1.3686  1.0245
 4669SOL    HW225641   0.530   3.133   3.687 -1.1569 -1.9020  0.8881
 4670SOL     OW25642   4.176   4.263   5.600 -0.1173  0.0302 -0.0442
 4670SOL    HW125643   4.227   4.289   5.677  0.9438 -0.9000 -0.4266
 4670SOL    HW225644   4.233   4.311   5.541  1.2385 -0.5379  0.8033
 4671SOL     OW25645   2.429   2.642   6.821 -0.1474 -0.4355 -0.1133
 4671SOL    HW125646   2.392   2.561   6.788 -1.5137  0.5352 -0.9599
 4671SOL    HW225647   2.399   2.639   6.912  0.1633 -0.0343  0.0031
 4672SOL     OW25648   1.247   2.853   3.499 -0.6031  0.5267 -0.2117
 4672SOL    HW125649   1.340   2.863   3.482 -0.4806  0.8570  0.6176
 4672SOL    HW225650   1.231   2.880   3.590  0.4334  2.0173 -0.4806
 4673SOL     OW25651   0.196   1.048   1.664  0.5119 -0.4372 -0.1169
 4673SOL    HW125652   0.180   1.020   1.754  0.7052 -1.4715 -0.4059
 4673SOL    HW225653   0.258   1.120   1.675 -1.4548  1.1907  0.3012
 4674SOL     OW25654   0.557   3.165  15.939  0.2708 -0.1424 -0.1665
 4674SOL    HW125655   0.517   3.230  15.882  0.6175 -0.4953 -0.8145
 4674SOL    HW225656   0.650   3.186  15.926 -0.0232  1.4937  0.3193
 4675SOL     OW25657   0.071   1.919   5.333 -0.2762  0.0811  0.6704
 4675SOL    HW125658   0.035   1.898   5.420 -3.0799  0.9854 -0.2523
 4675SOL    HW225659   0.111   2.003   5.355  0.0613 -0.3943  1.8922
 4676SOL     OW25660   4.703   1.976   9.172 -0.0989 -0.2493 -0.2410
 4676SOL    HW125661   0.038   1.918   9.198  0.4537 -0.3197 -1.9120
 4676SOL    HW225662   0.019   2.054   9.155  0.1805 -0.1302  1.2280
 4677SOL     OW25663   2.999   0.843  10.443 -0.1062  0.2815  0.4144
 4677SOL    HW125664   2.906   0.838  10.421  0.1990 -1.4957 -0.4609
 4677SOL    HW225665   3.039   0.857  10.357  2.0584 -2.8758  0.8991
 4678SOL     OW25666   3.792   1.314   0.662 -0.5432 -0.5745  0.7460
 4678SOL    HW125667   3.712   1.362   0.640 -0.7039  0.0712  2.7767
 4678SOL    HW225668   3.755   1.256   0.729 -2.1585  2.3452  2.3760
 4679SOL     OW25669   3.188   0.050   8.874 -0.1185  0.1206  0.2955
 4679SOL    HW125670   3.174   0.063   8.967 -1.7529 -0.7458  0.1556
 4679SOL    HW225671   3.182   4.693   8.861 -0.5699  0.2148 -0.1707
 4680SOL     OW25672   1.495   3.797   1.781 -0.3080  0.9188 -0.5815
 4680SOL    HW125673   1.445   3.839   1.711 -0.8694  0.9770 -0.1386
 4680SOL    HW225674   1.506   3.875   1.835 -2.2271  1.2005 -0.6092
 4681SOL     OW25675   3.011   4.174   2.608 -0.2672 -0.8468  0.2345
 4681SOL    HW125676   3.068   4.097   2.609 -1.3240 -1.5874  2.0039
 4681SOL    HW225677   3.001   4.202   2.517  2.1965 -1.8543 -0.3397
 4682SOL     OW25678   4.671   0.376   4.850 -0.4942 -0.0252 -0.4285
 4682SOL    HW125679   4.623   0.459   4.845  0.5796  0.6642  0.7611
 4682SOL    HW225680   4.726   0.392   4.926  0.4105 -1.1765 -0.8489
 4683SOL     OW25681   2.836   3.765   7.032  0.1442  0.3161  0.0164
 4683SOL    HW125682   2.763   3.709   7.059  0.6398  0.3678  1.4450
 4683SOL    HW225683   2.890   3.708   6.978 -0.3627 -0.1931  0.0471
 4684SOL     OW25684   4.550   1.350   6.881 -0.2454 -0.7534 -0.0008
 4684SOL    HW125685   4.533   1.394   6.964 -2.5294  1.8076 -1.8225
 4684SOL    HW225686   4.519   1.416   6.819  1.2978  1.1217  1.2480
 4685SOL     OW25687   0.967   3.268   4.711  0.1952 -0.3681 -0.3846
 4685SOL    HW125688   1.032   3.331   4.681 -0.9367 -0.2942 -2.6365
 4685SOL    HW225689   0.902   3.318   4.761 -0.0855 -1.4370  0.3406
 4686SOL     OW25690   0.407   3.816   7.269  0.0402  0.0494  0.3499
 4686SOL    HW125691   0.456   3.832   7.350  0.0491  1.0587  0.1458
 4686SOL    HW225692   0.396   3.722   7.285 -1.0623  0.1966  0.4548
 4687SOL     OW25693   2.599   2.197  16.374 -0.1643 -0.4747 -0.0217
 4687SOL    HW125694   2.640   2.281  16.396 -0.3208  0.0238 -1.6356
 4687SOL    HW225695   2.631   2.184  16.285  0.7250 -1.8912  0.5204
 4688SOL     OW25696   2.731   2.546   4.974 -0.1115 -0.4035  0.1016
 4688SOL    HW125697   2.734   2.641   4.985  0.2145 -0.3987 -0.0524
 4688SOL    HW225698   2.636   2.534   4.979 -0.3033  0.1163 -2.0676
 4689SOL     OW25699   1.113   2.040   8.369 -0.6661  0.3278  0.4327
 4689SOL    HW125700   1.064   1.977   8.422  0.2237  0.0867  0.9624
 4689SOL    HW225701   1.049   2.108   8.348 -1.0925 -0.4699 -0.8869
 4690SOL     OW25702   0.193   3.074   9.820  0.1175 -0.3668  0.0454
 4690SOL    HW125703   0.247   3.025   9.882 -0.2189 -1.4235 -0.4899
 4690SOL    HW225704   0.106   3.039   9.840 -0.7030  0.9688 -1.2062
 4691SOL     OW25705   2.521   0.683   2.610 -0.1004 -0.4250  0.2310
 4691SOL    HW125706   2.579   0.612   2.584  0.1332  0.4216 -1.6138
 4691SOL    HW225707   2.571   0.719   2.683 -2.4451  0.5496  1.3660
 4692SOL     OW25708   3.830   4.298   8.883  0.0111  0.3572 -0.0289
 4692SOL    HW125709   3.784   4.380   8.899 -1.7378 -0.9633  1.7496
 4692SOL    HW225710   3.913   4.303   8.931  0.6046 -1.8664 -0.8022
 4693SOL     OW25711   3.590   3.647   8.479  0.1212 -0.1544  0.0103
 4693SOL    HW125712   3.635   3.646   8.564  4.3698 -3.2314 -2.2438
 4693SOL    HW225713   3.612   3.729   8.436  0.6979 -0.7870 -0.9062
 4694SOL     OW25714   3.066   4.515  12.464  0.3680  0.1861 -0.1904
 4694SOL    HW125715   3.122   4.592  12.476 -1.9821  1.8188  0.2480
 4694SOL    HW225716   2.985   4.565  12.471 -0.0033 -0.2397 -1.3723
 4695SOL     OW25717   0.489   1.433   4.212  0.3676  0.0372 -0.2591
 4695SOL    HW125718   0.572   1.420   4.257 -0.5407 -0.4152  1.2932
 4695SOL    HW225719   0.476   1.524   4.241  0.2203 -0.5642  1.5515
 4696SOL     OW25720   2.814   2.369   0.695  0.3403 -0.2437  0.3644
 4696SOL    HW125721   2.847   2.283   0.722 -0.2514 -1.1207 -1.7406
 4696SOL    HW225722   2.898   2.400   0.661  0.2409 -1.4804 -1.0393
 4697SOL     OW25723   3.406   2.447  15.186 -0.1435  0.6587  0.6829
 4697SOL    HW125724   3.332   2.460  15.246 -0.3052  0.0811  0.6088
 4697SOL    HW225725   3.406   2.527  15.134 -0.0794  1.7947  2.4163
 4698SOL     OW25726   4.506   1.915   3.910  0.2529  0.8388 -0.5636
 4698SOL    HW125727   4.506   1.965   3.991  0.9317  0.7456 -0.5027
 4698SOL    HW225728   4.600   1.925   3.895  0.7014 -0.6756  1.2285
 4699SOL     OW25729   0.040   1.870   9.774  0.5513  0.4360 -0.1952
 4699SOL    HW125730   4.695   1.918   9.764 -0.3785 -1.2181 -0.5275
 4699SOL    HW225731   0.039   1.846   9.866 -1.0332  0.9222 -0.0767
 4700SOL     OW25732   3.541   0.200   6.770  0.7003  0.2792  0.3582
 4700SOL    HW125733   3.466   0.257   6.788  0.7671  0.4425  0.1126
 4700SOL    HW225734   3.591   0.216   6.850  0.3091  0.1956  0.6197
 4701SOL     OW25735   4.410   1.542  10.446  0.8017 -0.2361 -0.2824
 4701SOL    HW125736   4.459   1.544  10.528  2.3317 -2.8468 -1.1342
 4701SOL    HW225737   4.474   1.529  10.376  1.1131  0.8324 -0.1883
 4702SOL     OW25738   2.773   4.194   9.355  0.0617 -0.4210 -0.5267
 4702SOL    HW125739   2.720   4.180   9.277 -0.6709  0.5521 -0.2094
 4702SOL    HW225740   2.855   4.159   9.320  1.0067  1.1084  0.1469
 4703SOL     OW25741   2.117   3.897  10.586 -0.2638  0.2528  0.0625
 4703SOL    HW125742   2.177   3.955  10.538 -0.8521 -0.2262 -1.2598
 4703SOL    HW225743   2.144   3.807  10.566 -1.8145 -0.5001  1.3279
 4704SOL     OW25744   2.129   0.607   2.112  0.0525 -0.5039 -0.2632
 4704SOL    HW125745   2.065   0.541   2.084 -1.4897  0.1247  1.7380
 4704SOL    HW225746   2.081   0.664   2.172 -0.7387  0.5726 -1.9234
 4705SOL     OW25747   2.226   4.326   4.209  0.7698  0.1945 -0.3240
 4705SOL    HW125748   2.183   4.266   4.270  0.6025  0.2495 -0.3879
 4705SOL    HW225749   2.150   4.348   4.155 -1.5610 -1.1423  2.4291
 4706SOL     OW25750   4.498   3.190   6.964 -0.8432  0.1001  0.3637
 4706SOL    HW125751   4.438   3.256   6.929 -0.7755  0.5946  1.1824
 4706SOL    HW225752   4.447   3.110   6.949 -2.3005  1.0019  0.5352
 4707SOL     OW25753   4.173   1.959   8.924 -0.0476  0.6566  0.1485
 4707SOL    HW125754   4.188   1.968   9.018 -1.2258  2.7317  0.1168
 4707SOL    HW225755   4.082   1.930   8.927  1.0799 -2.8648  1.0623
 4708SOL     OW25756   3.698   2.670   7.075 -0.6181 -0.1697  0.3784
 4708SOL    HW125757   3.654   2.746   7.113  1.9119  1.3909  0.2392
 4708SOL    HW225758   3.619   2.647   7.026  0.2302  3.9784 -2.9072
 4709SOL     OW25759   2.100   1.600   5.216  0.4390 -0.3683 -0.5095
 4709SOL    HW125760   2.060   1.686   5.216  1.9312  0.3242 -0.8007
 4709SOL    HW225761   2.191   1.625   5.232 -0.4994 -0.0892  4.5045
 4710SOL     OW25762   2.281   3.810   5.807 -0.0004  0.4599  0.3594
 4710SOL    HW125763   2.213   3.744   5.808  0.6152 -0.2025 -1.1636
 4710SOL    HW225764   2.356   3.764   5.845  0.6953  0.4965 -0.9494
 4711SOL     OW25765   4.275   3.993   3.021 -0.6667  0.1454  0.3556
 4711SOL    HW125766   4.212   4.043   3.072 -0.2487  1.3692 -0.3381
 4711SOL    HW225767   4.266   3.905   3.058 -2.1799  0.4133  0.6330
 4712SOL     OW25768   0.043   0.904   2.178  0.2367  0.5589  0.7312
 4712SOL    HW125769   4.730   0.836   2.223 -0.1108  0.3089 -0.0368
 4712SOL    HW225770   0.105   0.940   2.242 -0.1334  0.2038  1.2877
 4713SOL     OW25771   0.203   1.954   7.027 -0.0698 -0.0460 -0.1497
 4713SOL    HW125772   0.172   1.893   6.960 -0.7214 -1.9954  1.9830
 4713SOL    HW225773   0.287   1.972   6.983  1.0958 -0.9423  1.7026
 4714SOL     OW25774   0.261   0.910  14.873 -0.1249 -0.2381  0.3077
 4714SOL    HW125775   0.243   0.982  14.933  0.9648  0.0641  0.2736
 4714SOL    HW225776   0.357   0.910  14.868 -0.0536  1.3910  1.5381
 4715SOL     OW25777   3.506   2.790   6.455 -0.2797  0.2533  0.6713
 4715SOL    HW125778   3.590   2.752   6.479  0.3272  0.9851 -0.2914
 4715SOL    HW225779   3.526   2.840   6.376 -2.4695 -0.2737 -0.2263
 4716SOL     OW25780   4.517   2.342   3.575 -0.0579  0.1325 -0.5370
 4716SOL    HW125781   4.602   2.368   3.611 -0.3082 -0.4752  0.5109
 4716SOL    HW225782   4.469   2.414   3.616 -0.2443  0.2096 -0.8949
 4717SOL     OW25783   4.053   0.942   8.530  0.1344 -0.5510  0.2681
 4717SOL    HW125784   4.135   0.984   8.504  0.2459 -1.5150 -0.9197
 4717SOL    HW225785   3.986   0.992   8.483  0.0885  0.5170  1.4387
 4718SOL     OW25786   2.263   2.161  10.967  0.4516  0.1865  0.2392
 4718SOL    HW125787   2.317   2.088  10.996  0.2608 -0.4941 -1.1239
 4718SOL    HW225788   2.174   2.125  10.968 -0.4426  2.3174 -0.4551
 4719SOL     OW25789   4.640   2.850   2.743 -0.8350  0.3069  0.5877
 4719SOL    HW125790   4.640   2.909   2.667  1.1303 -0.2672  0.1469
 4719SOL    HW225791   4.565   2.888   2.788  0.0707 -1.0943  3.3225
 4720SOL     OW25792   2.144   1.813   1.849 -0.8224  0.7092 -0.1218
 4720SOL    HW125793   2.206   1.863   1.903  0.5169 -0.5256 -0.5238
 4720SOL    HW225794   2.188   1.729   1.853 -1.0361  0.6137  0.2285
 4721SOL     OW25795   0.445   0.420   5.147 -0.4223  0.4244  0.1616
 4721SOL    HW125796   0.497   0.499   5.161  0.9826 -0.9214  2.4958
 4721SOL    HW225797   0.366   0.433   5.200 -1.5344 -2.4769 -0.7995
 4722SOL     OW25798   1.501   4.005   6.759  0.0677 -0.2360  0.4516
 4722SOL    HW125799   1.499   4.077   6.697  0.9740 -1.2487 -0.7481
 4722SOL    HW225800   1.474   4.045   6.842 -0.1823 -1.0921  0.7832
 4723SOL     OW25801   3.873   2.925  15.601 -0.0360 -0.0443  0.7816
 4723SOL    HW125802   3.871   2.981  15.524  0.0634 -1.1019  0.0133
 4723SOL    HW225803   3.937   2.859  15.575  0.4526  0.2572  1.2215
 4724SOL     OW25804   1.199   1.841  15.768 -0.1798  0.1855  0.7302
 4724SOL    HW125805   1.134   1.775  15.792  0.6169 -0.6537  0.5936
 4724SOL    HW225806   1.249   1.847  15.849  0.8486  2.0110 -0.0256
 4725SOL     OW25807   0.629   1.580   6.532  0.3459  0.1991 -0.4346
 4725SOL    HW125808   0.665   1.616   6.613 -2.0505 -0.6424  1.0105
 4725SOL    HW225809   0.573   1.656   6.518  1.1897  0.7213 -0.9464
 4726SOL     OW25810   1.884   1.337   8.542  0.4153  1.0141 -0.4295
 4726SOL    HW125811   1.868   1.385   8.624 -1.8880 -0.2414 -0.1467
 4726SOL    HW225812   1.847   1.403   8.483  0.1144  2.4775  1.3692
 4727SOL     OW25813   2.449   0.899   8.212  0.4983 -0.1997  0.2430
 4727SOL    HW125814   2.410   0.861   8.291 -0.7037  1.1346  0.2764
 4727SOL    HW225815   2.434   0.992   8.223  0.0073 -0.2524  0.0064
 4728SOL     OW25816   0.284   4.381   7.684 -0.3394  0.4320  0.2955
 4728SOL    HW125817   0.247   4.349   7.601  1.1005 -3.9433  1.3646
 4728SOL    HW225818   0.377   4.376   7.666 -0.3873 -2.2980  0.8820
 4729SOL     OW25819   4.152   0.079   9.354 -0.2696  0.5411  0.3901
 4729SOL    HW125820   4.091   0.040   9.291 -0.9328  0.2884  1.1769
 4729SOL    HW225821   4.105   0.076   9.438  0.9230 -1.7148  0.9797
 4730SOL     OW25822   3.951   0.227   8.023 -0.1754 -0.0095 -0.1305
 4730SOL    HW125823   4.043   0.202   8.015  0.1754  2.0966 -2.6197
 4730SOL    HW225824   3.961   0.320   8.046  0.4159  0.2399 -1.3936
 4731SOL     OW25825   4.060   3.765   4.710  0.6305 -0.0480 -0.5045
 4731SOL    HW125826   4.004   3.841   4.698  0.1883 -0.2984 -0.0662
 4731SOL    HW225827   4.101   3.769   4.624 -0.4301 -0.5431 -1.0281
 4732SOL     OW25828   3.574   2.976   6.253  0.6925  0.0099  0.0692
 4732SOL    HW125829   3.566   2.976   6.158  0.1333  1.1166  0.1243
 4732SOL    HW225830   3.562   3.065   6.284 -0.1095  0.1592 -0.6898
 4733SOL     OW25831   4.476   2.420   4.151  0.2006  0.5119  0.2366
 4733SOL    HW125832   4.455   2.440   4.242  0.4045 -1.0592  0.6404
 4733SOL    HW225833   4.413   2.471   4.101 -0.0059 -0.5731 -0.6125
 4734SOL     OW25834   2.242   2.170  16.616  0.1884 -0.0966 -0.2901
 4734SOL    HW125835   2.311   2.112  16.582  0.3269  0.1931 -0.5030
 4734SOL    HW225836   2.165   2.114  16.608 -0.5338  0.8423  0.1079
 4735SOL     OW25837   4.379   4.002   4.332 -0.0661  0.2212 -0.3102
 4735SOL    HW125838   4.304   3.943   4.324  0.2906 -0.3489  0.4646
 4735SOL    HW225839   4.341   4.073   4.384  1.4477  1.9222 -1.5730
 4736SOL     OW25840   0.282   4.230   3.899  0.7701 -0.1625 -0.3906
 4736SOL    HW125841   0.216   4.294   3.872  0.0654 -0.0448  1.6255
 4736SOL    HW225842   0.351   4.253   3.837 -0.2780 -0.2005 -1.5659
 4737SOL     OW25843   4.221   4.234  11.132 -0.1524 -0.3027 -0.1338
 4737SOL    HW125844   4.206   4.282  11.214 -2.5595  0.4691 -1.0343
 4737SOL    HW225845   4.161   4.280  11.073  0.6522  0.9902  0.0505
 4738SOL     OW25846   3.145   1.653   6.780  0.0549 -0.3140  0.1559
 4738SOL    HW125847   3.220   1.605   6.815  0.3754 -1.2050 -1.7550
 4738SOL    HW225848   3.111   1.589   6.718 -0.4499  1.6111 -1.5480
 4739SOL     OW25849   3.140   1.434   8.512 -0.4804 -0.2115  0.1768
 4739SOL    HW125850   3.092   1.474   8.585  2.5292  1.6301  1.1421
 4739SOL    HW225851   3.076   1.363   8.507  0.5607 -1.1448  0.1015
 4740SOL     OW25852   0.893   0.676   5.953 -0.3389 -0.5433  0.0810
 4740SOL    HW125853   0.884   0.616   5.878  0.4014  1.3686 -1.5333
 4740SOL    HW225854   0.801   0.670   5.981  0.3182 -0.4886  2.2378
 4741SOL     OW25855   2.629   3.112   3.370 -0.5198 -0.5592  0.4050
 4741SOL    HW125856   2.674   3.195   3.356 -1.3447 -0.2209 -0.2062
 4741SOL    HW225857   2.600   3.130   3.459  0.5661 -1.3379  0.9172
 4742SOL     OW25858   0.725   2.517   2.643 -1.0153  0.1320  0.6782
 4742SOL    HW125859   0.751   2.479   2.727 -1.2540  1.0511  1.1661
 4742SOL    HW225860   0.644   2.566   2.658 -0.8545  1.5919 -3.0315
 4743SOL     OW25861   4.109   1.042   4.807 -0.2214 -0.0302 -0.0705
 4743SOL    HW125862   4.027   1.077   4.843 -0.1427 -1.1388  1.1914
 4743SOL    HW225863   4.174   1.094   4.853  0.2559 -0.5379 -0.1729
 4744SOL     OW25864   4.535   2.541   7.353 -0.0093  0.2801 -0.1369
 4744SOL    HW125865   4.461   2.551   7.414  2.1083  1.3036  2.2926
 4744SOL    HW225866   4.498   2.527   7.266 -1.3152  0.7711  0.3272
 4745SOL     OW25867   1.619   2.380  16.083 -0.4106 -0.2520 -0.1459
 4745SOL    HW125868   1.542   2.325  16.076 -0.2982 -0.6452  1.9277
 4745SOL    HW225869   1.580   2.467  16.094 -1.2912 -0.9468  2.1109
 4746SOL     OW25870   2.690   4.492   7.647 -0.3128  0.0329 -0.1831
 4746SOL    HW125871   2.663   4.577   7.613  2.7945 -0.1377 -3.0866
 4746SOL    HW225872   2.611   4.440   7.663 -1.2190  2.4792  3.3163
 4747SOL     OW25873   2.444   1.426  14.182  0.0451  0.2289  0.4102
 4747SOL    HW125874   2.508   1.446  14.251  0.6636  0.6302 -0.2843
 4747SOL    HW225875   2.378   1.493  14.200  0.0474  0.1652  0.6535
 4748SOL     OW25876   1.277   2.398   2.812 -0.3499 -0.0674  0.4117
 4748SOL    HW125877   1.229   2.377   2.733  1.0229 -0.4175 -0.3229
 4748SOL    HW225878   1.326   2.317   2.825 -0.1047 -0.2466 -1.5906
 4749SOL     OW25879   1.124   2.471  10.523  0.3345  0.6057 -0.3798
 4749SOL    HW125880   1.165   2.432  10.599 -2.1443 -2.4681 -0.6383
 4749SOL    HW225881   1.060   2.529  10.564  1.1655  1.0175  0.3205
 4750SOL     OW25882   1.405   3.021   9.724 -0.2715 -0.1298 -0.1153
 4750SOL    HW125883   1.364   2.987   9.645  3.1121 -2.4060 -0.8844
 4750SOL    HW225884   1.460   2.948   9.751  3.5299  2.1961 -1.6151
 4751SOL     OW25885   3.823   0.587   8.571 -0.1736  0.1586  0.1892
 4751SOL    HW125886   3.832   0.680   8.588 -1.8246  0.4737 -0.7304
 4751SOL    HW225887   3.756   0.558   8.632 -0.8081  0.0179 -0.5832
 4752SOL     OW25888   0.501   1.213  10.423  0.2867 -0.3694 -0.0190
 4752SOL    HW125889   0.465   1.144  10.480 -0.2292  1.3989  1.7745
 4752SOL    HW225890   0.575   1.239  10.477 -1.2990  1.1399  1.4116
 4753SOL     OW25891   2.260   0.005  14.548  0.2374  0.5789 -0.2400
 4753SOL    HW125892   2.302   0.012  14.462  0.4230  1.5764 -0.0635
 4753SOL    HW225893   2.291   4.656  14.577 -1.6424  0.2579  0.8122
 4754SOL     OW25894   2.780   0.328   9.964 -0.1196 -0.0865 -0.4838
 4754SOL    HW125895   2.737   0.328  10.049  0.0854  1.9505 -0.3736
 4754SOL    HW225896   2.706   0.324   9.903 -1.5528  0.3232  1.2315
 4755SOL     OW25897   2.670   1.939   2.115 -0.8555 -0.0393  0.2216
 4755SOL    HW125898   2.586   1.894   2.109 -0.4724 -1.4083  5.3450
 4755SOL    HW225899   2.701   1.910   2.029  3.1570 -3.1467  2.6575
 4756SOL     OW25900   0.801   2.252  11.047  0.1958 -0.3586  0.5878
 4756SOL    HW125901   0.887   2.219  11.022  0.7957  1.3041  0.4508
 4756SOL    HW225902   0.739   2.202  10.994  1.7113 -0.3656 -1.1459
 4757SOL     OW25903   1.108   3.329   8.150  0.5111 -0.2696  0.6816
 4757SOL    HW125904   1.120   3.422   8.169  2.2114 -0.8557  2.5843
 4757SOL    HW225905   1.037   3.334   8.086 -0.0643 -3.5599  1.0544
 4758SOL     OW25906   2.093   0.525   3.578 -0.7363  0.2591  0.3748
 4758SOL    HW125907   2.094   0.621   3.585  2.1987  0.2061  0.6502
 4758SOL    HW225908   2.019   0.512   3.637 -0.4371 -0.2355  0.6424
 4759SOL     OW25909   0.552   1.580   0.260  0.3876 -0.3714 -0.1088
 4759SOL    HW125910   0.611   1.600   0.332  1.7419  1.4969 -1.7331
 4759SOL    HW225911   0.595   1.502   0.223 -2.5425 -2.2819  0.4521
 4760SOL     OW25912   1.749   2.577   3.146 -0.4761  0.8427 -0.0585
 4760SOL    HW125913   1.695   2.634   3.091 -0.7029 -0.0901 -0.8054
 4760SOL    HW225914   1.820   2.540   3.094 -0.4137 -1.0423  1.3607
 4761SOL     OW25915   1.555   1.517   4.238  0.5324 -0.1151  0.2612
 4761SOL    HW125916   1.487   1.533   4.304 -0.1436 -0.4126 -0.3573
 4761SOL    HW225917   1.507   1.455   4.183 -0.5550  0.4753  0.5347
 4762SOL     OW25918   1.311   1.694  10.526  0.2456 -0.1141  0.2433
 4762SOL    HW125919   1.326   1.779  10.485  1.1128 -1.7394 -2.7883
 4762SOL    HW225920   1.334   1.637  10.452 -0.1639  0.5124 -0.3644
 4763SOL     OW25921   0.663   0.155   2.246  0.3186  0.2391 -0.6468
 4763SOL    HW125922   0.677   0.067   2.211 -2.3165 -0.2690 -0.3631
 4763SOL    HW225923   0.583   0.167   2.196  0.2383  1.6329 -0.1935
 4764SOL     OW25924   1.894   0.976  16.232 -0.2732  0.2787  0.1166
 4764SOL    HW125925   1.961   1.004  16.170  0.5905  0.9946  1.4003
 4764SOL    HW225926   1.915   1.015  16.316  1.0543 -1.6612  0.6703
 4765SOL     OW25927   3.746   4.141   2.967 -0.2136  0.1279  0.0575
 4765SOL    HW125928   3.753   4.189   2.884  1.3105 -2.3797 -1.2439
 4765SOL    HW225929   3.798   4.065   2.943  0.2985  0.3105  0.5962
 4766SOL     OW25930   2.957   2.658   2.819  0.4853 -0.7279  0.0211
 4766SOL    HW125931   2.885   2.721   2.816  1.0089 -0.1795 -1.2265
 4766SOL    HW225932   2.913   2.579   2.851 -0.4861  0.0771  0.6553
 4767SOL     OW25933   2.799   3.411   1.531  0.0627  0.1506 -1.1258
 4767SOL    HW125934   2.796   3.398   1.436 -1.7258 -1.5590 -0.8207
 4767SOL    HW225935   2.730   3.477   1.536  0.7655  0.7728  0.4591
 4768SOL     OW25936   3.973   1.261  10.679  0.3725  0.8081 -0.5726
 4768SOL    HW125937   4.009   1.230  10.763 -1.7375  1.0889  0.4167
 4768SOL    HW225938   4.044   1.314  10.642  1.6924 -0.9272 -0.5403
 4769SOL     OW25939   3.784   3.806  11.255 -0.2539 -0.6619 -0.0262
 4769SOL    HW125940   3.808   3.869  11.323  2.0220  0.3594 -1.7663
 4769SOL    HW225941   3.719   3.751  11.298 -0.3053  0.2440  1.0412
 4770SOL     OW25942   3.179   4.255   7.758 -0.6220  0.2495  0.7142
 4770SOL    HW125943   3.100   4.232   7.709 -0.8841  0.4545  1.0371
 4770SOL    HW225944   3.148   4.229   7.844 -4.3410  0.4262 -0.5734
 4771SOL     OW25945   4.402   2.268   7.458 -0.3823 -0.2248  0.0358
 4771SOL    HW125946   4.357   2.272   7.374  3.5273  0.7711 -2.0242
 4771SOL    HW225947   4.489   2.297   7.431 -0.4815 -0.6417 -0.7209
 4772SOL     OW25948   0.251   1.129   8.778  0.3058 -0.4269  0.1519
 4772SOL    HW125949   0.182   1.079   8.822 -0.7681 -0.6034 -1.7487
 4772SOL    HW225950   0.323   1.134   8.841 -0.1649  0.2866  0.6240
 4773SOL     OW25951   4.207   4.044   1.910 -0.4270 -0.3339 -0.4429
 4773SOL    HW125952   4.182   3.984   1.839 -1.3616 -1.8261  1.1583
 4773SOL    HW225953   4.294   4.068   1.876 -1.1541  0.1470 -1.9409
 4774SOL     OW25954   0.235   0.638   5.837  0.3035  0.5265  0.3222
 4774SOL    HW125955   0.262   0.727   5.813 -0.6105  0.9341  0.7646
 4774SOL    HW225956   0.188   0.651   5.920  0.3075 -0.1565  0.4322
 4775SOL     OW25957   2.132   3.074  17.710 -0.6406 -0.5786 -0.2306
 4775SOL    HW125958   2.065   3.074  17.642  0.1872  1.0205 -1.0593
 4775SOL    HW225959   2.215   3.098  17.667 -1.7748  0.2136 -1.9785
 4776SOL     OW25960   3.057   1.916   5.792  0.0800 -0.0746 -0.3334
 4776SOL    HW125961   3.106   1.836   5.809 -0.0103 -0.3111 -1.1894
 4776SOL    HW225962   3.017   1.935   5.877 -1.1438  2.3883 -1.4672
 4777SOL     OW25963   3.143   0.239   1.837  0.1370  0.5248  0.2722
 4777SOL    HW125964   3.053   0.229   1.869 -0.1876 -0.3280 -0.9024
 4777SOL    HW225965   3.186   0.154   1.846  0.7996  0.9007  0.6766
 4778SOL     OW25966   1.496   3.284   7.089 -0.0040 -0.5464  0.2556
 4778SOL    HW125967   1.590   3.270   7.074  0.3365  2.0166 -0.0313
 4778SOL    HW225968   1.490   3.377   7.066 -0.7441 -0.1749  1.9785
 4779SOL     OW25969   2.096   0.535   6.419 -0.2334  0.1718 -0.3432
 4779SOL    HW125970   2.160   0.468   6.444  0.6073  1.3364  0.6087
 4779SOL    HW225971   2.041   0.554   6.495  2.0366 -0.7076  1.5234
 4780SOL     OW25972   3.318   0.267  13.429  0.3991 -0.1951 -0.2795
 4780SOL    HW125973   3.238   0.256  13.379  0.9533 -0.9004 -1.0095
 4780SOL    HW225974   3.328   0.183  13.474  0.9063  1.7691  3.3622
 4781SOL     OW25975   2.729   0.956   2.564  0.1447 -0.2688  0.4605
 4781SOL    HW125976   2.652   1.012   2.570  1.6045  1.5583  2.5826
 4781SOL    HW225977   2.788   1.008   2.619  0.9280  1.0484 -1.6564
 4782SOL     OW25978   1.742   4.525   6.045  0.1351  0.2865 -0.1852
 4782SOL    HW125979   1.780   4.453   5.994  0.5769  2.2631 -2.6590
 4782SOL    HW225980   1.722   4.582   5.970 -0.5121 -0.6883 -0.7542
 4783SOL     OW25981   2.592   4.283   5.453 -0.4850  0.1682  0.0379
 4783SOL    HW125982   2.576   4.376   5.464  3.3996  0.6787  1.3426
 4783SOL    HW225983   2.574   4.288   5.359  2.3163  0.9312 -0.4718
 4784SOL     OW25984   4.652   2.474   5.482  0.1954 -0.3679 -0.0901
 4784SOL    HW125985   4.718   2.537   5.453  0.0721  0.5904  1.6783
 4784SOL    HW225986   4.575   2.504   5.434  0.1504 -1.1639 -0.5162
 4785SOL     OW25987   0.046   3.423  14.001  0.3698 -0.1167  0.1286
 4785SOL    HW125988   0.032   3.517  14.010 -0.1376 -0.4035  2.2841
 4785SOL    HW225989   4.701   3.407  13.954  0.3195  1.7283 -0.4008
 4786SOL     OW25990   2.475   3.735   5.014 -0.0032 -0.4854 -0.3101
 4786SOL    HW125991   2.445   3.663   5.069  1.1107 -0.5809  0.1743
 4786SOL    HW225992   2.484   3.687   4.932  0.9046 -0.7325 -0.0716
 4787SOL     OW25993   2.835   1.712  16.369 -0.3566 -0.7871 -0.1508
 4787SOL    HW125994   2.926   1.741  16.366 -1.2390  1.9406 -0.5774
 4787SOL    HW225995   2.796   1.760  16.296  0.0195  0.0277  0.1836
 4788SOL     OW25996   1.136   1.823   6.925  0.0125 -0.2516 -0.3042
 4788SOL    HW125997   1.176   1.849   7.008  0.8091  1.2144 -1.1419
 4788SOL    HW225998   1.166   1.732   6.924  1.1014  0.1544 -3.3695
 4789SOL     OW25999   3.208   1.348   3.962  0.7628 -0.4037  0.1310
 4789SOL    HW126000   3.294   1.330   4.000 -0.1752 -2.3817  1.3748
 4789SOL    HW226001   3.224   1.306   3.877  2.1666  1.8806 -0.7326
 4790SOL     OW26002   0.276   4.655   4.594 -0.5432 -0.1037 -0.5804
 4790SOL    HW126003   0.206   4.676   4.533 -1.5357  0.8197  0.8916
 4790SOL    HW226004   0.323   4.588   4.543 -1.0531 -1.8450  1.2391
 4791SOL     OW26005   1.004   0.485   9.281  0.3357  0.1026 -0.3473
 4791SOL    HW126006   1.055   0.520   9.207 -1.2672 -0.4363 -1.7035
 4791SOL    HW226007   0.914   0.516   9.271  0.1148 -0.4910 -0.2037
 4792SOL     OW26008   3.118   2.978  10.275 -0.3357  0.4693  0.4590
 4792SOL    HW126009   3.207   2.947  10.290 -0.3353  0.0832 -0.3829
 4792SOL    HW226010   3.072   2.906  10.320  0.6374 -0.6329 -0.2962
 4793SOL     OW26011   0.056   1.008  17.486 -0.5515  0.5817 -0.3810
 4793SOL    HW126012   0.097   0.939  17.434 -1.0938 -1.3500  1.7243
 4793SOL    HW226013   0.090   0.982  17.572 -2.5316  0.1577  0.2572
 4794SOL     OW26014   4.009   2.327   2.330  0.0224 -0.2596  0.4094
 4794SOL    HW126015   4.099   2.358   2.314  0.3144 -1.4294 -0.2326
 4794SOL    HW226016   4.024   2.233   2.340 -0.9363 -0.6651 -1.9186
 4795SOL     OW26017   0.831   3.260   3.763  0.5673 -0.6135  0.0790
 4795SOL    HW126018   0.805   3.234   3.852  0.2281 -0.4493  0.0293
 4795SOL    HW226019   0.918   3.220   3.763  0.2064 -1.3783 -1.2530
 4796SOL     OW26020   4.227   2.182   5.937 -0.1512  0.6334 -0.3777
 4796SOL    HW126021   4.147   2.132   5.917 -0.0645 -0.1426  1.1376
 4796SOL    HW226022   4.277   2.182   5.856  0.9665  1.4725  0.3058
 4797SOL     OW26023   2.246   1.985  17.026 -0.1679  0.6357 -0.3693
 4797SOL    HW126024   2.170   2.011  17.077 -1.1143  2.0171 -2.4636
 4797SOL    HW226025   2.319   2.000  17.086 -0.7887  2.4553 -0.0828
 4798SOL     OW26026   0.283   2.935  13.400  0.0365  0.1231 -0.7612
 4798SOL    HW126027   0.311   2.914  13.311 -1.4039 -0.5673 -1.0488
 4798SOL    HW226028   0.188   2.934  13.393 -0.0151 -0.5276  0.0457
 4799SOL     OW26029   1.173   4.145   3.392 -0.6788 -0.3491 -0.4229
 4799SOL    HW126030   1.199   4.235   3.374 -1.4093 -0.2348 -0.8929
 4799SOL    HW226031   1.145   4.114   3.306 -1.6459 -0.8747  0.0761
 4800SOL     OW26032   1.052   1.497  15.642 -0.5815  0.3211 -1.0705
 4800SOL    HW126033   1.071   1.404  15.651  2.9500  1.2353  0.9670
 4800SOL    HW226034   1.093   1.508  15.555 -0.6257 -1.6988 -1.3400
 4801SOL     OW26035   3.092   0.994   8.367  0.7405 -0.2343  0.1302
 4801SOL    HW126036   3.060   1.084   8.361 -2.6990 -1.4797 -0.1353
 4801SOL    HW226037   3.014   0.948   8.400  1.0582 -1.5266 -0.8971
 4802SOL     OW26038   1.446   0.370  10.364 -0.0872 -0.0250 -0.4248
 4802SOL    HW126039   1.368   0.324  10.395 -0.1270 -0.7494 -1.6069
 4802SOL    HW226040   1.400   0.432  10.308 -0.3032  0.0539 -0.1586
 4803SOL     OW26041   4.646   2.947   7.152  0.6187  0.2205  0.5704
 4803SOL    HW126042   4.631   2.892   7.075  0.4537  0.1724  0.6368
 4803SOL    HW226043   4.570   3.004   7.154  1.5646  1.5047 -0.5700
 4804SOL     OW26044   4.215   3.396   2.305 -0.3811 -0.2239 -0.3159
 4804SOL    HW126045   4.267   3.476   2.317  0.8535 -1.3003  1.4163
 4804SOL    HW226046   4.127   3.435   2.297 -0.7644 -0.4243  3.0718
 4805SOL     OW26047   1.375   2.795  14.735 -0.1065  0.4381 -0.0441
 4805SOL    HW126048   1.321   2.752  14.669 -1.5507 -1.2236  2.2361
 4805SOL    HW226049   1.435   2.724  14.757 -0.1592  0.0120 -1.2481
 4806SOL     OW26050   3.712   4.412   5.491  0.0711 -0.3590 -0.1766
 4806SOL    HW126051   3.787   4.468   5.471 -0.2178 -0.4664 -1.5530
 4806SOL    HW226052   3.755   4.340   5.538  1.5952 -0.9285 -2.4337
 4807SOL     OW26053   1.262   0.101   6.221 -0.2228 -0.3831  0.2180
 4807SOL    HW126054   1.176   0.076   6.186 -0.1167  0.6538 -0.8013
 4807SOL    HW226055   1.321   0.071   6.152 -1.4617  2.8043 -2.2782
 4808SOL     OW26056   2.025   1.808   6.194  0.7515  0.1243  0.0172
 4808SOL    HW126057   1.964   1.880   6.182  0.2913 -0.2896 -0.0917
 4808SOL    HW226058   2.055   1.818   6.284 -1.6008 -1.3863  0.9596
 4809SOL     OW26059   0.776   3.482  17.371 -0.3465  0.0250  0.7742
 4809SOL    HW126060   0.736   3.551  17.319  1.7079  1.3116  0.9087
 4809SOL    HW226061   0.710   3.459  17.437 -0.2912 -1.1216  0.4337
 4810SOL     OW26062   3.236   2.538  12.483 -0.1742 -0.1377  0.5694
 4810SOL    HW126063   3.224   2.443  12.487  0.9737 -0.2873  0.4383
 4810SOL    HW226064   3.238   2.545  12.387  2.1346 -1.4125  0.5222
 4811SOL     OW26065   4.665   2.426   2.132 -0.3350  0.2462 -0.1675
 4811SOL    HW126066   4.719   2.388   2.063 -0.0939 -1.1996  0.8065
 4811SOL    HW226067   4.577   2.411   2.098 -1.0677  0.8657  1.4666
 4812SOL     OW26068   1.221   4.712   6.801 -0.2232  0.1334 -0.0491
 4812SOL    HW126069   1.283   0.045   6.781  0.5609 -0.0093  1.8548
 4812SOL    HW226070   1.173   0.013   6.876  0.3489  1.8886 -0.5713
 4813SOL     OW26071   4.029   0.010   7.204  0.3210  0.4688 -0.9611
 4813SOL    HW126072   3.938   4.718   7.215 -0.0029  0.6214 -3.3254
 4813SOL    HW226073   4.069   4.660   7.197  0.3800  0.2165  2.6575
 4814SOL     OW26074   3.114   3.238   4.712  0.5009 -0.2045  0.1740
 4814SOL    HW126075   3.072   3.317   4.678 -0.1676  0.0441  1.6077
 4814SOL    HW226076   3.054   3.165   4.696  1.5988 -0.9097 -0.7466
 4815SOL     OW26077   2.217   3.320   9.281 -0.1217  0.4119 -0.3289
 4815SOL    HW126078   2.141   3.359   9.323  0.1355  0.2053  0.3290
 4815SOL    HW226079   2.230   3.367   9.199 -0.7552 -1.3818 -1.4562
 4816SOL     OW26080   0.655   3.333  13.450 -0.0538 -0.0427 -0.1826
 4816SOL    HW126081   0.600   3.410  13.464  1.3806  1.2136 -1.4427
 4816SOL    HW226082   0.680   3.356  13.360 -0.9640 -0.4010 -0.5258
 4817SOL     OW26083   1.294   4.626   1.619 -0.0540 -0.2343  0.5648
 4817SOL    HW126084   1.365   4.689   1.605 -0.1053 -0.2344  0.3042
 4817SOL    HW226085   1.216   4.680   1.624  0.2548  0.2559  0.0531
 4818SOL     OW26086   0.275   4.201  15.042  0.1825 -0.0173 -0.0916
 4818SOL    HW126087   0.327   4.166  15.114  2.4113  0.2843 -1.5510
 4818SOL    HW226088   0.272   4.118  14.995  1.0279 -0.8008  1.2425
 4819SOL     OW26089   0.875   2.248   5.149 -0.3112 -0.2063 -0.1684
 4819SOL    HW126090   0.821   2.278   5.223 -1.0492 -0.7672 -0.4737
 4819SOL    HW226091   0.915   2.330   5.119  0.9190  0.0652  2.2058
 4820SOL     OW26092   3.335   1.445   0.670 -0.0375 -0.2185 -0.2236
 4820SOL    HW126093   3.306   1.449   0.761  0.4176  2.0340 -0.1891
 4820SOL    HW226094   3.261   1.457   0.611 -0.2727  0.3485  0.1919
 4821SOL     OW26095   1.585   4.253   2.555 -0.0869 -0.4502 -0.7414
 4821SOL    HW126096   1.611   4.257   2.647 -1.4485 -0.1130 -0.3708
 4821SOL    HW226097   1.587   4.158   2.543  1.4324 -0.4769 -0.2861
 4822SOL     OW26098   2.353   0.275   9.675 -0.4847 -0.7238  0.2220
 4822SOL    HW126099   2.312   0.331   9.609 -1.9126  1.5400  3.0187
 4822SOL    HW226100   2.276   0.225   9.703 -0.8517  0.0399  0.5928
 4823SOL     OW26101   1.764   3.641   3.110 -0.2446 -0.6690 -0.0537
 4823SOL    HW126102   1.836   3.699   3.087 -2.0813  0.8897 -1.9111
 4823SOL    HW226103   1.701   3.683   3.051  1.7968  1.8018 -0.4736
 4824SOL     OW26104   1.762   1.121   4.432  0.3658  0.0586  0.2224
 4824SOL    HW126105   1.803   1.156   4.353  1.4823  1.1585  1.2829
 4824SOL    HW226106   1.672   1.155   4.426  0.9963  1.5800 -0.6370
 4825SOL     OW26107   3.700   2.842   8.888  0.1860  0.0268  0.6672
 4825SOL    HW126108   3.745   2.865   8.807  0.7347 -0.9748  0.6940
 4825SOL    HW226109   3.662   2.757   8.866  0.4743  0.2092 -0.5112
 4826SOL     OW26110   1.871   2.114   8.615  0.2088 -0.5530  0.6705
 4826SOL    HW126111   1.854   2.164   8.535 -1.0292 -1.7808  0.1548
 4826SOL    HW226112   1.858   2.175   8.688  2.1883  2.8674 -1.7942
 4827SOL     OW26113   3.976   3.763  14.520 -0.3137 -0.1183  0.2378
 4827SOL    HW126114   3.893   3.718  14.532 -0.6162  0.4939  0.4655
 4827SOL    HW226115   4.012   3.705  14.453  1.0338  0.5390  0.4003
 4828SOL     OW26116   2.751   0.366  10.695  0.0069  0.3453  1.0096
 4828SOL    HW126117   2.743   0.433  10.763 -2.3012 -0.1096  1.1772
 4828SOL    HW226118   2.833   0.320  10.714 -1.7288 -2.8156  0.7877
 4829SOL     OW26119   0.207   0.062   4.985 -0.4635 -0.0637  0.2071
 4829SOL    HW126120   0.295   0.035   5.011 -1.2254 -1.4594  1.3607
 4829SOL    HW226121   0.220   0.150   4.949  2.0512 -0.0787  1.0808
 4830SOL     OW26122   2.800   3.411   7.403  0.2716  0.3044 -0.0627
 4830SOL    HW126123   2.829   3.450   7.321 -0.1191  1.3552  0.2952
 4830SOL    HW226124   2.884   3.385   7.440  0.9533  3.0394  0.3363
 4831SOL     OW26125   2.827   2.137   6.183 -0.0026 -0.1497 -0.8032
 4831SOL    HW126126   2.879   2.069   6.227  0.5970  1.3711  0.8755
 4831SOL    HW226127   2.800   2.171   6.269  0.7062  0.0671 -0.6589
 4832SOL     OW26128   2.642   3.220   4.745  0.2797  0.4631 -0.6446
 4832SOL    HW126129   2.639   3.141   4.692  1.1154 -0.1715  0.2589
 4832SOL    HW226130   2.709   3.203   4.811 -0.4779  0.9043  0.2232
 4833SOL     OW26131   4.587   1.622   5.799 -0.1653  0.1486 -0.5291
 4833SOL    HW126132   4.515   1.681   5.821 -0.0753 -0.8139  2.3279
 4833SOL    HW226133   4.551   1.536   5.822  1.3356 -0.3121  0.0679
 4834SOL     OW26134   0.812   2.944   7.676 -0.2555 -0.6786 -0.0539
 4834SOL    HW126135   0.901   2.980   7.676  0.4243 -2.3110  0.8887
 4834SOL    HW226136   0.770   3.026   7.653  0.1921  0.4324  3.1464
 4835SOL     OW26137   3.604   0.589  15.922 -0.0189  0.1225 -0.0286
 4835SOL    HW126138   3.539   0.574  15.991 -0.9494  1.1266 -0.6848
 4835SOL    HW226139   3.637   0.499  15.929  0.3282  0.3839  1.5971
 4836SOL     OW26140   4.248   3.242  13.544 -0.2395  0.4918 -0.0409
 4836SOL    HW126141   4.173   3.283  13.586 -0.6396 -0.1206 -0.1579
 4836SOL    HW226142   4.278   3.197  13.624  1.8818  2.8398  0.5172
 4837SOL     OW26143   4.400   2.452  13.966  0.2385 -0.0599 -0.2628
 4837SOL    HW126144   4.336   2.445  13.895 -0.8882 -2.1567  0.9166
 4837SOL    HW226145   4.476   2.487  13.920  0.4740 -0.7480 -0.4070
 4838SOL     OW26146   3.006   2.201  11.337 -0.1542  0.3745 -0.1756
 4838SOL    HW126147   2.920   2.182  11.373 -0.6420  0.5892 -1.2219
 4838SOL    HW226148   3.063   2.127  11.361  2.2868  2.5445  0.6853
 4839SOL     OW26149   1.423   3.600   9.418 -0.5204 -0.0621  0.2642
 4839SOL    HW126150   1.410   3.622   9.326 -0.9562  1.5587  0.7083
 4839SOL    HW226151   1.355   3.535   9.435  0.0953 -1.5181 -2.8336
 4840SOL     OW26152   4.266   2.514  14.288  0.2071 -0.5541  0.0031
 4840SOL    HW126153   4.309   2.429  14.281  1.6986  0.3075 -1.3249
 4840SOL    HW226154   4.287   2.554  14.204  1.6348 -0.1907  0.5304
 4841SOL     OW26155   1.015   3.782   5.233  0.0274 -0.7215  0.1646
 4841SOL    HW126156   1.111   3.777   5.230  0.1806  2.2782 -0.0418
 4841SOL    HW226157   1.003   3.871   5.268  0.4586  0.0026 -1.5018
 4842SOL     OW26158   3.624   1.850   5.922 -0.3484  0.4554  0.0131
 4842SOL    HW126159   3.627   1.760   5.955 -2.2273  0.1656 -0.5706
 4842SOL    HW226160   3.657   1.903   5.994  3.5496  0.5220 -1.8395
 4843SOL     OW26161   0.074   0.078  17.519  0.4610 -0.5690  0.0773
 4843SOL    HW126162   0.169   0.082  17.508  0.1493  0.1016 -2.5324
 4843SOL    HW226163   0.052   0.144  17.452 -0.0550 -0.5288  0.2856
 4844SOL     OW26164   3.294   4.198   5.248  0.8499 -0.0041 -0.0734
 4844SOL    HW126165   3.368   4.161   5.296 -0.2908  0.3852  1.9688
 4844SOL    HW226166   3.317   4.290   5.264  3.0680 -0.7158  0.8384
 4845SOL     OW26167   3.714   4.440   2.039  0.0229  0.0598 -0.0494
 4845SOL    HW126168   3.807   4.428   2.056  0.2477 -0.2480 -1.4613
 4845SOL    HW226169   3.679   4.433   2.128  1.1925  0.3789  0.4319
 4846SOL     OW26170   2.031   0.263   5.788 -0.0801 -0.1131  0.4326
 4846SOL    HW126171   2.041   0.185   5.733  1.9118 -0.2026  0.9285
 4846SOL    HW226172   1.984   0.332   5.741  2.7645  0.9471 -0.8781
 4847SOL     OW26173   3.170   0.348   9.692 -0.1654 -0.1707  0.2709
 4847SOL    HW126174   3.076   0.330   9.685  0.0266 -1.6111  1.5148
 4847SOL    HW226175   3.179   0.419   9.628 -0.0020 -1.4269 -1.1123
 4848SOL     OW26176   2.807   2.242  17.477 -0.1277  0.0880  0.0752
 4848SOL    HW126177   2.893   2.247  17.435 -0.1298 -0.1167  0.0449
 4848SOL    HW226178   2.832   2.187  17.551 -0.1912 -0.6284 -0.4278
 4849SOL     OW26179   3.247   0.018   1.747  0.2203  0.0200  0.1517
 4849SOL    HW126180   3.337   0.005   1.776  0.1912  0.1449  0.2976
 4849SOL    HW226181   3.218   4.664   1.739  0.3227 -0.0397  0.4444
 4850SOL     OW26182   2.708   0.527  17.124  0.2209 -0.1032  0.3428
 4850SOL    HW126183   2.627   0.575  17.140  0.1716  0.8933 -2.8570
 4850SOL    HW226184   2.676   0.437  17.126  2.0868 -0.7921 -0.8880
 4851SOL     OW26185   1.140   0.479   3.442 -0.5331 -0.1891 -0.6204
 4851SOL    HW126186   1.045   0.484   3.453 -0.8337 -2.9485 -1.9381
 4851SOL    HW226187   1.171   0.422   3.513  0.7201 -2.2752 -2.8424
 4852SOL     OW26188   2.639   1.062  11.158 -0.8892  0.0919  0.1491
 4852SOL    HW126189   2.718   1.114  11.147 -1.0472 -0.1656 -2.2175
 4852SOL    HW226190   2.631   1.016  11.074  0.2789  0.1185  0.0298
 4853SOL     OW26191   0.587   1.939   9.374 -0.1435 -0.1657  0.1970
 4853SOL    HW126192   0.657   1.973   9.429 -2.5778  0.3284  2.9584
 4853SOL    HW226193   0.554   1.865   9.425 -0.1204 -0.6922 -0.5501
 4854SOL     OW26194   2.703   4.480  17.144 -0.3984 -0.2771 -0.4191
 4854SOL    HW126195   2.757   4.548  17.104 -0.9232 -0.6623 -1.7894
 4854SOL    HW226196   2.649   4.537  17.199  1.0753  0.8091 -0.0826
 4855SOL     OW26197   3.264   0.106  11.734 -0.0135  0.0794 -0.2028
 4855SOL    HW126198   3.223   0.042  11.676 -1.5850  0.8092  0.0868
 4855SOL    HW226199   3.350   0.094  11.693  0.6579 -1.7073  1.7041
 4856SOL     OW26200   3.673   1.376   2.477 -0.1209  0.4415 -0.7386
 4856SOL    HW126201   3.767   1.380   2.460 -0.3100  3.4725 -1.2167
 4856SOL    HW226202   3.635   1.409   2.395 -0.0147 -1.2906 -1.4634
 4857SOL     OW26203   0.815   2.706   7.796  0.7305  0.1152  0.2534
 4857SOL    HW126204   0.822   2.796   7.765 -1.9161  0.5605  0.8796
 4857SOL    HW226205   0.723   2.687   7.774  0.0146  0.1086  3.2420
 4858SOL     OW26206   0.351   4.085   2.403  0.7552  0.3893 -0.0949
 4858SOL    HW126207   0.268   4.131   2.395  2.3758  3.0402 -1.4139
 4858SOL    HW226208   0.374   4.086   2.310 -0.5111 -1.5445 -0.4256
 4859SOL     OW26209   3.268   3.749  12.516  0.0157  0.3558 -0.0376
 4859SOL    HW126210   3.214   3.692  12.460  0.2645  0.0612  0.0262
 4859SOL    HW226211   3.319   3.678  12.556 -0.8262 -0.5611 -0.5913
 4860SOL     OW26212   0.574   2.702   2.232  0.2177 -0.6760  0.6141
 4860SOL    HW126213   0.498   2.644   2.230 -1.2608  1.2942 -0.0388
 4860SOL    HW226214   0.629   2.635   2.192 -0.2845 -0.1494 -0.9793
 4861SOL     OW26215   3.090   2.241   7.905 -0.5657 -0.3344 -0.3027
 4861SOL    HW126216   3.017   2.261   7.963 -0.1492  1.7310 -0.4639
 4861SOL    HW226217   3.153   2.187   7.953  1.0427  2.4725  0.7900
 4862SOL     OW26218   3.711   4.651   8.294  0.0287  0.2423  0.2096
 4862SOL    HW126219   3.722   0.009   8.297  0.0655  0.3298 -2.1236
 4862SOL    HW226220   3.714   4.633   8.388  1.1182 -2.3530 -0.3290
 4863SOL     OW26221   4.604   2.830   2.101 -0.6326  0.7049  0.8557
 4863SOL    HW126222   4.526   2.863   2.144 -0.3330  1.9898  0.4070
 4863SOL    HW226223   4.646   2.787   2.176 -1.5507  1.8107  1.9993
 4864SOL     OW26224   0.993   1.241   5.882 -0.0873  0.9541  0.4100
 4864SOL    HW126225   1.064   1.203   5.829 -1.8894 -1.5494 -0.1993
 4864SOL    HW226226   1.044   1.264   5.960 -1.0650 -0.1098  1.3643
 4865SOL     OW26227   3.813   3.184  14.292  0.4931  0.1816 -0.1049
 4865SOL    HW126228   3.724   3.152  14.301 -0.0058  1.7110  0.4944
 4865SOL    HW226229   3.805   3.279  14.302 -0.5955 -0.1179  1.9501
 4866SOL     OW26230   1.624   3.732  16.936  0.1336 -0.1109  0.1725
 4866SOL    HW126231   1.702   3.711  16.883  0.0807  0.1055  0.0078
 4866SOL    HW226232   1.641   3.825  16.951 -0.3274 -0.0499  0.2882
 4867SOL     OW26233   3.673   3.746   6.209  0.3567 -0.7762 -0.1454
 4867SOL    HW126234   3.650   3.750   6.117 -3.9808 -0.1251  0.9529
 4867SOL    HW226235   3.632   3.828   6.236 -0.8232 -1.0113 -1.2227
 4868SOL     OW26236   2.446   4.032   8.881 -0.2524 -0.1073 -0.2810
 4868SOL    HW126237   2.369   4.086   8.865  1.3649  2.1387 -0.6208
 4868SOL    HW226238   2.436   3.996   8.968  1.0571  1.2712  0.4483
 4869SOL     OW26239   2.293   3.153   2.064 -0.3506  0.1577  0.1689
 4869SOL    HW126240   2.314   3.227   2.122 -1.1107  0.1619  0.4345
 4869SOL    HW226241   2.208   3.125   2.097  0.1216  0.7354  1.9001
 4870SOL     OW26242   2.839   3.339   6.201 -0.1924  0.4704  0.4634
 4870SOL    HW126243   2.866   3.431   6.208 -0.1257  0.2848  2.6568
 4870SOL    HW226244   2.919   3.287   6.193 -0.0971  0.9034 -1.3606
 4871SOL     OW26245   1.478   4.487   3.735 -0.7523  0.3352 -0.0977
 4871SOL    HW126246   1.531   4.564   3.756  0.9078 -1.7286  3.4483
 4871SOL    HW226247   1.395   4.530   3.751 -0.4668  1.5210 -1.8217
 4872SOL     OW26248   2.326   4.538  12.447 -0.0001  0.1310  0.4008
 4872SOL    HW126249   2.280   4.609  12.402 -1.1595 -0.4823  0.6275
 4872SOL    HW226250   2.355   4.481  12.375 -0.4541  2.1096 -1.3331
 4873SOL     OW26251   1.522   3.415  14.704 -0.2571  0.1272  0.1091
 4873SOL    HW126252   1.559   3.327  14.712  0.5413  0.5300  0.8622
 4873SOL    HW226253   1.591   3.466  14.660 -1.3946  2.6058  1.1952
 4874SOL     OW26254   4.467   3.203   6.660  0.4676  0.4839  0.2296
 4874SOL    HW126255   4.512   3.267   6.715 -0.9624 -0.8572  2.9479
 4874SOL    HW226256   4.514   3.220   6.578 -0.5790  1.0494 -0.2453
 4875SOL     OW26257   2.633   3.391   3.148  0.2146 -0.0814 -0.3900
 4875SOL    HW126258   2.636   3.389   3.244  0.7650 -0.7089 -0.4195
 4875SOL    HW226259   2.671   3.477   3.130 -3.3282  2.1665  2.8491
 4876SOL     OW26260   4.144   0.486   7.018 -0.2221 -0.1885  0.1026
 4876SOL    HW126261   4.137   0.391   7.006  2.4855 -0.2544 -0.9255
 4876SOL    HW226262   4.144   0.512   6.926  2.1620  1.3896  0.5614
 4877SOL     OW26263   2.142   1.238   9.025 -0.0350 -0.5051 -0.1012
 4877SOL    HW126264   2.212   1.203   8.969  1.3436  0.9580  0.7229
 4877SOL    HW226265   2.086   1.162   9.038 -0.9688  0.1009 -0.6111
 4878SOL     OW26266   4.033   2.497   8.078  0.1851  0.3894 -0.1018
 4878SOL    HW126267   3.988   2.472   7.997 -0.8163 -0.9395  0.8638
 4878SOL    HW226268   4.098   2.427   8.077  0.4625  0.6500 -0.6504
 4879SOL     OW26269   2.103   2.630  13.211 -0.3057  0.2104 -0.2382
 4879SOL    HW126270   2.074   2.539  13.208 -2.2856  0.8893 -1.8621
 4879SOL    HW226271   2.135   2.643  13.300 -1.6397 -0.3349  0.3201
 4880SOL     OW26272   1.948   3.504   4.632 -0.0110 -0.7992  0.3866
 4880SOL    HW126273   1.973   3.484   4.722  0.7158 -0.4034  0.2687
 4880SOL    HW226274   1.859   3.468   4.628 -0.9668  1.4723  0.8917
 4881SOL     OW26275   1.885   2.926   2.438 -0.6825  0.8262 -0.3180
 4881SOL    HW126276   1.845   2.872   2.369  0.0485  0.0820 -0.1476
 4881SOL    HW226277   1.812   2.949   2.495  0.4029 -1.6966  2.0425
 4882SOL     OW26278   3.754   3.273   5.389 -0.0135  0.1708  0.2833
 4882SOL    HW126279   3.750   3.369   5.387  0.0352  0.1448 -2.0662
 4882SOL    HW226280   3.836   3.257   5.343 -0.3030  1.2687 -0.6400
 4883SOL     OW26281   4.158   2.524   0.152 -0.4441  0.0047  0.2446
 4883SOL    HW126282   4.238   2.528   0.203  1.3268  1.7834 -2.6762
 4883SOL    HW226283   4.189   2.535   0.062 -0.6452 -2.8591 -0.1797
 4884SOL     OW26284   3.230   3.960   7.495  0.2752  1.1201  0.2711
 4884SOL    HW126285   3.230   4.052   7.469 -2.7968  0.3422 -2.6265
 4884SOL    HW226286   3.150   3.948   7.547  0.0774 -1.7662 -0.6778
 4885SOL     OW26287   2.911   3.429   9.335 -0.3807 -0.6027 -0.3936
 4885SOL    HW126288   2.927   3.383   9.418  1.4152 -0.2522 -0.5548
 4885SOL    HW226289   2.901   3.351   9.281  2.2725 -1.4583  0.3506
 4886SOL     OW26290   2.735   2.220  11.416 -0.5361 -0.2352  0.1117
 4886SOL    HW126291   2.659   2.244  11.363  0.4055  3.6571  0.4970
 4886SOL    HW226292   2.701   2.229  11.505  0.0528  0.2962  0.2884
 4887SOL     OW26293   2.671   2.138   8.904  0.0305  0.4948 -0.3575
 4887SOL    HW126294   2.614   2.176   8.836 -0.5545  0.0445 -0.1221
 4887SOL    HW226295   2.753   2.123   8.858  1.3371 -0.0546  2.2143
 4888SOL     OW26296   0.230   3.409   1.837 -0.0958 -0.3796  0.0208
 4888SOL    HW126297   0.173   3.404   1.761 -1.2609  0.0287  0.8745
 4888SOL    HW226298   0.316   3.404   1.795  0.4314  0.7699  0.9708
 4889SOL     OW26299   1.982   1.232   5.865  0.5765  0.4567  0.1333
 4889SOL    HW126300   2.058   1.274   5.906 -1.0004  0.0527  3.4129
 4889SOL    HW226301   1.918   1.303   5.859 -0.8679 -0.8543 -0.0026
 4890SOL     OW26302   1.547   0.870   2.546 -0.1529  0.6059 -0.4882
 4890SOL    HW126303   1.560   0.788   2.594 -1.1420  1.1431  0.7184
 4890SOL    HW226304   1.471   0.850   2.491 -0.3373  0.2737 -0.1163
 4891SOL     OW26305   2.526   0.345  15.691  0.3202 -0.3714  0.8053
 4891SOL    HW126306   2.549   0.299  15.772  2.2109 -1.7074 -0.4832
 4891SOL    HW226307   2.535   0.437  15.716  1.2051 -0.1308 -0.4044
 4892SOL     OW26308   1.038   0.605   4.266  0.0545 -0.6247 -0.4101
 4892SOL    HW126309   1.098   0.549   4.316  0.4847  0.4264  0.2611
 4892SOL    HW226310   0.969   0.618   4.331  1.4756 -1.0388  1.1834
 4893SOL     OW26311   3.001   1.684  17.278 -0.0980 -0.5742  0.5900
 4893SOL    HW126312   3.021   1.778  17.280  2.0909 -1.0394  0.2064
 4893SOL    HW226313   2.916   1.693  17.322 -0.0004 -0.8787  0.8377
 4894SOL     OW26314   3.872   2.625   2.640  0.3342  0.0915  0.4143
 4894SOL    HW126315   3.954   2.674   2.629  0.5336 -0.0171  1.4473
 4894SOL    HW226316   3.806   2.692   2.627  3.0343  2.6420 -0.1786
 4895SOL     OW26317   3.916   0.275   5.880 -0.0008 -0.3803 -0.1040
 4895SOL    HW126318   3.934   0.183   5.901 -2.6347 -0.6431  0.9914
 4895SOL    HW226319   3.946   0.313   5.962  2.5623  1.3456 -1.8289
 4896SOL     OW26320   4.525   3.859  11.002 -0.2733  0.3524  0.4416
 4896SOL    HW126321   4.432   3.873  10.983 -0.5406  1.9167  2.9088
 4896SOL    HW226322   4.557   3.806  10.928  0.6488  1.6312 -0.0811
 4897SOL     OW26323   4.683   3.576  15.772  0.0524  0.2593  0.2182
 4897SOL    HW126324   4.679   3.671  15.760 -1.0984  0.5578  2.9552
 4897SOL    HW226325   4.686   3.580  15.867 -0.1047  0.1314  0.2294
 4898SOL     OW26326   1.209   4.490  14.308 -0.3883  0.6602  0.3522
 4898SOL    HW126327   1.220   4.467  14.400  0.1885 -0.5240 -0.0090
 4898SOL    HW226328   1.114   4.484  14.307 -0.4692  1.7009  1.8031
 4899SOL     OW26329   3.907   3.889   7.852  0.2987 -0.2299  0.3189
 4899SOL    HW126330   3.860   3.869   7.933 -1.4753  0.2732 -0.6016
 4899SOL    HW226331   3.865   3.967   7.817  0.3213  0.6747  2.3038
 4900SOL     OW26332   0.595   2.621   1.515  0.3493  0.3129  0.0169
 4900SOL    HW126333   0.641   2.705   1.522  1.5538 -0.3944  0.4737
 4900SOL    HW226334   0.640   2.559   1.571 -0.7962  0.9500  1.6477
 4901SOL     OW26335   0.285   1.074   3.173 -0.0326  0.0218  0.0056
 4901SOL    HW126336   0.336   1.087   3.252  1.9887  0.0815 -1.3050
 4901SOL    HW226337   0.352   1.059   3.105 -1.8423  1.4518 -2.1117
 4902SOL     OW26338   3.005   4.351   4.370 -0.0506  0.0829 -0.3557
 4902SOL    HW126339   2.963   4.269   4.344 -2.5085  0.9025  1.1073
 4902SOL    HW226340   3.045   4.324   4.452  0.7849 -0.4787 -0.9374
 4903SOL     OW26341   2.279   0.794   5.876 -0.1597 -0.3505  0.0972
 4903SOL    HW126342   2.194   0.759   5.903  0.4891 -1.1563  1.1024
 4903SOL    HW226343   2.338   0.719   5.864 -0.2244 -0.0300 -2.2614
 4904SOL     OW26344   2.487   0.919   7.682  0.8416  0.0565 -0.3082
 4904SOL    HW126345   2.424   0.853   7.654 -0.8525  1.4801  0.0865
 4904SOL    HW226346   2.468   0.922   7.776  0.9655  1.1631 -0.3195
 4905SOL     OW26347   1.836   0.532   3.076 -0.4834  0.1871  0.1563
 4905SOL    HW126348   1.905   0.556   3.138  0.7669 -2.1425 -0.3141
 4905SOL    HW226349   1.847   0.594   3.004  1.3745  2.1106  2.1149
 4906SOL     OW26350   4.280   3.070   5.914 -0.7023 -0.2582 -0.1521
 4906SOL    HW126351   4.245   3.139   5.971 -0.4112  0.7381 -1.1862
 4906SOL    HW226352   4.214   3.061   5.845 -2.3759  0.2375  1.3677
 4907SOL     OW26353   1.391   1.040   6.173 -0.3656  0.3251 -0.0172
 4907SOL    HW126354   1.421   0.963   6.221 -1.1597  0.1863  0.2451
 4907SOL    HW226355   1.307   1.055   6.215 -0.4908 -1.2876  0.3048
 4908SOL     OW26356   1.778   1.566  11.900  0.2229 -0.1710  0.2434
 4908SOL    HW126357   1.689   1.568  11.866  0.1497 -0.4315  0.4148
 4908SOL    HW226358   1.833   1.514  11.841  0.3815  1.5412 -1.1202
 4909SOL     OW26359   3.111   2.533   5.493  0.3225 -0.3606  0.2967
 4909SOL    HW126360   3.158   2.454   5.465  0.6836 -0.2955  0.7147
 4909SOL    HW226361   3.077   2.551   5.405  0.3879  2.6613  0.8851
 4910SOL     OW26362   0.772   1.617   9.034  0.0419 -0.3837  0.4176
 4910SOL    HW126363   0.697   1.630   9.092 -0.7778  1.4099 -1.0402
 4910SOL    HW226364   0.771   1.687   8.968  1.5265 -0.3798  0.4063
 4911SOL     OW26365   1.782   3.618  16.088  0.0066 -0.2938  0.0469
 4911SOL    HW126366   1.785   3.645  15.996  0.6668  2.6397  0.9394
 4911SOL    HW226367   1.781   3.522  16.086  0.2556 -0.2866 -0.3923
 4912SOL     OW26368   3.509   0.562   1.909 -0.0333 -0.1069 -0.2110
 4912SOL    HW126369   3.528   0.558   2.003 -3.4725  1.1680  0.5101
 4912SOL    HW226370   3.517   0.656   1.897 -2.5971  0.1190 -0.0521
 4913SOL     OW26371   0.943   2.257   6.432 -0.3270  0.4052  0.1909
 4913SOL    HW126372   0.890   2.240   6.354 -0.2195 -1.9099  0.6428
 4913SOL    HW226373   1.029   2.282   6.398  0.3512 -2.7692 -0.3925
 4914SOL     OW26374   3.522   0.780   4.961 -0.2507 -0.1904  0.2121
 4914SOL    HW126375   3.477   0.860   4.990  0.8588  0.3381  0.4780
 4914SOL    HW226376   3.548   0.797   4.871  0.2753  0.3049  0.4570
 4915SOL     OW26377   2.683   3.650   8.366  0.6135  0.4142 -0.1416
 4915SOL    HW126378   2.759   3.683   8.413  2.6644 -1.6964 -1.9735
 4915SOL    HW226379   2.724   3.572   8.329  0.0998  0.0866 -0.0142
 4916SOL     OW26380   0.444   2.042  12.040 -0.2047 -0.0576 -0.3398
 4916SOL    HW126381   0.399   2.006  12.117 -0.3191 -0.0128 -0.3874
 4916SOL    HW226382   0.508   2.104  12.075 -0.4256 -0.8117  1.4067
 4917SOL     OW26383   4.465   2.366   6.479 -0.7446  0.1343  0.2397
 4917SOL    HW126384   4.381   2.350   6.437  0.5752 -1.6163 -1.7366
 4917SOL    HW226385   4.513   2.283   6.482 -0.0578  0.4777 -1.4141
 4918SOL     OW26386   0.263   0.401  12.411 -0.1450  0.1612 -0.3434
 4918SOL    HW126387   0.293   0.479  12.365  0.5046 -0.7716 -1.4907
 4918SOL    HW226388   0.336   0.370  12.463  0.4250 -0.7951 -1.7249
 4919SOL     OW26389   4.201   1.814   4.072 -0.2671 -0.1757  0.0187
 4919SOL    HW126390   4.254   1.873   4.125 -2.6225  1.3982  0.6266
 4919SOL    HW226391   4.123   1.835   4.123  0.6380 -2.3915  2.3034
 4920SOL     OW26392   4.479   3.558   1.166  0.1774  0.3807 -0.2218
 4920SOL    HW126393   4.453   3.635   1.116  2.3899  0.1873 -1.6825
 4920SOL    HW226394   4.407   3.543   1.228  0.4512 -0.2303 -0.0446
 4921SOL     OW26395   3.684   0.627   2.452 -0.7935  0.2552  0.1161
 4921SOL    HW126396   3.688   0.713   2.494 -0.1958 -0.4730  1.5527
 4921SOL    HW226397   3.698   0.645   2.359 -2.3651 -1.2280 -0.4069
 4922SOL     OW26398   3.695   3.882   8.921 -0.4323 -0.6598 -0.1356
 4922SOL    HW126399   3.762   3.939   8.960 -1.5856  0.7895 -0.2652
 4922SOL    HW226400   3.662   3.825   8.990 -2.0823 -0.5687 -0.8537
 4923SOL     OW26401   0.170   0.423   4.693 -0.0871  0.2786  0.1805
 4923SOL    HW126402   0.106   0.369   4.740  1.2566 -0.5322  1.0485
 4923SOL    HW226403   0.149   0.507   4.734  1.2864  0.1773  1.0584
 4924SOL     OW26404   0.956   1.043   7.963  0.4629  0.1087  0.5547
 4924SOL    HW126405   0.889   1.112   7.965  0.2864 -0.0475 -0.0465
 4924SOL    HW226406   0.955   1.020   8.056  0.7910 -0.7040  0.3564
 4925SOL     OW26407   0.387   1.669   4.853 -0.3995  0.5977 -0.4674
 4925SOL    HW126408   0.361   1.747   4.902  2.3986 -0.6511  2.9856
 4925SOL    HW226409   0.309   1.616   4.868  0.3647 -0.1554  0.8023
 4926SOL     OW26410   3.778   4.053   7.350 -0.5781  0.2602 -0.4638
 4926SOL    HW126411   3.710   4.119   7.354  1.6591  2.3364  4.1310
 4926SOL    HW226412   3.731   3.969   7.348 -0.0445 -0.0347 -0.6388
 4927SOL     OW26413   1.800   1.238   3.566 -0.4490  0.2709  0.1740
 4927SOL    HW126414   1.781   1.165   3.507  0.4476 -1.0363  1.5037
 4927SOL    HW226415   1.719   1.238   3.618 -1.5742  0.3397 -1.5959
 4928SOL     OW26416   3.638   3.418  13.020  0.8907  0.4057  0.4432
 4928SOL    HW126417   3.596   3.374  13.094 -0.0654  1.8202  0.7407
 4928SOL    HW226418   3.684   3.488  13.067 -0.3912  0.8248  1.0813
 4929SOL     OW26419   1.742   2.333   3.830  0.2592 -0.1125 -0.6559
 4929SOL    HW126420   1.744   2.319   3.925  3.8623 -3.2106 -1.2082
 4929SOL    HW226421   1.755   2.242   3.804  3.3794  0.6154 -1.7249
 4930SOL     OW26422   4.452   1.287   1.673 -0.0974 -0.3141 -0.2125
 4930SOL    HW126423   4.360   1.309   1.657 -0.8059 -1.7754  1.8280
 4930SOL    HW226424   4.507   1.352   1.629  0.9297 -1.5863 -0.8205
 4931SOL     OW26425   0.542   2.149   2.206  0.4231 -0.1292  0.1248
 4931SOL    HW126426   0.575   2.083   2.266  1.1508 -0.1073 -0.2589
 4931SOL    HW226427   0.623   2.194   2.180  1.5761 -1.3998  1.5872
 4932SOL     OW26428   0.211   2.451   7.585 -0.2375  0.0296  0.1526
 4932SOL    HW126429   0.133   2.396   7.591 -0.7005  0.7795  0.9437
 4932SOL    HW226430   0.264   2.424   7.660 -0.4691  2.5474  1.2191
 4933SOL     OW26431   0.484   2.733   4.978 -0.6025 -0.6926 -0.4959
 4933SOL    HW126432   0.424   2.696   5.042 -3.6563  1.5839 -2.0343
 4933SOL    HW226433   0.443   2.817   4.956  1.9274  0.5951 -0.3340
 4934SOL     OW26434   0.013   0.626   1.861  0.7950 -0.5064  0.4978
 4934SOL    HW126435   4.671   0.678   1.845  1.0049  0.3597  2.3353
 4934SOL    HW226436   0.085   0.690   1.856 -0.6615  1.3949  3.7083
 4935SOL     OW26437   3.118   2.006   1.077 -0.4298 -0.0058 -0.0016
 4935SOL    HW126438   3.106   1.983   1.169  1.5206  0.5881  0.3863
 4935SOL    HW226439   3.129   2.101   1.089  0.9293 -0.1890  0.1300
 4936SOL     OW26440   2.235   1.549   4.743  0.8689 -0.1954  0.4032
 4936SOL    HW126441   2.241   1.461   4.705  0.3444  1.0241 -2.5039
 4936SOL    HW226442   2.293   1.545   4.819 -0.4925  2.6476  1.5901
 4937SOL     OW26443   2.162   1.625   1.406 -0.2322  0.5168 -0.1314
 4937SOL    HW126444   2.179   1.711   1.444 -0.1203  0.0995  0.7550
 4937SOL    HW226445   2.220   1.636   1.331 -1.0461 -2.6569 -1.2119
 4938SOL     OW26446   0.346   3.140  13.567 -0.4849  0.6108 -0.3362
 4938SOL    HW126447   0.274   3.166  13.624 -0.0336  1.9941 -0.4027
 4938SOL    HW226448   0.319   3.056  13.531  0.6692 -0.1354  0.5443
 4939SOL     OW26449   1.748   4.044   5.002 -0.0799  0.6152 -0.0026
 4939SOL    HW126450   1.762   4.130   5.041  0.3542 -0.0024  1.2161
 4939SOL    HW226451   1.690   4.007   5.068  0.7004 -2.2307 -0.9119
 4940SOL     OW26452   4.116   1.999  10.875  0.0563  0.1175  0.1099
 4940SOL    HW126453   4.174   2.067  10.842 -2.0169  2.0142  0.3592
 4940SOL    HW226454   4.169   1.957  10.943  0.9513  0.5394 -0.3267
 4941SOL     OW26455   3.519   3.758   3.095  0.4606  0.4162  0.2879
 4941SOL    HW126456   3.472   3.797   3.021 -2.6332 -0.6991  1.6670
 4941SOL    HW226457   3.558   3.843   3.115 -0.7745  0.7038  1.4779
 4942SOL     OW26458   0.601   1.463  11.712 -0.0614 -0.7370  0.3043
 4942SOL    HW126459   0.607   1.521  11.636 -2.1127 -1.2413 -0.2409
 4942SOL    HW226460   0.518   1.480  11.757 -1.5250 -0.1278 -2.6655
 4943SOL     OW26461   2.922   3.667  17.252 -0.1876 -0.1220 -0.5623
 4943SOL    HW126462   2.979   3.736  17.286  0.4784 -0.8473 -0.1821
 4943SOL    HW226463   2.873   3.653  17.334  0.2279 -1.3999 -0.5233
 4944SOL     OW26464   2.533   4.134   2.433  0.2196  0.2383 -0.2265
 4944SOL    HW126465   2.505   4.201   2.370 -1.1464  0.3543  0.5239
 4944SOL    HW226466   2.454   4.130   2.486  1.1432 -0.6350  1.0829
 4945SOL     OW26467   1.476   0.631   5.570  0.3652  0.2845  0.0370
 4945SOL    HW126468   1.500   0.705   5.513 -0.9780  1.0526  0.4728
 4945SOL    HW226469   1.383   0.626   5.548  0.4838  1.3855 -0.7463
 4946SOL     OW26470   3.624   0.982   6.293  0.0648 -0.2730 -0.3952
 4946SOL    HW126471   3.697   1.029   6.333  1.1367 -1.7741 -0.5977
 4946SOL    HW226472   3.672   0.901   6.274 -1.4243 -1.0972 -0.6660
 4947SOL     OW26473   0.766   0.892  15.157 -0.3915 -0.8207  0.3352
 4947SOL    HW126474   0.829   0.865  15.090 -0.6611 -1.9787  0.5484
 4947SOL    HW226475   0.827   0.932  15.219 -1.0822 -1.8070  1.6377
 4948SOL     OW26476   2.671   1.526   6.780 -0.1833 -0.1428  0.6888
 4948SOL    HW126477   2.701   1.449   6.827  1.5733  0.2942  0.2837
 4948SOL    HW226478   2.586   1.493   6.751  0.0777 -1.4447  1.4045
 4949SOL     OW26479   4.516   1.023  15.794  0.0693 -0.7625 -0.3646
 4949SOL    HW126480   4.566   0.945  15.821  1.3799 -0.1344 -0.9819
 4949SOL    HW226481   4.426   0.991  15.788 -0.1986 -0.0313 -0.1612
 4950SOL     OW26482   4.027   3.503   6.201  0.1746 -0.5587  0.0960
 4950SOL    HW126483   4.074   3.480   6.282 -0.3885  3.4130  1.5377
 4950SOL    HW226484   3.940   3.526   6.233 -1.0016 -1.7300 -2.2634
 4951SOL     OW26485   1.336   4.135   6.088 -0.1276 -0.2188  0.2722
 4951SOL    HW126486   1.361   4.064   6.148  0.3181  0.7101  1.1779
 4951SOL    HW226487   1.253   4.107   6.049 -1.8868  1.1897  3.0644
 4952SOL     OW26488   0.787   0.747   7.983 -0.4134  0.2130 -0.3119
 4952SOL    HW126489   0.781   0.782   8.072 -0.9836  0.2862 -0.3771
 4952SOL    HW226490   0.705   0.698   7.973  0.5191 -1.3126 -0.5289
 4953SOL     OW26491   2.000   3.148   6.580  0.1396  0.0298 -0.5521
 4953SOL    HW126492   2.087   3.155   6.618 -0.5696 -1.7584  1.3937
 4953SOL    HW226493   1.960   3.094   6.648 -1.0149 -2.5973 -3.3063
 4954SOL     OW26494   0.386   1.545   2.605  0.0077  0.2893  0.1768
 4954SOL    HW126495   0.481   1.533   2.604 -0.1226 -0.6698 -0.3089
 4954SOL    HW226496   0.355   1.598   2.679  0.5483  0.2812  0.4107
 4955SOL     OW26497   3.521   0.334  14.207  0.2152  0.7945 -0.0431
 4955SOL    HW126498   3.533   0.314  14.300  1.0110 -0.5660 -0.4508
 4955SOL    HW226499   3.592   0.396  14.193  0.1454  0.7016 -0.7962
 4956SOL     OW26500   3.239   3.176   0.194 -0.0729  0.2540 -0.7670
 4956SOL    HW126501   3.168   3.239   0.184 -1.9015 -1.6621  0.0404
 4956SOL    HW226502   3.309   3.207   0.137 -0.3297  0.5819 -0.9029
 4957SOL     OW26503   3.139   2.736   6.336  0.7876  0.4315  0.3770
 4957SOL    HW126504   3.047   2.760   6.337  0.9431  1.0538  0.0607
 4957SOL    HW226505   3.152   2.688   6.418  0.0504  1.0819  0.8785
 4958SOL     OW26506   1.629   3.793   2.947  0.4524  0.5703 -0.3520
 4958SOL    HW126507   1.534   3.807   2.950  0.2718 -0.5613 -0.9273
 4958SOL    HW226508   1.633   3.785   2.852  0.0309 -0.1906 -0.3026
 4959SOL     OW26509   4.360   2.545   7.159 -0.4458 -0.1532  0.0184
 4959SOL    HW126510   4.334   2.627   7.201 -0.6721 -0.2851  0.1373
 4959SOL    HW226511   4.278   2.498   7.144 -1.0648  0.4139  1.5809
 4960SOL     OW26512   3.167   3.076   6.955 -0.0640  0.0492 -0.2024
 4960SOL    HW126513   3.258   3.053   6.936 -0.5541 -1.1528 -1.0852
 4960SOL    HW226514   3.193   3.150   7.010  1.2287  0.2901 -1.1351
 4961SOL     OW26515   2.892   2.465  15.758 -0.0483  0.1723  0.0195
 4961SOL    HW126516   2.873   2.390  15.814  0.1787  0.1931  0.1246
 4961SOL    HW226517   2.897   2.539  15.819  2.4369 -0.5421  0.7036
 4962SOL     OW26518   4.608   2.649   5.767 -0.1570 -0.2664  0.1111
 4962SOL    HW126519   4.651   2.711   5.707 -1.0219  0.0827 -0.1456
 4962SOL    HW226520   4.551   2.708   5.817 -1.7097  0.0533 -2.0484
 4963SOL     OW26521   0.585   1.450  12.065 -0.2340  0.2119 -0.1277
 4963SOL    HW126522   0.577   1.544  12.081 -1.4778 -0.4415  3.0476
 4963SOL    HW226523   0.494   1.421  12.067 -0.3116  0.3476 -1.8271
 4964SOL     OW26524   1.771   3.264   5.814  0.4556 -0.3410  0.4720
 4964SOL    HW126525   1.775   3.358   5.831 -1.2208 -0.5475  2.0154
 4964SOL    HW226526   1.864   3.243   5.821  0.8944  1.8704  1.3674
 4965SOL     OW26527   2.687   2.798   8.071 -0.3539 -0.1931  0.2544
 4965SOL    HW126528   2.756   2.759   8.018  0.5584  0.0825  1.2363
 4965SOL    HW226529   2.714   2.889   8.082 -3.1535  0.3275  3.0730
 4966SOL     OW26530   3.212   2.950   7.288 -0.5286 -0.5688  0.0373
 4966SOL    HW126531   3.289   2.978   7.238 -1.2631 -0.0408 -0.8051
 4966SOL    HW226532   3.141   2.974   7.228 -1.1996  0.9680  1.4439
 4967SOL     OW26533   3.026   4.387  15.832 -0.0193 -0.0642  0.2736
 4967SOL    HW126534   3.050   4.334  15.908  1.2098 -0.7388 -0.5848
 4967SOL    HW226535   2.952   4.437  15.868 -1.1820 -0.0660 -2.1057
 4968SOL     OW26536   1.298   3.686   8.340 -0.2518 -0.5750 -0.7080
 4968SOL    HW126537   1.376   3.723   8.382 -0.1802 -0.1760 -1.1828
 4968SOL    HW226538   1.337   3.604   8.309 -0.4618 -0.7283 -0.5570
 4969SOL     OW26539   0.148   3.501   4.715 -0.2248  0.2940  0.4848
 4969SOL    HW126540   0.132   3.595   4.703  0.7902  0.4514  0.2961
 4969SOL    HW226541   0.064   3.464   4.691  1.1446 -0.6598 -2.7967
 4970SOL     OW26542   1.086   1.865   3.165  0.8549 -0.5635 -0.1252
 4970SOL    HW126543   1.170   1.873   3.211  0.0817  0.1951  1.1411
 4970SOL    HW226544   1.107   1.775   3.140 -0.2376 -0.9060  0.2175
 4971SOL     OW26545   3.048   1.036   8.962 -0.2337 -0.3229  1.2143
 4971SOL    HW126546   3.104   1.010   8.889 -2.5396  0.1940 -0.7393
 4971SOL    HW226547   2.963   1.043   8.918  0.9725  2.6886 -0.6206
 4972SOL     OW26548   1.587   2.220   3.421  0.2736 -0.7816  0.2058
 4972SOL    HW126549   1.605   2.136   3.378  1.8074 -0.2283 -0.2413
 4972SOL    HW226550   1.676   2.254   3.428  0.6071 -1.4914 -0.5023
 4973SOL     OW26551   3.095   4.319   3.748  0.4926 -0.2070 -0.6065
 4973SOL    HW126552   3.040   4.397   3.755  0.2289 -0.2309 -2.3405
 4973SOL    HW226553   3.147   4.325   3.828  0.5065 -0.0350 -0.6286
 4974SOL     OW26554   3.597   3.348  16.719  0.1142 -0.5453  0.0980
 4974SOL    HW126555   3.598   3.392  16.804 -0.2871 -0.0491 -0.1560
 4974SOL    HW226556   3.690   3.326  16.718  0.4270  0.9234 -1.7822
 4975SOL     OW26557   1.364   0.750   6.041 -0.4993 -0.4314 -0.0782
 4975SOL    HW126558   1.311   0.803   5.982  0.0589  0.5005  0.2560
 4975SOL    HW226559   1.431   0.722   5.979 -1.2366 -1.2580 -0.4849
 4976SOL     OW26560   4.201   3.602   6.038  0.0130 -0.3020  0.3921
 4976SOL    HW126561   4.108   3.592   6.061  0.8436 -1.0538  3.4169
 4976SOL    HW226562   4.202   3.608   5.942  1.0236  2.9519  0.6202
 4977SOL     OW26563   0.422   4.505  13.643  0.0719 -0.0078 -0.1392
 4977SOL    HW126564   0.495   4.551  13.603  0.9695 -2.0176 -0.7994
 4977SOL    HW226565   0.459   4.471  13.725  1.1217  2.3154  0.3371
 4978SOL     OW26566   1.769   0.810   3.586 -0.0150  0.1710  0.5943
 4978SOL    HW126567   1.683   0.771   3.601 -0.1288  0.6899  1.2979
 4978SOL    HW226568   1.742   0.890   3.541 -0.9376 -0.4187  0.1033
 4979SOL     OW26569   0.033   3.708   9.957 -0.0394 -0.3389 -0.1318
 4979SOL    HW126570   0.101   3.640   9.960 -0.3783 -0.5848  1.9039
 4979SOL    HW226571   0.069   3.779   9.905  1.5617  0.0003  1.4058
 4980SOL     OW26572   3.446   4.023   3.863  0.3526  0.1675 -0.0875
 4980SOL    HW126573   3.405   3.983   3.787 -0.7927  0.3699  0.4215
 4980SOL    HW226574   3.530   3.978   3.863 -0.9146 -2.2129  0.9236
 4981SOL     OW26575   3.316   2.815  10.364 -0.0864 -0.2017 -0.1199
 4981SOL    HW126576   3.373   2.757  10.414  0.3271 -0.8565 -1.3436
 4981SOL    HW226577   3.258   2.750  10.324 -0.2930  0.2004 -0.4806
 4982SOL     OW26578   4.018   3.391   7.667  0.1665 -0.2402  0.1902
 4982SOL    HW126579   4.061   3.327   7.722 -1.8338  0.1236  2.1767
 4982SOL    HW226580   4.047   3.477   7.696  2.2770 -1.4286  1.5789
 4983SOL     OW26581   4.107   4.250  17.353  0.7414 -0.4972  0.0804
 4983SOL    HW126582   4.159   4.209  17.284 -0.9339 -2.7291  0.1573
 4983SOL    HW226583   4.019   4.233  17.319  0.8798 -0.4083 -0.3254
 4984SOL     OW26584   2.038   3.963   5.697 -0.1224 -0.3657 -0.0580
 4984SOL    HW126585   1.993   3.898   5.643  2.3144 -2.1149 -0.0221
 4984SOL    HW226586   2.119   3.915   5.715 -1.8721 -3.1161  0.4762
 4985SOL     OW26587   4.254   0.493  11.213 -0.6514 -0.2536  0.3547
 4985SOL    HW126588   4.261   0.587  11.193  0.3714 -0.5811 -0.8757
 4985SOL    HW226589   4.295   0.486  11.299  0.9059  1.0378 -0.2647
 4986SOL     OW26590   4.326   0.330  14.618  0.2619  0.6992 -0.0421
 4986SOL    HW126591   4.349   0.270  14.689 -0.4622  1.1166  0.5431
 4986SOL    HW226592   4.331   0.278  14.538 -1.8509 -0.5541  0.6393
 4987SOL     OW26593   4.516   2.975  16.488 -0.4862  0.0147  0.5291
 4987SOL    HW126594   4.466   2.908  16.443  1.4994 -0.3863 -1.0652
 4987SOL    HW226595   4.461   2.989  16.565  0.2915 -2.4598  1.5229
 4988SOL     OW26596   0.559   1.686   1.797 -0.1540 -0.3158 -0.1995
 4988SOL    HW126597   0.556   1.782   1.802 -0.3737 -0.2745 -1.2129
 4988SOL    HW226598   0.465   1.671   1.785  0.0121 -0.8573 -0.8302
 4989SOL     OW26599   0.187   4.480   2.663  0.4397  0.0988  0.0209
 4989SOL    HW126600   0.212   4.389   2.647  0.6227 -0.0439  1.1510
 4989SOL    HW226601   0.127   4.476   2.738 -1.0407  1.8616 -1.0796
 4990SOL     OW26602   2.479   2.992   7.644 -0.5200 -0.2422 -0.0882
 4990SOL    HW126603   2.452   3.072   7.688  1.1490  1.2743 -1.8000
 4990SOL    HW226604   2.522   2.949   7.718 -0.1189  0.0608 -0.1421
 4991SOL     OW26605   3.820   2.525   6.777 -0.3514 -0.1273  0.5269
 4991SOL    HW126606   3.878   2.599   6.796  0.3157 -0.5270  0.0514
 4991SOL    HW226607   3.730   2.557   6.782 -0.9402 -1.7549  0.3929
 4992SOL     OW26608   0.912   1.210   2.529  0.0963 -0.0438  0.2068
 4992SOL    HW126609   0.900   1.120   2.560 -1.4002 -0.0613 -0.3817
 4992SOL    HW226610   0.956   1.192   2.446 -0.1527  0.2900  0.0038
 4993SOL     OW26611   2.238   2.646   4.623  0.7327 -0.0677  0.1113
 4993SOL    HW126612   2.179   2.657   4.698 -0.6076  0.3813 -1.0128
 4993SOL    HW226613   2.172   2.613   4.563 -0.6890  1.1133  1.0139
 4994SOL     OW26614   1.629   2.361  15.189  0.1413  0.4928 -0.1753
 4994SOL    HW126615   1.670   2.284  15.150  0.7428  0.7737 -0.0989
 4994SOL    HW226616   1.563   2.376  15.122  1.2052 -1.3664 -1.6339
 4995SOL     OW26617   1.904   0.977  17.074  0.2953 -0.2376  0.0719
 4995SOL    HW126618   1.904   1.055  17.018 -2.2379 -0.8253 -0.7420
 4995SOL    HW226619   1.897   0.903  17.013 -1.6563  0.2817 -0.3249
 4996SOL     OW26620   4.101   2.598  14.677  0.1064 -0.1728 -0.2956
 4996SOL    HW126621   4.055   2.594  14.761  3.0742 -0.1684  1.3146
 4996SOL    HW226622   4.086   2.688  14.648  0.9301  0.2265  0.5157
 4997SOL     OW26623   1.272   1.736   8.696  0.0231 -0.2787  0.2797
 4997SOL    HW126624   1.331   1.809   8.714 -2.6250  2.4384 -1.9228
 4997SOL    HW226625   1.260   1.737   8.601  0.5801 -2.3077  0.1983
 4998SOL     OW26626   2.744   0.850   4.398 -0.3308  0.1097  0.2842
 4998SOL    HW126627   2.812   0.901   4.443 -0.7074  1.4778 -0.6986
 4998SOL    HW226628   2.742   0.893   4.313 -0.1661  1.2460  0.8472
 4999SOL     OW26629   0.948   2.900  15.603  0.0516 -0.5509  0.5136
 4999SOL    HW126630   1.024   2.943  15.642  0.6856  0.6597 -2.0715
 4999SOL    HW226631   0.902   2.853  15.673  1.1548 -0.5345  1.2418
 5000SOL     OW26632   2.126   3.024   3.726 -0.2953  0.7612  0.7781
 5000SOL    HW126633   2.170   3.035   3.811 -0.8237 -1.0868  1.2938
 5000SOL    HW226634   2.199   3.008   3.665 -1.8096 -0.2051 -0.7711
 5001SOL     OW26635   1.899   2.247   6.937  0.1191 -0.5077  0.7443
 5001SOL    HW126636   1.839   2.257   6.863  0.4969 -0.1525  0.4837
 5001SOL    HW226637   1.954   2.172   6.913 -0.0772  0.0846 -1.6028
 5002SOL     OW26638   0.291   4.716   8.298  0.3641  0.0856 -0.1750
 5002SOL    HW126639   0.272   4.681   8.386 -1.2074 -2.1625 -1.4009
 5002SOL    HW226640   0.208   4.703   8.254  0.2436 -3.1395  0.9718
 5003SOL     OW26641   0.963   2.174   2.254 -0.6960 -0.0547  0.2544
 5003SOL    HW126642   1.047   2.219   2.247 -1.4169  1.1783 -0.5629
 5003SOL    HW226643   0.918   2.229   2.318  1.2087  2.4895 -0.6039
 5004SOL     OW26644   4.153   3.377   6.433  0.0641  0.3772  0.2359
 5004SOL    HW126645   4.232   3.383   6.486  0.2046 -1.0458  0.2026
 5004SOL    HW226646   4.078   3.386   6.492  1.1665  0.2682  1.6540
 5005SOL     OW26647   3.952   2.202   9.117 -0.1666 -0.1425 -0.1302
 5005SOL    HW126648   3.861   2.232   9.118 -0.9636 -2.4608 -1.5161
 5005SOL    HW226649   3.976   2.232   9.030 -0.0204  1.8791  0.6165
 5006SOL     OW26650   0.613   4.664   5.820 -0.4188 -1.0200  0.0679
 5006SOL    HW126651   0.576   4.584   5.858 -2.1091  0.5406  1.7136
 5006SOL    HW226652   0.684   4.682   5.882 -0.2715 -1.2077 -0.0474
 5007SOL     OW26653   0.446   4.323   5.200 -0.3996 -0.3945  0.3432
 5007SOL    HW126654   0.534   4.305   5.232 -1.0959 -0.9896  1.9499
 5007SOL    HW226655   0.424   4.401   5.252  2.5205  0.0270  0.9368
 5008SOL     OW26656   0.069   3.648   3.330  0.4356  0.2299 -0.0204
 5008SOL    HW126657   0.072   3.687   3.417  0.9361  1.1116 -0.4401
 5008SOL    HW226658   0.008   3.711   3.291  1.0359  1.4511  1.0194
 5009SOL     OW26659   3.415   4.171  15.026  0.4324  0.2835 -0.0679
 5009SOL    HW126660   3.488   4.231  15.040  1.8680 -2.2323  3.1041
 5009SOL    HW226661   3.382   4.208  14.944  1.3744 -1.9256 -1.4513
 5010SOL     OW26662   0.407   2.010   7.890 -0.0689 -0.3952 -0.2803
 5010SOL    HW126663   0.403   1.942   7.823 -1.4997  1.4531 -2.0512
 5010SOL    HW226664   0.500   2.015   7.913  0.1892 -0.8716 -1.2193
 5011SOL     OW26665   3.398   3.087   6.809  0.0776  0.5832  0.2345
 5011SOL    HW126666   3.364   3.030   6.741  2.1665  0.1440 -0.4430
 5011SOL    HW226667   3.415   3.163   6.754  1.0351 -0.7306 -1.2812
 5012SOL     OW26668   0.261   0.134  12.691 -0.4237 -0.0881  0.0527
 5012SOL    HW126669   0.343   0.171  12.658 -0.5528  1.8219  1.8962
 5012SOL    HW226670   0.275   0.044  12.662  0.3246 -0.2413  0.9012
 5013SOL     OW26671   4.275   1.060   8.661  0.4751 -0.4415  0.8391
 5013SOL    HW126672   4.266   0.969   8.632  0.7738  0.2019 -1.3182
 5013SOL    HW226673   4.295   1.110   8.581 -0.1138 -1.1821  0.2247
 5014SOL     OW26674   2.957   3.112   5.722 -0.4397  0.2292 -0.5235
 5014SOL    HW126675   2.893   3.151   5.782 -0.3149  1.5682 -1.2765
 5014SOL    HW226676   3.024   3.179   5.727  0.3523 -0.7329  1.8419
 5015SOL     OW26677   1.346   3.596   4.725  0.2436 -0.5937 -0.1079
 5015SOL    HW126678   1.296   3.532   4.674  0.1486 -3.6715  3.7904
 5015SOL    HW226679   1.421   3.615   4.668  0.2988  1.3535  0.6469
 5016SOL     OW26680   1.033   2.178   4.344 -0.7380 -0.3936 -0.2247
 5016SOL    HW126681   0.944   2.204   4.321 -0.6759 -0.2301 -0.2782
 5016SOL    HW226682   1.044   2.205   4.435  1.7672 -0.1780 -0.5832
 5017SOL     OW26683   0.202   4.647   9.562 -1.0302 -0.3664 -0.1582
 5017SOL    HW126684   0.183   4.560   9.525 -0.7852 -1.2695  1.8234
 5017SOL    HW226685   0.110   4.665   9.582 -0.6800 -0.2063  1.2717
 5018SOL     OW26686   1.004   3.398   2.037  0.1125 -0.0659 -0.2890
 5018SOL    HW126687   1.093   3.386   2.069  0.3430 -2.1963 -1.6582
 5018SOL    HW226688   0.966   3.318   2.074  1.3384 -0.2368  0.5891
 5019SOL     OW26689   2.965   3.750  14.394  0.3298 -0.1826  0.4846
 5019SOL    HW126690   2.994   3.840  14.411  3.7185 -0.7952 -2.1478
 5019SOL    HW226691   2.949   3.738  14.301  0.3682  0.0059  0.4528
 5020SOL     OW26692   1.710   3.866   4.293  0.3618  0.2151  0.3065
 5020SOL    HW126693   1.648   3.795   4.283 -0.7346  0.9105  2.1573
 5020SOL    HW226694   1.791   3.816   4.280  0.1328 -0.5125  1.7191
 5021SOL     OW26695   0.673   4.622   5.305  0.7323  0.5365  0.2144
 5021SOL    HW126696   0.759   4.592   5.334  0.2552 -0.5709  0.5086
 5021SOL    HW226697   0.630   4.612   5.390  0.7786 -1.5924 -0.0159
 5022SOL     OW26698   1.553   4.192   5.187 -0.5362  0.9473  0.2372
 5022SOL    HW126699   1.640   4.204   5.226 -0.3691 -1.5810  0.6918
 5022SOL    HW226700   1.497   4.226   5.257 -0.5151 -0.0783  0.7559
 5023SOL     OW26701   2.319   4.519   1.000 -0.4829 -0.1615 -0.5352
 5023SOL    HW126702   2.382   4.589   0.982 -1.9694  1.2169 -0.3649
 5023SOL    HW226703   2.310   4.535   1.094 -0.1950  0.2920 -0.5823
 5024SOL     OW26704   2.853   2.284  15.965  0.8861 -0.7180  0.4159
 5024SOL    HW126705   2.857   2.342  16.042 -0.5854  0.1971 -0.2000
 5024SOL    HW226706   2.777   2.230  15.987  0.4370  0.7045  2.4194
 5025SOL     OW26707   4.270   0.939   7.698 -0.3891  0.5467  0.1196
 5025SOL    HW126708   4.313   1.006   7.645  0.3601  0.7632  1.0044
 5025SOL    HW226709   4.337   0.875   7.721 -0.5836 -0.7376 -2.9568
 5026SOL     OW26710   3.449   2.624  12.315 -0.0785  0.3093 -0.0625
 5026SOL    HW126711   3.391   2.593  12.245 -1.2384  0.3377  0.9006
 5026SOL    HW226712   3.489   2.538  12.331 -3.1994 -1.0171  0.5104
 5027SOL     OW26713   2.022   2.597   8.292  0.0564  0.1361 -0.3164
 5027SOL    HW126714   2.080   2.669   8.269  1.7403 -1.3653 -0.7386
 5027SOL    HW226715   1.938   2.619   8.251 -1.4594 -3.5520  0.8350
 5028SOL     OW26716   1.618   2.733   2.984  0.7177  0.2277  0.2522
 5028SOL    HW126717   1.523   2.738   2.995  0.9643  1.2037  1.9967
 5028SOL    HW226718   1.642   2.823   2.958 -0.2586  0.4364  0.0788
 5029SOL     OW26719   1.657   1.031  10.103  0.2266 -0.4437  0.1357
 5029SOL    HW126720   1.662   1.068  10.191  0.3162 -2.9888  1.1987
 5029SOL    HW226721   1.651   1.108  10.047 -2.1877  0.3511  1.4901
 5030SOL     OW26722   3.802   2.445   2.077  0.5270  0.5531 -0.2530
 5030SOL    HW126723   3.819   2.436   2.171  0.9015  1.0427 -0.2754
 5030SOL    HW226724   3.724   2.390   2.071  1.7377 -1.3556  1.4458
 5031SOL     OW26725   1.109   4.202   5.880 -0.9235 -0.0446 -0.3687
 5031SOL    HW126726   1.037   4.241   5.830 -2.5962 -2.6183  0.0631
 5031SOL    HW226727   1.100   4.116   5.839 -1.2698  0.6324 -1.6872
 5032SOL     OW26728   2.001   0.014   8.031  0.4024  0.4594  0.2317
 5032SOL    HW126729   2.017   0.052   8.117 -0.2542  0.3541  0.3941
 5032SOL    HW226730   2.087   0.024   7.989  1.5270  0.6400  2.5848
 5033SOL     OW26731   2.736   2.628   0.791  0.1350  0.3628 -0.7252
 5033SOL    HW126732   2.765   2.546   0.750  1.1473  0.5484 -0.3812
 5033SOL    HW226733   2.746   2.697   0.725  0.0226 -0.0568 -1.1852
 5034SOL     OW26734   3.064   1.813  12.121  0.3240  0.1755  0.2331
 5034SOL    HW126735   3.081   1.752  12.049  1.4962  0.0729  0.5924
 5034SOL    HW226736   3.108   1.763  12.190 -0.1478 -0.2462  0.2234
 5035SOL     OW26737   1.035   2.256   8.613  0.6523 -0.6562  0.3468
 5035SOL    HW126738   1.098   2.243   8.542 -1.5676 -2.4148 -1.2939
 5035SOL    HW226739   1.009   2.167   8.638  0.2971 -0.3902  0.9083
 5036SOL     OW26740   0.087   3.003   7.359 -0.1200  0.0638 -0.3577
 5036SOL    HW126741   0.018   3.013   7.294 -2.4618 -0.2894  2.0786
 5036SOL    HW226742   0.135   2.933   7.315  2.0433  1.2749  0.0745
 5037SOL     OW26743   3.762   0.896   7.130 -0.1091 -0.2780 -0.2155
 5037SOL    HW126744   3.794   0.945   7.054  0.7317  0.7721  0.8231
 5037SOL    HW226745   3.827   0.828   7.144  0.5533  0.8117  1.9538
 5038SOL     OW26746   2.985   4.168   1.569 -0.0384 -0.7566 -0.1128
 5038SOL    HW126747   3.050   4.125   1.625  1.3090  0.4708 -0.7366
 5038SOL    HW226748   2.959   4.094   1.515 -0.7008 -0.3137 -0.3983
 5039SOL     OW26749   0.624   1.302  17.647 -0.2320 -0.3144 -0.9284
 5039SOL    HW126750   0.580   1.387  17.641  2.7754  1.2248 -1.2193
 5039SOL    HW226751   0.570   1.235  17.605  0.7619 -1.3490 -0.5591
 5040SOL     OW26752   0.086   0.520  17.163 -0.5031  0.6259  0.0433
 5040SOL    HW126753   0.144   0.470  17.220  0.0513 -2.0229 -2.8450
 5040SOL    HW226754   0.001   0.506  17.204 -0.1650  2.7093  1.4355
 5041SOL     OW26755   4.202   1.590   1.787 -0.4718 -0.1058 -0.2974
 5041SOL    HW126756   4.244   1.672   1.762  3.0213 -0.9737  2.6695
 5041SOL    HW226757   4.232   1.533   1.716 -2.6141  1.0922 -2.1398
 5042SOL     OW26758   3.865   1.711   7.621  0.1245  0.6505 -0.2287
 5042SOL    HW126759   3.900   1.767   7.689  2.3559 -1.4035  0.3228
 5042SOL    HW226760   3.881   1.624   7.658  0.7022  0.5585 -0.6995
 5043SOL     OW26761   2.558   0.669   5.053 -0.7929  0.8611  0.1839
 5043SOL    HW126762   2.543   0.755   5.015  1.0474  0.0646 -2.3507
 5043SOL    HW226763   2.525   0.613   4.982  1.2839  0.3776 -0.3882
 5044SOL     OW26764   3.628   2.983   5.982 -0.8192 -0.3931  0.7143
 5044SOL    HW126765   3.719   2.984   6.013 -0.7702  1.3474  0.5446
 5044SOL    HW226766   3.621   2.894   5.948  0.9454  0.3577 -1.6229
 5045SOL     OW26767   1.952   3.857   5.259 -0.2405  0.4544 -0.6690
 5045SOL    HW126768   1.958   3.830   5.351 -0.0925  0.0108 -0.8079
 5045SOL    HW226769   1.971   3.778   5.208 -0.6915  0.0134 -0.1457
 5046SOL     OW26770   0.542   1.725   9.186 -0.0604  0.1288 -0.5624
 5046SOL    HW126771   0.563   1.671   9.262  1.5248  0.6835 -0.5916
 5046SOL    HW226772   0.582   1.805   9.221 -1.1610 -0.7040  2.5135
 5047SOL     OW26773   3.638   3.813   5.946 -0.3944 -0.6308  0.2562
 5047SOL    HW126774   3.640   3.897   5.899  0.9653 -1.0720 -0.4927
 5047SOL    HW226775   3.583   3.751   5.898 -0.6485 -1.0380  1.0708
 5048SOL     OW26776   1.180   4.399  13.481 -0.2385  0.5512  0.2335
 5048SOL    HW126777   1.183   4.463  13.410 -2.4109  2.4095  1.8318
 5048SOL    HW226778   1.254   4.424  13.536 -0.1449  0.7871 -0.0023
 5049SOL     OW26779   2.804   2.532  17.293 -0.1142  0.2842  0.1349
 5049SOL    HW126780   2.748   2.498  17.363  1.1853  1.3998  1.6992
 5049SOL    HW226781   2.780   2.624  17.306 -0.1677  0.1732  0.8334
 5050SOL     OW26782   0.700   0.432  16.222 -0.3651  0.2019  0.0715
 5050SOL    HW126783   0.762   0.464  16.287  0.5859  0.8162 -1.1252
 5050SOL    HW226784   0.725   0.342  16.200 -1.2958  0.7671 -3.3058
 5051SOL     OW26785   3.755   3.097   4.978  0.2038 -0.4303  0.3719
 5051SOL    HW126786   3.700   3.028   4.941  0.0322  0.7638 -1.5747
 5051SOL    HW226787   3.842   3.059   4.971 -0.1017 -0.9153 -0.7935
 5052SOL     OW26788   3.305   1.219   1.054  0.1617  0.5303 -0.3129
 5052SOL    HW126789   3.231   1.158   1.050  1.3602 -0.9399 -0.2348
 5052SOL    HW226790   3.381   1.161   1.041 -1.4649 -1.9871  1.4346
 5053SOL     OW26791   3.187   3.460  13.441  0.1248 -0.4222 -0.0268
 5053SOL    HW126792   3.259   3.514  13.407  0.6884 -0.7625  0.6492
 5053SOL    HW226793   3.136   3.522  13.492  1.7930  0.4560  0.5903
 5054SOL     OW26794   3.811   1.453  16.186 -0.0824  0.3336  0.4597
 5054SOL    HW126795   3.791   1.404  16.265  1.6972  0.9711  1.3049
 5054SOL    HW226796   3.724   1.488  16.163 -1.2083 -1.6914  1.6385
 5055SOL     OW26797   3.428   0.015  17.327 -0.0131  0.1445 -0.0123
 5055SOL    HW126798   3.372   0.093  17.330 -1.2241 -0.7083 -0.6139
 5055SOL    HW226799   3.399   4.697  17.400  0.0127  0.9928  0.6364
 5056SOL     OW26800   0.616   4.192   6.890  0.3372 -0.5644 -0.3161
 5056SOL    HW126801   0.528   4.154   6.882 -0.9836  2.7123 -1.4032
 5056SOL    HW226802   0.605   4.284   6.915  0.7261 -0.1693 -1.5561
 5057SOL     OW26803   4.420   0.962  17.716 -0.7383 -0.0179  0.6768
 5057SOL    HW126804   4.481   1.009  17.660  2.4972 -2.9768  1.7527
 5057SOL    HW226805   4.453   0.989   0.056  0.3813 -0.7065  0.4566
 5058SOL     OW26806   2.456   4.234   4.085  0.4289 -0.3909 -0.2020
 5058SOL    HW126807   2.398   4.298   4.126 -0.6096 -0.1255 -2.0638
 5058SOL    HW226808   2.405   4.153   4.086  0.5232 -0.4563 -0.6126
 5059SOL     OW26809   4.716   0.327  17.458 -0.2811  0.0817  0.2782
 5059SOL    HW126810   4.630   0.354  17.425  0.0394 -0.5630 -1.0619
 5059SOL    HW226811   4.719   0.389  17.531 -1.1148  3.0097 -2.1739
 5060SOL     OW26812   3.989   0.592   4.529 -1.0393  0.2249 -0.1920
 5060SOL    HW126813   3.983   0.513   4.582 -2.0235  0.7963  0.5444
 5060SOL    HW226814   4.020   0.659   4.590  0.4323 -2.0272  1.5444
 5061SOL     OW26815   0.004   3.289   1.707  0.0915  0.1232 -0.2500
 5061SOL    HW126816   4.733   3.202   1.746  1.7673  0.1382  0.1232
 5061SOL    HW226817   4.654   3.328   1.720  0.0971  0.1033 -0.1598
 5062SOL     OW26818   4.446   3.947   8.212 -0.1683  0.1275  0.6080
 5062SOL    HW126819   4.372   3.963   8.270  0.6434  2.1977  1.0623
 5062SOL    HW226820   4.518   3.934   8.272  0.8487 -1.2415 -0.9076
 5063SOL     OW26821   4.176   2.230   4.666 -0.0880 -0.1671  0.2957
 5063SOL    HW126822   4.117   2.257   4.737  0.4648 -0.2634  0.7967
 5063SOL    HW226823   4.211   2.317   4.648 -0.0441  0.0117  1.2092
 5064SOL     OW26824   4.414   2.925   6.683  0.2333 -0.1590  0.0817
 5064SOL    HW126825   4.324   2.903   6.707  0.2611  0.5749  0.8525
 5064SOL    HW226826   4.406   3.020   6.684 -0.9135 -0.2726  2.0896
 5065SOL     OW26827   4.503   4.680   5.373 -0.0092 -0.0423  0.3845
 5065SOL    HW126828   4.524   4.695   5.281 -1.4247  1.1342  0.2625
 5065SOL    HW226829   4.541   0.026   5.402  0.0036  0.2947 -0.5888
 5066SOL     OW26830   4.146   4.546   6.314  0.1629 -0.5029 -0.1766
 5066SOL    HW126831   4.217   4.561   6.252  0.7081 -0.5657  0.4271
 5066SOL    HW226832   4.086   4.504   6.253  0.0089 -1.6543  0.7507
 5067SOL     OW26833   0.018   1.838   8.332 -0.3382  0.5141  0.4344
 5067SOL    HW126834   4.707   1.845   8.415  0.4792 -0.9946  1.0335
 5067SOL    HW226835   4.731   1.919   8.287 -0.9672 -0.4244 -0.8955
 5068SOL     OW26836   1.534   0.010   4.400  0.2878  0.1997 -0.1147
 5068SOL    HW126837   1.551   4.713   4.313  2.1459  0.7527  0.0148
 5068SOL    HW226838   1.476   0.082   4.376 -0.3136 -0.7481 -1.5077
 5069SOL     OW26839   0.016   0.072   9.940  0.1623  0.5710  0.0927
 5069SOL    HW126840   4.712   0.130   9.876 -3.9096 -2.7168 -0.3340
 5069SOL    HW226841   4.682   0.008   9.949 -0.6335  1.5048  0.4688
 5070SOL     OW26842   2.758   1.041   3.715 -0.0278 -0.5424 -0.2576
 5070SOL    HW126843   2.682   0.983   3.709 -0.4907  0.3719 -3.1796
 5070SOL    HW226844   2.727   1.120   3.760  0.9891 -1.4778  2.0795
 5071SOL     OW26845   2.871   1.424   4.838  0.3359 -0.5431 -0.0940
 5071SOL    HW126846   2.936   1.354   4.831  1.5883  0.8074 -1.8649
 5071SOL    HW226847   2.916   1.495   4.793  1.8934  0.8601  3.6322
 5072SOL     OW26848   0.834   0.880   2.472  0.0386  0.3168 -0.2924
 5072SOL    HW126849   0.773   0.807   2.470 -0.7003  0.9067  0.5830
 5072SOL    HW226850   0.790   0.952   2.426  1.6500  0.6392 -1.3291
 5073SOL     OW26851   2.478   4.366   5.731  0.2270 -0.0285  0.3324
 5073SOL    HW126852   2.509   4.453   5.706  1.6766 -0.4876  0.5368
 5073SOL    HW226853   2.383   4.380   5.731  0.3836  1.0182  0.1824
 5074SOL     OW26854   0.731   2.430  17.467 -0.5270  0.4939 -0.1187
 5074SOL    HW126855   0.685   2.482  17.401  0.0911  1.0690 -0.0984
 5074SOL    HW226856   0.666   2.437  17.536 -0.1672  0.5950  0.2067
 5075SOL     OW26857   1.334   0.347   6.135  0.0994 -0.5558  0.6090
 5075SOL    HW126858   1.286   0.267   6.157 -2.3031  0.4239 -1.1566
 5075SOL    HW226859   1.260   0.407   6.135  0.6279  0.0903  0.3218
 5076SOL     OW26860   0.829   0.848   1.635  0.3259 -0.1970  0.3467
 5076SOL    HW126861   0.743   0.889   1.625  0.5553 -0.2660 -1.8347
 5076SOL    HW226862   0.882   0.913   1.680  0.4642  0.3658 -0.6311
 5077SOL     OW26863   0.264   2.103   6.339 -0.1707 -0.0659 -0.4278
 5077SOL    HW126864   0.221   2.023   6.369 -1.2148  0.5347 -0.3246
 5077SOL    HW226865   0.337   2.127   6.396 -0.4427 -0.2228 -0.0112
 5078SOL     OW26866   3.631   4.075   6.179 -0.4559  0.2272  0.1428
 5078SOL    HW126867   3.629   4.155   6.232 -0.3899  1.2030 -1.3097
 5078SOL    HW226868   3.553   4.070   6.124  0.1251 -0.2074 -0.6469
 5079SOL     OW26869   4.165   0.398   3.695 -0.0612  0.1677  0.1642
 5079SOL    HW126870   4.151   0.477   3.644  0.7934 -1.5687 -2.7925
 5079SOL    HW226871   4.118   0.421   3.775 -0.9867  0.4584 -0.4650
 5080SOL     OW26872   0.524   3.225   5.658 -0.1967  0.1711 -0.7182
 5080SOL    HW126873   0.433   3.220   5.685  0.2606  0.3957  0.8195
 5080SOL    HW226874   0.565   3.255   5.739 -2.2139 -0.7651  0.6491
 5081SOL     OW26875   0.307   0.498   5.372  0.3926 -0.2522  0.2574
 5081SOL    HW126876   0.241   0.449   5.422 -0.6897  0.4459 -0.4756
 5081SOL    HW226877   0.354   0.538   5.445 -2.9965 -0.9551  2.8750
 5082SOL     OW26878   1.214   1.821   5.250  0.1229  0.1669  0.0063
 5082SOL    HW126879   1.206   1.809   5.155 -0.1282 -0.2423  0.0771
 5082SOL    HW226880   1.307   1.841   5.258  0.8250 -2.4706 -1.6497
 5083SOL     OW26881   2.680   1.076   2.974 -0.3663  0.2523 -0.9326
 5083SOL    HW126882   2.752   1.014   2.988 -0.5001  0.0800 -1.0070
 5083SOL    HW226883   2.725   1.160   2.972  1.5033 -0.7836 -1.9573
 5084SOL     OW26884   3.081   1.911   7.831  0.3956 -0.0201  0.3911
 5084SOL    HW126885   3.100   1.983   7.890  1.1246 -0.5846  0.8542
 5084SOL    HW226886   3.077   1.840   7.895 -1.9856 -2.6273 -2.6232
 5085SOL     OW26887   0.833   2.378  11.673  0.5736  0.6477  0.3181
 5085SOL    HW126888   0.927   2.389  11.691  0.3168  0.1745  1.9954
 5085SOL    HW226889   0.827   2.283  11.671  0.6967  0.7209 -2.7267
 5086SOL     OW26890   3.849   1.421   5.519  0.2007  0.1135  0.8363
 5086SOL    HW126891   3.759   1.435   5.548  0.2337 -0.3446  1.1596
 5086SOL    HW226892   3.837   1.342   5.466  0.4084  1.9310 -1.8868
 5087SOL     OW26893   1.637   2.925   2.576 -0.0703  0.1275  0.4127
 5087SOL    HW126894   1.570   2.961   2.634  1.4462  4.2285 -0.4431
 5087SOL    HW226895   1.586   2.850   2.544  0.3837 -0.6115  1.4083
 5088SOL     OW26896   1.580   3.078   4.935  0.1092  0.0654 -0.1949
 5088SOL    HW126897   1.664   3.032   4.932  0.1976  0.2363 -0.3436
 5088SOL    HW226898   1.541   3.009   4.988  1.0543 -0.9469 -0.7969
 5089SOL     OW26899   4.161   1.951   3.823 -0.5092 -0.2455 -0.7784
 5089SOL    HW126900   4.210   1.926   3.901 -2.4231 -1.3051  0.0708
 5089SOL    HW226901   4.076   1.970   3.862  0.0273 -0.5652  0.5309
 5090SOL     OW26902   3.259   2.262   2.046  0.9270  0.3041 -0.5881
 5090SOL    HW126903   3.319   2.212   1.991  2.7994 -0.8915  2.5560
 5090SOL    HW226904   3.173   2.261   2.004 -0.4591 -2.0483  2.3311
 5091SOL     OW26905   3.244   1.457   0.920 -0.5504  0.4268 -0.7473
 5091SOL    HW126906   3.242   1.509   1.000 -1.3192  2.3440 -2.0114
 5091SOL    HW226907   3.232   1.367   0.951 -1.3447  0.4941 -0.8526
 5092SOL     OW26908   2.964   1.488  15.240  0.4338  0.3786 -0.0396
 5092SOL    HW126909   2.928   1.576  15.227  1.2646  0.8304  0.6839
 5092SOL    HW226910   3.048   1.489  15.196 -0.4808  1.0731 -1.7865
 5093SOL     OW26911   3.502   0.227   3.739  0.0426  0.7837  0.3260
 5093SOL    HW126912   3.595   0.229   3.718  0.3126 -0.5994  1.3742
 5093SOL    HW226913   3.483   0.317   3.765 -1.6206  0.6482 -0.4249
 5094SOL     OW26914   1.813   2.368   5.275 -0.1834 -0.0318  0.2245
 5094SOL    HW126915   1.853   2.452   5.299 -2.2094  0.1594  2.8526
 5094SOL    HW226916   1.897   2.324   5.257  1.1202  2.3647  0.3787
 5095SOL     OW26917   3.517   0.235   1.442 -0.6831  0.2327 -0.0534
 5095SOL    HW126918   3.600   0.253   1.486 -0.9772  0.8240  0.2641
 5095SOL    HW226919   3.472   0.190   1.513  1.4885  0.9575  1.7925
 5096SOL     OW26920   0.843   3.205   5.343  0.5493  0.0143  0.2655
 5096SOL    HW126921   0.837   3.235   5.252 -1.1544 -1.5270 -0.1408
 5096SOL    HW226922   0.757   3.227   5.379  0.3515 -1.2551  0.5685
 5097SOL     OW26923   3.985   1.725   7.102 -0.0826 -0.1437  0.2849
 5097SOL    HW126924   3.892   1.749   7.100 -0.3076 -1.2315 -2.2556
 5097SOL    HW226925   3.990   1.634   7.073  1.3387 -0.2668  0.9012
 5098SOL     OW26926   0.411   0.411  14.154  0.0235  0.1733  0.1930
 5098SOL    HW126927   0.353   0.486  14.163  1.7607  1.6221 -0.6417
 5098SOL    HW226928   0.497   0.450  14.171  0.0190  0.5215 -0.5851
 5099SOL     OW26929   2.491   2.851  15.048  0.0393 -0.3586  0.3386
 5099SOL    HW126930   2.532   2.930  15.084  1.8206 -1.1378  0.0093
 5099SOL    HW226931   2.531   2.849  14.961 -1.4895  0.6593 -0.3858
 5100SOL     OW26932   0.380   1.123  13.009  0.0564 -0.4555  0.0668
 5100SOL    HW126933   0.361   1.199  12.954 -1.1913 -0.8396 -0.0114
 5100SOL    HW226934   0.426   1.168  13.080  2.4124  2.1498 -3.0705
 5101SOL     OW26935   0.023   1.285   3.829 -0.4520  0.0164 -0.1508
 5101SOL    HW126936   0.084   1.213   3.815  1.2038  1.6385 -1.4296
 5101SOL    HW226937   4.701   1.278   3.753  1.2478  1.5609 -1.6246
 5102SOL     OW26938   3.786   1.633   5.141  0.4317  0.1528  0.3007
 5102SOL    HW126939   3.826   1.709   5.182 -1.1491  0.7845  0.6890
 5102SOL    HW226940   3.721   1.609   5.208 -1.6909  1.7898 -1.1838
 5103SOL     OW26941   1.159   2.376   6.291  1.1564 -0.3335  0.1181
 5103SOL    HW126942   1.143   2.464   6.257 -1.0673  0.2836  2.7942
 5103SOL    HW226943   1.226   2.340   6.233  0.1233 -0.3857 -1.0275
 5104SOL     OW26944   1.466   1.101  12.217  0.0797  0.4798 -0.1241
 5104SOL    HW126945   1.400   1.150  12.264  0.8457  2.6055 -1.2507
 5104SOL    HW226946   1.533   1.081  12.282  0.9346  0.8444 -0.8800
 5105SOL     OW26947   1.775   2.504   5.018  0.2185  0.3008  0.2057
 5105SOL    HW126948   1.813   2.592   5.020 -0.2666  0.4937  0.7292
 5105SOL    HW226949   1.788   2.474   5.108  1.8510 -1.5660 -0.6459
 5106SOL     OW26950   3.506   0.776  11.902  0.1121  0.2806  0.0058
 5106SOL    HW126951   3.442   0.802  11.969 -0.0119 -0.2866  0.1102
 5106SOL    HW226952   3.509   0.854  11.847  0.2311  0.8776  0.8566
 5107SOL     OW26953   1.097   1.095   7.752 -0.7358 -0.1743  0.1882
 5107SOL    HW126954   1.033   1.079   7.821 -0.2986  0.1944  0.6754
 5107SOL    HW226955   1.147   1.167   7.791 -3.2179  0.3448  2.4466
 5108SOL     OW26956   4.375   2.857   4.933 -0.2881 -0.1377 -0.0436
 5108SOL    HW126957   4.466   2.833   4.951 -0.3654 -1.0352 -0.8243
 5108SOL    HW226958   4.380   2.952   4.943 -0.5113 -0.0309 -0.9349
 5109SOL     OW26959   0.813   2.814   2.560 -0.2917  0.6340  0.1370
 5109SOL    HW126960   0.891   2.759   2.545  0.0810  0.4842  2.6209
 5109SOL    HW226961   0.759   2.761   2.618 -0.6660  0.2526 -0.5547
 5110SOL     OW26962   3.222   0.920   3.696 -0.3558  0.4308  0.0925
 5110SOL    HW126963   3.224   1.011   3.668 -2.5803  0.1670 -0.9444
 5110SOL    HW226964   3.129   0.917   3.719 -0.6754 -1.8645 -1.5325
 5111SOL     OW26965   4.361   3.551   6.262  0.0088 -0.2857  0.3056
 5111SOL    HW126966   4.270   3.579   6.275  0.2653  0.7706 -0.1471
 5111SOL    HW226967   4.354   3.534   6.168 -1.5120  0.5679  0.2620
 5112SOL     OW26968   3.755   0.318   5.206  0.1437 -0.6175 -0.0409
 5112SOL    HW126969   3.808   0.395   5.186  0.6960 -0.6843  1.1756
 5112SOL    HW226970   3.712   0.320   5.120 -1.1740  0.1885  0.6307
 5113SOL     OW26971   4.308   4.362   4.850 -0.3698 -0.0020  0.2659
 5113SOL    HW126972   4.395   4.396   4.873  0.1951 -0.7989 -0.6780
 5113SOL    HW226973   4.254   4.418   4.905 -1.2978  0.7455 -1.3894
 5114SOL     OW26974   1.856   1.524   3.182  0.4380  0.2744 -0.2400
 5114SOL    HW126975   1.862   1.491   3.272 -2.7091  0.0336 -0.1390
 5114SOL    HW226976   1.790   1.593   3.175  1.1120  1.0896  1.4867
 5115SOL     OW26977   3.213   4.310   8.877  0.0480  0.6935  0.4113
 5115SOL    HW126978   3.266   4.310   8.957  1.5850  1.6915 -0.6039
 5115SOL    HW226979   3.175   4.398   8.884  0.1169  0.4357  3.8838
 5116SOL     OW26980   0.577   3.998   6.161  0.4084  0.1830  0.1799
 5116SOL    HW126981   0.672   4.008   6.158  0.6897 -2.2185  1.3118
 5116SOL    HW226982   0.571   3.931   6.093  0.6763  0.6087 -0.2680
 5117SOL     OW26983   3.041   1.611   3.093  1.1098  0.1616  0.5315
 5117SOL    HW126984   3.119   1.665   3.108  0.7987  1.4055 -2.2723
 5117SOL    HW226985   2.995   1.665   3.029  1.0478 -0.8383 -0.2534
 5118SOL     OW26986   3.462   1.848   8.970  0.0025 -0.1387  0.2522
 5118SOL    HW126987   3.371   1.845   8.998  0.0162  2.0213  0.5258
 5118SOL    HW226988   3.512   1.863   9.051 -1.8894 -1.8850  1.7338
 5119SOL     OW26989   3.555   4.058  10.729 -0.3811 -0.5601  0.0136
 5119SOL    HW126990   3.504   4.068  10.809 -3.0124  0.8511 -1.8178
 5119SOL    HW226991   3.583   4.149  10.716  0.4966 -0.8267  0.0531
 5120SOL     OW26992   2.879   4.276   7.381  0.2787 -0.4134 -0.0220
 5120SOL    HW126993   2.891   4.299   7.288 -2.8700 -0.7654 -0.5093
 5120SOL    HW226994   2.839   4.191   7.364 -0.4773  0.2779 -1.7432
 5121SOL     OW26995   4.336   1.474   9.439  0.3842 -0.5011 -0.0593
 5121SOL    HW126996   4.313   1.413   9.369 -3.0161  0.1370  0.5135
 5121SOL    HW226997   4.386   1.421   9.501  0.2075  0.2168  0.7026
 5122SOL     OW26998   2.387   1.943   9.158  0.6491 -0.3579 -0.0428
 5122SOL    HW126999   2.432   1.910   9.080 -0.4072  0.5238 -1.0138
 5122SOL    HW227000   2.369   2.028   9.118  0.4289 -0.1952  0.4057
 5123SOL     OW27001   0.071   1.717   6.206 -0.0133 -0.5349 -0.6288
 5123SOL    HW127002   0.089   1.624   6.222 -4.2774 -1.2118  0.2393
 5123SOL    HW227003   0.119   1.764   6.273  0.0906  0.9172 -1.7278
 5124SOL     OW27004   4.576   2.000   5.211 -0.0466 -0.2825  0.5780
 5124SOL    HW127005   4.601   2.076   5.160  1.1540  1.0954  3.2183
 5124SOL    HW227006   4.655   1.978   5.261  0.8876 -0.7614 -1.1088
 5125SOL     OW27007   4.355   1.534   5.219  0.0740  0.4228  0.0646
 5125SOL    HW127008   4.435   1.506   5.176 -1.5628 -2.1041 -1.3525
 5125SOL    HW227009   4.350   1.488   5.303  0.9361  1.1926  0.5317
 5126SOL     OW27010   3.476   0.922   4.407 -0.0469 -0.1644  0.3118
 5126SOL    HW127011   3.383   0.925   4.382  0.2719 -0.7234 -0.9274
 5126SOL    HW227012   3.468   0.940   4.501 -1.6636 -0.8954  0.3230
 5127SOL     OW27013   2.128   1.491   2.764 -0.2233  0.1431 -0.0748
 5127SOL    HW127014   2.168   1.472   2.679  1.7774  0.1884  0.8540
 5127SOL    HW227015   2.079   1.409   2.775 -0.6304  0.3080 -0.6148
 5128SOL     OW27016   3.481   2.090   2.554  0.3490 -0.2614 -0.5378
 5128SOL    HW127017   3.399   2.062   2.594  0.9735 -1.4106 -0.0461
 5128SOL    HW227018   3.543   2.033   2.601 -0.6539 -1.9263 -1.2163
 5129SOL     OW27019   0.923   3.512   9.524  0.3258  0.2669  0.0236
 5129SOL    HW127020   0.958   3.462   9.450 -2.3256  0.4369 -1.3344
 5129SOL    HW227021   0.948   3.602   9.502 -0.7066 -0.1181 -2.7951
 5130SOL     OW27022   1.264   4.686   2.530 -0.3975  0.3110 -0.2184
 5130SOL    HW127023   1.195   4.655   2.470 -0.9121  0.9400  0.0544
 5130SOL    HW227024   1.333   4.623   2.506 -1.1182 -0.0979 -1.2573
 5131SOL     OW27025   2.538   2.474   7.994 -0.1221  0.1806 -0.7131
 5131SOL    HW127026   2.614   2.480   7.936 -3.2487  0.9860 -4.7215
 5131SOL    HW227027   2.513   2.384   7.977 -2.6899  0.4726  1.4945
 5132SOL     OW27028   4.387   4.611   6.457 -0.5564  0.2214 -0.4255
 5132SOL    HW127029   4.457   4.556   6.423 -1.0440 -1.3520  1.1646
 5132SOL    HW227030   4.312   4.565   6.418  2.1038 -2.6561 -2.1380
 5133SOL     OW27031   1.348   1.753   2.261  0.3871  0.2829 -0.1458
 5133SOL    HW127032   1.314   1.837   2.231  1.1410  1.2626  1.7661
 5133SOL    HW227033   1.442   1.767   2.253 -0.0180  1.5791 -2.4658
 5134SOL     OW27034   0.349   2.533  12.142  0.1014 -0.1627  0.3718
 5134SOL    HW127035   0.340   2.624  12.170 -1.0693  0.3219 -1.5395
 5134SOL    HW227036   0.280   2.498  12.198 -0.6873 -0.1188 -0.5820
 5135SOL     OW27037   1.739   0.858   4.493 -0.3734  0.0550 -0.1908
 5135SOL    HW127038   1.757   0.950   4.478  0.3328  0.1720  1.4086
 5135SOL    HW227039   1.654   0.868   4.537 -2.3820 -1.9129 -3.6014
 5136SOL     OW27040   0.683   3.469   3.654 -0.0133 -0.4301  0.4066
 5136SOL    HW127041   0.717   3.475   3.743  0.7742  1.2095 -0.0130
 5136SOL    HW227042   0.690   3.374   3.638  1.1484 -0.3728  0.5627
 5137SOL     OW27043   3.373   4.590  14.254 -0.0009  0.4985  0.4895
 5137SOL    HW127044   3.366   4.563  14.345  0.0633 -1.1862 -0.0039
 5137SOL    HW227045   3.437   4.660  14.262  1.7526 -0.7763 -2.3387
 5138SOL     OW27046   0.961   1.634   3.686 -0.8297 -0.6472  0.1912
 5138SOL    HW127047   0.870   1.609   3.699 -1.7242  2.2549 -0.5309
 5138SOL    HW227048   1.007   1.556   3.653 -0.9915 -1.0233  0.8731
 5139SOL     OW27049   0.155   0.113   7.943  0.1203  0.0268  0.0429
 5139SOL    HW127050   0.108   0.182   7.989 -2.4244 -0.7919 -1.2968
 5139SOL    HW227051   0.119   0.045   8.000 -0.3032  2.5395  2.7362
 5140SOL     OW27052   1.548   3.352  13.544 -0.1590 -0.4363  0.0036
 5140SOL    HW127053   1.491   3.391  13.477  1.0961 -0.5115 -1.1035
 5140SOL    HW227054   1.629   3.342  13.494  1.0753  1.7785  1.5281
 5141SOL     OW27055   1.557   3.196   5.401 -0.0885 -0.2800  0.1448
 5141SOL    HW127056   1.509   3.259   5.455 -0.5456 -1.2718  0.8950
 5141SOL    HW227057   1.524   3.224   5.316  1.2322 -0.6673 -0.4862
 5142SOL     OW27058   1.554   3.259   9.684 -0.6646  0.3944  0.0118
 5142SOL    HW127059   1.503   3.180   9.702 -1.4345  0.4031 -2.1965
 5142SOL    HW227060   1.642   3.228   9.706  0.1435  0.9041 -2.4932
 5143SOL     OW27061   3.857   4.298   8.449  0.3165  0.1001 -0.2422
 5143SOL    HW127062   3.922   4.301   8.520 -0.4072 -1.8415  0.5261
 5143SOL    HW227063   3.827   4.388   8.453  0.0170  0.1121 -2.5634
 5144SOL     OW27064   1.348   0.362   6.599  0.0229  0.2631  0.2357
 5144SOL    HW127065   1.418   0.398   6.546  0.5828 -1.2366 -0.0437
 5144SOL    HW227066   1.272   0.409   6.565  0.4082 -0.7933 -2.0663
 5145SOL     OW27067   3.025   0.490  10.022  0.0854 -0.4656 -0.3926
 5145SOL    HW127068   3.023   0.502  10.117 -0.0233 -3.3600 -0.0480
 5145SOL    HW227069   2.947   0.435  10.014 -0.7688  0.4492  1.6155
 5146SOL     OW27070   0.241   4.523   7.921  0.1914  0.2420 -0.1999
 5146SOL    HW127071   0.267   4.469   7.847 -0.7975  0.3954 -0.6571
 5146SOL    HW227072   0.165   4.561   7.879  0.3309  0.4708 -0.2438
 5147SOL     OW27073   2.202   0.470  10.919  0.0655  0.1446 -0.3585
 5147SOL    HW127074   2.217   0.419  10.999  0.5342 -1.4359 -1.4508
 5147SOL    HW227075   2.111   0.495  10.932 -0.0128  0.5901 -1.8045
 5148SOL     OW27076   1.342   1.450   5.980  0.3167 -0.6172  0.3683
 5148SOL    HW127077   1.294   1.371   6.005 -0.7728 -0.9250 -2.7495
 5148SOL    HW227078   1.267   1.508   5.994  1.1237  0.3896  0.5268
 5149SOL     OW27079   0.148   2.822   8.108  0.0318  0.2243  0.2316
 5149SOL    HW127080   0.102   2.739   8.095 -1.3932  0.6446  2.7440
 5149SOL    HW227081   0.238   2.804   8.081 -0.2114 -1.1353  0.2995
 5150SOL     OW27082   2.539   0.564   2.893  0.2034  0.1378 -0.2337
 5150SOL    HW127083   2.464   0.506   2.882 -1.4340  1.2966  4.7431
 5150SOL    HW227084   2.604   0.497   2.913 -1.1072 -1.8285 -2.6585
 5151SOL     OW27085   1.804   1.464   4.577 -0.1740  0.1360 -0.5853
 5151SOL    HW127086   1.846   1.531   4.631 -0.4050  0.1229 -0.3898
 5151SOL    HW227087   1.815   1.383   4.626  3.3005  0.7133 -0.3980
 5152SOL     OW27088   1.724   0.091  16.520  0.4893  0.2482 -0.1948
 5152SOL    HW127089   1.669   0.013  16.513 -1.4451  1.5962 -0.0910
 5152SOL    HW227090   1.759   0.074  16.607 -0.8443 -0.1295  0.2623
 5153SOL     OW27091   0.582   3.568   2.266 -0.0737  0.0040  0.5600
 5153SOL    HW127092   0.529   3.548   2.343  0.1901  1.4057  1.1045
 5153SOL    HW227093   0.562   3.498   2.204 -0.4681  0.6763 -0.0675
 5154SOL     OW27094   4.072   4.544   5.979  0.2901 -0.2449  0.8038
 5154SOL    HW127095   4.143   4.513   6.035  0.3131 -0.8264  0.4523
 5154SOL    HW227096   4.130   4.587   5.917 -3.5507  1.5778 -1.5680
 5155SOL     OW27097   1.012   0.504   6.305 -0.0544 -0.0417 -0.5499
 5155SOL    HW127098   1.021   0.583   6.251 -1.3666 -0.3181 -1.1724
 5155SOL    HW227099   1.057   0.524   6.387  0.7588  0.4813 -1.1088
 5156SOL     OW27100   1.487   0.493   4.647 -0.3066 -0.3255  0.2887
 5156SOL    HW127101   1.582   0.480   4.643 -0.0832  0.6638  2.4542
 5156SOL    HW227102   1.473   0.402   4.672  2.8097 -1.4464 -2.0453
 5157SOL     OW27103   0.561   1.694   5.351  0.1707 -0.1821  0.7291
 5157SOL    HW127104   0.618   1.627   5.313 -1.4833 -0.8469 -0.5898
 5157SOL    HW227105   0.620   1.769   5.351 -0.0131 -0.0515 -1.9089
 5158SOL     OW27106   1.531   2.911   1.442  0.6889  0.1103 -0.5164
 5158SOL    HW127107   1.568   2.971   1.377  3.3761  1.3673  2.1169
 5158SOL    HW227108   1.473   2.870   1.378 -0.2807 -0.5202  0.7726
 5159SOL     OW27109   0.916   2.006   8.583  0.2990 -0.4587 -0.3417
 5159SOL    HW127110   0.879   1.928   8.624  1.3404 -1.0075 -0.4377
 5159SOL    HW227111   0.840   2.041   8.536  1.1777 -0.0079 -1.4210
 5160SOL     OW27112   3.657   1.696  16.433 -0.1456  0.0516  0.3659
 5160SOL    HW127113   3.662   1.602  16.422 -1.4747  0.1927 -1.4211
 5160SOL    HW227114   3.682   1.721  16.344  0.7188  0.5145  0.7339
 5161SOL     OW27115   1.027   0.154  14.724  0.6407 -0.0085  0.7777
 5161SOL    HW127116   0.997   0.075  14.768  1.5853 -0.7860  0.0039
 5161SOL    HW227117   1.117   0.126  14.710  0.7702  0.6887  0.1776
 5162SOL     OW27118   2.668   0.476   9.584  0.8344  0.1612  0.5517
 5162SOL    HW127119   2.694   0.566   9.569  1.5994 -0.4738 -1.9929
 5162SOL    HW227120   2.707   0.440   9.504  0.6654 -1.8093  1.3389
 5163SOL     OW27121   2.781   3.215   1.258  0.2504 -0.1091  0.0625
 5163SOL    HW127122   2.784   3.275   1.184  0.0664  2.1698  1.9226
 5163SOL    HW227123   2.776   3.131   1.212  1.9198  1.3805 -2.8715
 5164SOL     OW27124   0.533   0.956  14.986 -0.4916 -0.1681  0.5472
 5164SOL    HW127125   0.583   0.950  15.068 -0.2030 -0.8545  0.3190
 5164SOL    HW227126   0.590   0.899  14.935  0.4440  0.5966  0.7276
 5165SOL     OW27127   3.394   0.907   1.171 -0.3489 -0.2273 -0.8035
 5165SOL    HW127128   3.427   0.901   1.260  0.8880  1.5494 -1.1549
 5165SOL    HW227129   3.307   0.943   1.187 -0.0477  0.7333 -1.3465
 5166SOL     OW27130   4.141   1.136   7.905 -0.2301 -0.8287  0.1719
 5166SOL    HW127131   4.128   1.161   7.813 -1.3360  0.5735  0.7039
 5166SOL    HW227132   4.067   1.178   7.950 -0.4825  0.7348 -1.6787
 5167SOL     OW27133   4.665   4.049   5.067 -0.1025  0.2950 -0.1042
 5167SOL    HW127134   4.664   3.993   5.144  0.4265  0.2919 -0.1006
 5167SOL    HW227135   4.593   4.110   5.086  0.0719  0.5657 -0.3123
 5168SOL     OW27136   0.552   2.529   5.219 -0.4498  0.6904 -0.8636
 5168SOL    HW127137   0.471   2.488   5.248  0.8775 -1.5890 -0.3979
 5168SOL    HW227138   0.538   2.619   5.250 -1.1104  0.7678 -1.3747
 5169SOL     OW27139   4.161   0.616   4.297  0.3192 -0.2929  0.0053
 5169SOL    HW127140   4.087   0.623   4.357 -1.0322  2.0850 -1.9347
 5169SOL    HW227141   4.183   0.708   4.284 -0.6699 -0.1956 -0.9443
 5170SOL     OW27142   2.439   0.555   4.166  0.2079  0.2910 -0.5185
 5170SOL    HW127143   2.500   0.504   4.219 -1.8904  0.5792  2.2121
 5170SOL    HW227144   2.492   0.550   4.087  1.1341 -0.4326  0.1567
 5171SOL     OW27145   1.415   1.143   7.094 -0.3625 -0.4030  0.6025
 5171SOL    HW127146   1.476   1.177   7.159  1.7356 -0.7850 -1.1625
 5171SOL    HW227147   1.329   1.163   7.129 -0.1465 -2.3490  2.2191
 5172SOL     OW27148   1.460   2.226   7.956 -0.2100 -0.8344  0.3217
 5172SOL    HW127149   1.378   2.235   8.004 -0.6195 -1.2711 -0.2953
 5172SOL    HW227150   1.424   2.179   7.881 -0.1547  1.6866 -1.2795
 5173SOL     OW27151   4.286   2.779   7.301  0.3555  0.0736  0.0347
 5173SOL    HW127152   4.359   2.841   7.305  1.1132 -0.7059 -1.5804
 5173SOL    HW227153   4.209   2.835   7.300 -0.0911 -0.5648 -0.7683
 5174SOL     OW27154   4.105   1.625  13.416  0.0687 -0.2225 -0.2530
 5174SOL    HW127155   4.145   1.540  13.397 -0.9267 -0.1898 -2.5132
 5174SOL    HW227156   4.153   1.643  13.497 -0.6272  0.1853  0.0700
 5175SOL     OW27157   2.580   3.190   3.633 -0.4189 -0.4976 -0.2928
 5175SOL    HW127158   2.622   3.149   3.708 -1.1937 -0.1240  0.3459
 5175SOL    HW227159   2.563   3.281   3.656  0.3990 -0.2307 -0.7611
 5176SOL     OW27160   1.663   2.025   7.913 -0.6202 -0.2462  0.4788
 5176SOL    HW127161   1.635   1.986   7.995  0.3474 -0.2034  0.8209
 5176SOL    HW227162   1.595   2.093   7.904 -1.1534 -0.7563  0.6827
 5177SOL     OW27163   3.276   1.268  16.841  0.3158  0.1029 -0.0043
 5177SOL    HW127164   3.342   1.310  16.896  0.1183 -0.4447  0.6504
 5177SOL    HW227165   3.192   1.309  16.862  1.0651  2.9600 -2.3962
 5178SOL     OW27166   1.508   4.561   2.668 -0.4564 -0.0590 -0.0346
 5178SOL    HW127167   1.557   4.618   2.727 -2.5339  0.7190  0.9295
 5178SOL    HW227168   1.549   4.477   2.688 -0.2606  0.2833  0.9749
 5179SOL     OW27169   3.658   0.822   8.457  0.0884  0.1358  0.3193
 5179SOL    HW127170   3.611   0.843   8.538 -0.6453 -0.9060  0.1684
 5179SOL    HW227171   3.723   0.892   8.453 -0.4383  0.4999 -1.6577
 5180SOL     OW27172   0.949   3.681   2.951 -0.5513  0.2943 -0.7758
 5180SOL    HW127173   0.946   3.587   2.934  3.0335 -0.1278  0.8368
 5180SOL    HW227174   0.948   3.717   2.862  0.2633 -1.6210 -1.5682
 5181SOL     OW27175   1.077   1.018   7.190 -0.2478  0.0762 -0.3443
 5181SOL    HW127176   1.069   1.094   7.134  1.2946  0.2037 -0.4055
 5181SOL    HW227177   1.066   1.068   7.271 -0.0776  1.1528 -0.9925
 5182SOL     OW27178   1.041   2.978   2.776  0.3605 -0.0003  0.4592
 5182SOL    HW127179   1.012   2.890   2.802  0.3469 -0.7270 -2.0206
 5182SOL    HW227180   0.978   3.036   2.817 -0.4472 -0.5136 -0.0496
 5183SOL     OW27181   3.268   2.455   7.015 -0.0919  0.1426  0.0058
 5183SOL    HW127182   3.209   2.483   7.085  0.5475  1.3072  0.0803
 5183SOL    HW227183   3.346   2.491   7.058 -0.0978 -1.0610  0.9974
 5184SOL     OW27184   2.151   1.122  14.081 -0.2803 -0.3177 -0.1511
 5184SOL    HW127185   2.113   1.168  14.007 -0.1524  0.5325  0.3019
 5184SOL    HW227186   2.066   1.085  14.105  0.1184 -0.6127  0.8307
 5185SOL     OW27187   1.919   3.029  13.758  0.7947 -0.0126 -0.7698
 5185SOL    HW127188   1.908   2.953  13.700  0.2378 -1.3873  1.1342
 5185SOL    HW227189   1.833   3.070  13.748  1.0164  0.5807 -0.2587
 5186SOL     OW27190   3.019   3.627  10.638  0.3962 -0.1926 -0.2030
 5186SOL    HW127191   3.076   3.688  10.590 -0.6722  0.2356 -0.9230
 5186SOL    HW227192   3.049   3.541  10.609  1.9291  0.2755 -0.0583
 5187SOL     OW27193   1.834   2.546   1.177 -0.2265 -0.0508  0.6556
 5187SOL    HW127194   1.759   2.491   1.157  0.8806 -2.1146  2.1971
 5187SOL    HW227195   1.902   2.495   1.134 -0.0502  1.2532 -0.6096
 5188SOL     OW27196   0.715   2.396   8.064 -0.1891 -0.9374 -0.0571
 5188SOL    HW127197   0.654   2.323   8.074 -0.5011 -0.5019  1.2443
 5188SOL    HW227198   0.726   2.397   7.969  1.2895 -0.6724  0.1207
 5189SOL     OW27199   4.724   2.440   4.020 -0.6682 -0.6331 -0.1983
 5189SOL    HW127200   0.025   2.414   4.104 -1.0679  1.1486  0.5242
 5189SOL    HW227201   4.631   2.437   4.043 -0.6128  4.0126  0.6017
 5190SOL     OW27202   0.297   2.620   4.480  0.4233 -0.2717  0.0821
 5190SOL    HW127203   0.321   2.595   4.569  2.1426 -2.1404 -0.9112
 5190SOL    HW227204   0.222   2.672   4.509  0.7570  0.6166 -0.6500
 5191SOL     OW27205   1.050   0.608  17.090  0.3421 -0.1905  0.4670
 5191SOL    HW127206   1.104   0.541  17.049  1.1615  0.7899 -0.0658
 5191SOL    HW227207   0.989   0.563  17.149 -1.9272  1.1379 -0.8498
 5192SOL     OW27208   2.343   1.377  16.906 -0.0034  0.0388 -0.0824
 5192SOL    HW127209   2.335   1.289  16.868  0.5086  0.0971 -0.3358
 5192SOL    HW227210   2.436   1.386  16.885 -0.1080 -0.1864 -0.6264
 5193SOL     OW27211   3.661   0.355  13.143  0.3197 -0.5992  0.2383
 5193SOL    HW127212   3.643   0.376  13.235 -2.0507 -0.6271 -0.2170
 5193SOL    HW227213   3.751   0.385  13.149 -0.0279  0.9713 -2.2859
 5194SOL     OW27214   1.417   0.598   7.503  0.4788 -0.2049  0.4371
 5194SOL    HW127215   1.344   0.601   7.564 -0.6905  0.5041 -0.9688
 5194SOL    HW227216   1.397   0.514   7.461  0.4220  0.3671 -0.6891
 5195SOL     OW27217   2.377   4.465  12.174  0.1922  0.1854 -0.1714
 5195SOL    HW127218   2.327   4.447  12.095 -1.9136  1.9402  0.7579
 5195SOL    HW227219   2.362   4.559  12.177 -2.6031 -0.3570  2.5722
 5196SOL     OW27220   3.069   0.583   8.522  0.0292 -1.2196 -0.0970
 5196SOL    HW127221   3.158   0.607   8.546  0.7264 -1.6640 -2.2127
 5196SOL    HW227222   3.037   0.605   8.609 -2.4968  0.5415 -1.4810
 5197SOL     OW27223   4.596   1.143  13.350 -0.1933  0.0281  0.2719
 5197SOL    HW127224   4.532   1.203  13.387  0.5447  0.0836  1.4410
 5197SOL    HW227225   4.677   1.195  13.355 -1.5017  1.9405  1.3440
 5198SOL     OW27226   0.630   2.193  12.852  0.1347 -0.5363 -0.0817
 5198SOL    HW127227   0.548   2.179  12.806  0.5695 -0.8508 -0.7597
 5198SOL    HW227228   0.664   2.265  12.797  0.3737 -0.1393  0.5837
 5199SOL     OW27229   4.236   0.205   8.183  0.3402  0.2390  0.3770
 5199SOL    HW127230   4.295   0.166   8.247  1.9800 -0.6423 -1.6508
 5199SOL    HW227231   4.189   0.136   8.135  0.6365 -0.7623  1.5157
 5200SOL     OW27232   0.072   0.658   7.612 -0.5440  0.0183 -0.3950
 5200SOL    HW127233   0.154   0.694   7.578  0.5962 -2.1683  0.0269
 5200SOL    HW227234   0.034   0.735   7.653  1.1183  0.4107  0.4180
 5201SOL     OW27235   1.343   1.502   4.402  0.1798  0.0256  0.0888
 5201SOL    HW127236   1.283   1.504   4.476  0.2061 -2.0951  0.1579
 5201SOL    HW227237   1.291   1.490   4.323  0.8389  2.3239 -0.6929
 5202SOL     OW27238   1.630   2.060  11.571 -0.1357  0.0444 -0.1759
 5202SOL    HW127239   1.635   1.966  11.556  1.8227  0.2706 -0.9428
 5202SOL    HW227240   1.549   2.081  11.618 -0.5328  2.0465 -1.7476
 5203SOL     OW27241   3.710   4.387   4.315  0.5188 -0.2848  0.2797
 5203SOL    HW127242   3.639   4.323   4.317 -0.2767  0.5959  0.2091
 5203SOL    HW227243   3.686   4.426   4.231  0.2350  1.3981  1.1481
 5204SOL     OW27244   1.932   4.060   2.349 -0.5092 -0.3324 -0.1331
 5204SOL    HW127245   1.882   4.095   2.275  0.0824 -1.5811 -1.1358
 5204SOL    HW227246   2.021   4.089   2.329 -0.5136  1.0020  1.8739
 5205SOL     OW27247   3.597   4.405   8.717  0.2320 -0.2459  0.1951
 5205SOL    HW127248   3.623   4.441   8.802 -0.4265 -1.1665  0.7867
 5205SOL    HW227249   3.620   4.312   8.726  0.1504 -0.0150  2.7441
 5206SOL     OW27250   4.619   2.235   2.557 -0.0566 -0.2178  0.1455
 5206SOL    HW127251   4.705   2.222   2.518  0.1125 -1.0892  0.8083
 5206SOL    HW227252   4.650   2.302   2.619  1.6680 -0.8375 -0.0464
 5207SOL     OW27253   3.754   3.988   9.486 -0.4844 -0.2389 -0.3833
 5207SOL    HW127254   3.823   3.923   9.499 -0.0777  0.2747  0.0564
 5207SOL    HW227255   3.732   4.020   9.574  0.2574 -0.0825 -0.2550
 5208SOL     OW27256   2.758   0.744  12.217  0.1116 -0.1425  0.0869
 5208SOL    HW127257   2.712   0.703  12.143  1.3438 -0.5834 -0.4499
 5208SOL    HW227258   2.798   0.823  12.181  1.6271 -0.9054  0.0932
 5209SOL     OW27259   0.089   2.988  15.813  0.1442 -0.7814  0.4714
 5209SOL    HW127260   0.030   3.043  15.761  1.5744 -1.8490 -2.2203
 5209SOL    HW227261   0.149   3.046  15.861  0.4982 -0.4636 -0.3682
 5210SOL     OW27262   1.474   1.294  17.450  0.1748 -0.1278  0.8208
 5210SOL    HW127263   1.439   1.347  17.521 -0.5256  2.9304 -1.7900
 5210SOL    HW227264   1.495   1.212  17.494  0.7426  0.4615  1.6392
 5211SOL     OW27265   3.557   0.295   5.006 -0.1565  0.3622 -0.1983
 5211SOL    HW127266   3.522   0.379   5.034 -0.8785  0.5953 -1.8355
 5211SOL    HW227267   3.499   0.234   5.053  0.4340  0.7147  0.9986
 5212SOL     OW27268   4.603   1.934   2.246  0.2782 -0.1624 -0.2269
 5212SOL    HW127269   4.671   1.999   2.231  0.5178  0.3925  3.4037
 5212SOL    HW227270   4.654   1.859   2.275 -1.6654 -2.0168 -1.5791
 5213SOL     OW27271   1.907   2.634  15.266 -0.3435  0.5452 -0.4594
 5213SOL    HW127272   1.950   2.710  15.305 -2.9108  0.4460  2.5520
 5213SOL    HW227273   1.977   2.571  15.285  0.2836  0.3399 -3.4647
 5214SOL     OW27274   0.514   1.864   5.979 -0.0854 -0.4418  0.2551
 5214SOL    HW127275   0.506   1.910   6.063  1.6223 -0.1086  0.2312
 5214SOL    HW227276   0.574   1.921   5.931  0.9106 -0.5184  1.4060
 5215SOL     OW27277   2.124   1.385   4.318  0.4711  0.3254 -0.0315
 5215SOL    HW127278   2.117   1.318   4.251  0.4029  0.4176 -0.1178
 5215SOL    HW227279   2.030   1.395   4.331  0.1768  1.0342 -2.6679
 5216SOL     OW27280   3.678   2.492  11.771  0.4569 -0.0232 -0.2527
 5216SOL    HW127281   3.712   2.528  11.853  0.3969 -0.7283  0.0855
 5216SOL    HW227282   3.628   2.570  11.745 -0.7862  0.0785  2.4221
 5217SOL     OW27283   3.069   3.991  11.933  0.0861 -0.0210  0.0980
 5217SOL    HW127284   3.009   3.928  11.893  0.0894 -0.4213  0.7243
 5217SOL    HW227285   3.005   4.058  11.959 -0.0292 -0.6638  1.4956
 5218SOL     OW27286   3.009   4.627   7.063 -0.1299  0.4168 -0.6860
 5218SOL    HW127287   3.075   4.610   6.996  2.5000  0.5124  1.8981
 5218SOL    HW227288   3.013   4.723   7.069 -0.0139  0.2978  1.2130
 5219SOL     OW27289   2.247   3.234   6.944  0.5234 -0.1024  0.1169
 5219SOL    HW127290   2.255   3.212   6.851  2.0159  0.0569  0.2037
 5219SOL    HW227291   2.314   3.182   6.988 -0.3017 -1.0854  0.2166
 5220SOL     OW27292   0.213   0.071   5.530  0.3135 -0.2810 -0.1039
 5220SOL    HW127293   0.287   0.055   5.589 -2.2941 -4.3535  2.0262
 5220SOL    HW227294   0.260   0.091   5.448 -2.0401  2.1418 -0.8564
 5221SOL     OW27295   1.351   2.937   7.353  0.2921  0.3665 -0.5020
 5221SOL    HW127296   1.368   2.992   7.276  0.7962  3.5531  1.8831
 5221SOL    HW227297   1.411   2.865   7.334  3.7186  2.6697  1.5703
 5222SOL     OW27298   1.464   0.755   6.747 -0.0648 -0.2542  0.3396
 5222SOL    HW127299   1.533   0.706   6.701  0.8040 -1.2429  2.7297
 5222SOL    HW227300   1.473   0.710   6.830 -1.8826 -1.0849  0.0892
 5223SOL     OW27301   2.404   3.027   6.994  0.0779  0.5435 -0.0434
 5223SOL    HW127302   2.410   2.943   7.039  0.3990  1.9156  2.4575
 5223SOL    HW227303   2.468   3.028   6.922  1.2202  0.3228  0.9609
 5224SOL     OW27304   2.156   4.263  14.211  0.0329  0.5391  0.3206
 5224SOL    HW127305   2.220   4.278  14.281 -1.2207 -2.8218  2.1748
 5224SOL    HW227306   2.098   4.336  14.228  0.7888  1.7554 -2.3007
 5225SOL     OW27307   0.383   2.990  11.701  0.3611 -0.3356  0.0991
 5225SOL    HW127308   0.465   3.003  11.748  0.1565 -3.0092  1.1518
 5225SOL    HW227309   0.312   3.031  11.751 -1.0577  0.0716 -2.2290
 5226SOL     OW27310   0.991   2.199   3.313 -0.4047 -0.2018  0.1385
 5226SOL    HW127311   0.940   2.121   3.331  0.5939 -0.5310  1.5251
 5226SOL    HW227312   1.077   2.163   3.334 -0.1932  0.2933  0.1295
 5227SOL     OW27313   3.447   4.549   1.538  0.3256 -0.0667 -0.0219
 5227SOL    HW127314   3.497   4.621   1.576 -1.4645  0.0587  2.1101
 5227SOL    HW227315   3.487   4.539   1.452  0.6763  1.6844 -0.0568
 5228SOL     OW27316   2.012   2.342  12.614 -0.4528  0.8251  0.4295
 5228SOL    HW127317   2.059   2.261  12.596  0.7002  1.0925  2.2436
 5228SOL    HW227318   2.074   2.404  12.576  1.5530 -1.0266  0.6893
 5229SOL     OW27319   1.236   3.940   8.034 -0.2122  0.0413  0.0242
 5229SOL    HW127320   1.329   3.928   8.012  0.1922  3.3610 -0.1670
 5229SOL    HW227321   1.190   3.865   7.997 -0.1933  0.0769 -0.0714
 5230SOL     OW27322   4.545   0.243   5.671  0.8383 -0.5203 -0.1141
 5230SOL    HW127323   4.553   0.238   5.576 -2.5493  0.6236 -0.4832
 5230SOL    HW227324   4.595   0.165   5.693  0.2878 -0.5639  1.0236
 5231SOL     OW27325   3.809   0.246  15.526 -0.6555  0.2419 -0.0048
 5231SOL    HW127326   3.895   0.277  15.554 -0.3999  0.9567 -1.5252
 5231SOL    HW227327   3.844   0.197  15.452  1.1843  1.3162  0.1622
 5232SOL     OW27328   1.736   0.913  11.081  0.3032  0.3012  0.6386
 5232SOL    HW127329   1.766   0.981  11.142 -0.3943  0.4939  0.7598
 5232SOL    HW227330   1.811   0.897  11.022 -0.1903 -0.2589  0.1665
 5233SOL     OW27331   1.632   4.114   3.869 -0.2450  0.2735  0.4726
 5233SOL    HW127332   1.614   4.042   3.929  0.5576 -1.4952 -1.3981
 5233SOL    HW227333   1.669   4.176   3.933 -0.4270  0.7255  0.1403
 5234SOL     OW27334   0.076   1.991   3.871  0.4682 -0.1557 -0.1674
 5234SOL    HW127335   0.125   1.910   3.887  1.4344  0.0248 -2.1733
 5234SOL    HW227336   0.107   2.021   3.786 -0.1325  2.1443  0.4397
 5235SOL     OW27337   3.194   2.481  15.343 -0.2426  0.0663 -0.0075
 5235SOL    HW127338   3.162   2.400  15.383  2.6963 -2.0111 -1.8736
 5235SOL    HW227339   3.111   2.529  15.348 -1.6403 -2.3014  0.0272
 5236SOL     OW27340   1.310   3.543   6.463  0.1088 -0.2922  0.0500
 5236SOL    HW127341   1.270   3.524   6.548 -1.5227  1.0782 -0.4164
 5236SOL    HW227342   1.352   3.623   6.495 -0.4585 -0.6138  1.6146
 5237SOL     OW27343   3.387   1.439   6.511  0.2125 -0.3757  0.1373
 5237SOL    HW127344   3.426   1.487   6.438  0.0403 -0.4934 -0.0289
 5237SOL    HW227345   3.444   1.363   6.519  1.7661  0.4978 -2.7795
 5238SOL     OW27346   1.311   1.652   1.427  0.4370  0.0357  0.0628
 5238SOL    HW127347   1.340   1.721   1.488 -0.3741 -1.2918  1.9496
 5238SOL    HW227348   1.216   1.661   1.424  0.7146  2.3155 -1.5651
 5239SOL     OW27349   3.470   1.967   8.722  0.0432  0.0042  0.5087
 5239SOL    HW127350   3.483   1.908   8.797 -0.8708  0.8497  1.3407
 5239SOL    HW227351   3.532   2.039   8.738 -0.7411  0.7521  0.2239
 5240SOL     OW27352   2.636   0.293  10.192  0.6030  0.4788 -0.1222
 5240SOL    HW127353   2.582   0.364  10.228  0.2533 -0.0608  0.4188
 5240SOL    HW227354   2.673   0.282  10.280 -0.0020  1.8701  0.3027
 5241SOL     OW27355   0.768   0.849   8.812  0.1652  0.3245  0.1929
 5241SOL    HW127356   0.733   0.774   8.763 -0.3589  1.1235 -0.6681
 5241SOL    HW227357   0.823   0.882   8.740 -0.6296  0.6611 -0.2681
 5242SOL     OW27358   2.590   1.175   0.246 -0.0236 -0.5951  0.2945
 5242SOL    HW127359   2.524   1.125   0.295  0.6000  0.3506  2.1237
 5242SOL    HW227360   2.546   1.197   0.164  0.4495  1.6722  0.6351
 5243SOL     OW27361   2.312   3.157   3.894  0.4560 -0.1716  0.2511
 5243SOL    HW127362   2.372   3.203   3.835 -1.6257  0.5637 -1.2870
 5243SOL    HW227363   2.298   3.229   3.955 -1.1054 -0.7176  0.5386
 5244SOL     OW27364   1.826   4.649   3.640  0.1774 -0.0925 -0.0552
 5244SOL    HW127365   1.849   4.676   3.552  0.0771  0.5599  0.1193
 5244SOL    HW227366   1.820   4.555   3.620 -0.2982  0.1173 -0.8754
 5245SOL     OW27367   1.439   3.368   4.860 -0.1332 -0.0265 -0.0090
 5245SOL    HW127368   1.381   3.292   4.868 -2.2090  1.4989 -0.6561
 5245SOL    HW227369   1.373   3.437   4.860 -0.2199 -0.1084  0.6059
 5246SOL     OW27370   1.864   4.158  12.813 -0.7947 -0.2418  0.1169
 5246SOL    HW127371   1.919   4.175  12.736  0.8554 -0.5156  1.2195
 5246SOL    HW227372   1.916   4.099  12.869  0.6362  0.6286 -0.2748
 5247SOL     OW27373   3.081   0.460   2.539  0.1105 -0.0883  0.0361
 5247SOL    HW127374   3.114   0.391   2.482  0.8217 -2.8960  3.8027
 5247SOL    HW227375   3.047   0.520   2.473 -1.4880 -0.7689  0.2355
 5248SOL     OW27376   4.142   4.463   5.062  0.3418 -0.1770 -0.8574
 5248SOL    HW127377   4.216   4.447   5.120 -1.7031  1.7523  2.2491
 5248SOL    HW227378   4.147   4.559   5.052  0.9754 -0.3365 -2.1533
 5249SOL     OW27379   1.805   0.030   1.410  0.2146  0.1103  0.2491
 5249SOL    HW127380   1.888   0.011   1.454  1.0159  2.7994 -0.0581
 5249SOL    HW227381   1.748   0.038   1.486  1.1061 -2.9069  1.2477
 5250SOL     OW27382   0.441   3.517   7.107 -0.5008  0.2405 -0.4937
 5250SOL    HW127383   0.416   3.531   7.198 -1.7348 -1.6135 -0.5470
 5250SOL    HW227384   0.375   3.458   7.070  0.1826 -1.4824  1.0306
 5251SOL     OW27385   4.659   0.141   1.252  0.5566  0.4052  0.5977
 5251SOL    HW127386   0.008   0.113   1.221 -0.4172 -0.9435 -0.9365
 5251SOL    HW227387   4.660   0.233   1.226  1.0692  0.0300 -0.6845
 5252SOL     OW27388   0.946   1.488  15.307 -0.0981  0.3366  0.4533
 5252SOL    HW127389   0.912   1.409  15.350  2.3853 -0.8103  0.2637
 5252SOL    HW227390   0.890   1.563  15.329 -0.1862  0.5199 -0.4188
 5253SOL     OW27391   2.224   4.184   2.843  0.5617  0.1507 -0.0307
 5253SOL    HW127392   2.218   4.172   2.938  0.7017 -2.0972 -0.3002
 5253SOL    HW227393   2.161   4.255   2.837  0.3913 -0.0819 -0.9696
 5254SOL     OW27394   3.920   2.551  13.957 -0.2042  0.5297 -0.3367
 5254SOL    HW127395   3.935   2.490  14.030 -1.3418 -0.9191 -1.3101
 5254SOL    HW227396   3.825   2.549  13.962 -0.1202  0.2395  1.1939
 5255SOL     OW27397   0.852   1.112   4.249 -0.2444 -0.2109 -0.1834
 5255SOL    HW127398   0.763   1.077   4.246 -0.9092  1.4896 -0.2045
 5255SOL    HW227399   0.831   1.197   4.288 -1.0537  0.8476 -2.9847
 5256SOL     OW27400   2.494   4.456  17.451  0.4702  0.1627 -0.4330
 5256SOL    HW127401   2.579   4.461  17.494  1.0115 -1.6380 -1.2948
 5256SOL    HW227402   2.506   4.383  17.390  0.6633  0.4439 -0.7291
 5257SOL     OW27403   4.395   1.781  13.470  0.0831  0.0840  0.1381
 5257SOL    HW127404   4.329   1.850  13.462  2.1952  2.0152 -0.6422
 5257SOL    HW227405   4.459   1.819  13.410 -1.1060 -0.9219 -1.7365
 5258SOL     OW27406   2.497   3.879   6.486  0.2948  0.6872  0.0815
 5258SOL    HW127407   2.440   3.802   6.481  1.4104 -0.0919 -0.8789
 5258SOL    HW227408   2.547   3.848   6.562  0.6253 -1.2275 -0.8954
 5259SOL     OW27409   1.382   3.906  11.697  0.0920 -0.7297 -0.1684
 5259SOL    HW127410   1.333   3.880  11.619  0.1152  0.9487 -0.7511
 5259SOL    HW227411   1.403   3.998  11.678 -2.0967  0.2491  2.1176
 5260SOL     OW27412   1.249   1.014  17.362 -0.3555 -0.3386  0.0423
 5260SOL    HW127413   1.217   0.991  17.450 -3.6932  0.4472 -0.9661
 5260SOL    HW227414   1.194   1.088  17.337 -1.5935 -0.6308  1.9012
 5261SOL     OW27415   1.207   2.260   8.053  0.2785  0.3420 -0.0532
 5261SOL    HW127416   1.175   2.288   8.139 -2.1335  0.2814 -0.9216
 5261SOL    HW227417   1.136   2.266   7.989  1.1486 -1.3405 -1.1587
 5262SOL     OW27418   4.068   4.433   3.727 -0.1337  0.2877  0.1379
 5262SOL    HW127419   4.094   4.345   3.699 -3.8564 -0.5226 -0.8366
 5262SOL    HW227420   4.042   4.491   3.656  0.2763  0.9369  0.5213
 5263SOL     OW27421   0.487   0.957   4.900  0.7265 -0.1484  0.1672
 5263SOL    HW127422   0.576   0.969   4.866  0.1824  1.2511 -0.7818
 5263SOL    HW227423   0.453   1.046   4.891 -0.4021 -0.8646 -2.4928
 5264SOL     OW27424   2.053   4.167   4.862  0.1932  0.1599  0.3242
 5264SOL    HW127425   2.033   4.243   4.807  0.2243 -0.3047 -0.3179
 5264SOL    HW227426   1.991   4.182   4.934 -1.1143 -1.2068 -0.5398
 5265SOL     OW27427   3.144   2.918   7.566 -0.7049  0.0234 -0.1776
 5265SOL    HW127428   3.199   2.996   7.569  1.4619 -1.4871 -0.5061
 5265SOL    HW227429   3.161   2.898   7.474  3.1568  1.3117  0.2695
 5266SOL     OW27430   4.598   2.121   8.920 -0.3626 -0.2234 -0.0720
 5266SOL    HW127431   4.633   2.085   9.002  0.6775  2.9719  0.9027
 5266SOL    HW227432   4.536   2.185   8.954 -1.2709 -0.7185 -0.7993
 5267SOL     OW27433   3.967   1.765  11.096 -0.2629  0.1209  0.3623
 5267SOL    HW127434   4.031   1.835  11.108  0.1741 -0.4417  1.3510
 5267SOL    HW227435   3.890   1.802  11.140 -0.3492 -1.3362  1.4487
 5268SOL     OW27436   4.138   1.999  12.643  0.5232  0.2069  0.2301
 5268SOL    HW127437   4.210   1.957  12.690  1.5855  0.8733 -0.7898
 5268SOL    HW227438   4.073   1.979  12.710  0.5323 -0.2005  0.1180
 5269SOL     OW27439   4.223   4.429   1.395 -0.0331 -0.2110  0.2513
 5269SOL    HW127440   4.145   4.398   1.349 -1.1198  0.5052  1.6257
 5269SOL    HW227441   4.193   4.518   1.412  1.5259  0.3411  0.1211
 5270SOL     OW27442   4.386   3.247   8.174 -0.1377 -0.2718  0.4245
 5270SOL    HW127443   4.464   3.222   8.126  0.2239 -1.4639  1.6510
 5270SOL    HW227444   4.415   3.251   8.265 -0.0187 -1.1127  0.4234
 5271SOL     OW27445   1.795   0.352   0.754  0.0913  0.2259 -0.2803
 5271SOL    HW127446   1.770   0.441   0.727  0.0168  0.7352  1.5104
 5271SOL    HW227447   1.862   0.384   0.813  0.0376  0.1546 -0.1805
 5272SOL     OW27448   3.713   4.146   5.187 -0.3879  0.0975 -0.5386
 5272SOL    HW127449   3.665   4.224   5.158  2.4928  1.8725 -0.5325
 5272SOL    HW227450   3.800   4.171   5.157  0.0972 -0.2970  0.5619
 5273SOL     OW27451   2.757   0.059   9.871  0.2052 -0.3396 -0.3958
 5273SOL    HW127452   2.792   4.731   9.931  2.7770  1.3660 -0.0753
 5273SOL    HW227453   2.789   0.139   9.914 -0.8607 -0.8466  1.3453
 5274SOL     OW27454   3.458   4.201   7.978  0.8902  0.1382  0.1121
 5274SOL    HW127455   3.465   4.293   8.004 -0.8001  0.9394 -2.1840
 5274SOL    HW227456   3.480   4.158   8.060  0.8700 -1.7846 -0.9067
 5275SOL     OW27457   3.106   2.488   1.780 -0.6098 -0.7072  0.1467
 5275SOL    HW127458   3.060   2.477   1.863 -0.4673 -2.2861  0.0183
 5275SOL    HW227459   3.048   2.548   1.734  0.0072  0.0505  0.3591
 5276SOL     OW27460   1.001   1.569   9.190  0.3694 -0.2400  0.0331
 5276SOL    HW127461   0.944   1.516   9.245 -0.7894  0.5744 -0.3733
 5276SOL    HW227462   0.941   1.573   9.115  0.2741 -1.5104  0.0554
 5277SOL     OW27463   1.847   1.802   7.491  0.1029 -0.1578  0.1227
 5277SOL    HW127464   1.915   1.741   7.522 -0.2879 -1.5479 -1.7747
 5277SOL    HW227465   1.847   1.872   7.556  1.8123 -0.1942  0.1684
 5278SOL     OW27466   0.752   1.383   6.854 -0.0207 -0.0443  0.7315
 5278SOL    HW127467   0.748   1.479   6.853  3.2203  0.0604 -0.3834
 5278SOL    HW227468   0.706   1.356   6.933 -1.3450  0.5248  0.1534
 5279SOL     OW27469   4.247   0.265   6.287  0.8719 -0.3523 -0.6786
 5279SOL    HW127470   4.168   0.319   6.279  1.6382  0.8612 -0.1292
 5279SOL    HW227471   4.241   0.214   6.207  1.1266 -1.8549  0.2577
 5280SOL     OW27472   3.941   3.309   2.743 -0.1758 -0.5679 -0.5018
 5280SOL    HW127473   3.900   3.234   2.786  1.0775  0.8523  3.2288
 5280SOL    HW227474   4.029   3.272   2.735 -0.7075 -1.6855 -1.1925
 5281SOL     OW27475   4.269   3.548   3.173 -0.1767  0.2765  0.3690
 5281SOL    HW127476   4.312   3.464   3.155 -1.6041 -0.0082 -1.6372
 5281SOL    HW227477   4.189   3.532   3.124  0.7103  2.1788 -1.7202
 5282SOL     OW27478   0.380   0.971  17.331  0.5684  0.5314  0.2978
 5282SOL    HW127479   0.399   1.058  17.368  1.3983  0.2964  0.4178
 5282SOL    HW227480   0.425   0.981  17.247  1.0682 -1.3116  0.3432
 5283SOL     OW27481   0.780   2.804   9.339 -0.3660  0.2896 -0.1960
 5283SOL    HW127482   0.839   2.728   9.333 -0.8713  0.0835 -2.3949
 5283SOL    HW227483   0.717   2.753   9.288 -2.0282 -1.6737  3.7744
 5284SOL     OW27484   2.932   2.985   6.810  0.2194  0.1339  1.1310
 5284SOL    HW127485   3.019   2.995   6.847  1.0821 -0.8066 -0.6482
 5284SOL    HW227486   2.900   2.904   6.850  1.5175 -0.7606  0.3552
 5285SOL     OW27487   1.664   3.278   2.525 -0.1527 -0.2568  0.0399
 5285SOL    HW127488   1.622   3.214   2.582 -0.2321  0.5468  0.8791
 5285SOL    HW227489   1.722   3.324   2.585  0.2724  1.6241 -1.8200
 5286SOL     OW27490   2.987   0.038   5.565  0.0259  0.0053 -0.0312
 5286SOL    HW127491   3.012   4.692   5.525  0.8069  0.5890 -0.7741
 5286SOL    HW227492   2.922   0.072   5.503 -2.0773 -0.3238  1.9825
 5287SOL     OW27493   0.550   1.238   2.109  0.3482  0.0500 -0.2815
 5287SOL    HW127494   0.554   1.307   2.042  0.9903 -0.9203 -1.2319
 5287SOL    HW227495   0.586   1.285   2.184  0.2458  1.1484 -0.8997
 5288SOL     OW27496   2.377   2.115   6.818 -0.1462 -0.3702  0.0104
 5288SOL    HW127497   2.406   2.181   6.881 -0.2578  2.8196 -3.2492
 5288SOL    HW227498   2.301   2.080   6.864 -0.3614  2.7811  2.0265
 5289SOL     OW27499   3.577   2.533   6.221 -0.6056  0.1154 -0.6748
 5289SOL    HW127500   3.533   2.454   6.253 -0.0083  0.9914  2.2993
 5289SOL    HW227501   3.506   2.591   6.193  0.5491  2.2397  0.7827
 5290SOL     OW27502   2.696   1.331   3.276 -0.6299 -0.0149  0.2534
 5290SOL    HW127503   2.772   1.280   3.306  0.7488  0.7242 -2.0434
 5290SOL    HW227504   2.737   1.417   3.264 -1.6916 -0.1293 -3.9458
 5291SOL     OW27505   0.991   1.427   1.661  0.3455  0.9219  0.4150
 5291SOL    HW127506   1.023   1.358   1.603 -1.6036 -1.7157  2.4783
 5291SOL    HW227507   0.899   1.421   1.637  0.7491 -0.0886 -0.8991
 5292SOL     OW27508   3.521   3.590   4.610 -0.7221 -0.4388 -0.2382
 5292SOL    HW127509   3.508   3.623   4.699 -1.0986 -0.5444 -0.2523
 5292SOL    HW227510   3.433   3.564   4.580 -1.2581  1.3178 -0.1693
 5293SOL     OW27511   0.379   1.244   1.687 -0.0035  0.2742 -0.5665
 5293SOL    HW127512   0.345   1.300   1.756 -2.3732 -1.9634  0.1094
 5293SOL    HW227513   0.472   1.238   1.706 -0.4688 -1.3131  1.2725
 5294SOL     OW27514   0.160   1.055   3.730 -0.5422 -0.0955 -0.1826
 5294SOL    HW127515   0.173   1.044   3.636 -0.5617 -0.3153 -0.1579
 5294SOL    HW227516   0.163   0.965   3.761 -0.4918 -0.1616 -0.3848
 5295SOL     OW27517   2.391   3.961   4.068 -0.3077 -0.5235  0.3391
 5295SOL    HW127518   2.457   3.897   4.042  1.4857  1.8852 -1.1480
 5295SOL    HW227519   2.392   3.951   4.163  1.8523  0.2852  0.4063
 5296SOL     OW27520   3.664   0.207  13.405  0.3290  0.1119  0.1976
 5296SOL    HW127521   3.598   0.150  13.444 -0.0599 -0.8591 -1.8335
 5296SOL    HW227522   3.719   0.157  13.345 -1.0149  2.0381 -2.6503
 5297SOL     OW27523   2.201   4.642   7.621  0.1439 -0.3956 -0.3277
 5297SOL    HW127524   2.163   4.626   7.708 -0.6303  1.7781 -0.2757
 5297SOL    HW227525   2.137   4.596   7.567  0.4494  0.7388 -1.6483
 5298SOL     OW27526   3.754   3.121   2.418 -0.1508  0.1351  0.2238
 5298SOL    HW127527   3.846   3.128   2.394  0.6251 -2.8508  2.2304
 5298SOL    HW227528   3.760   3.142   2.512  0.5933 -0.9613  0.4196
 5299SOL     OW27529   1.087   1.724   2.348  0.1563  0.6718 -0.0137
 5299SOL    HW127530   1.085   1.657   2.416  2.0956  0.7220  0.0823
 5299SOL    HW227531   1.170   1.702   2.306  0.1609  0.4734  0.0981
 5300SOL     OW27532   2.982   4.403   3.188 -0.3935 -0.3096 -0.0427
 5300SOL    HW127533   2.921   4.351   3.135 -1.8683  0.9523  0.4044
 5300SOL    HW227534   2.936   4.383   3.270  0.4971  0.6855  0.6974
 5301SOL     OW27535   3.166   4.061   1.725  0.5697 -0.0602 -0.1887
 5301SOL    HW127536   3.187   3.979   1.770  2.6826 -0.5017 -1.9392
 5301SOL    HW227537   3.229   4.117   1.770  1.1877 -1.1686  0.3290
 5302SOL     OW27538   1.818   4.118   9.984 -0.4368  0.0745 -0.3478
 5302SOL    HW127539   1.815   4.212   9.966  1.4780 -0.0388 -1.2787
 5302SOL    HW227540   1.735   4.094  10.025 -0.4915  0.5167 -0.2056
 5303SOL     OW27541   4.541   4.406   4.202  0.3794 -0.1425  0.0213
 5303SOL    HW127542   4.535   4.371   4.291  1.0959 -2.2468 -0.7564
 5303SOL    HW227543   4.636   4.391   4.197  0.0863 -1.2524 -2.2923
 5304SOL     OW27544   1.914   1.601   7.793  0.0310 -0.2886 -0.1377
 5304SOL    HW127545   1.945   1.515   7.765  0.0179  0.4925 -2.5677
 5304SOL    HW227546   1.995   1.653   7.790 -0.1523 -0.0605 -1.2310
 5305SOL     OW27547   2.082   0.028   0.805 -0.2649  0.0731 -0.2757
 5305SOL    HW127548   2.171   0.042   0.838 -0.2638 -1.3852  0.3648
 5305SOL    HW227549   2.049   4.698   0.865  0.6779 -1.3658 -1.3732
 5306SOL     OW27550   3.052   2.676   6.627  0.5717 -0.1878 -0.2377
 5306SOL    HW127551   3.005   2.599   6.660 -2.1047  1.2623 -0.6612
 5306SOL    HW227552   3.121   2.681   6.692  0.4431 -0.8295 -0.0547
 5307SOL     OW27553   2.416   3.532   3.482  0.1772  0.1663 -0.3930
 5307SOL    HW127554   2.460   3.530   3.566  1.0320 -0.1550 -0.8491
 5307SOL    HW227555   2.491   3.542   3.424 -0.6491  1.1810 -1.2947
 5308SOL     OW27556   1.348   1.396  17.245  0.0153  0.3254 -0.2047
 5308SOL    HW127557   1.419   1.370  17.304 -1.1084 -2.6909 -0.1723
 5308SOL    HW227558   1.283   1.399  17.316 -0.2200  0.8018 -0.4362
 5309SOL     OW27559   1.668   4.372  13.681  0.6104  0.3774  0.3817
 5309SOL    HW127560   1.693   4.366  13.773  1.8929 -0.1943 -0.0048
 5309SOL    HW227561   1.716   4.296  13.650  0.0107 -0.6042  1.8354
 5310SOL     OW27562   0.132   1.813   5.712 -0.1779  0.6388 -0.1218
 5310SOL    HW127563   0.120   1.756   5.788 -2.8488  0.9176 -0.3239
 5310SOL    HW227564   0.226   1.802   5.703 -0.2376  0.7118 -0.8627
 5311SOL     OW27565   3.116   1.960   1.897 -0.1270 -0.1782  0.1850
 5311SOL    HW127566   3.103   2.022   1.825 -0.8239  0.5047  0.9039
 5311SOL    HW227567   3.190   1.911   1.861  0.4518 -0.6847  2.0627
 5312SOL     OW27568   0.522   3.534   8.493  0.5809  0.2468 -0.1901
 5312SOL    HW127569   0.470   3.538   8.413 -2.3020  0.7307  1.7224
 5312SOL    HW227570   0.465   3.514   8.567 -0.5918  0.1330 -1.1185
 5313SOL     OW27571   0.167   3.689   7.547  0.3434 -0.4029 -0.3109
 5313SOL    HW127572   0.178   3.594   7.546  1.4024 -0.2761 -0.7644
 5313SOL    HW227573   0.233   3.717   7.610  0.5257 -0.5168 -0.4497
 5314SOL     OW27574   3.570   2.420   3.639 -0.4578 -0.1708  0.0266
 5314SOL    HW127575   3.548   2.341   3.688 -0.8940  0.3674  0.6895
 5314SOL    HW227576   3.547   2.379   3.555 -0.3163 -1.1931  0.4865
 5315SOL     OW27577   1.739   4.675   5.807  0.3172  0.0810  0.4681
 5315SOL    HW127578   1.804   0.001   5.838 -2.0530  3.1954 -0.9575
 5315SOL    HW227579   1.668   4.737   5.790  0.3505 -0.4695 -1.6579
 5316SOL     OW27580   3.614   3.061  12.409 -0.5103  0.0619  0.1642
 5316SOL    HW127581   3.655   3.045  12.495  1.3155  3.0961 -0.1578
 5316SOL    HW227582   3.538   3.004  12.417 -0.0677 -0.2039  2.7311
 5317SOL     OW27583   0.077   0.311  12.562  0.3791  0.0853  0.2895
 5317SOL    HW127584   0.138   0.364  12.511  0.8693 -2.8854 -2.2098
 5317SOL    HW227585   0.138   0.248  12.601  2.6519  1.8733 -0.3438
 5318SOL     OW27586   4.142   3.013   7.332 -0.7614 -0.6902 -0.8675
 5318SOL    HW127587   4.056   2.980   7.306 -2.0523  1.7088  0.3914
 5318SOL    HW227588   4.122   3.063   7.411 -0.4053  0.3291 -1.4308
 5319SOL     OW27589   1.196   0.509   2.497  0.1916  0.3991 -0.3858
 5319SOL    HW127590   1.190   0.572   2.569  1.4600  0.7882 -0.6170
 5319SOL    HW227591   1.170   0.569   2.427 -0.8895  2.8045  2.0355
 5320SOL     OW27592   0.571   0.926   6.804  0.0326 -0.0343 -0.6010
 5320SOL    HW127593   0.550   0.836   6.781 -0.6483  0.3151 -1.3448
 5320SOL    HW227594   0.621   0.958   6.729 -0.0133 -0.6720 -0.9028
 5321SOL     OW27595   2.778   1.327  15.163  0.8625  0.0400  0.2760
 5321SOL    HW127596   2.769   1.277  15.244  1.4418  1.1748  1.0471
 5321SOL    HW227597   2.839   1.395  15.193 -0.5355  0.0456  3.1223
 5322SOL     OW27598   1.585   3.026  12.030  0.2438 -0.0965  0.2591
 5322SOL    HW127599   1.490   3.031  12.037  0.2357 -0.8328  0.7673
 5322SOL    HW227600   1.608   2.983  11.948  0.5884 -0.0919  0.3502
 5323SOL     OW27601   0.447   3.577   6.688 -0.0035  0.0753  0.1421
 5323SOL    HW127602   0.389   3.633   6.636  1.6044  0.9414 -0.7095
 5323SOL    HW227603   0.456   3.638   6.762 -1.3692  0.5210 -0.0605
 5324SOL     OW27604   3.832   0.406   7.692  0.1284  0.5697  0.0856
 5324SOL    HW127605   3.752   0.425   7.742  0.7540  0.6707  1.0510
 5324SOL    HW227606   3.887   0.479   7.721 -1.3636  1.3935  0.8538
 5325SOL     OW27607   4.698   1.080   8.978 -0.6262 -0.2353  0.0071
 5325SOL    HW127608   4.726   1.006   8.925 -1.0004 -0.8777  0.7155
 5325SOL    HW227609   4.604   1.061   8.975 -0.8343  0.6661  0.4438
 5326SOL     OW27610   4.417   3.265   2.930 -0.0552  0.5731  0.0968
 5326SOL    HW127611   4.324   3.282   2.947 -0.2540 -1.5872  1.2061
 5326SOL    HW227612   4.455   3.307   3.008  0.6092 -0.0310  0.0968
 5327SOL     OW27613   4.414   3.697   3.800 -0.3574  0.8849 -0.0376
 5327SOL    HW127614   4.396   3.729   3.712 -0.4759  3.7542  1.0269
 5327SOL    HW227615   4.483   3.756   3.830 -1.4302  2.2741 -0.3071
 5328SOL     OW27616   2.284   2.820   7.581  0.2424 -0.0003  0.7635
 5328SOL    HW127617   2.251   2.869   7.505 -0.4416 -0.8195  0.5342
 5328SOL    HW227618   2.349   2.885   7.608  1.1292 -0.3090 -0.6455
 5329SOL     OW27619   4.264   2.340   9.572 -0.2466 -0.0679  0.3168
 5329SOL    HW127620   4.263   2.278   9.645  0.9076 -1.0896 -0.5494
 5329SOL    HW227621   4.336   2.402   9.583 -1.5409  1.0704  2.4477
 5330SOL     OW27622   1.980   2.717   5.637 -0.0305  0.3078 -0.1412
 5330SOL    HW127623   1.976   2.780   5.565  0.1245  0.4720 -0.0066
 5330SOL    HW227624   1.968   2.779   5.708  0.5822 -0.3926  0.5812
 5331SOL     OW27625   3.952   1.831   4.517 -0.7845  0.3764 -0.0571
 5331SOL    HW127626   4.033   1.787   4.542 -1.7116 -1.3301 -0.1181
 5331SOL    HW227627   3.993   1.878   4.444 -2.0005 -2.4083 -2.5178
 5332SOL     OW27628   4.464   0.702  17.681 -0.4253 -0.4826 -0.5894
 5332SOL    HW127629   4.377   0.674  17.654 -0.8504  1.4662 -1.2722
 5332SOL    HW227630   4.442   0.790  17.712  0.8615 -0.8909  1.4727
 5333SOL     OW27631   4.477   0.663   1.615  0.4608  0.0795 -0.1552
 5333SOL    HW127632   4.467   0.589   1.675  1.3624 -0.8212 -1.1128
 5333SOL    HW227633   4.403   0.642   1.558 -0.5619  1.3410  0.7108
 5334SOL     OW27634   1.425   0.879  17.224 -0.0291  0.1045 -0.2124
 5334SOL    HW127635   1.366   0.913  17.291 -0.5714  3.4486 -2.3992
 5334SOL    HW227636   1.355   0.846  17.167  0.0767  0.0343 -0.3027
 5335SOL     OW27637   4.153   3.747   4.456 -0.4729  0.3522  0.1785
 5335SOL    HW127638   4.089   3.756   4.385  1.1926 -0.6468 -1.4537
 5335SOL    HW227639   4.220   3.692   4.414 -2.8077 -1.3366 -1.3327
 5336SOL     OW27640   3.605   2.523  11.361 -0.0699  0.4507 -0.4911
 5336SOL    HW127641   3.622   2.561  11.275  1.1729  1.0951  0.0282
 5336SOL    HW227642   3.515   2.496  11.348  0.1483  0.4981 -2.0869
 5337SOL     OW27643   1.740   2.608  11.536 -0.2482  0.6456  0.4815
 5337SOL    HW127644   1.805   2.621  11.605  1.9817  2.5416 -1.9529
 5337SOL    HW227645   1.699   2.690  11.508 -0.8600  0.4679  0.8562
 5338SOL     OW27646   0.639   3.260  16.539 -0.6552  0.2491 -0.7107
 5338SOL    HW127647   0.647   3.314  16.617  0.5330 -0.3015 -0.4551
 5338SOL    HW227648   0.681   3.316  16.473  0.3723 -0.7226 -0.8696
 5339SOL     OW27649   1.731   0.329   1.495 -0.1059 -0.1717 -0.2612
 5339SOL    HW127650   1.809   0.280   1.522  0.5242  0.7731 -0.3632
 5339SOL    HW227651   1.690   0.266   1.436 -1.8190  0.4428  0.2815
 5340SOL     OW27652   1.661   1.360   9.710  0.7283  0.6021 -0.1178
 5340SOL    HW127653   1.690   1.307   9.635 -2.8214 -2.2329  0.5157
 5340SOL    HW227654   1.673   1.450   9.679  2.6255  1.1374  2.2187
 5341SOL     OW27655   2.412   2.862   2.102  0.5389  0.3636  0.5561
 5341SOL    HW127656   2.399   2.953   2.127  1.0222  0.6281 -0.1882
 5341SOL    HW227657   2.480   2.865   2.035  0.2456 -0.6638  0.2024
 5342SOL     OW27658   2.670   2.178   0.541  0.2604  0.0402 -1.0664
 5342SOL    HW127659   2.723   2.240   0.592 -3.7290  3.0599 -0.5271
 5342SOL    HW227660   2.582   2.217   0.545  0.1417 -0.5040  1.6389
 5343SOL     OW27661   2.858   3.838  11.852 -0.4863  0.1686 -0.2527
 5343SOL    HW127662   2.839   3.790  11.933  0.4568 -0.1631 -0.2282
 5343SOL    HW227663   2.925   3.781  11.813 -1.7282  0.1150 -2.3328
 5344SOL     OW27664   2.648   3.622   1.600 -0.6802  0.0531  0.1896
 5344SOL    HW127665   2.642   3.665   1.515  1.5881  1.9641  1.0223
 5344SOL    HW227666   2.555   3.601   1.616 -1.2147  2.1429 -0.2556
 5345SOL     OW27667   0.736   1.660   0.461  0.2650 -0.0910  0.3210
 5345SOL    HW127668   0.758   1.667   0.554 -2.3020  0.8477  0.8792
 5345SOL    HW227669   0.726   1.754   0.443 -0.5638 -0.3794 -0.7151
 5346SOL     OW27670   4.216   4.617   0.720  0.2457 -0.6565  0.5146
 5346SOL    HW127671   4.260   4.623   0.805 -1.6869 -1.4093  1.5787
 5346SOL    HW227672   4.166   4.535   0.726 -2.4283  0.9103 -0.4804
 5347SOL     OW27673   1.977   2.083  10.951 -0.3370 -0.4381 -0.5590
 5347SOL    HW127674   1.926   2.086  10.870  0.0861 -0.1976 -0.8172
 5347SOL    HW227675   1.924   2.026  11.007 -1.5350  1.4090  0.2011
 5348SOL     OW27676   4.377   0.197  10.820 -0.1751  0.0575  0.3353
 5348SOL    HW127677   4.284   0.211  10.835 -0.0368 -0.2368  1.4463
 5348SOL    HW227678   4.414   0.231  10.901  1.3286  0.3923 -0.4776
 5349SOL     OW27679   0.713   3.098  16.243  0.1115  0.6519 -1.0048
 5349SOL    HW127680   0.748   3.176  16.286  0.1049  0.3404 -0.4302
 5349SOL    HW227681   0.628   3.122  16.207  0.0888  1.9965 -0.0643
 5350SOL     OW27682   1.574   2.183   3.010 -0.2191  0.3227  0.3733
 5350SOL    HW127683   1.592   2.269   2.972  0.7624  0.0134  0.1382
 5350SOL    HW227684   1.659   2.145   3.029 -1.1761 -1.9261  0.1828
 5351SOL     OW27685   3.514   3.427   7.519 -0.0669  0.1396  0.1772
 5351SOL    HW127686   3.562   3.397   7.596  1.7649  0.8596 -0.6905
 5351SOL    HW227687   3.464   3.503   7.550  0.6537  0.6651  0.0490
 5352SOL     OW27688   0.310   2.307   4.863 -0.0247  0.1388  0.5747
 5352SOL    HW127689   0.360   2.273   4.937  0.0459  1.6669  1.2281
 5352SOL    HW227690   0.383   2.297   4.802  0.8309  1.9630  1.3023
 5353SOL     OW27691   2.514   1.844   6.198 -0.0490  0.7497 -0.1626
 5353SOL    HW127692   2.596   1.804   6.228  0.1672  0.3542 -1.2605
 5353SOL    HW227693   2.455   1.769   6.206  1.4103 -0.3138  0.7301
 5354SOL     OW27694   1.001   4.117   7.837 -0.1926 -0.3783  0.1137
 5354SOL    HW127695   1.086   4.131   7.878 -0.2604  0.7505 -0.1516
 5354SOL    HW227696   0.990   4.208   7.810 -1.3707 -0.4285  0.4336
 5355SOL     OW27697   3.721   2.866  15.351 -0.0163 -0.1600 -0.3977
 5355SOL    HW127698   3.755   2.955  15.339 -1.2902  0.3206 -0.4694
 5355SOL    HW227699   3.690   2.844  15.263 -0.0227  0.6941 -0.6113
 5356SOL     OW27700   0.859   1.644   4.199 -0.5025 -0.3416 -0.8299
 5356SOL    HW127701   0.798   1.663   4.129 -0.8740  0.3992 -0.3047
 5356SOL    HW227702   0.904   1.727   4.188 -0.1484 -0.8807 -3.4944
 5357SOL     OW27703   2.131   1.137   9.476  0.3488  0.2573  0.2556
 5357SOL    HW127704   2.093   1.200   9.415 -0.7786  0.6848  1.4272
 5357SOL    HW227705   2.080   1.056   9.466 -0.7923  1.2247 -1.7850
 5358SOL     OW27706   1.143   3.500   9.330  0.1254 -0.4299 -0.2027
 5358SOL    HW127707   1.218   3.497   9.272  1.3866 -0.4933  1.4197
 5358SOL    HW227708   1.081   3.447   9.280 -0.5789  1.0655 -0.9035
 5359SOL     OW27709   1.262   2.555   8.441  0.0207  0.0022 -0.4470
 5359SOL    HW127710   1.260   2.460   8.439 -2.1652  0.0536 -0.9704
 5359SOL    HW227711   1.209   2.591   8.369 -0.8704  0.7497  0.5751
 5360SOL     OW27712   1.558   1.412   8.753 -0.1011 -0.4814 -0.0837
 5360SOL    HW127713   1.463   1.420   8.744 -0.0783 -0.8947 -0.7347
 5360SOL    HW227714   1.591   1.489   8.706  0.7368 -1.4816 -1.1512
 5361SOL     OW27715   3.387   1.763   1.320  0.2200 -0.7492 -0.5061
 5361SOL    HW127716   3.464   1.770   1.263 -1.8960  1.0500 -3.1044
 5361SOL    HW227717   3.418   1.711   1.395  0.9458  1.6520  0.8393
 5362SOL     OW27718   3.153   3.704  10.088  0.1953 -0.1542  0.3288
 5362SOL    HW127719   3.231   3.678  10.136 -1.1681 -1.8376  1.6581
 5362SOL    HW227720   3.096   3.739  10.157  0.2348  0.9996 -0.2406
 5363SOL     OW27721   2.436   3.950   7.338 -0.2978  0.2459  0.3704
 5363SOL    HW127722   2.478   3.867   7.315 -0.3220  0.6716 -1.1612
 5363SOL    HW227723   2.386   3.931   7.418 -1.4418  1.3901 -0.0805
 5364SOL     OW27724   2.060   1.869   9.924 -0.1010 -0.6169  0.6828
 5364SOL    HW127725   2.061   1.894   9.832  3.2215 -0.0100  0.8820
 5364SOL    HW227726   2.146   1.834   9.946  0.0925 -1.7052 -1.8489
 5365SOL     OW27727   0.014   1.828   0.679 -0.0695  0.0329  0.2479
 5365SOL    HW127728   4.708   1.758   0.630 -1.5753  2.5899 -2.0687
 5365SOL    HW227729   4.680   1.892   0.678 -0.9849 -0.9969  0.2713
 5366SOL     OW27730   1.586   3.993   8.210  0.1282  0.2685 -0.3680
 5366SOL    HW127731   1.518   3.926   8.212  1.5930 -1.1963  0.1414
 5366SOL    HW227732   1.635   3.970   8.132  1.7293  0.2193  0.6633
 5367SOL     OW27733   1.639   2.893  15.545  0.5273  0.3737 -0.0379
 5367SOL    HW127734   1.671   2.946  15.618  0.3033  1.8251 -1.0003
 5367SOL    HW227735   1.626   2.807  15.584  0.4338  0.0809 -0.7129
 5368SOL     OW27736   2.999   2.225  15.402 -0.3070  0.1896  0.9204
 5368SOL    HW127737   2.913   2.260  15.379 -0.3025 -0.3309  0.1115
 5368SOL    HW227738   2.985   2.214  15.496  1.2389  2.1166  1.3645
 5369SOL     OW27739   4.579   4.099  17.708  0.2663 -0.1054 -0.0322
 5369SOL    HW127740   4.549   4.180  17.666  0.5949  0.3113  0.5298
 5369SOL    HW227741   4.503   4.042  17.712  1.7302 -1.9324  1.8418
 5370SOL     OW27742   0.107   3.680   2.699 -0.6159  0.3790 -0.2386
 5370SOL    HW127743   0.110   3.766   2.657 -0.3512 -0.2422 -1.4922
 5370SOL    HW227744   0.020   3.658   2.664 -1.5234 -0.0041  2.2193
 5371SOL     OW27745   2.475   0.464  10.335  0.3782  0.1388 -0.0175
 5371SOL    HW127746   2.392   0.419  10.325 -0.2239  1.2626 -0.0593
 5371SOL    HW227747   2.441   0.537  10.388 -0.9997 -0.1624 -0.4912
 5372SOL     OW27748   3.081   1.729   7.191  0.3942 -0.1470 -0.0031
 5372SOL    HW127749   2.985   1.726   7.198  0.4897  0.7494  1.7691
 5372SOL    HW227750   3.110   1.750   7.280 -0.5299 -1.8847  0.7062
 5373SOL     OW27751   4.287   2.770  11.804  0.5591  0.3576  0.8357
 5373SOL    HW127752   4.277   2.676  11.790  0.8255  0.5995 -1.0365
 5373SOL    HW227753   4.200   2.776  11.843 -0.1253  2.4076 -0.9358
 5374SOL     OW27754   4.440   4.191   5.151  0.8911 -0.5532 -0.4410
 5374SOL    HW127755   4.368   4.187   5.088 -0.5449  0.1649  1.1538
 5374SOL    HW227756   4.407   4.116   5.201  0.5999 -0.3272 -0.2925
 5375SOL     OW27757   1.493   1.141   8.142 -0.6818 -0.3523  0.2213
 5375SOL    HW127758   1.531   1.053   8.135  1.2625  0.5018  0.1064
 5375SOL    HW227759   1.567   1.187   8.104  0.2687 -0.5303  1.8484
 5376SOL     OW27760   2.965   2.064   7.631 -0.1849 -0.1613 -0.2370
 5376SOL    HW127761   2.982   2.157   7.643 -0.1772 -0.4816  2.2783
 5376SOL    HW227762   2.989   2.023   7.714 -1.7004  1.3715  0.9393
 5377SOL     OW27763   3.016   3.885   8.450 -0.0642 -0.2479 -0.1464
 5377SOL    HW127764   3.059   3.935   8.380  0.3370 -1.2819 -0.6343
 5377SOL    HW227765   3.074   3.892   8.526 -0.6636  0.6339  0.2362
 5378SOL     OW27766   4.376   2.204  12.735 -0.2939 -0.0620 -0.0368
 5378SOL    HW127767   4.466   2.172  12.739 -1.1895 -2.2405  2.2625
 5378SOL    HW227768   4.344   2.184  12.647  0.8991 -1.2305 -0.2009
 5379SOL     OW27769   3.437   1.202   6.237  0.0725  0.7505  0.2280
 5379SOL    HW127770   3.498   1.139   6.274 -1.3501 -0.7648 -0.0260
 5379SOL    HW227771   3.479   1.243   6.161 -1.4542  2.2195  0.1643
 5380SOL     OW27772   0.445   0.769   4.237 -0.4117  0.0811  0.3639
 5380SOL    HW127773   0.430   0.857   4.270 -2.1061  0.3356 -1.1014
 5380SOL    HW227774   0.363   0.746   4.192 -0.6847  0.1894  0.8113
 5381SOL     OW27775   4.008   2.343   2.866 -0.3900 -0.1911 -0.5232
 5381SOL    HW127776   3.962   2.273   2.819  0.7734 -2.4803  1.7814
 5381SOL    HW227777   4.028   2.308   2.953  1.4646  0.1024 -0.8485
 5382SOL     OW27778   3.193   2.226   2.788 -0.2947 -0.1385 -0.4697
 5382SOL    HW127779   3.155   2.229   2.876  2.1393 -1.9408  0.6456
 5382SOL    HW227780   3.120   2.269   2.744  2.1861  2.3378 -2.0965
 5383SOL     OW27781   2.230   4.313   5.244 -0.4375 -0.5141  0.4187
 5383SOL    HW127782   2.165   4.248   5.218  1.0528 -0.9273 -2.2898
 5383SOL    HW227783   2.202   4.322   5.335 -0.3783 -0.0492  0.3901
 5384SOL     OW27784   0.845   4.628   3.983  0.7059 -0.0696 -0.4829
 5384SOL    HW127785   0.857   4.569   3.908 -0.1773 -1.6265  0.5872
 5384SOL    HW227786   0.767   4.677   3.955  2.0327  1.9794 -0.5905
 5385SOL     OW27787   1.692   4.241   5.449  0.5693  0.2528  0.1081
 5385SOL    HW127788   1.783   4.213   5.452  0.3503 -0.5347 -0.4673
 5385SOL    HW227789   1.695   4.318   5.392  0.7035  0.7376  0.7706
 5386SOL     OW27790   0.146   2.743   6.492 -0.2681 -0.4220 -0.4055
 5386SOL    HW127791   0.060   2.777   6.517  1.6825  2.7653  1.9070
 5386SOL    HW227792   0.178   2.706   6.575 -1.3275 -0.9420 -0.2252
 5387SOL     OW27793   3.816   4.112   7.752  0.5184  0.0032 -0.3178
 5387SOL    HW127794   3.733   4.068   7.768  1.3119 -1.6420 -0.6774
 5387SOL    HW227795   3.786   4.199   7.725  0.0174  0.4739  1.7355
 5388SOL     OW27796   0.961   3.483   6.454  0.5768  0.2837  0.5405
 5388SOL    HW127797   0.878   3.473   6.501 -0.1934 -1.0257 -1.1249
 5388SOL    HW227798   1.018   3.518   6.522  1.9410 -2.0611  0.5776
 5389SOL     OW27799   4.596   0.209   5.403 -0.4158 -0.4282 -0.2665
 5389SOL    HW127800   4.665   0.176   5.346 -0.6377  2.8627 -2.4698
 5389SOL    HW227801   4.588   0.288   5.349 -1.3267 -0.3034  0.0449
 5390SOL     OW27802   1.845   0.989   4.161 -0.3645  0.6771 -0.5295
 5390SOL    HW127803   1.778   0.962   4.097  0.9012  0.0055 -1.5671
 5390SOL    HW227804   1.851   0.905   4.207  0.0842  1.0418  0.0638
 5391SOL     OW27805   3.339   2.881   6.640 -0.3662  0.1244  0.7746
 5391SOL    HW127806   3.328   2.808   6.701  1.1732 -1.6280 -1.0317
 5391SOL    HW227807   3.395   2.837   6.575  2.5724  1.2695  2.5612
 5392SOL     OW27808   4.532   0.376  11.873 -0.2432 -0.7711 -0.0545
 5392SOL    HW127809   4.515   0.445  11.810  1.4800  0.3112  0.6770
 5392SOL    HW227810   4.611   0.408  11.917 -1.2104 -2.1753  2.7645
 5393SOL     OW27811   4.097   1.059   4.516 -0.9274  0.1497  0.2895
 5393SOL    HW127812   4.101   1.153   4.499 -2.1553  0.0674 -0.4257
 5393SOL    HW227813   4.102   1.046   4.611 -2.2544 -2.3357  0.0346
 5394SOL     OW27814   4.147   2.210  17.100 -0.0340 -0.5910 -0.1200
 5394SOL    HW127815   4.139   2.266  17.022  0.4061  0.1258  0.3501
 5394SOL    HW227816   4.211   2.265  17.144 -1.1011  0.7640 -0.2534
 5395SOL     OW27817   2.952   1.216   2.408 -0.2302 -0.3259 -0.1527
 5395SOL    HW127818   2.945   1.222   2.503 -2.0242  0.9372 -0.3819
 5395SOL    HW227819   3.040   1.252   2.397  0.6667 -2.0467  1.3862
 5396SOL     OW27820   3.080   1.164   2.881  0.7544  0.4559 -0.2647
 5396SOL    HW127821   3.086   1.106   2.957 -2.6289 -1.1119 -1.1726
 5396SOL    HW227822   3.082   1.245   2.931 -0.8750  0.4701 -0.2094
 5397SOL     OW27823   1.614   4.081   0.867  0.1217 -0.1760  0.1265
 5397SOL    HW127824   1.698   4.114   0.838 -0.3348 -1.5956 -2.8532
 5397SOL    HW227825   1.628   4.091   0.961  0.9252  0.6297 -0.0846
 5398SOL     OW27826   2.174   3.048  13.817  0.3817 -0.6210  0.0294
 5398SOL    HW127827   2.218   3.047  13.732  0.4081  0.3090  0.0357
 5398SOL    HW227828   2.087   3.011  13.800  0.6732 -1.5067  0.4656
 5399SOL     OW27829   3.829   2.349   5.197  0.0415  0.7501  0.4097
 5399SOL    HW127830   3.839   2.352   5.101  0.9590  0.5325  0.5025
 5399SOL    HW227831   3.733   2.346   5.207  0.0973 -2.6844 -0.1964
 5400SOL     OW27832   1.838   4.733   2.731 -0.1365  0.0988  0.3388
 5400SOL    HW127833   1.877   4.693   2.809 -2.7502  2.5758  2.8911
 5400SOL    HW227834   1.750   0.016   2.761 -0.6796  0.2260 -1.3624
 5401SOL     OW27835   4.283   1.997   8.383  0.5755 -0.1880  0.0159
 5401SOL    HW127836   4.277   2.015   8.477 -3.4016 -0.2063 -0.2558
 5401SOL    HW227837   4.201   1.949   8.372  0.2773  0.7953 -2.0222
 5402SOL     OW27838   0.053   1.259  16.732  0.1950  0.1514 -0.4602
 5402SOL    HW127839   4.699   1.269  16.703  0.1586 -1.7263 -0.9771
 5402SOL    HW227840   0.039   1.248  16.826  0.0170 -1.6181 -0.7000
 5403SOL     OW27841   0.844   0.459  11.091  0.1508  0.3352 -0.2851
 5403SOL    HW127842   0.785   0.532  11.072  0.7079  1.0052  0.5554
 5403SOL    HW227843   0.909   0.498  11.150  0.2244 -0.1356 -0.0589
 5404SOL     OW27844   2.184   4.438  13.479 -0.3232 -0.3450 -0.3866
 5404SOL    HW127845   2.097   4.457  13.445 -0.6901 -1.4483 -0.0551
 5404SOL    HW227846   2.215   4.368  13.421  3.5244 -0.7075  2.1265
 5405SOL     OW27847   0.019   0.632   8.990  0.0338 -0.0914 -0.7044
 5405SOL    HW127848   0.101   0.613   9.034  0.1981 -0.0965 -1.0106
 5405SOL    HW227849   0.043   0.709   8.939 -0.1776  1.3047  1.3229
 5406SOL     OW27850   0.044   2.998   8.404  0.2018 -0.3687 -0.5622
 5406SOL    HW127851   0.041   3.009   8.499 -1.6320  0.8461 -0.7622
 5406SOL    HW227852   0.119   3.052   8.380 -1.2479  1.8277 -0.1783
 5407SOL     OW27853   4.240   3.880   4.127  0.8468 -0.1223  0.3900
 5407SOL    HW127854   4.298   3.956   4.120 -0.6419  0.9439 -0.3186
 5407SOL    HW227855   4.155   3.924   4.128  0.8112 -0.1975  0.8059
 5408SOL     OW27856   0.397   0.496  17.263 -0.6022 -0.1169 -0.2645
 5408SOL    HW127857   0.400   0.578  17.215 -2.3374  0.3886  0.4987
 5408SOL    HW227858   0.348   0.521  17.341 -0.2571  0.4969 -0.2436
 5409SOL     OW27859   4.404   1.734   3.447  0.0311  0.4292  0.1057
 5409SOL    HW127860   4.430   1.735   3.539  0.6910 -0.4316 -0.0657
 5409SOL    HW227861   4.395   1.827   3.429  0.2604  0.6197  0.9890
 5410SOL     OW27862   3.497   1.459  15.167 -0.1103 -0.8583  0.7562
 5410SOL    HW127863   3.570   1.415  15.123 -1.1834 -1.4307 -0.4260
 5410SOL    HW227864   3.497   1.409  15.249  1.7794 -0.7441  0.8356
 5411SOL     OW27865   1.430   0.159   1.601  0.4259  0.2230  0.2938
 5411SOL    HW127866   1.515   0.115   1.604  0.6387  0.6288  0.1029
 5411SOL    HW227867   1.439   0.204   1.517  0.8618 -0.3170  0.0494
 5412SOL     OW27868   4.301   0.895   1.793  0.4847  0.3584 -0.6968
 5412SOL    HW127869   4.378   0.855   1.752  0.3250 -0.0198 -0.6258
 5412SOL    HW227870   4.344   0.965   1.842  1.2556 -0.9745  0.5353
 5413SOL     OW27871   4.162   2.502   4.571 -0.3478  0.6067 -0.3035
 5413SOL    HW127872   4.068   2.510   4.556 -0.3144 -2.0217 -1.9024
 5413SOL    HW227873   4.179   2.558   4.647  0.1825 -1.1461  0.8741
 5414SOL     OW27874   1.230   4.021  16.597  0.4720  0.5377  0.1953
 5414SOL    HW127875   1.185   3.991  16.518 -1.4902  2.6588  0.4989
 5414SOL    HW227876   1.307   4.064  16.560  1.9204 -0.6587  1.8046
 5415SOL     OW27877   1.331   0.216   6.828 -0.1038  0.1154 -0.0369
 5415SOL    HW127878   1.265   0.262   6.880 -1.9004 -1.2506 -1.1253
 5415SOL    HW227879   1.327   0.273   6.751 -1.2808 -0.3997 -0.3519
 5416SOL     OW27880   0.716   0.637  16.011  0.6709  0.6473  0.0026
 5416SOL    HW127881   0.709   0.561  16.069 -0.1256  0.1683 -0.7306
 5416SOL    HW227882   0.733   0.602  15.923 -0.4472 -0.6034  0.2844
 5417SOL     OW27883   3.842   3.733   5.011 -0.0837 -0.6527 -0.6103
 5417SOL    HW127884   3.832   3.778   5.095 -0.8663 -1.5362 -0.2380
 5417SOL    HW227885   3.816   3.805   4.953 -1.9353 -0.4287  0.4705
 5418SOL     OW27886   1.413   0.389  16.037 -0.5736  0.4002 -0.0664
 5418SOL    HW127887   1.473   0.424  15.971  1.1752 -0.7747  0.8807
 5418SOL    HW227888   1.386   0.468  16.084 -0.8975 -0.4565  1.2127
 5419SOL     OW27889   4.516   1.630   1.889  0.1155  0.8574  0.0815
 5419SOL    HW127890   4.488   1.695   1.953 -3.2473 -0.3484 -0.1718
 5419SOL    HW227891   4.515   1.677   1.806  1.5330  0.7872  0.0256
 5420SOL     OW27892   2.240   3.219   8.285 -0.1866 -0.4335 -0.3011
 5420SOL    HW127893   2.259   3.134   8.245 -2.0734 -0.6616 -0.6950
 5420SOL    HW227894   2.314   3.214   8.346 -0.6634  0.7043  0.3788
 5421SOL     OW27895   1.613   3.193   4.685 -0.0358  0.1342  0.5893
 5421SOL    HW127896   1.540   3.199   4.623  1.1446  0.3838 -0.7961
 5421SOL    HW227897   1.566   3.169   4.764 -0.4024 -1.6255 -0.1720
 5422SOL     OW27898   3.873   2.649   1.245 -0.9365 -1.3670 -0.1650
 5422SOL    HW127899   3.953   2.596   1.244  1.9014  2.9849 -0.3568
 5422SOL    HW227900   3.800   2.590   1.265 -2.7653  0.4814 -1.3264
 5423SOL     OW27901   1.160   1.689   8.426 -0.2639 -0.5663  0.0811
 5423SOL    HW127902   1.239   1.692   8.372  0.9685  0.0325  1.8892
 5423SOL    HW227903   1.093   1.719   8.365  0.5656 -2.6006 -1.8480
 5424SOL     OW27904   0.451   1.634  17.301 -0.1348 -0.1801 -0.4260
 5424SOL    HW127905   0.530   1.606  17.347 -0.7682  0.4613  1.0532
 5424SOL    HW227906   0.476   1.615  17.210 -0.1089  0.0523 -0.4672
 5425SOL     OW27907   1.735   1.448   2.613  0.1088 -0.3261 -0.2799
 5425SOL    HW127908   1.825   1.415   2.622  0.5800  0.8213 -0.7938
 5425SOL    HW227909   1.740   1.497   2.531  0.6258 -1.1859 -0.7649
 5426SOL     OW27910   0.503   0.242   1.777 -0.3911 -0.1781 -0.7340
 5426SOL    HW127911   0.475   0.333   1.768  1.3740  0.4304  0.0287
 5426SOL    HW227912   0.589   0.243   1.735 -0.3788  1.5397 -0.6840
 5427SOL     OW27913   4.204   3.166   5.403  0.0350  0.2184 -0.1135
 5427SOL    HW127914   4.264   3.239   5.391 -1.7278  1.6919  0.0328
 5427SOL    HW227915   4.123   3.210   5.431  1.9465  3.3935  0.3987
 5428SOL     OW27916   0.937   2.233   8.268 -0.2331  0.0385 -0.5886
 5428SOL    HW127917   0.934   2.291   8.191 -0.8579 -0.5159 -0.9761
 5428SOL    HW227918   0.901   2.289   8.337  2.4716  1.1357 -0.0669
 5429SOL     OW27919   2.914   2.694   1.637  0.2946 -0.1002  0.1181
 5429SOL    HW127920   2.827   2.654   1.626 -0.9881  2.7109  0.1131
 5429SOL    HW227921   2.950   2.678   1.550 -1.9990 -0.9432 -0.6801
 5430SOL     OW27922   1.224   2.713   2.434  0.1199 -0.0078  0.3030
 5430SOL    HW127923   1.219   2.808   2.433 -2.7282 -0.1563 -1.7398
 5430SOL    HW227924   1.151   2.690   2.491  0.6525 -1.3726  0.4423
 5431SOL     OW27925   4.496   0.677   7.800 -0.3393  0.0708  0.3550
 5431SOL    HW127926   4.467   0.608   7.739  2.4279  0.7310 -1.7069
 5431SOL    HW227927   4.418   0.706   7.847 -0.0189  2.8551 -0.8227
 5432SOL     OW27928   1.526   3.206   2.863  0.5361 -0.1479 -0.5397
 5432SOL    HW127929   1.539   3.296   2.893 -0.8400 -0.2151  0.2010
 5432SOL    HW227930   1.432   3.195   2.867  0.2979  1.3854 -1.4771
 5433SOL     OW27931   2.320   1.811  11.233  0.3413 -0.0262 -0.0764
 5433SOL    HW127932   2.283   1.807  11.145 -0.8376  3.1492  0.2683
 5433SOL    HW227933   2.402   1.853  11.206  0.0966 -0.8461 -2.0540
 5434SOL     OW27934   3.930   2.765   4.152  0.5710  0.1948 -0.0043
 5434SOL    HW127935   3.901   2.719   4.073 -1.4340  1.1099  0.2201
 5434SOL    HW227936   3.947   2.851   4.114  0.5445  0.5758  0.8396
 5435SOL     OW27937   1.751   0.047   7.380 -0.0496  0.3279  0.1964
 5435SOL    HW127938   1.838   0.047   7.421  0.3950 -3.1499 -0.7462
 5435SOL    HW227939   1.780   0.009   7.297  0.4178  0.2151  0.4100
 5436SOL     OW27940   2.834   3.592   3.043  0.5349  0.2221  0.3831
 5436SOL    HW127941   2.915   3.598   3.093 -0.1492  3.0831  1.1144
 5436SOL    HW227942   2.848   3.638   2.960 -0.4685 -2.5532 -1.3257
 5437SOL     OW27943   4.527   4.734  16.745 -0.1419  0.7078 -0.3285
 5437SOL    HW127944   4.605   0.006  16.801  0.7769 -3.1003 -1.0183
 5437SOL    HW227945   4.466   0.062  16.780  1.3111  1.3983  0.9376
 5438SOL     OW27946   1.109   1.623   6.015 -0.0434  0.5448 -0.5522
 5438SOL    HW127947   1.084   1.714   6.001 -2.6936 -0.4110 -2.1169
 5438SOL    HW227948   1.059   1.611   6.096  0.1611 -0.7559 -0.6205
 5439SOL     OW27949   3.237   3.791   6.632 -0.4753  0.0950  0.4292
 5439SOL    HW127950   3.174   3.861   6.649 -0.8671  0.0162 -0.6809
 5439SOL    HW227951   3.228   3.777   6.538 -0.3800  0.4353  0.3687
 5440SOL     OW27952   4.698   4.728   5.676  0.5009 -0.7742 -0.1533
 5440SOL    HW127953   0.015   0.021   5.602 -0.6382 -1.3726 -1.2307
 5440SOL    HW227954   4.718   4.635   5.671 -1.6216 -1.2833  0.8956
 5441SOL     OW27955   0.787   2.774   0.611 -0.4069 -0.2598  0.7560
 5441SOL    HW127956   0.724   2.797   0.542  0.6012  1.6446  0.4621
 5441SOL    HW227957   0.781   2.854   0.664 -0.7088 -0.9289  1.7336
 5442SOL     OW27958   2.243   3.686   8.440 -0.0622 -0.1571  0.7880
 5442SOL    HW127959   2.275   3.770   8.473  1.4093 -0.1225 -0.7777
 5442SOL    HW227960   2.280   3.635   8.513  0.3855  1.8369  1.9513
 5443SOL     OW27961   3.473   0.369   2.156  0.2914  0.3795  0.2508
 5443SOL    HW127962   3.506   0.282   2.178  0.5430  0.5212  0.4338
 5443SOL    HW227963   3.397   0.352   2.100  1.1181  1.9094 -1.3527
 5444SOL     OW27964   3.442   0.953   3.872  0.0279 -0.4179 -0.2202
 5444SOL    HW127965   3.368   0.959   3.812 -0.8180  0.1770  0.8749
 5444SOL    HW227966   3.432   0.866   3.910  0.0897 -0.8709 -1.2543
 5445SOL     OW27967   1.991   0.734  12.271 -0.0406  0.1813 -0.0216
 5445SOL    HW127968   1.965   0.819  12.306 -2.2837 -0.2439 -0.6701
 5445SOL    HW227969   2.037   0.751  12.189 -0.7325 -1.1275 -0.6785
 5446SOL     OW27970   0.017   0.007   8.779 -0.3461 -0.0627  0.0720
 5446SOL    HW127971   0.065   4.711   8.854  1.2721  1.9050 -0.0828
 5446SOL    HW227972   0.030   0.102   8.783 -0.3320  0.0441 -2.2370
 5447SOL     OW27973   0.011   1.782   2.690  0.4356 -0.3471  0.3119
 5447SOL    HW127974   0.077   1.757   2.754  0.1015 -1.5008  0.2081
 5447SOL    HW227975   0.052   1.855   2.644 -1.5533  1.9812  2.2692
 5448SOL     OW27976   4.482   0.430   8.397  0.3971  0.0128 -0.1080
 5448SOL    HW127977   4.405   0.376   8.415 -0.2776  0.3658 -1.9782
 5448SOL    HW227978   4.495   0.458   8.488 -0.0556 -0.2109  0.0243
 5449SOL     OW27979   4.502   1.615   6.758  0.2735  0.1457  0.0546
 5449SOL    HW127980   4.532   1.697   6.796 -0.0626 -0.2250  1.1296
 5449SOL    HW227981   4.408   1.630   6.771 -0.3940 -1.9989 -2.3260
 5450SOL     OW27982   2.636   0.635   3.700  0.6107  0.3958  0.0693
 5450SOL    HW127983   2.582   0.563   3.667 -0.7609  1.0749  0.8214
 5450SOL    HW227984   2.592   0.714   3.669  2.9937  1.3202 -0.9354
 5451SOL     OW27985   3.003   1.673   0.416  0.5003 -0.2654 -0.4289
 5451SOL    HW127986   3.024   1.734   0.345 -0.6458  0.5301 -0.0736
 5451SOL    HW227987   3.066   1.601   0.420 -0.2295 -0.7739  1.4163
 5452SOL     OW27988   1.923   2.357  11.976  0.6212 -0.3714 -0.1927
 5452SOL    HW127989   1.932   2.445  11.941  4.8076 -0.5518  0.4798
 5452SOL    HW227990   1.935   2.316  11.890 -0.5871  0.8250 -0.9359
 5453SOL     OW27991   1.282   3.376   2.175 -0.4628 -0.3396  0.6682
 5453SOL    HW127992   1.348   3.411   2.235  1.9563  0.0303 -2.2265
 5453SOL    HW227993   1.316   3.290   2.152  0.5458  0.3364 -0.3960
 5454SOL     OW27994   1.695   2.691   3.618 -0.3678  0.2116  0.4177
 5454SOL    HW127995   1.733   2.714   3.533 -1.5940  1.6146  0.2583
 5454SOL    HW227996   1.764   2.630   3.645  0.3112  0.1143 -1.5466
 5455SOL     OW27997   1.227   4.515  13.220 -0.0715 -0.1226  0.7811
 5455SOL    HW127998   1.145   4.477  13.189  0.4954 -1.3188  0.7366
 5455SOL    HW227999   1.286   4.517  13.145 -0.3989 -1.1074  0.4868
 5456SOL     OW28000   3.852   2.221  10.116  0.0105 -0.6396 -0.2042
 5456SOL    HW128001   3.788   2.293  10.119  3.0230  2.1120 -2.5359
 5456SOL    HW228002   3.870   2.214  10.023 -1.0106 -1.6386 -0.3200
 5457SOL     OW28003   2.305   1.419   9.159 -0.2889 -0.2294 -0.1398
 5457SOL    HW128004   2.249   1.347   9.130 -0.2016 -0.8924  1.3511
 5457SOL    HW228005   2.391   1.380   9.145  0.1815  0.4537  0.7753
 5458SOL     OW28006   2.668   1.492   2.493 -0.2400  0.1102  0.1604
 5458SOL    HW128007   2.641   1.484   2.402 -2.0660 -1.6456  0.8497
 5458SOL    HW228008   2.628   1.578   2.505 -0.6674 -0.2148  1.1377
 5459SOL     OW28009   0.472   3.617   1.080 -0.0056  0.2624  0.7221
 5459SOL    HW128010   0.424   3.633   0.999  1.1629  1.1270  0.1931
 5459SOL    HW228011   0.514   3.532   1.064  0.7978  0.7403  0.2593
 5460SOL     OW28012   1.197   4.439   9.267  0.0624 -0.6745 -0.1333
 5460SOL    HW128013   1.228   4.420   9.178 -1.0027 -0.4159 -0.5534
 5460SOL    HW228014   1.113   4.394   9.269 -0.1772 -0.1675  1.3408
 5461SOL     OW28015   0.550   3.343   9.791 -0.5298 -0.1105 -0.2185
 5461SOL    HW128016   0.523   3.430   9.760 -2.0093 -1.1348 -1.7676
 5461SOL    HW228017   0.490   3.330   9.865 -1.3418 -1.6331 -1.1643
 5462SOL     OW28018   4.291   0.449   2.224  0.1333  0.4093  0.1798
 5462SOL    HW128019   4.287   0.533   2.271  0.0091  0.7090 -0.3577
 5462SOL    HW228020   4.317   0.391   2.295 -0.7384  0.1014  0.2467
 5463SOL     OW28021   1.748   1.156   7.818 -0.2475 -0.1221 -0.0950
 5463SOL    HW128022   1.720   1.191   7.734  0.4775 -0.0600 -0.3164
 5463SOL    HW228023   1.725   1.236   7.865  1.0972 -0.0884  0.5208
 5464SOL     OW28024   0.404   3.028   1.762  0.2767  0.6605  0.8333
 5464SOL    HW128025   0.445   3.011   1.847  0.3832  1.2736  0.9030
 5464SOL    HW228026   0.462   3.089   1.718  1.3537 -2.5574 -2.1854
 5465SOL     OW28027   1.386   1.964   6.802 -0.3001 -0.3181 -0.0245
 5465SOL    HW128028   1.305   1.955   6.851 -1.7905  0.7665 -2.2916
 5465SOL    HW228029   1.382   1.912   6.722 -0.6126 -0.3410  0.0085
 5466SOL     OW28030   4.137   3.034  11.096  0.3246  0.2332  1.0577
 5466SOL    HW128031   4.146   3.086  11.176  3.1588 -0.9634  1.5190
 5466SOL    HW228032   4.132   2.947  11.135 -0.3984 -0.2066 -0.0103
 5467SOL     OW28033   0.923   3.351   1.488  0.2136  0.8436 -0.3833
 5467SOL    HW128034   0.953   3.361   1.579 -0.3917  1.0219 -0.2039
 5467SOL    HW228035   0.992   3.412   1.461 -1.0473  1.7800 -1.4207
 5468SOL     OW28036   3.298   1.265   4.864 -0.2396  0.2364  0.4960
 5468SOL    HW128037   3.327   1.318   4.939 -1.6522  2.5545 -0.6261
 5468SOL    HW228038   3.212   1.238   4.895  0.1459 -0.0668  1.3102
 5469SOL     OW28039   3.026   4.150  12.243  0.1595 -0.9435 -0.7818
 5469SOL    HW128040   3.119   4.157  12.221  0.7056  0.4486  1.9038
 5469SOL    HW228041   3.000   4.242  12.244 -0.7251 -1.2404  2.0896
 5470SOL     OW28042   2.430   0.348   5.942 -0.1554  0.4251  0.2940
 5470SOL    HW128043   2.378   0.361   6.021 -0.3677 -0.5004  0.3090
 5470SOL    HW228044   2.418   0.432   5.898  2.0176  0.9942  0.7688
 5471SOL     OW28045   1.500   1.050   4.384  0.2101  0.2908  0.0600
 5471SOL    HW128046   1.487   0.956   4.370 -0.0273  0.3999 -0.4351
 5471SOL    HW228047   1.473   1.090   4.302  2.8258 -2.3475 -2.0688
 5472SOL     OW28048   3.979   4.151   7.205 -0.5725 -0.2066  0.1978
 5472SOL    HW128049   4.009   4.061   7.196 -0.3427 -0.4593  3.5508
 5472SOL    HW228050   3.902   4.128   7.257  0.1581 -1.3469  0.7717
 5473SOL     OW28051   2.371   1.155  14.260 -0.2757 -0.2538  0.1707
 5473SOL    HW128052   2.405   1.245  14.259  0.9024 -0.7048  0.0775
 5473SOL    HW228053   2.289   1.166  14.211 -0.2013 -0.4330  0.0078
 5474SOL     OW28054   4.300   3.819   5.872  0.2320 -0.1885  0.2070
 5474SOL    HW128055   4.287   3.749   5.807  1.6939  1.3592 -1.7347
 5474SOL    HW228056   4.210   3.852   5.865 -0.1000 -0.5688  2.6054
 5475SOL     OW28057   4.670   0.075  13.818 -0.0168 -0.1708 -0.6169
 5475SOL    HW128058   4.724   0.153  13.827 -0.2216 -0.1956  0.8182
 5475SOL    HW228059   4.735   0.022  13.864  1.3649  0.6520 -1.6172
 5476SOL     OW28060   3.446   4.646   2.617 -0.3680 -0.4420  0.3052
 5476SOL    HW128061   3.423   4.579   2.553 -1.7183  0.7684 -0.4693
 5476SOL    HW228062   3.457   4.729   2.571 -3.0589  0.7710  1.8361
 5477SOL     OW28063   0.199   0.598   1.475  0.0115  0.0664  0.1859
 5477SOL    HW128064   0.274   0.651   1.503  0.4670 -0.1502 -0.5960
 5477SOL    HW228065   0.217   0.512   1.512 -0.2372  0.4050  1.0884
 5478SOL     OW28066   0.369   4.191   7.465  0.3309 -0.1261 -0.4358
 5478SOL    HW128067   0.300   4.161   7.405  0.1024 -0.4500 -0.0100
 5478SOL    HW228068   0.416   4.111   7.487 -0.7977 -0.8926 -0.7792
 5479SOL     OW28069   3.350   3.357  13.663  0.1187  0.3343 -0.1623
 5479SOL    HW128070   3.258   3.356  13.635 -0.1583 -0.6044  0.7793
 5479SOL    HW228071   3.343   3.345  13.757  1.7539  1.9703  0.1718
 5480SOL     OW28072   1.816   2.691   7.348 -0.1335  0.0745 -0.6036
 5480SOL    HW128073   1.821   2.659   7.438  1.0626  1.3044 -0.2383
 5480SOL    HW228074   1.839   2.783   7.363  2.8822 -0.9078  0.8484
 5481SOL     OW28075   3.051   0.554   8.248 -0.3041  0.1386 -0.0888
 5481SOL    HW128076   3.030   0.547   8.341 -0.4348  0.1732 -0.1170
 5481SOL    HW228077   3.106   0.632   8.246 -0.4616  0.2527  0.0713
 5482SOL     OW28078   3.704   3.843  14.259  0.8210  0.3325 -0.8539
 5482SOL    HW128079   3.709   3.841  14.164 -0.2762  1.8043 -0.9334
 5482SOL    HW228080   3.683   3.936  14.270  0.8143  0.1733  0.5555
 5483SOL     OW28081   4.381   0.501   2.958  0.0143  0.0691  0.2527
 5483SOL    HW128082   4.330   0.448   3.019  0.8816  1.3693  2.1184
 5483SOL    HW228083   4.406   0.570   3.020  0.7092  0.1007 -0.0669
 5484SOL     OW28084   2.708   3.843   2.851 -0.1425  0.4064 -0.0305
 5484SOL    HW128085   2.782   3.865   2.793  0.1887  1.4178  0.7745
 5484SOL    HW228086   2.710   3.925   2.901  0.8627 -0.0299  0.6469
 5485SOL     OW28087   2.016   0.275   1.570 -0.7373  0.0571  0.4535
 5485SOL    HW128088   2.030   0.308   1.659 -1.9725  1.4783  0.1215
 5485SOL    HW228089   2.045   0.355   1.526  0.1586  0.4692  1.7819
 5486SOL     OW28090   3.842   1.995   8.476 -0.2988 -0.0578 -0.5995
 5486SOL    HW128091   3.915   1.933   8.482 -1.6398 -1.4540  1.2229
 5486SOL    HW228092   3.889   2.057   8.419  2.0090  0.7450  2.1738
 5487SOL     OW28093   0.517   3.916   3.141  0.3105  0.1571 -0.1948
 5487SOL    HW128094   0.581   3.857   3.100 -0.4274  0.7444 -2.2035
 5487SOL    HW228095   0.534   3.923   3.235 -0.1172 -1.0786 -0.0329
 5488SOL     OW28096   0.912   2.496   6.560  0.4256  0.0515  0.2557
 5488SOL    HW128097   0.885   2.552   6.487  1.3821  1.2232  0.8088
 5488SOL    HW228098   0.911   2.407   6.523  1.2052  0.3194 -0.4226
 5489SOL     OW28099   0.865   0.263  13.275  0.2713  0.4723  0.5440
 5489SOL    HW128100   0.906   0.220  13.201 -2.5119  1.8395 -1.8211
 5489SOL    HW228101   0.845   0.352  13.244  0.4259  0.8735  1.6093
 5490SOL     OW28102   1.543   0.722  11.163 -0.1119 -0.3526 -0.4126
 5490SOL    HW128103   1.524   0.661  11.091  1.0195  0.7042 -1.6092
 5490SOL    HW228104   1.625   0.763  11.137  0.6828 -1.4212  0.4046
 5491SOL     OW28105   2.724   4.212  14.776  0.1639  0.2542 -0.3895
 5491SOL    HW128106   2.796   4.274  14.767  0.6060 -0.1729  0.2611
 5491SOL    HW228107   2.660   4.279  14.749  0.4751 -0.3448 -2.6053
 5492SOL     OW28108   0.619   1.845   0.737 -0.2459 -0.2884 -0.3174
 5492SOL    HW128109   0.559   1.818   0.667 -1.0493  1.2170 -0.2217
 5492SOL    HW228110   0.693   1.789   0.714 -0.4151 -0.6964  0.1278
 5493SOL     OW28111   0.976   2.123  14.598  0.2788 -0.7462  0.0763
 5493SOL    HW128112   0.970   2.149  14.506 -1.7785  2.4614  1.1153
 5493SOL    HW228113   0.913   2.053  14.582  0.6545 -1.4271  1.6720
 5494SOL     OW28114   4.709   4.685  14.320  0.4916  0.6442 -0.0717
 5494SOL    HW128115   4.721   0.042  14.337  0.6085  0.5397  0.4182
 5494SOL    HW228116   4.629   4.679  14.267 -0.2509  0.3798  1.0867
 5495SOL     OW28117   0.778   1.595   2.192 -0.1523  0.0229 -0.0699
 5495SOL    HW128118   0.738   1.675   2.226 -1.3123 -0.2694 -0.7424
 5495SOL    HW228119   0.870   1.611   2.172 -0.1742  0.9206  0.5769
 5496SOL     OW28120   0.315   0.177  13.759 -0.1339  0.3272 -0.4464
 5496SOL    HW128121   0.288   0.092  13.792  0.8075  0.6092  1.0433
 5496SOL    HW228122   0.321   0.221  13.844 -1.0175 -1.0156  0.3195
 5497SOL     OW28123   0.857   0.551   3.518 -0.4750 -0.2013  0.1121
 5497SOL    HW128124   0.804   0.574   3.594  0.6356  0.0353  0.8094
 5497SOL    HW228125   0.824   0.474   3.471  1.0117  0.1596 -1.4855
 5498SOL     OW28126   3.915   4.298   5.991  0.1021 -0.3655  0.0157
 5498SOL    HW128127   3.923   4.273   6.083  1.2696  0.1943  0.0749
 5498SOL    HW228128   3.915   4.392   6.008  0.0769 -0.2287 -0.7037
 5499SOL     OW28129   0.928   0.922  10.867  0.6038 -0.0335  0.1337
 5499SOL    HW128130   1.019   0.952  10.862  0.7068 -0.3477  0.1249
 5499SOL    HW228131   0.906   0.910  10.774  0.4591 -0.1249  0.1793
 5500SOL     OW28132   3.175   3.519  10.841  0.0163 -0.0304  0.1310
 5500SOL    HW128133   3.123   3.439  10.842 -1.0749  0.6223 -2.7196
 5500SOL    HW228134   3.122   3.567  10.777 -2.8916 -1.4683  1.4562
 5501SOL     OW28135   0.176   4.697   5.866  0.0539 -0.1269  0.4702
 5501SOL    HW128136   0.181   4.602   5.857 -1.6027 -0.0404 -1.2240
 5501SOL    HW228137   0.139   4.711   5.779  2.1941  1.9872 -0.1118
 5502SOL     OW28138   0.505   2.546   3.446 -0.3474  0.6269  0.1518
 5502SOL    HW128139   0.600   2.541   3.438 -0.4377 -1.5600  0.6452
 5502SOL    HW228140   0.502   2.517   3.537 -2.3913  0.8342  0.1431
 5503SOL     OW28141   3.452   4.169  13.086  0.4651  0.1009  0.1227
 5503SOL    HW128142   3.475   4.243  13.143  0.1127 -1.1450  1.8874
 5503SOL    HW228143   3.528   4.173  13.028  1.1078  0.0069  0.9566
 5504SOL     OW28144   1.887   3.582   1.569  0.6864  0.5120  0.2063
 5504SOL    HW128145   1.806   3.585   1.518  0.5197 -1.8155  0.3384
 5504SOL    HW228146   1.875   3.656   1.629  1.7299 -0.0390  1.0961
 5505SOL     OW28147   2.562   4.701   6.220 -0.4341  0.0614 -0.0325
 5505SOL    HW128148   2.534   0.043   6.173  0.8101 -0.7285 -2.0920
 5505SOL    HW228149   2.610   4.644   6.159  0.8050  2.2798 -1.1396
 5506SOL     OW28150   3.823   0.475   5.601  0.1170 -0.4996 -0.6811
 5506SOL    HW128151   3.874   0.395   5.590  1.1293  0.0324  0.1832
 5506SOL    HW228152   3.893   0.541   5.601 -0.4865  0.1406 -1.7035
 5507SOL     OW28153   1.672   3.029   1.111  1.2157  0.5424 -0.4879
 5507SOL    HW128154   1.650   3.099   1.173 -1.8197  0.5674 -1.5900
 5507SOL    HW228155   1.687   2.957   1.172  2.3092 -0.7194 -2.2367
 5508SOL     OW28156   2.554   3.344   2.381 -0.4392  0.2735  0.1884
 5508SOL    HW128157   2.526   3.350   2.290 -4.0741 -0.3851  1.2546
 5508SOL    HW228158   2.642   3.308   2.371 -0.6313  0.1249 -0.9395
 5509SOL     OW28159   2.604   0.658  11.588 -0.2158  0.3666 -0.7117
 5509SOL    HW128160   2.586   0.573  11.628 -1.1873  1.1457  0.5170
 5509SOL    HW228161   2.562   0.712  11.655  0.9738  2.2995 -1.5255
 5510SOL     OW28162   1.979   2.983   7.420  0.6282  0.2986 -0.1328
 5510SOL    HW128163   1.942   2.989   7.508 -0.7885  0.0956 -0.7202
 5510SOL    HW228164   1.945   3.066   7.386  2.0589  0.9786  0.0582
 5511SOL     OW28165   3.601   0.826   8.046 -0.4054 -0.2841  0.2090
 5511SOL    HW128166   3.533   0.848   7.982 -0.6674 -3.4526 -0.5853
 5511SOL    HW228167   3.589   0.731   8.049  2.2318 -0.6907 -1.8365
 5512SOL     OW28168   2.370   1.461   4.982 -0.2974 -0.2684  0.0638
 5512SOL    HW128169   2.447   1.412   4.954 -0.1456 -0.1200  0.2203
 5512SOL    HW228170   2.306   1.392   5.001  1.0039 -0.9737  1.8889
 5513SOL     OW28171   3.011   2.559   7.824 -0.5406  0.3691 -0.5690
 5513SOL    HW128172   3.099   2.578   7.790  0.4022 -2.3493  0.3098
 5513SOL    HW228173   2.997   2.613   7.901 -1.9856 -1.6249  0.5739
 5514SOL     OW28174   0.893   3.793   2.692 -0.7414  0.4102  0.0393
 5514SOL    HW128175   0.911   3.883   2.664  1.0554  0.3043  0.8185
 5514SOL    HW228176   0.812   3.759   2.656  0.1221  0.1339 -1.6344
 5515SOL     OW28177   2.388   3.107  14.794  0.6555 -0.5382 -0.0551
 5515SOL    HW128178   2.335   3.121  14.715 -0.4139  0.1558  0.7913
 5515SOL    HW228179   2.477   3.109  14.759 -0.0548  1.6516 -1.7734
 5516SOL     OW28180   3.934   4.646   2.480  0.0873  0.2039  0.1713
 5516SOL    HW128181   4.025   4.667   2.458  0.9833 -1.2363  2.5956
 5516SOL    HW228182   3.892   4.726   2.449  1.2031  1.2131  1.2975
 5517SOL     OW28183   1.253   4.083   0.727  0.0051  0.0958 -0.4767
 5517SOL    HW128184   1.160   4.102   0.732 -0.1097 -0.8422  1.0678
 5517SOL    HW228185   1.289   4.113   0.811 -1.8990 -0.9521  0.7091
 5518SOL     OW28186   2.589   0.679   6.950 -0.1550  0.0016  0.4945
 5518SOL    HW128187   2.649   0.721   7.012 -0.1902  0.7608  0.0120
 5518SOL    HW228188   2.642   0.600   6.937  1.5071  1.1590  0.2528
 5519SOL     OW28189   2.960   0.337   3.894  0.1632 -0.2421 -0.2071
 5519SOL    HW128190   2.878   0.288   3.904 -0.9727  1.6907  0.0345
 5519SOL    HW228191   2.947   0.379   3.809 -2.5420 -1.4433 -0.3842
 5520SOL     OW28192   3.201   2.297   3.472 -0.0581 -0.3538  0.2884
 5520SOL    HW128193   3.244   2.236   3.533  1.6992 -0.4815 -1.0755
 5520SOL    HW228194   3.275   2.349   3.441 -0.0191  0.3464  1.5633
 5521SOL     OW28195   3.564   0.341   7.879 -0.3650  0.2090  0.6040
 5521SOL    HW128196   3.538   0.365   7.791  3.3567 -1.9143 -1.1026
 5521SOL    HW228197   3.621   0.264   7.880 -1.3454 -0.5183 -0.1093
 5522SOL     OW28198   2.288   4.692   6.395  0.5680 -0.5222  0.4465
 5522SOL    HW128199   2.296   0.047   6.421 -1.8148 -0.4303  0.9088
 5522SOL    HW228200   2.277   4.701   6.301  0.3478 -1.2928  0.3985
 5523SOL     OW28201   0.587   2.945   3.700  0.6322 -0.1629 -0.0980
 5523SOL    HW128202   0.502   2.916   3.732  0.8732 -0.2058  0.4967
 5523SOL    HW228203   0.642   2.903   3.766 -1.3474 -0.6438  1.2327
 5524SOL     OW28204   2.493   2.379   2.286  0.0727  0.1904  0.1925
 5524SOL    HW128205   2.434   2.343   2.352 -0.0511  0.0764  0.0198
 5524SOL    HW228206   2.482   2.474   2.289 -0.9011  0.1164 -1.0487
 5525SOL     OW28207   3.488   4.448   3.688  0.6871 -0.4956 -0.1874
 5525SOL    HW128208   3.453   4.524   3.735 -0.1500 -0.2244 -1.2759
 5525SOL    HW228209   3.560   4.489   3.639 -0.5486  1.5513 -0.2587
 5526SOL     OW28210   0.805   4.057  10.225 -0.8011 -0.4804  0.5492
 5526SOL    HW128211   0.766   4.119  10.163 -0.0170 -0.6985 -0.1618
 5526SOL    HW228212   0.883   4.028  10.177 -1.5725 -0.6282 -0.6161
 5527SOL     OW28213   3.399   3.224   7.780 -0.4251 -0.3585  0.1333
 5527SOL    HW128214   3.369   3.315   7.774  1.7692  0.1942 -2.2432
 5527SOL    HW228215   3.457   3.224   7.856 -0.1649 -0.7600 -0.0686
 5528SOL     OW28216   1.221   4.735   3.432 -0.0361  0.1289  0.1753
 5528SOL    HW128217   1.220   0.065   3.500 -2.2176  0.3385 -0.0810
 5528SOL    HW228218   1.222   4.661   3.492 -0.0560  0.9944  1.2452
 5529SOL     OW28219   1.805   4.088  16.698  0.2663 -0.2270 -0.1280
 5529SOL    HW128220   1.753   4.037  16.635  0.9283  0.5604 -1.3195
 5529SOL    HW228221   1.767   4.065  16.782 -1.3428  0.8988 -0.5435
 5530SOL     OW28222   1.889   2.597  14.984 -0.3003 -0.5254 -0.3587
 5530SOL    HW128223   1.794   2.589  14.973 -0.4208  0.7341 -0.2553
 5530SOL    HW228224   1.892   2.622  15.076  2.7348  3.4186 -1.5486
 5531SOL     OW28225   3.552   4.491  11.626  0.6595 -0.3461 -0.5061
 5531SOL    HW128226   3.504   4.519  11.704 -0.9570  1.7751 -2.2403
 5531SOL    HW228227   3.510   4.406  11.617 -0.5870  0.1177  0.8738
 5532SOL     OW28228   3.638   0.454  15.572  0.2032  0.1678  0.2499
 5532SOL    HW128229   3.687   0.374  15.555  0.3356  0.1387  0.7535
 5532SOL    HW228230   3.688   0.520  15.525  1.0880  1.1895  2.5893
 5533SOL     OW28231   1.292   1.321   2.761 -0.0336  0.2384 -0.8717
 5533SOL    HW128232   1.326   1.231   2.761  0.1997  0.3284 -1.0551
 5533SOL    HW228233   1.348   1.363   2.696  2.4686  2.8305  2.9747
 5534SOL     OW28234   3.591   4.082  11.807 -0.0280 -0.2388  0.0529
 5534SOL    HW128235   3.523   4.061  11.870  1.0976 -2.7490  0.4431
 5534SOL    HW228236   3.543   4.146  11.755  1.3828 -0.1644 -1.1733
 5535SOL     OW28237   1.998   0.878   3.338  0.0492 -0.1742 -0.1889
 5535SOL    HW128238   1.929   0.936   3.370  1.5166  1.6172 -0.2810
 5535SOL    HW228239   2.031   0.851   3.424  4.3039  0.6938 -1.5308
 5536SOL     OW28240   3.625   4.382   2.305 -0.1730 -0.2522 -0.5286
 5536SOL    HW128241   3.631   4.286   2.295  0.3769 -0.5054  2.3205
 5536SOL    HW228242   3.700   4.401   2.360  0.9947 -1.8363 -1.5641
 5537SOL     OW28243   1.974   1.895  11.170  0.0316 -0.3362  0.0132
 5537SOL    HW128244   1.905   1.885  11.104 -0.7876  3.4607  0.2734
 5537SOL    HW228245   1.983   1.802  11.193  1.1185 -0.4029 -0.6678
 5538SOL     OW28246   2.154   4.226  13.936  0.1895 -0.3540  0.4902
 5538SOL    HW128247   2.179   4.229  14.028 -0.5395  0.2856  0.6618
 5538SOL    HW228248   2.227   4.282  13.909 -0.4230 -0.0627 -0.5525
 5539SOL     OW28249   0.977   3.809  14.907  0.1499 -0.1205 -0.0739
 5539SOL    HW128250   0.884   3.804  14.885 -0.2487  0.2597  1.5327
 5539SOL    HW228251   1.012   3.722  14.888 -1.3634 -0.1452 -2.7173
 5540SOL     OW28252   2.833   4.528  16.112 -0.3645  0.2428 -0.2935
 5540SOL    HW128253   2.811   4.509  16.021 -0.4371  0.2854 -0.2841
 5540SOL    HW228254   2.851   4.439  16.143 -0.7156  0.1159 -0.4587
 5541SOL     OW28255   0.522   1.296   7.271 -0.2430  0.0764 -0.1801
 5541SOL    HW128256   0.535   1.205   7.301  0.5416  0.6274  1.1536
 5541SOL    HW228257   0.429   1.310   7.286 -0.0561  1.0230  0.0717
 5542SOL     OW28258   0.225   2.771   7.243 -0.3424 -0.4356 -0.2987
 5542SOL    HW128259   0.171   2.708   7.290  1.0518 -0.7383  0.9049
 5542SOL    HW228260   0.310   2.731   7.263  0.1122  2.2300  3.1018
 5543SOL     OW28261   2.091   0.658   2.582  0.3125 -0.4329 -0.7113
 5543SOL    HW128262   2.043   0.603   2.644  1.8237 -0.6888  0.2065
 5543SOL    HW228263   2.145   0.597   2.534 -1.6407 -2.3885 -0.4332
 5544SOL     OW28264   1.224   4.470   6.324  0.5078 -0.4873  0.4131
 5544SOL    HW128265   1.249   4.479   6.232 -1.1918  1.2460  0.1155
 5544SOL    HW228266   1.128   4.470   6.321  0.5905 -0.6311 -1.9512
 5545SOL     OW28267   1.506   4.034   1.879 -0.0383  0.5789 -0.5044
 5545SOL    HW128268   1.541   4.122   1.860  1.9001  0.3943  2.1834
 5545SOL    HW228269   1.423   4.064   1.916  1.1858  0.7764  2.0497
 5546SOL     OW28270   2.258   2.192   0.293 -0.1348  0.6689 -0.1235
 5546SOL    HW128271   2.314   2.115   0.281 -0.7458  0.0533  1.0249
 5546SOL    HW228272   2.172   2.157   0.272 -0.3346  1.2603 -0.3011
 5547SOL     OW28273   1.718   0.282   3.956 -0.0958 -0.1426 -0.5271
 5547SOL    HW128274   1.743   0.261   3.866 -0.6270 -0.3780 -0.6221
 5547SOL    HW228275   1.698   0.375   3.951 -2.8057 -0.6840  0.1675
 5548SOL     OW28276   1.754   1.337   6.081 -0.7718  0.3691  0.0415
 5548SOL    HW128277   1.706   1.257   6.105 -0.2861 -0.1601 -0.7656
 5548SOL    HW228278   1.841   1.338   6.121  0.5878 -1.5331 -2.8428
 5549SOL     OW28279   2.671   0.603  16.861  0.2718  0.1036  0.2628
 5549SOL    HW128280   2.750   0.656  16.846 -0.3257  1.1818  0.8773
 5549SOL    HW228281   2.695   0.573  16.949 -0.9830 -0.4557  0.4117
 5550SOL     OW28282   4.254   2.076   4.932  0.1440  0.1517 -0.1024
 5550SOL    HW128283   4.256   1.989   4.971 -0.2693 -0.7292 -2.0419
 5550SOL    HW228284   4.331   2.081   4.875 -1.1315  0.5046 -1.8075
 5551SOL     OW28285   2.326   3.208   7.782 -0.2137 -0.3567  0.2578
 5551SOL    HW128286   2.264   3.143   7.815 -1.6715  0.6150 -0.6189
 5551SOL    HW228287   2.396   3.200   7.847 -0.1559 -1.8599  0.0122
 5552SOL     OW28288   3.269   3.265   3.422  0.1340 -0.3022 -0.1600
 5552SOL    HW128289   3.344   3.209   3.443  0.1817 -0.3440 -0.4376
 5552SOL    HW228290   3.266   3.326   3.495  2.7762 -1.7320  1.1290
 5553SOL     OW28291   4.098   1.632  13.847 -0.0441  0.1627  0.3254
 5553SOL    HW128292   4.162   1.605  13.912  0.7803 -1.1868 -1.0545
 5553SOL    HW228293   4.147   1.697  13.797 -2.3137  0.5114 -1.4493
 5554SOL     OW28294   1.821   3.541   6.856 -0.4498 -0.3982  0.1705
 5554SOL    HW128295   1.862   3.627   6.843 -1.7011  0.1206 -0.3287
 5554SOL    HW228296   1.857   3.488   6.786  0.9305 -1.2248  1.4971
 5555SOL     OW28297   1.601   2.874  11.081  0.5682 -0.0322  0.3190
 5555SOL    HW128298   1.677   2.852  11.028  2.3909 -0.3782  3.0975
 5555SOL    HW228299   1.648   2.875  11.165  0.9229  3.1969  0.0793
 5556SOL     OW28300   1.498   4.596  13.370 -0.0251  0.2100  0.3174
 5556SOL    HW128301   1.485   4.619  13.277  0.7942 -0.3110  0.0752
 5556SOL    HW228302   1.420   4.625  13.416  0.6542 -0.5599  1.9463
 5557SOL     OW28303   2.041   0.178   2.784  0.0969  0.0567  0.2242
 5557SOL    HW128304   2.035   0.141   2.873  0.0869 -0.4910 -0.0032
 5557SOL    HW228305   2.007   0.100   2.739 -0.3849 -0.6178  1.7500
 5558SOL     OW28306   4.003   3.741   1.981  0.1927  0.1981 -0.3823
 5558SOL    HW128307   4.001   3.820   1.927  0.4496  0.7888  0.4708
 5558SOL    HW228308   3.964   3.686   1.914 -0.2383 -0.3244  0.2930
 5559SOL     OW28309   0.974   1.129   1.938 -0.5381  0.5907  0.2310
 5559SOL    HW128310   0.943   1.214   1.970 -1.0213  0.3434  0.4209
 5559SOL    HW228311   0.904   1.073   1.971 -1.2342  1.1503 -0.2900
 5560SOL     OW28312   1.379   3.656   3.239 -0.0610 -0.0864  0.4460
 5560SOL    HW128313   1.463   3.694   3.214 -0.2182 -1.4963 -2.2241
 5560SOL    HW228314   1.317   3.690   3.174 -1.3843  0.8861  2.1991
 5561SOL     OW28315   2.098   4.694  11.858  0.2100  0.2727  0.0233
 5561SOL    HW128316   2.095   0.000  11.772  3.2867  0.7226  0.1278
 5561SOL    HW228317   2.192   4.701  11.878 -0.1295  0.5316  1.5274
 5562SOL     OW28318   0.336   2.122   3.202 -0.1750  0.2325 -0.5381
 5562SOL    HW128319   0.360   2.062   3.132 -0.7567 -2.0467  1.1787
 5562SOL    HW228320   0.387   2.200   3.184  1.4878 -0.6194  0.4863
 5563SOL     OW28321   1.536   0.691  14.280 -0.1030 -0.0211  0.3209
 5563SOL    HW128322   1.506   0.601  14.286  0.7618 -0.2383  1.3594
 5563SOL    HW228323   1.466   0.734  14.329  0.6259 -0.2728  1.5590
 5564SOL     OW28324   1.538   1.971   7.548  0.0156 -0.3948  0.8366
 5564SOL    HW128325   1.630   1.944   7.550  0.7176  1.7962 -2.2130
 5564SOL    HW228326   1.531   1.991   7.454 -1.5550  1.8643  1.4318
 5565SOL     OW28327   0.765   3.826   0.274  0.0043  0.0725  0.3807
 5565SOL    HW128328   0.784   3.837   0.180  3.1831  1.9117  1.2348
 5565SOL    HW228329   0.853   3.841   0.311  0.0551  0.7984 -0.0235
 5566SOL     OW28330   2.000   4.539   0.928  0.3095  0.4107 -0.2287
 5566SOL    HW128331   2.018   4.445   0.930 -0.7063  0.2261  0.6651
 5566SOL    HW228332   1.911   4.526   0.893 -0.5662 -0.2630  2.2049
 5567SOL     OW28333   2.287   1.461   8.246  0.3187 -0.2161  0.3612
 5567SOL    HW128334   2.247   1.430   8.327  0.2397  1.3532  0.9229
 5567SOL    HW228335   2.352   1.524   8.276  1.0694 -0.5489 -0.5795
 5568SOL     OW28336   2.709   0.138   0.962  0.2843 -0.0706 -0.0879
 5568SOL    HW128337   2.629   0.187   0.980  1.2793  0.9999  1.4452
 5568SOL    HW228338   2.774   0.188   1.012 -0.3366  0.5354  0.1084
 5569SOL     OW28339   3.116   3.053   3.349 -0.1067  0.3026 -0.0538
 5569SOL    HW128340   3.163   3.136   3.352  1.6565 -0.7444  0.9830
 5569SOL    HW228341   3.135   3.022   3.261  3.0173 -1.6367  1.3112
 5570SOL     OW28342   2.997   1.066   1.921  0.1127 -0.3920  0.1820
 5570SOL    HW128343   3.015   1.155   1.951 -2.1701  0.2619 -0.3817
 5570SOL    HW228344   2.904   1.062   1.942  0.5263 -1.3957  1.8277
 5571SOL     OW28345   1.618   4.628   5.102 -0.5939  0.2155  0.1451
 5571SOL    HW128346   1.542   4.670   5.143 -0.5614  0.6939 -0.2845
 5571SOL    HW228347   1.656   4.703   5.057 -1.6458  0.5426 -0.2095
 5572SOL     OW28348   4.721   3.653   7.332  0.4091  0.7320  0.4957
 5572SOL    HW128349   4.706   3.746   7.314 -2.2153  0.5193  1.6039
 5572SOL    HW228350   0.051   3.667   7.400  0.9968 -2.6112  0.5947
 5573SOL     OW28351   2.640   1.442  14.368  0.0337  0.0675 -0.0677
 5573SOL    HW128352   2.664   1.534  14.358  1.1755 -0.5597 -3.1026
 5573SOL    HW228353   2.716   1.405  14.415  0.9686  0.9466 -0.8818
 5574SOL     OW28354   1.320   0.071  14.634 -0.0620 -0.4688  0.0735
 5574SOL    HW128355   1.345   0.095  14.545  0.2166 -0.5040  0.1420
 5574SOL    HW228356   1.350   4.718  14.642  0.2190 -0.6211 -2.8201
 5575SOL     OW28357   4.337   3.945   2.128 -0.4324 -0.2943  0.8224
 5575SOL    HW128358   4.415   3.979   2.085 -0.5806  0.0666  0.8427
 5575SOL    HW228359   4.269   3.983   2.073 -1.0783 -0.4729  1.4908
 5576SOL     OW28360   4.166   3.367   0.558 -0.1539 -0.2262 -0.4254
 5576SOL    HW128361   4.097   3.384   0.495  0.4177 -1.4216 -1.3806
 5576SOL    HW228362   4.175   3.444   0.613 -1.2784 -1.2360  1.1806
 5577SOL     OW28363   0.359   2.714   4.003  0.2377  0.3446 -0.3733
 5577SOL    HW128364   0.335   2.800   4.037  0.0599  0.7566 -1.5354
 5577SOL    HW228365   0.385   2.673   4.085 -1.6454  0.6920  0.4108
 5578SOL     OW28366   2.139   1.968   6.506  0.1054 -0.2486 -0.1317
 5578SOL    HW128367   2.170   2.003   6.422 -0.9309 -0.2762 -0.5245
 5578SOL    HW228368   2.210   1.911   6.536  1.6915  1.1299 -1.2432
 5579SOL     OW28369   2.415   3.563   4.743  0.3325  0.1058  0.0396
 5579SOL    HW128370   2.327   3.596   4.762 -0.2213 -0.5217 -1.3945
 5579SOL    HW228371   2.418   3.588   4.650  2.8013  2.0921  0.6620
 5580SOL     OW28372   0.207   3.020   4.607  0.0980  0.3285  0.0957
 5580SOL    HW128373   0.208   3.112   4.582 -1.2489  0.9135  2.1920
 5580SOL    HW228374   0.166   3.025   4.694 -1.2641  0.5151 -0.5632
 5581SOL     OW28375   2.739   0.615   8.432 -0.2427  0.9349  0.0124
 5581SOL    HW128376   2.754   0.521   8.420  2.7567  1.9227 -3.8570
 5581SOL    HW228377   2.674   0.629   8.363 -2.2392 -1.8402  1.3242
 5582SOL     OW28378   4.448   4.119  15.562  0.3535  0.1606  0.2779
 5582SOL    HW128379   4.534   4.133  15.602  0.6363  0.6713 -0.5084
 5582SOL    HW228380   4.453   4.146  15.470 -0.3240  0.7704  0.4260
 5583SOL     OW28381   0.756   4.393  15.655  0.1239  0.3906  0.1945
 5583SOL    HW128382   0.850   4.404  15.640  0.2347  2.4653  2.3341
 5583SOL    HW228383   0.723   4.470  15.702 -1.4562 -0.6953  0.8312
 5584SOL     OW28384   0.057   2.748   1.891 -0.5134 -0.2279  0.3060
 5584SOL    HW128385   0.008   2.739   1.809  0.5703  0.7624 -0.4326
 5584SOL    HW228386   4.727   2.742   1.960 -0.3761 -2.1591  0.2711
 5585SOL     OW28387   4.544   2.399  11.758  0.0217  0.4869  0.2686
 5585SOL    HW128388   4.565   2.330  11.821 -0.8839 -1.2884 -1.3909
 5585SOL    HW228389   4.595   2.473  11.792  0.6874  0.7445 -1.2601
 5586SOL     OW28390   2.110   3.548  17.295 -0.1508 -0.8780 -0.0038
 5586SOL    HW128391   2.047   3.534  17.225  0.6060  2.3484 -1.3591
 5586SOL    HW228392   2.191   3.547  17.244 -0.8375 -3.6070 -1.0081
 5587SOL     OW28393   3.244   1.607   4.531  0.1368  0.1472  0.7844
 5587SOL    HW128394   3.250   1.697   4.499  0.4053 -0.4960 -1.0113
 5587SOL    HW228395   3.333   1.586   4.559 -0.0405 -1.5891  0.1094
 5588SOL     OW28396   2.636   0.113  14.246 -0.1223  0.1660  0.2612
 5588SOL    HW128397   2.675   0.191  14.206  0.3469 -0.8056 -1.1794
 5588SOL    HW228398   2.711   0.055  14.239 -1.3271 -1.1231 -1.9111
 5589SOL     OW28399   0.295   0.785   9.630  0.2789  0.1170 -0.1718
 5589SOL    HW128400   0.280   0.694   9.653 -1.5352  0.7573  1.1519
 5589SOL    HW228401   0.365   0.776   9.565 -1.1927 -0.3555 -1.6914
 5590SOL     OW28402   0.060   1.798   2.062  0.6435 -0.3416  0.1029
 5590SOL    HW128403   4.733   1.830   1.999 -1.2728 -0.0509  2.1757
 5590SOL    HW228404   0.072   1.877   2.114 -1.3603  0.7080 -1.0545
 5591SOL     OW28405   2.780   3.232   4.368  0.4482 -0.5333 -0.1415
 5591SOL    HW128406   2.811   3.319   4.393 -0.0115 -1.2527  2.8939
 5591SOL    HW228407   2.860   3.183   4.349 -0.2742 -1.5132 -0.6390
 5592SOL     OW28408   1.412   1.442   1.681  0.5404 -0.3603 -0.4081
 5592SOL    HW128409   1.333   1.493   1.667  0.2146 -0.9595 -0.7136
 5592SOL    HW228410   1.461   1.482   1.754 -1.3813  1.3398 -0.0425
 5593SOL     OW28411   1.286   1.428   2.062  0.0232 -0.0832 -0.3814
 5593SOL    HW128412   1.289   1.507   2.116 -0.0629 -0.7808  0.6677
 5593SOL    HW228413   1.224   1.448   1.993  0.5036  1.6196 -0.3198
 5594SOL     OW28414   1.043   0.273   4.961  0.1309 -0.4531 -0.1185
 5594SOL    HW128415   1.125   0.282   5.010 -0.6652 -1.7500  1.4601
 5594SOL    HW228416   1.054   0.183   4.930  2.4785 -0.7915  1.6956
 5595SOL     OW28417   4.339   4.515  10.995  0.4515 -0.2983  0.4769
 5595SOL    HW128418   4.279   4.447  11.024  1.7734 -1.3925  0.6250
 5595SOL    HW228419   4.305   4.526  10.906  0.5319 -1.4933  0.2970
 5596SOL     OW28420   1.712   2.190  10.815  0.1113 -0.0960  0.4417
 5596SOL    HW128421   1.655   2.114  10.825  1.8578 -1.5511 -0.5349
 5596SOL    HW228422   1.706   2.220  10.906  2.3103 -0.8683  0.8639
 5597SOL     OW28423   3.609   2.202   6.701  0.2704 -0.0107 -0.0326
 5597SOL    HW128424   3.630   2.112   6.727 -1.2825 -0.5148 -0.5705
 5597SOL    HW228425   3.532   2.225   6.752 -0.5859 -2.2952 -0.2939
 5598SOL     OW28426   1.456   2.736   6.414  0.1494  0.3484 -0.0099
 5598SOL    HW128427   1.474   2.685   6.493  0.9521 -0.1682 -0.5208
 5598SOL    HW228428   1.403   2.810   6.445  0.3865  1.0271 -1.2429
 5599SOL     OW28429   0.067   4.447   6.835 -0.3811 -0.5266  0.2546
 5599SOL    HW128430   0.079   4.516   6.770  0.2945 -3.4233 -2.6833
 5599SOL    HW228431   4.734   4.475   6.894 -0.5839 -0.4989 -0.0006
 5600SOL     OW28432   4.627   3.251  15.033  0.3437  0.3100 -0.7199
 5600SOL    HW128433   4.610   3.157  15.047 -0.1704  0.6975  1.2606
 5600SOL    HW228434   4.639   3.259  14.939  1.3652 -0.9170 -0.6970
 5601SOL     OW28435   0.859   1.720   0.715  0.7812  0.0671  0.3293
 5601SOL    HW128436   0.897   1.689   0.798  0.1715 -0.3642  0.4403
 5601SOL    HW228437   0.913   1.798   0.700 -2.1021  1.8752 -0.5689
 5602SOL     OW28438   3.115   3.396   3.054  0.6859  0.1087 -0.2015
 5602SOL    HW128439   3.078   3.469   3.103 -1.5756 -2.1291  1.4367
 5602SOL    HW228440   3.043   3.333   3.046  0.6309 -0.1859  2.7641
 5603SOL     OW28441   0.949   1.122   2.277 -0.1372 -0.2800  0.0668
 5603SOL    HW128442   0.858   1.097   2.296 -0.2698  1.1426  1.2795
 5603SOL    HW228443   0.939   1.194   2.215 -0.0485 -1.9320 -1.8521
 5604SOL     OW28444   1.763   2.661   0.783 -0.8885 -0.1046  0.6030
 5604SOL    HW128445   1.791   2.581   0.739  1.5349  0.1110  1.7600
 5604SOL    HW228446   1.841   2.693   0.828 -0.0233  0.1242 -1.0461
 5605SOL     OW28447   0.527   4.414   2.491 -0.2000 -0.3004 -0.1594
 5605SOL    HW128448   0.504   4.461   2.571  0.6927  0.0554 -0.1106
 5605SOL    HW228449   0.461   4.450   2.431 -0.8411 -0.1122  0.6518
 5606SOL     OW28450   3.780   2.429   8.197 -0.2068 -0.0042 -0.2857
 5606SOL    HW128451   3.776   2.335   8.178 -1.0648 -0.2136  0.9239
 5606SOL    HW228452   3.860   2.454   8.152 -0.2617 -0.8886 -0.8897
 5607SOL     OW28453   1.117   0.033   4.894 -0.2848  0.0772 -0.2105
 5607SOL    HW128454   1.207   0.005   4.912 -0.3445 -1.5056 -2.2858
 5607SOL    HW228455   1.103   0.008   4.803 -0.4726 -1.0748  0.1321
 5608SOL     OW28456   0.505   4.667   2.254 -0.5234 -0.1678 -0.4432
 5608SOL    HW128457   0.466   4.584   2.281  0.9213  0.0938  2.4077
 5608SOL    HW228458   0.501   4.671   2.158 -0.7566 -1.0314 -0.4646
 5609SOL     OW28459   3.149   4.651   3.386 -0.2775 -0.1999 -0.3923
 5609SOL    HW128460   3.063   4.692   3.393 -1.0534 -1.8770 -0.1347
 5609SOL    HW228461   3.191   4.674   3.469  1.0304 -1.0161 -0.8253
 5610SOL     OW28462   4.252   2.308   6.921 -0.3368 -0.1132  0.5624
 5610SOL    HW128463   4.204   2.384   6.890 -0.4908  0.0322  1.1579
 5610SOL    HW228464   4.226   2.237   6.862  1.2015  1.1969 -1.7118
 5611SOL     OW28465   1.502   2.180  14.174  0.3157 -0.0508 -0.1561
 5611SOL    HW128466   1.528   2.185  14.082 -0.9084 -0.6577 -0.5394
 5611SOL    HW228467   1.569   2.123  14.213 -1.2080  0.0949  2.6382
 5612SOL     OW28468   1.005   2.132   7.340 -0.0271 -0.2807 -0.4149
 5612SOL    HW128469   1.031   2.178   7.260  1.1133 -1.1956 -0.5590
 5612SOL    HW228470   0.960   2.053   7.309  0.0151 -0.2400 -0.5786
 5613SOL     OW28471   3.308   4.023  11.832  0.1109  0.2710 -0.1049
 5613SOL    HW128472   3.276   3.998  11.745  0.9525  0.8832 -0.5910
 5613SOL    HW228473   3.224   4.009  11.875  0.6312 -1.4682  0.3595
 5614SOL     OW28474   4.066   2.893   2.262 -0.0637  0.0565  0.2432
 5614SOL    HW128475   3.977   2.860   2.270  0.0768  0.0862  2.0749
 5614SOL    HW228476   4.059   2.973   2.315  0.8272  1.2836 -1.4983
 5615SOL     OW28477   1.323   0.091   7.597  0.3178 -0.2328  0.0462
 5615SOL    HW128478   1.330   0.185   7.615  3.1334 -0.7249  1.5639
 5615SOL    HW228479   1.382   0.073   7.524  0.0925 -2.2020  0.3584
 5616SOL     OW28480   0.823   1.008  16.187 -0.0902  0.3220  0.3464
 5616SOL    HW128481   0.870   0.962  16.117 -0.2074 -1.4279  1.4330
 5616SOL    HW228482   0.769   1.070  16.137  0.8610  0.5344 -0.4131
 5617SOL     OW28483   0.035   1.687   3.746  0.5738  0.0112  0.6587
 5617SOL    HW128484   0.068   1.623   3.683  1.6571  1.1248  0.0959
 5617SOL    HW228485   0.004   1.747   3.679  1.9210  0.2252  0.2310
 5618SOL     OW28486   4.600   4.590   3.835  0.3823  0.0479 -0.1754
 5618SOL    HW128487   4.546   4.538   3.894 -0.0799 -0.3006 -0.9071
 5618SOL    HW228488   4.532   4.640   3.790  1.3011 -0.3437 -1.9784
 5619SOL     OW28489   1.127   1.612   0.582 -0.3919 -0.0837  0.9767
 5619SOL    HW128490   1.073   1.534   0.568 -0.4459  0.2303 -0.6267
 5619SOL    HW228491   1.113   1.635   0.674 -0.4165 -0.6183  1.1075
 5620SOL     OW28492   4.320   2.576   3.765 -0.2433 -0.2857  0.8395
 5620SOL    HW128493   4.282   2.612   3.685  2.6256 -0.2993 -0.5378
 5620SOL    HW228494   4.366   2.652   3.801  0.7390 -1.4837  2.1017
 5621SOL     OW28495   1.015   2.753  13.137  0.1051  0.7962 -0.0548
 5621SOL    HW128496   1.095   2.740  13.086 -0.1872  0.7448 -0.4997
 5621SOL    HW228497   1.020   2.849  13.140 -0.5020  0.9203 -3.0688
 5622SOL     OW28498   3.202   2.954   2.086  0.0613  0.2400  0.5342
 5622SOL    HW128499   3.172   2.974   2.175 -0.6836 -0.1993  0.3849
 5622SOL    HW228500   3.245   2.872   2.109  0.0661  0.8830  2.7725
 5623SOL     OW28501   2.363   3.711   6.882 -0.2096 -0.0310  0.3679
 5623SOL    HW128502   2.311   3.763   6.943 -0.5704 -1.2268  1.0718
 5623SOL    HW228503   2.290   3.688   6.824 -0.6711  1.5107  0.3509
 5624SOL     OW28504   3.144   2.883   4.021  0.0435  0.3363 -0.8451
 5624SOL    HW128505   3.150   2.946   4.092  0.4410 -0.9323  0.2587
 5624SOL    HW228506   3.054   2.852   4.032 -0.2838  2.0596  1.1089
 5625SOL     OW28507   1.392   4.162  10.332 -0.1714  0.4433  0.3653
 5625SOL    HW128508   1.338   4.240  10.333  0.1541  0.6720  0.1208
 5625SOL    HW228509   1.448   4.177  10.256 -0.5003  0.7803  0.1896
 5626SOL     OW28510   2.083   4.352   6.262  0.1214  0.2166  0.0058
 5626SOL    HW128511   2.036   4.321   6.339  0.2755 -0.3065 -0.1139
 5626SOL    HW228512   2.127   4.276   6.223  0.1941  0.9345 -1.3320
 5627SOL     OW28513   0.345   3.732   7.754  0.0265 -0.1843  0.0873
 5627SOL    HW128514   0.318   3.692   7.837 -1.0146  0.3176 -0.0219
 5627SOL    HW228515   0.326   3.822   7.779  1.9420 -0.0790  1.1714
 5628SOL     OW28516   3.172   0.148   7.289  0.1845  0.1039 -0.0200
 5628SOL    HW128517   3.246   0.206   7.271 -0.2511  0.5764 -0.2976
 5628SOL    HW228518   3.123   0.134   7.207  1.9927  0.2287 -1.1173
 5629SOL     OW28519   1.520   0.877   3.146  0.0168  0.3514  0.5518
 5629SOL    HW128520   1.578   0.843   3.215 -0.5687 -1.1160  0.3258
 5629SOL    HW228521   1.553   0.818   3.078  1.0414  1.6485 -0.0798
 5630SOL     OW28522   2.533   1.773   3.822  0.6757 -0.1110 -0.5389
 5630SOL    HW128523   2.473   1.798   3.892  0.3075  1.1673 -1.3155
 5630SOL    HW228524   2.611   1.811   3.862  1.6407 -0.0662 -2.4733
 5631SOL     OW28525   4.660   0.977   2.617  0.2964  0.3306  0.0587
 5631SOL    HW128526   4.591   0.920   2.582  0.7050 -0.4830  0.5828
 5631SOL    HW228527   4.670   1.046   2.550  2.9086 -1.3878 -1.3110
 5632SOL     OW28528   4.698   3.021   9.254  0.1352  0.0654 -0.2029
 5632SOL    HW128529   0.035   3.055   9.305  2.1025 -2.9400 -1.0676
 5632SOL    HW228530   4.685   3.083   9.182  1.3755  2.7489  1.8766
 5633SOL     OW28531   3.521   1.733   2.374 -0.1291 -0.3341 -0.3704
 5633SOL    HW128532   3.550   1.700   2.459  0.1808 -1.5430 -0.9557
 5633SOL    HW228533   3.431   1.701   2.371 -0.2425  0.0956 -1.7318
 5634SOL     OW28534   4.531   1.727   1.360 -0.1432 -0.4502  0.2443
 5634SOL    HW128535   4.590   1.781   1.308 -0.8516 -1.2159 -1.3418
 5634SOL    HW228536   4.469   1.699   1.293  0.2140 -2.6381  0.8190
 5635SOL     OW28537   1.080   1.512   6.270 -0.3295 -0.1760 -0.4590
 5635SOL    HW128538   1.167   1.548   6.290 -1.1074  2.0398 -1.0936
 5635SOL    HW228539   1.045   1.508   6.359  1.2328  2.8233  0.3004
 5636SOL     OW28540   4.676   4.658   2.803 -0.3387 -0.1661  0.2568
 5636SOL    HW128541   4.699   4.588   2.865  0.8488  0.1687  0.1821
 5636SOL    HW228542   4.667   4.611   2.720 -0.2780 -0.5879  0.4883
 5637SOL     OW28543   1.914   3.478  15.135  0.1789  0.4624 -0.1778
 5637SOL    HW128544   1.863   3.545  15.089  1.0678  1.0574 -0.3081
 5637SOL    HW228545   1.986   3.528  15.174 -0.1946  0.3991  0.5896
 5638SOL     OW28546   0.188   1.909  16.284  0.8052 -0.2878 -0.0027
 5638SOL    HW128547   0.103   1.951  16.298  0.1877 -1.4035 -0.4809
 5638SOL    HW228548   0.239   1.990  16.291  1.8078 -0.9132 -0.0436
 5639SOL     OW28549   3.457   0.916   8.655 -0.2609  0.5719  0.0202
 5639SOL    HW128550   3.422   0.977   8.590  0.8246  0.9848 -0.1747
 5639SOL    HW228551   3.498   0.977   8.717  1.6953  1.2575 -1.9905
 5640SOL     OW28552   3.136   2.840   7.906  0.4774 -0.3561  0.4253
 5640SOL    HW128553   3.198   2.804   7.970  2.8999  2.1817 -0.5036
 5640SOL    HW228554   3.196   2.881   7.845  0.8440 -0.4407  0.7253
 5641SOL     OW28555   4.040   3.628   7.796  0.1006 -0.0662 -0.1776
 5641SOL    HW128556   4.104   3.663   7.734 -0.4182  1.9640  0.4428
 5641SOL    HW228557   3.987   3.708   7.797  1.1513  0.6371 -1.1135
 5642SOL     OW28558   3.593   3.830   7.308 -0.4452 -0.4295 -0.0324
 5642SOL    HW128559   3.599   3.760   7.243  0.8503  0.2338 -0.6228
 5642SOL    HW228560   3.499   3.848   7.303 -0.0340  1.3225 -1.4287
 5643SOL     OW28561   1.992   4.709   4.376  0.2735 -0.1075 -0.5084
 5643SOL    HW128562   1.956   4.621   4.386 -0.3880  0.1979 -0.2231
 5643SOL    HW228563   1.959   4.723   4.288 -0.0570  1.9607 -0.0582
 5644SOL     OW28564   4.158   4.477   8.460  0.8567 -0.1125  0.0422
 5644SOL    HW128565   4.121   4.486   8.548  1.0598 -0.5209  0.1742
 5644SOL    HW228566   4.084   4.505   8.407 -0.8725 -0.6720  2.1941
 5645SOL     OW28567   3.352   1.482  14.549  0.3458 -0.1265 -0.3289
 5645SOL    HW128568   3.318   1.559  14.595  0.9731  0.5526 -1.0206
 5645SOL    HW228569   3.418   1.522  14.494  1.4151  2.3365  2.6947
 5646SOL     OW28570   3.965   1.649   1.963  0.5092  0.4082 -0.2484
 5646SOL    HW128571   4.042   1.598   1.940  0.9152  1.3501 -0.9872
 5646SOL    HW228572   3.972   1.715   1.894  1.5940  0.5599  0.0094
 5647SOL     OW28573   2.754   2.544  15.543  0.3195 -0.0171  0.9475
 5647SOL    HW128574   2.708   2.595  15.610  1.0603  0.5452  1.0304
 5647SOL    HW228575   2.794   2.476  15.597  0.0915 -0.3056  0.7514
 5648SOL     OW28576   1.482   4.653   7.830 -0.6768  0.5998 -0.8005
 5648SOL    HW128577   1.404   4.599   7.821 -0.8562  0.2198  3.3643
 5648SOL    HW228578   1.469   4.713   7.756 -0.0882  1.4505 -0.2189
 5649SOL     OW28579   3.771   0.189   4.032  0.5437 -0.3132  0.3603
 5649SOL    HW128580   3.864   0.205   4.044  0.6224 -0.1065 -0.5878
 5649SOL    HW228581   3.734   0.222   4.115 -1.8480  0.1892 -0.8882
 5650SOL     OW28582   4.384   2.218  12.999  0.1408 -0.0151  0.4626
 5650SOL    HW128583   4.382   2.219  12.903 -0.0803 -1.6183  0.4463
 5650SOL    HW228584   4.292   2.220  13.024  0.2401  1.8715  0.6518
 5651SOL     OW28585   3.782   0.710   6.539 -0.3279 -0.1406 -0.4084
 5651SOL    HW128586   3.837   0.773   6.494 -0.9689  0.1052 -0.8410
 5651SOL    HW228587   3.762   0.660   6.460  0.0466  0.4038 -0.8487
 5652SOL     OW28588   2.422   3.680   1.964 -0.3522  0.4787  0.1672
 5652SOL    HW128589   2.410   3.748   2.031  0.4173 -1.4147  2.2187
 5652SOL    HW228590   2.340   3.633   1.981  0.1485 -0.4986 -0.1495
 5653SOL     OW28591   0.829   3.270   7.012  0.2601  0.8410  0.1765
 5653SOL    HW128592   0.773   3.331   6.965 -0.5351  0.9162  1.2102
 5653SOL    HW228593   0.850   3.212   6.938 -2.3452  0.3527 -0.1880
 5654SOL     OW28594   0.559   2.572   9.255  0.0628 -0.7269  0.2399
 5654SOL    HW128595   0.558   2.588   9.161 -1.4730 -1.6942  0.0939
 5654SOL    HW228596   0.481   2.519   9.271 -2.0313  2.0548 -0.6383
 5655SOL     OW28597   2.058   1.110   3.605  0.0495 -0.2864  0.6958
 5655SOL    HW128598   1.969   1.140   3.587 -0.2368 -2.3344 -1.3111
 5655SOL    HW228599   2.111   1.189   3.612 -0.4099 -0.1372  2.5548
 5656SOL     OW28600   2.564   2.795   6.655 -0.5545 -0.2428  0.3575
 5656SOL    HW128601   2.500   2.744   6.704 -3.1386  0.5309 -2.1882
 5656SOL    HW228602   2.528   2.792   6.566 -1.3009 -0.4698  0.6688
 5657SOL     OW28603   4.297   2.947   5.507 -0.6117 -0.1946 -0.3924
 5657SOL    HW128604   4.284   3.035   5.470 -3.2445 -0.1575  0.6508
 5657SOL    HW228605   4.223   2.900   5.468 -2.2603  0.4902  1.8879
 5658SOL     OW28606   3.665   2.007   6.849  0.6129 -0.2795 -0.4289
 5658SOL    HW128607   3.607   1.931   6.845  0.5765 -0.2392 -0.6704
 5658SOL    HW228608   3.664   2.029   6.942 -0.2119 -1.2201 -0.2101
 5659SOL     OW28609   0.936   4.041  12.663  0.0852 -0.7150  0.6445
 5659SOL    HW128610   0.961   4.029  12.754 -0.7978  0.1794  0.9929
 5659SOL    HW228611   1.015   4.027  12.611  0.9288  0.2969  1.6750
 5660SOL     OW28612   1.767   3.759  12.198 -0.1579  0.5563  0.0066
 5660SOL    HW128613   1.789   3.779  12.107 -3.3495  0.3932 -0.7797
 5660SOL    HW228614   1.809   3.825  12.253  1.0447  0.7511 -1.1402
 5661SOL     OW28615   2.632   3.762   7.251  0.3651 -0.1048 -0.8979
 5661SOL    HW128616   2.718   3.743   7.287 -1.5775 -2.6715  2.3940
 5661SOL    HW228617   2.608   3.670   7.239  0.7667 -0.2766 -0.3918
 5662SOL     OW28618   1.397   2.746   0.692 -0.0165  0.1371 -0.2261
 5662SOL    HW128619   1.366   2.693   0.619  0.7655  0.8204 -1.0619
 5662SOL    HW228620   1.310   2.768   0.725  0.1269 -0.8232  0.7881
 5663SOL     OW28621   1.127   2.016   9.871 -0.0212  0.0420  0.2069
 5663SOL    HW128622   1.218   2.044   9.859  0.4091 -2.1888 -1.6743
 5663SOL    HW228623   1.149   1.928   9.900 -2.1974 -0.0520  1.5859
 5664SOL     OW28624   2.893   4.128   5.838 -0.0065  0.2306 -0.4806
 5664SOL    HW128625   2.820   4.166   5.886 -1.9190 -4.4574  0.2882
 5664SOL    HW228626   2.918   4.198   5.777  1.1056  0.2176 -0.0352
 5665SOL     OW28627   0.428   4.669   5.190 -0.2703 -0.6724  0.2996
 5665SOL    HW128628   0.514   4.647   5.153 -1.0687 -0.4107 -1.7361
 5665SOL    HW228629   0.399   4.587   5.230 -0.1800 -0.3894  0.9486
 5666SOL     OW28630   3.670   0.530  11.036 -0.2102  0.1074  0.4323
 5666SOL    HW128631   3.613   0.601  11.063 -2.2281 -1.5808  0.6351
 5666SOL    HW228632   3.619   0.478  10.974  0.5974  1.6076 -1.4945
 5667SOL     OW28633   3.332   4.632   4.105  0.4471  0.0606 -0.3879
 5667SOL    HW128634   3.367   4.662   4.021 -0.6545 -1.8258 -1.5259
 5667SOL    HW228635   3.338   4.704   4.169  0.8097 -1.1130  0.8988
 5668SOL     OW28636   1.129   4.504  12.872 -0.1046 -0.3202 -0.1714
 5668SOL    HW128637   1.056   4.496  12.933 -0.0210  2.2667  0.2674
 5668SOL    HW228638   1.141   4.414  12.840 -0.5775 -0.4351 -0.0161
 5669SOL     OW28639   2.056   3.033   4.918 -0.0513 -0.2236 -0.9538
 5669SOL    HW128640   2.082   3.124   4.931  1.1764 -0.5415 -1.1937
 5669SOL    HW228641   1.984   3.056   4.860 -1.5372  2.7064  2.0680
 5670SOL     OW28642   1.118   1.416  17.403 -0.2765  0.0513 -0.3961
 5670SOL    HW128643   1.095   1.347  17.341 -1.6484  0.7053 -0.6236
 5670SOL    HW228644   1.039   1.471  17.406 -1.2837 -1.4119  0.1056
 5671SOL     OW28645   0.605   3.833   8.976  0.2115  0.1519  0.0579
 5671SOL    HW128646   0.519   3.792   8.969  0.3773 -0.5179  2.0086
 5671SOL    HW228647   0.648   3.803   8.896 -4.2966  0.0926 -2.3869
 5672SOL     OW28648   4.052   3.895   7.139 -0.2505 -0.0401 -0.4443
 5672SOL    HW128649   3.961   3.882   7.113 -0.2042 -2.2421  0.4981
 5672SOL    HW228650   4.072   3.802   7.136  1.3255  0.3570 -1.7257
 5673SOL     OW28651   0.975   4.700   7.180  0.0589 -0.0251  0.7455
 5673SOL    HW128652   0.943   4.697   7.270 -0.1301 -0.6304  0.6618
 5673SOL    HW228653   0.964   4.608   7.153 -1.3098 -0.3136  2.3390
 5674SOL     OW28654   2.528   3.496  14.150 -0.6398  0.0712 -0.0218
 5674SOL    HW128655   2.601   3.463  14.203  2.0727 -1.1676 -4.5263
 5674SOL    HW228656   2.566   3.573  14.108  0.3061 -0.9012 -0.9348
 5675SOL     OW28657   4.546   1.638   7.186 -0.3698  0.5263 -0.0179
 5675SOL    HW128658   4.603   1.675   7.254 -1.2303 -0.5618  1.2994
 5675SOL    HW228659   4.498   1.714   7.154  0.2964  0.5151 -1.0370
 5676SOL     OW28660   1.443   1.797  15.638 -0.0362 -0.3186  0.5599
 5676SOL    HW128661   1.433   1.776  15.545 -1.6234  0.9974  0.4311
 5676SOL    HW228662   1.351   1.799  15.663 -0.3928  0.7715 -0.8678
 5677SOL     OW28663   2.882   1.150   2.699  0.1056 -0.6945 -0.9643
 5677SOL    HW128664   2.960   1.149   2.754  0.1866 -6.7091 -1.1348
 5677SOL    HW228665   2.815   1.189   2.756  0.4904 -1.6656  0.1545
 5678SOL     OW28666   3.281   2.762   3.433  0.0348 -0.1656  0.0856
 5678SOL    HW128667   3.215   2.783   3.499 -0.0715 -2.4932  0.7182
 5678SOL    HW228668   3.296   2.841   3.381 -0.4100  1.7371  2.8955
 5679SOL     OW28669   1.179   2.963   5.167  0.0542 -0.1416 -0.1396
 5679SOL    HW128670   1.166   3.034   5.104 -0.7887  0.8679  1.1996
 5679SOL    HW228671   1.269   2.939   5.145 -0.2026 -2.0468  0.8563
 5680SOL     OW28672   4.195   2.686   8.195  0.0195  0.4009 -0.0729
 5680SOL    HW128673   4.134   2.725   8.258 -0.8253  0.3849 -0.8887
 5680SOL    HW228674   4.138   2.616   8.164 -0.6457 -0.2203  2.5628
 5681SOL     OW28675   3.982   1.777   7.879 -0.2036 -0.0516  0.0600
 5681SOL    HW128676   3.942   1.841   7.938 -0.2737 -0.9499  0.9933
 5681SOL    HW228677   3.999   1.696   7.928 -1.1373 -0.4402 -0.2576
 5682SOL     OW28678   0.801   2.285  12.612  0.8206 -0.6350  0.1635
 5682SOL    HW128679   0.820   2.198  12.648  0.7652 -1.1709 -1.1245
 5682SOL    HW228680   0.732   2.276  12.547  1.2991 -0.6702 -0.3450
 5683SOL     OW28681   1.226   1.226   2.302  0.0921  0.3072  0.1135
 5683SOL    HW128682   1.291   1.162   2.331  0.7961  1.1453  0.4062
 5683SOL    HW228683   1.159   1.174   2.258 -0.2746  1.0467 -0.2092
 5684SOL     OW28684   1.866   1.982   1.769  0.5819 -0.1806 -0.3535
 5684SOL    HW128685   1.872   1.932   1.688  2.7437 -0.3168 -0.1287
 5684SOL    HW228686   1.952   2.025   1.768  0.6951 -0.4672 -2.2587
 5685SOL     OW28687   4.200   0.586   6.079  0.2268  0.2423  0.1215
 5685SOL    HW128688   4.283   0.633   6.078  0.6016 -0.4811 -2.6345
 5685SOL    HW228689   4.201   0.518   6.011  1.7154  0.7128 -0.3227
 5686SOL     OW28690   2.008   1.310   6.174 -0.0947  0.4725 -0.3885
 5686SOL    HW128691   2.077   1.331   6.111 -0.8493 -2.3062 -2.1581
 5686SOL    HW228692   2.003   1.215   6.163 -3.2051  0.6195 -0.3663
 5687SOL     OW28693   4.404   0.173   1.822  0.2615 -0.1007  0.6389
 5687SOL    HW128694   4.328   0.196   1.767  1.0704 -3.3174 -1.8227
 5687SOL    HW228695   4.399   0.077   1.820 -1.9177  0.0511 -1.1003
 5688SOL     OW28696   2.254   2.736  17.441 -0.5297 -0.2468 -0.0294
 5688SOL    HW128697   2.339   2.706  17.408 -1.4489 -1.1159 -1.6022
 5688SOL    HW228698   2.239   2.811  17.383 -1.7144 -1.0549 -0.7815
 5689SOL     OW28699   0.336   2.437   5.337 -0.7223  0.0069 -0.1025
 5689SOL    HW128700   0.305   2.427   5.427 -0.7851  1.6297  0.0665
 5689SOL    HW228701   0.279   2.372   5.296  1.1870 -0.6563 -1.6686
 5690SOL     OW28702   4.581   2.907   3.093  0.6583  0.2704  0.1723
 5690SOL    HW128703   4.562   2.814   3.106  1.7117 -0.3394 -2.6751
 5690SOL    HW228704   4.570   2.924   3.000  0.7151 -0.2898  0.0644
 5691SOL     OW28705   3.980   0.775   3.554  0.8726 -0.5025  0.0687
 5691SOL    HW128706   4.058   0.731   3.587  2.5131  0.1950 -2.9060
 5691SOL    HW228707   3.939   0.705   3.503 -1.8217  0.0972  1.4095
 5692SOL     OW28708   3.932   1.034  14.537  0.5773 -0.3922  0.7474
 5692SOL    HW128709   3.949   1.127  14.523 -0.4274 -0.4193 -0.7544
 5692SOL    HW228710   3.922   1.027  14.632  0.3378  1.7226  0.8689
 5693SOL     OW28711   0.943   3.600   3.922  0.3299 -0.4385 -1.0303
 5693SOL    HW128712   0.997   3.528   3.955 -0.6186 -1.0246 -0.7436
 5693SOL    HW228713   0.853   3.569   3.930 -0.5248  1.7158 -2.2598
 5694SOL     OW28714   1.977   2.426   7.259 -0.4904 -0.1719  0.0203
 5694SOL    HW128715   1.892   2.420   7.214 -0.1665 -0.9042 -0.4827
 5694SOL    HW228716   1.943   2.448   7.346  0.6729  0.4645  0.3109
 5695SOL     OW28717   4.464   0.707   2.272  0.6093 -0.0420  0.2872
 5695SOL    HW128718   4.418   0.769   2.216 -0.8403 -1.9302 -0.6168
 5695SOL    HW228719   4.490   0.633   2.216 -3.2689 -1.4263  0.3087
 5696SOL     OW28720   3.088   4.271   6.530 -0.1782  0.1040 -0.1041
 5696SOL    HW128721   3.173   4.236   6.557 -0.6338 -1.1993 -0.3960
 5696SOL    HW228722   3.070   4.323   6.608  0.7518 -1.8592  1.3896
 5697SOL     OW28723   2.656   0.240   2.610 -0.0013  0.2048 -0.0676
 5697SOL    HW128724   2.730   0.197   2.652 -0.0354 -0.1789 -0.4030
 5697SOL    HW228725   2.683   0.332   2.608 -0.0657  0.2678  2.0741
 5698SOL     OW28726   3.088   0.144  12.611 -0.2238  0.1773 -0.2268
 5698SOL    HW128727   3.164   0.108  12.656  1.1400  0.2406 -2.4786
 5698SOL    HW228728   3.100   0.105  12.525  0.0852 -0.7730  0.2484
 5699SOL     OW28729   2.317   1.076   0.923  0.3730  0.8528  0.2749
 5699SOL    HW128730   2.248   1.076   0.857  0.2178 -1.8140  0.4548
 5699SOL    HW228731   2.313   0.993   0.970 -2.6728  0.0741 -1.4167
 5700SOL     OW28732   0.319   3.944   5.903  0.2769  0.2512 -0.3066
 5700SOL    HW128733   0.267   4.002   5.847  1.3972 -0.0849 -1.7168
 5700SOL    HW228734   0.296   3.987   5.985  0.1391 -1.4671  0.5619
 5701SOL     OW28735   0.396   3.975  10.005 -0.4059 -0.3520 -0.4950
 5701SOL    HW128736   0.362   3.957  10.093 -0.2598 -2.9338 -0.9608
 5701SOL    HW228737   0.470   3.914  10.010  0.2512  0.4057 -1.0498
 5702SOL     OW28738   1.851   3.129   3.374 -0.7245  0.3435  0.2204
 5702SOL    HW128739   1.870   3.037   3.355 -1.0404  0.9361 -2.8898
 5702SOL    HW228740   1.914   3.148   3.444  0.7532 -1.8736 -0.5225
 5703SOL     OW28741   0.031   1.102  12.259 -0.1623  0.0568 -0.0998
 5703SOL    HW128742   4.699   1.076  12.321  0.9171 -1.1868  0.5731
 5703SOL    HW228743   0.111   1.077  12.306 -0.2099  1.0356  0.5021
 5704SOL     OW28744   4.641   3.566  15.450 -0.5188 -0.4341  0.7880
 5704SOL    HW128745   4.724   3.614  15.454 -1.7009  1.5913  0.6647
 5704SOL    HW228746   4.644   3.528  15.538  1.3189  0.7650  1.2315
 5705SOL     OW28747   0.750   3.790   3.070 -0.0247 -0.3948  0.0282
 5705SOL    HW128748   0.768   3.861   3.131 -1.7864  0.1449 -0.0561
 5705SOL    HW228749   0.829   3.777   3.019  0.4577  1.0825  0.3968
 5706SOL     OW28750   3.425   4.143   4.303  0.2488  0.2503  0.3447
 5706SOL    HW128751   3.346   4.155   4.251  0.7133  0.7280 -0.2392
 5706SOL    HW228752   3.400   4.071   4.360 -0.9032 -0.3998 -0.9904
 5707SOL     OW28753   4.085   0.335   4.371 -0.2907  0.1640  0.2524
 5707SOL    HW128754   4.056   0.426   4.376  1.5266  0.7088  0.8689
 5707SOL    HW228755   4.180   0.342   4.372 -0.3239  0.6498  1.2959
 5708SOL     OW28756   2.255   4.311   6.827  0.4239 -0.3821 -0.3017
 5708SOL    HW128757   2.173   4.359   6.813 -0.1928 -0.9661  1.3054
 5708SOL    HW228758   2.249   4.280   6.917  2.4352  1.8868  0.6039
 5709SOL     OW28759   4.354   4.081   3.555 -0.1410  0.5886  0.5536
 5709SOL    HW128760   4.447   4.059   3.546 -0.5985 -0.7347 -1.0597
 5709SOL    HW228761   4.347   4.081   3.650  0.1453  2.0194  0.5657
 5710SOL     OW28762   1.671   3.267   8.988  0.3565 -0.2965  0.0739
 5710SOL    HW128763   1.665   3.324   8.912  0.8196  1.9917  1.7798
 5710SOL    HW228764   1.658   3.181   8.946  0.1906  0.0707 -0.6299
 5711SOL     OW28765   2.959   1.345   0.060 -0.1464  0.1044 -0.2832
 5711SOL    HW128766   3.004   1.429   0.069 -1.6756  1.0193 -1.1759
 5711SOL    HW228767   3.019   1.289   0.110 -0.2177 -1.2922 -1.7490
 5712SOL     OW28768   1.349   3.376  13.324 -0.0222 -0.0812 -0.5119
 5712SOL    HW128769   1.330   3.332  13.241  0.4057  0.4068 -0.8731
 5712SOL    HW228770   1.281   3.443  13.322 -1.0883 -1.2119 -2.4817
 5713SOL     OW28771   0.307   4.693  11.387 -0.4271 -0.5666 -0.8646
 5713SOL    HW128772   0.363   4.621  11.415 -0.1851 -0.6816 -1.6394
 5713SOL    HW228773   0.222   4.688  11.431  0.1101  0.3214  0.2741
 5714SOL     OW28774   1.725   0.904  17.269  0.7646 -0.1552  0.5283
 5714SOL    HW128775   1.780   0.946  17.203 -1.4989  1.3726 -0.3768
 5714SOL    HW228776   1.635   0.919  17.240  1.4237  0.6052 -1.1300
 5715SOL     OW28777   1.417   2.262   0.836 -0.1507  0.0952 -0.3158
 5715SOL    HW128778   1.461   2.327   0.892  2.4693 -1.8301 -0.1813
 5715SOL    HW228779   1.391   2.323   0.767 -1.5222  0.0876  0.1811
 5716SOL     OW28780   0.136   2.216   2.504 -0.0964  0.3503 -0.2060
 5716SOL    HW128781   0.201   2.255   2.562  0.0495 -0.0114 -0.1254
 5716SOL    HW228782   0.186   2.218   2.422 -1.4145 -1.7705 -1.0630
 5717SOL     OW28783   0.131   3.915   2.584  0.5237  0.3614  0.3090
 5717SOL    HW128784   0.189   3.945   2.654 -0.6930  0.1097  1.4259
 5717SOL    HW228785   0.128   3.993   2.528  0.2457 -0.6399 -1.0677
 5718SOL     OW28786   0.215   0.885   4.890 -0.1654  0.4693 -0.0308
 5718SOL    HW128787   0.311   0.875   4.886  0.1904  3.8099  0.1435
 5718SOL    HW228788   0.214   0.951   4.960 -0.8493  1.0288 -0.5723
 5719SOL     OW28789   2.548   3.509   5.166  0.0067  0.0248  0.1706
 5719SOL    HW128790   2.639   3.538   5.177 -0.7853  1.7988  2.0403
 5719SOL    HW228791   2.500   3.574   5.218  2.4065  0.8748  1.3315
 5720SOL     OW28792   0.450   4.232   1.766 -0.3322  0.0952  0.8390
 5720SOL    HW128793   0.452   4.183   1.684 -1.2794  1.0188  0.2548
 5720SOL    HW228794   0.448   4.170   1.839  3.4988 -0.1199  0.7223
 5721SOL     OW28795   0.084   3.380   4.145  0.2937 -0.4386 -0.7337
 5721SOL    HW128796   0.070   3.302   4.090 -0.1504  0.4412 -1.8682
 5721SOL    HW228797   0.094   3.450   4.081  1.1072  0.2519  0.1538
 5722SOL     OW28798   4.465   2.426   2.833  0.1332  0.1256 -0.0252
 5722SOL    HW128799   4.440   2.335   2.813 -1.6159  0.4902  0.5677
 5722SOL    HW228800   4.541   2.440   2.776  0.6376  3.0820  1.3879
 5723SOL     OW28801   4.159   0.782   6.580  0.5458 -0.1055 -0.3126
 5723SOL    HW128802   4.251   0.798   6.601 -0.0848  3.1325 -0.0418
 5723SOL    HW228803   4.165   0.713   6.513 -0.3568  1.4961 -2.0629
 5724SOL     OW28804   3.455   4.154  10.963 -0.0804  0.3187  0.1407
 5724SOL    HW128805   3.480   4.210  11.037  0.8853  2.3363 -1.6984
 5724SOL    HW228806   3.477   4.070  11.004  1.0620  0.3874 -0.3365
 5725SOL     OW28807   2.956   1.703   1.301 -0.0562 -0.3833  0.2769
 5725SOL    HW128808   3.028   1.680   1.243 -0.3174  0.7991 -0.5285
 5725SOL    HW228809   2.888   1.649   1.260  0.2140  0.6367 -1.5155
 5726SOL     OW28810   2.240   4.010  11.780 -0.6531 -0.7404  0.1265
 5726SOL    HW128811   2.326   3.975  11.755 -1.0993 -0.8195 -1.3130
 5726SOL    HW228812   2.252   4.103  11.761  1.5975 -1.5714 -2.6200
 5727SOL     OW28813   0.309   1.897   2.313 -0.3337  0.0546  0.2972
 5727SOL    HW128814   0.379   1.887   2.249 -0.8892 -2.3028  0.0348
 5727SOL    HW228815   0.286   1.804   2.316  0.9764 -0.2716 -0.1156
 5728SOL     OW28816   1.524   3.185   4.384  0.1439  0.6028 -0.1914
 5728SOL    HW128817   1.545   3.251   4.319 -0.7556 -0.1641 -1.2786
 5728SOL    HW228818   1.609   3.148   4.407 -0.2315 -1.5126 -2.1857
 5729SOL     OW28819   2.039   2.043   6.843 -0.1870  0.2670 -0.3125
 5729SOL    HW128820   1.975   1.982   6.807  1.2490 -2.1971  1.3157
 5729SOL    HW228821   2.099   1.982   6.887 -1.2245 -0.5230 -0.0096
 5730SOL     OW28822   0.101   4.006  17.690 -0.3198  0.0193 -0.5709
 5730SOL    HW128823   0.012   4.040  17.682  0.3409  1.5886 -1.2701
 5730SOL    HW228824   0.154   4.083  17.669  0.5934 -0.4402  0.0441
 5731SOL     OW28825   4.128   4.016   5.484 -0.1325  0.3834  0.0493
 5731SOL    HW128826   4.133   4.101   5.528  1.6040  1.1010 -1.5523
 5731SOL    HW228827   4.176   4.037   5.404  1.3504 -1.4305  0.4764
 5732SOL     OW28828   1.239   3.910   2.311  0.4339 -0.2036  0.0787
 5732SOL    HW128829   1.310   3.846   2.308  0.4957 -0.0428 -1.7845
 5732SOL    HW228830   1.178   3.868   2.372  0.7480  0.4007  0.8117
 5733SOL     OW28831   1.281   3.787   0.819 -0.1749  0.1469  0.0185
 5733SOL    HW128832   1.200   3.820   0.779 -0.1943 -1.5605 -1.3735
 5733SOL    HW228833   1.353   3.832   0.775  0.8090 -1.1315  0.3287
 5734SOL     OW28834   4.388   4.196   0.873 -0.4495 -0.4251 -0.3873
 5734SOL    HW128835   4.358   4.221   0.961  1.4855  0.6191 -0.0129
 5734SOL    HW228836   4.419   4.108   0.895  1.7478  0.5596  0.4422
 5735SOL     OW28837   3.250   4.322  15.492  0.2310  0.0905  0.5472
 5735SOL    HW128838   3.179   4.259  15.507  0.7132 -0.7404 -0.6612
 5735SOL    HW228839   3.219   4.379  15.421  3.4893 -0.5421 -1.3859
 5736SOL     OW28840   4.258   2.010   0.944  0.0901  0.1014 -0.0135
 5736SOL    HW128841   4.219   1.938   0.993 -0.8299  1.0228  0.5974
 5736SOL    HW228842   4.314   1.958   0.886  0.7247  1.7135 -0.8568
 5737SOL     OW28843   2.687   1.294  13.759 -0.6760  0.2177 -0.2975
 5737SOL    HW128844   2.615   1.302  13.822 -0.6161  1.8846 -0.4405
 5737SOL    HW228845   2.653   1.227  13.700  1.7766 -0.2307 -1.1950
 5738SOL     OW28846   1.909   3.627   3.616 -0.4690  0.5954  0.4317
 5738SOL    HW128847   1.979   3.564   3.630 -0.3936  0.6208  0.1796
 5738SOL    HW228848   1.862   3.581   3.546  1.3641 -0.9620  0.2305
 5739SOL     OW28849   4.654   3.264   8.794  0.0470  0.2333 -0.2034
 5739SOL    HW128850   4.681   3.253   8.703  1.3485 -1.9043  0.4284
 5739SOL    HW228851   4.737   3.275   8.840  0.3545  2.2492 -1.2172
 5740SOL     OW28852   1.545   4.683   5.470 -0.6929  0.4157 -0.2977
 5740SOL    HW128853   1.490   4.650   5.541 -1.7356  1.3912 -0.6586
 5740SOL    HW228854   1.596   0.017   5.509  0.4426 -0.0569 -0.9052
 5741SOL     OW28855   3.517   0.776   7.455  0.5150 -0.4644 -0.7318
 5741SOL    HW128856   3.446   0.735   7.405 -1.7115 -1.1439  2.9554
 5741SOL    HW228857   3.519   0.867   7.425  0.6802  0.9421  3.4040
 5742SOL     OW28858   0.337   3.744   5.315 -0.2002 -0.4185  0.1606
 5742SOL    HW128859   0.422   3.786   5.329 -1.5947  2.0398  1.3322
 5742SOL    HW228860   0.308   3.759   5.405  0.5513  0.0767  0.3235
 5743SOL     OW28861   2.726   2.601  10.628  0.4221 -0.2049 -0.1266
 5743SOL    HW128862   2.648   2.557  10.661  0.2697 -0.6718 -1.1352
 5743SOL    HW228863   2.752   2.540  10.559  2.9276 -0.0450  0.6581
 5744SOL     OW28864   0.280   4.514   2.008  0.2714  0.1314  0.6077
 5744SOL    HW128865   0.233   4.578   2.062 -0.6190  0.6266 -0.7609
 5744SOL    HW228866   0.295   4.557   1.924 -2.7322 -1.8759 -0.9610
 5745SOL     OW28867   2.793   1.346   8.745  0.2267  0.0294  0.3860
 5745SOL    HW128868   2.874   1.396   8.730  0.4970 -0.8841 -1.2087
 5745SOL    HW228869   2.794   1.287   8.670 -1.1498  0.3319  0.1180
 5746SOL     OW28870   0.347   4.233   4.170  1.1200 -0.1358 -0.4907
 5746SOL    HW128871   0.323   4.247   4.078  0.1108 -1.0265 -0.3728
 5746SOL    HW228872   0.398   4.152   4.166 -0.2091 -0.9598 -0.8959
 5747SOL     OW28873   4.592   3.811  16.140  0.9078  0.5899  0.2718
 5747SOL    HW128874   4.646   3.881  16.176  0.3498  0.8978  0.5144
 5747SOL    HW228875   4.521   3.806  16.205  1.6609  0.6474  1.0957
 5748SOL     OW28876   2.737   3.459   4.093  0.1245  0.2425  0.3691
 5748SOL    HW128877   2.799   3.406   4.045 -0.1513  0.6791 -0.4752
 5748SOL    HW228878   2.696   3.514   4.026  0.5858  1.8384  1.3773
 5749SOL     OW28879   0.643   3.414   1.964 -0.8209  0.0523  0.1119
 5749SOL    HW128880   0.575   3.388   2.027 -2.7625  2.0742 -1.1462
 5749SOL    HW228881   0.593   3.474   1.909 -0.1631  0.6413  0.1580
 5750SOL     OW28882   1.434   1.507  10.351  0.1490 -0.0138 -0.0692
 5750SOL    HW128883   1.523   1.533  10.328  0.8224 -0.2425  2.3360
 5750SOL    HW228884   1.450   1.421  10.389 -1.2084  1.0742  2.9055
 5751SOL     OW28885   0.615   1.211   5.532  0.4741  0.3533  0.3775
 5751SOL    HW128886   0.677   1.205   5.605  1.6310 -1.5518 -0.7532
 5751SOL    HW228887   0.528   1.225   5.569  0.5928  0.1580  0.7299
 5752SOL     OW28888   3.258   1.961   0.844  0.2931 -0.1152  0.0164
 5752SOL    HW128889   3.221   2.044   0.813  1.2255 -0.0945 -1.0103
 5752SOL    HW228890   3.232   1.971   0.936 -0.3223 -1.1087 -0.0479
 5753SOL     OW28891   4.641   0.658  14.914  0.4547 -0.0480  0.0970
 5753SOL    HW128892   4.594   0.603  14.851  1.6226 -1.2401  0.2613
 5753SOL    HW228893   4.619   0.610  14.993  0.8884  1.8971  1.3891
 5754SOL     OW28894   0.101   1.035   4.114  0.3252  0.0666  0.2701
 5754SOL    HW128895   0.020   1.084   4.099 -0.5683 -1.3006  0.6529
 5754SOL    HW228896   0.169   1.102   4.110  1.2445 -0.9062 -0.2771
 5755SOL     OW28897   3.783   4.324   1.622  0.5038  0.0650  0.1297
 5755SOL    HW128898   3.861   4.270   1.636  0.1871 -1.0193 -2.3128
 5755SOL    HW228899   3.796   4.401   1.678 -0.5473  0.5888 -0.3397
 5756SOL     OW28900   1.416   1.158  17.084 -0.0388 -0.5540 -0.1751
 5756SOL    HW128901   1.381   1.228  17.140  0.8296 -0.4479  0.2359
 5756SOL    HW228902   1.399   1.084  17.142 -1.6593 -1.3299 -1.6408
 5757SOL     OW28903   1.320   4.263   6.693 -0.0622  0.0661 -0.1930
 5757SOL    HW128904   1.266   4.186   6.679 -2.3771  1.7898 -0.6473
 5757SOL    HW228905   1.372   4.274   6.613 -1.1077 -0.0537 -0.8926
 5758SOL     OW28906   2.659   3.523  11.916 -0.3334  0.0862  0.4716
 5758SOL    HW128907   2.609   3.482  11.845 -0.1337 -0.7813  0.8309
 5758SOL    HW228908   2.610   3.603  11.933  2.8182  1.9060  1.0032
 5759SOL     OW28909   3.743   0.641   5.074  0.1270  0.2159 -0.1525
 5759SOL    HW128910   3.662   0.692   5.064  1.3557  2.4265  1.0725
 5759SOL    HW228911   3.787   0.653   4.990  1.4709  1.4812  0.7342
 5760SOL     OW28912   1.720   2.555   5.796 -0.4535 -0.2151 -0.2614
 5760SOL    HW128913   1.792   2.575   5.856 -0.3656 -1.1128 -0.0757
 5760SOL    HW228914   1.773   2.540   5.718 -0.6570 -1.9255 -0.0585
 5761SOL     OW28915   3.355   2.478   1.644 -0.1564  0.2098 -0.1480
 5761SOL    HW128916   3.266   2.493   1.676 -0.7970 -2.7543 -0.5189
 5761SOL    HW228917   3.359   2.384   1.658  0.1690  0.0634 -1.1928
 5762SOL     OW28918   1.966   4.608   2.964  0.0761 -0.2373  0.1317
 5762SOL    HW128919   1.948   4.698   2.993 -2.3444 -0.4459 -0.7547
 5762SOL    HW228920   1.946   4.558   3.043 -0.5543  0.6273  0.5311
 5763SOL     OW28921   4.666   1.021  16.233 -0.3332 -0.4711  0.6967
 5763SOL    HW128922   4.714   1.077  16.293 -3.2178  1.4652  1.1719
 5763SOL    HW228923   4.640   1.092  16.175  1.1933  0.2661  0.9376
 5764SOL     OW28924   3.667   3.603   4.119 -0.4679  0.3130  0.0201
 5764SOL    HW128925   3.726   3.679   4.117 -0.6429  0.4466 -0.1257
 5764SOL    HW228926   3.577   3.637   4.114 -0.1137  0.6493 -3.6708
 5765SOL     OW28927   3.945   1.922  12.458  0.6471 -0.7270  0.4741
 5765SOL    HW128928   3.862   1.946  12.500  0.7039 -0.8926  0.6801
 5765SOL    HW228929   4.012   1.950  12.521  0.0305 -0.5050  1.0322
 5766SOL     OW28930   0.163   0.199  10.601 -0.3005  0.6182 -0.5070
 5766SOL    HW128931   0.144   0.285  10.638 -1.9078  0.9105 -2.0258
 5766SOL    HW228932   0.157   0.148  10.682 -0.3764 -0.5420 -1.2443
 5767SOL     OW28933   2.658   1.402   9.404 -0.2817  0.4296  0.3365
 5767SOL    HW128934   2.697   1.416   9.490  1.6669 -1.8114 -0.1754
 5767SOL    HW228935   2.716   1.438   9.337 -1.7170 -2.4866 -2.4458
 5768SOL     OW28936   3.036   3.590   3.242 -0.2896 -0.2247 -0.3897
 5768SOL    HW128937   3.096   3.659   3.270  0.4024 -0.4404 -1.3472
 5768SOL    HW228938   2.978   3.580   3.318 -0.6285 -3.5689 -1.0777
 5769SOL     OW28939   2.994   2.803   4.481 -0.3587  0.2776  0.0851
 5769SOL    HW128940   3.060   2.761   4.424 -1.8537 -1.3600 -0.4315
 5769SOL    HW228941   2.980   2.734   4.545  1.1791 -0.0473  0.0712
 5770SOL     OW28942   3.765   1.310   6.789 -0.1437  0.2310  0.0862
 5770SOL    HW128943   3.742   1.230   6.836 -1.0046 -1.1057 -2.6376
 5770SOL    HW228944   3.761   1.381   6.853 -1.6792  1.0122 -0.8727
 5771SOL     OW28945   1.538   3.636  12.093 -0.4073  0.2332 -0.4914
 5771SOL    HW128946   1.607   3.700  12.109 -0.8941  0.5022  0.5124
 5771SOL    HW228947   1.541   3.628  11.997  1.0942  0.8459 -0.4934
 5772SOL     OW28948   2.166   3.401   5.247 -0.6195 -0.5780 -0.1787
 5772SOL    HW128949   2.166   3.494   5.270  0.2143 -0.2606 -1.4575
 5772SOL    HW228950   2.073   3.381   5.254 -0.7573 -0.8564 -2.8243
 5773SOL     OW28951   1.946   0.598   5.370  0.2308  0.0535  0.5016
 5773SOL    HW128952   1.924   0.588   5.278  1.1685 -1.9272  0.4769
 5773SOL    HW228953   2.031   0.644   5.368  0.8109 -1.0079  0.7060
 5774SOL     OW28954   3.100   3.640  12.312 -0.0499  0.2391 -0.3458
 5774SOL    HW128955   3.062   3.727  12.302  1.2936  1.0263  1.2730
 5774SOL    HW228956   3.167   3.650  12.245 -2.3495  4.3733 -2.0321
 5775SOL     OW28957   3.853   1.134   2.433 -0.4105 -0.1253 -0.2588
 5775SOL    HW128958   3.876   1.104   2.521 -2.1999  1.0853  0.6134
 5775SOL    HW228959   3.903   1.215   2.442  1.1686 -1.3046  1.5652
 5776SOL     OW28960   2.117   3.448   6.469 -0.0518  0.2154  0.2867
 5776SOL    HW128961   2.191   3.393   6.443 -1.7394 -1.2904 -1.3733
 5776SOL    HW228962   2.149   3.534   6.495  2.2266 -0.3917 -0.4877
 5777SOL     OW28963   1.128   1.432   8.515 -0.6832  0.0623 -0.2324
 5777SOL    HW128964   1.131   1.414   8.421 -0.0539  0.5007 -0.2943
 5777SOL    HW228965   1.101   1.522   8.500  0.8984  0.5821  0.0044
 5778SOL     OW28966   2.496   1.258  13.997  0.2688 -0.2260  0.4768
 5778SOL    HW128967   2.518   1.202  14.072 -0.4709 -1.5854 -0.3221
 5778SOL    HW228968   2.476   1.330  14.057  1.3029  0.9867 -0.6540
 5779SOL     OW28969   2.443   3.336   5.597 -0.8367 -0.3332  0.4451
 5779SOL    HW128970   2.527   3.361   5.557 -0.7242 -1.5748 -0.1108
 5779SOL    HW228971   2.403   3.289   5.523 -1.0121  0.5878 -0.0400
 5780SOL     OW28972   2.474   0.622   7.902  0.1860  0.4003 -0.4520
 5780SOL    HW128973   2.459   0.537   7.862  0.2266  0.3249 -0.3056
 5780SOL    HW228974   2.568   0.631   7.916  0.2075  0.8869 -0.9046
 5781SOL     OW28975   1.523   0.987   9.643  0.3267  0.4256 -0.5137
 5781SOL    HW128976   1.497   0.897   9.623  0.0264  0.6409 -1.0797
 5781SOL    HW228977   1.617   0.982   9.627  0.7354  1.8561  1.4238
 5782SOL     OW28978   2.223   0.589   9.029 -0.2176  0.5953  0.0436
 5782SOL    HW128979   2.160   0.610   9.098 -0.7046 -3.0100  0.7012
 5782SOL    HW228980   2.298   0.600   9.087  0.6282  2.5547 -1.4558
 5783SOL     OW28981   2.639   1.689  17.103 -0.0229 -0.4765  0.4499
 5783SOL    HW128982   2.545   1.680  17.119 -0.4917  1.9258 -0.8353
 5783SOL    HW228983   2.677   1.698  17.190 -0.4046 -2.5685  0.8127
 5784SOL     OW28984   4.309   2.224   1.733 -0.6314  0.3295  0.3097
 5784SOL    HW128985   4.262   2.147   1.703 -0.6394  0.4262  0.0737
 5784SOL    HW228986   4.285   2.276   1.656 -1.3022 -1.7852 -0.9172
 5785SOL     OW28987   4.656   1.445   2.600  0.7940  0.0202 -0.0587
 5785SOL    HW128988   4.567   1.408   2.600  0.8668 -0.1706 -1.8025
 5785SOL    HW228989   4.700   1.372   2.557  2.5652  0.3605  1.2112
 5786SOL     OW28990   0.112   4.365   4.624  0.2057  0.3100  0.7342
 5786SOL    HW128991   0.172   4.432   4.593  0.9191 -0.0178  1.3919
 5786SOL    HW228992   0.118   4.384   4.718  2.9572 -0.8500  0.8055
 5787SOL     OW28993   1.607   1.967   3.233  0.1681  0.0644 -0.3316
 5787SOL    HW128994   1.672   2.011   3.178 -2.4510  2.6849 -1.3079
 5787SOL    HW228995   1.536   1.952   3.171 -1.0303 -0.9214  1.2916
 5788SOL     OW28996   3.330   3.608   6.143 -0.0298  0.0627  0.3272
 5788SOL    HW128997   3.267   3.561   6.088  1.7157 -1.2512 -0.5654
 5788SOL    HW228998   3.407   3.559   6.115 -1.3286  0.0772 -3.4032
 5789SOL     OW28999   3.909   1.714   5.553 -0.6264  0.0924  0.3066
 5789SOL    HW129000   3.900   1.619   5.560 -0.4122 -0.0723 -1.5711
 5789SOL    HW229001   4.001   1.738   5.552 -0.7007  0.3734  0.1801
 5790SOL     OW29002   2.511   0.225   7.545  0.4821  0.0090 -0.3713
 5790SOL    HW129003   2.490   0.296   7.606 -2.6061 -0.1210 -1.2694
 5790SOL    HW229004   2.428   0.178   7.546  0.1795  0.5737  1.1110
 5791SOL     OW29005   2.638   3.100   4.134 -0.1594  0.7520  0.4803
 5791SOL    HW129006   2.665   3.182   4.175  2.5731 -0.6201  1.4266
 5791SOL    HW229007   2.571   3.064   4.191 -0.3572 -1.4996 -1.1843
 5792SOL     OW29008   3.371   1.378   1.278  0.6036 -0.4910 -0.2573
 5792SOL    HW129009   3.338   1.332   1.201 -3.0895 -1.2790  1.8113
 5792SOL    HW229010   3.453   1.418   1.248 -0.0982  0.7583 -0.5100
 5793SOL     OW29011   0.015   2.347   8.474  0.2979  0.0287  0.8448
 5793SOL    HW129012   0.031   2.317   8.385  1.4008  0.5025  0.8836
 5793SOL    HW229013   0.097   2.321   8.517  1.1143  0.6650 -0.3397
 5794SOL     OW29014   3.927   2.192   4.482  0.0250 -0.1913  0.0545
 5794SOL    HW129015   4.011   2.212   4.523  0.9206  0.1598 -1.9308
 5794SOL    HW229016   3.911   2.280   4.446 -1.7145 -1.0078 -1.1760
 5795SOL     OW29017   2.309   2.792   2.927  0.0274 -0.8965 -0.2982
 5795SOL    HW129018   2.280   2.751   3.008  0.6288 -0.4494  0.1427
 5795SOL    HW229019   2.297   2.885   2.947 -2.7369 -1.5069  0.7983
 5796SOL     OW29020   1.356   4.530   7.499 -0.5480  0.1983 -0.3187
 5796SOL    HW129021   1.415   4.585   7.448  0.0562  1.5659  1.8778
 5796SOL    HW229022   1.272   4.572   7.477 -2.4081 -1.6377  3.2959
 5797SOL     OW29023   0.676   1.565   5.852 -0.3332 -0.6530 -0.3826
 5797SOL    HW129024   0.635   1.581   5.767 -0.6171 -1.2840 -0.3648
 5797SOL    HW229025   0.768   1.581   5.832 -0.8533  1.0748 -1.4489
 5798SOL     OW29026   1.445   2.273  12.752 -0.4602 -0.2223 -0.2655
 5798SOL    HW129027   1.362   2.245  12.791  0.8074  0.6555  3.0234
 5798SOL    HW229028   1.471   2.198  12.698 -0.4123  0.3610 -1.0489
 5799SOL     OW29029   3.014   2.809   2.591  0.1369 -0.6999 -0.3180
 5799SOL    HW129030   3.047   2.750   2.658 -2.8744 -2.3601 -0.3021
 5799SOL    HW229031   3.025   2.897   2.628 -1.3341 -0.9106  0.6092
 5800SOL     OW29032   4.514   1.188  14.848 -0.3386  0.8574 -0.0196
 5800SOL    HW129033   4.531   1.261  14.907  0.2944 -1.8214  3.1285
 5800SOL    HW229034   4.601   1.170  14.812  0.3619  2.9875  0.5744
 5801SOL     OW29035   0.764   2.756   8.887  0.2835 -0.0539  0.3874
 5801SOL    HW129036   0.670   2.739   8.896  0.4247 -0.1067  1.7861
 5801SOL    HW229037   0.764   2.852   8.885  3.2850 -0.0785  0.1497
 5802SOL     OW29038   2.978   0.649  10.637  0.4054  0.1199  0.3982
 5802SOL    HW129039   2.896   0.696  10.625  0.0448 -1.0811 -1.7223
 5802SOL    HW229040   3.028   0.684  10.563 -0.6878  0.1363 -0.3321
 5803SOL     OW29041   4.172   1.090  10.135 -0.2009 -0.2795 -0.3148
 5803SOL    HW129042   4.160   1.120  10.225  0.2623 -0.0055 -0.3467
 5803SOL    HW229043   4.144   0.999  10.147 -0.6619 -0.4060 -2.3389
 5804SOL     OW29044   1.457   1.123   8.455 -0.1299 -0.8269  0.3780
 5804SOL    HW129045   1.485   1.213   8.439  0.5134 -1.0294  0.3721
 5804SOL    HW229046   1.457   1.078   8.371  0.1665 -0.1860  0.0373
 5805SOL     OW29047   2.873   3.513  15.483 -0.3904  0.3567 -0.5078
 5805SOL    HW129048   2.919   3.449  15.538 -0.2322  1.2368  0.3693
 5805SOL    HW229049   2.786   3.524  15.523  0.1595 -0.8261  1.0518
 5806SOL     OW29050   1.150   0.131   1.606 -0.8161 -0.2698 -0.5093
 5806SOL    HW129051   1.115   0.213   1.640 -0.6348 -0.6162  0.5339
 5806SOL    HW229052   1.242   0.156   1.603 -0.7695 -0.7985 -3.1576
 5807SOL     OW29053   4.290   1.633  14.037 -0.1323  0.4485  0.2927
 5807SOL    HW129054   4.307   1.644  14.130  0.3160 -2.6785  0.5662
 5807SOL    HW229055   4.377   1.651  14.001 -0.6695  2.1321 -0.1659
 5808SOL     OW29056   4.156   1.593   3.521  0.7763 -1.1484  0.0752
 5808SOL    HW129057   4.136   1.584   3.428 -1.3496  0.4963  0.3725
 5808SOL    HW229058   4.240   1.637   3.510  0.3264 -0.0060  1.1230
 5809SOL     OW29059   3.213   2.983   6.421  0.9515 -0.0143 -0.3832
 5809SOL    HW129060   3.208   2.897   6.380 -1.8155 -0.1768  0.2764
 5809SOL    HW229061   3.235   2.958   6.510  2.9237 -0.4789 -1.0171
 5810SOL     OW29062   2.509   0.302   3.911  0.1042 -0.1621  0.6848
 5810SOL    HW129063   2.529   0.382   3.960  2.1439  0.1647 -0.6740
 5810SOL    HW229064   2.568   0.309   3.836  2.1035 -1.4200  2.1395
 5811SOL     OW29065   0.845   0.141  12.514  0.1439  0.3028  0.3678
 5811SOL    HW129066   0.764   0.092  12.498  1.2818 -1.8552  1.2294
 5811SOL    HW229067   0.850   0.190  12.432  0.4006 -1.3212 -0.5905
 5812SOL     OW29068   2.239   0.021   5.782  0.4590  0.5480 -0.6897
 5812SOL    HW129069   2.229   0.107   5.823  0.8009  0.3066 -0.1078
 5812SOL    HW229070   2.334   0.011   5.785  0.3829 -0.7691 -2.3696
 5813SOL     OW29071   2.830   4.117   2.804 -0.2112 -0.0686 -0.1965
 5813SOL    HW129072   2.782   4.195   2.778  1.3791  1.7342  2.2032
 5813SOL    HW229073   2.900   4.124   2.739 -0.0401  0.7372  0.0688
 5814SOL     OW29074   1.853   1.390   2.931 -0.2280 -0.2404 -0.2469
 5814SOL    HW129075   1.873   1.423   3.019  0.2536  0.4515 -0.6236
 5814SOL    HW229076   1.908   1.312   2.918  0.8475  0.2635  1.2974
 5815SOL     OW29077   4.522   1.171   5.710  0.7351 -0.6691  0.0311
 5815SOL    HW129078   4.479   1.159   5.794  0.1219 -1.1531 -0.3496
 5815SOL    HW229079   4.447   1.160   5.651 -0.0333  0.4881  0.8030
 5816SOL     OW29080   2.758   0.709   7.525  0.7706 -0.4394 -0.3499
 5816SOL    HW129081   2.845   0.692   7.490  1.2180  1.8785 -0.3503
 5816SOL    HW229082   2.704   0.649   7.473  0.1986 -0.5613  0.3851
 5817SOL     OW29083   2.399   4.120   3.710 -0.1945 -0.5960  0.4013
 5817SOL    HW129084   2.429   4.112   3.620 -3.6399  1.6741 -0.9315
 5817SOL    HW229085   2.460   4.191   3.731  3.0054 -3.0143 -0.7110
 5818SOL     OW29086   4.124   0.843  10.217 -0.1354 -0.5777 -0.6680
 5818SOL    HW129087   4.161   0.827  10.305 -0.3759  1.7820 -0.1425
 5818SOL    HW229088   4.061   0.772  10.206 -0.8920 -0.0994  0.5219
 5819SOL     OW29089   2.574   4.183   9.166 -0.1324 -0.4552 -0.0115
 5819SOL    HW129090   2.502   4.247   9.172 -0.7668 -1.1305 -0.5477
 5819SOL    HW229091   2.609   4.207   9.080  0.8790 -0.3305  0.4278
 5820SOL     OW29092   3.831   2.321   6.559  0.3415 -0.0871 -0.3125
 5820SOL    HW129093   3.774   2.261   6.608  1.2307 -1.6542 -1.1729
 5820SOL    HW229094   3.837   2.397   6.616  2.1293 -0.6477  0.2645
 5821SOL     OW29095   4.157   1.359  13.354 -0.0067  0.1186  0.2394
 5821SOL    HW129096   4.093   1.288  13.358  0.9153 -0.7971 -1.3478
 5821SOL    HW229097   4.156   1.372  13.259 -2.5879  1.3738  0.4475
 5822SOL     OW29098   0.257   1.290  16.408  0.2372 -0.1001  0.1030
 5822SOL    HW129099   0.266   1.240  16.327 -1.2808 -0.0920 -0.0637
 5822SOL    HW229100   0.178   1.340  16.387  0.4028  0.2075  0.2100
 5823SOL     OW29101   3.317   2.564   0.463  0.1230  0.0950 -0.8249
 5823SOL    HW129102   3.297   2.602   0.377  1.2915 -2.4411 -2.2534
 5823SOL    HW229103   3.332   2.474   0.435  1.3123  0.0323 -0.0012
 5824SOL     OW29104   2.529   3.277   9.024 -0.1415 -0.3580 -0.2936
 5824SOL    HW129105   2.572   3.349   9.070  0.4371 -0.7362 -0.2322
 5824SOL    HW229106   2.488   3.231   9.097  0.1482 -0.1492  0.0030
 5825SOL     OW29107   1.678   0.024   6.399  0.1603 -0.1857 -0.3894
 5825SOL    HW129108   1.637   0.091   6.345 -0.1940  0.8010  1.1157
 5825SOL    HW229109   1.664   4.681   6.348  0.8145 -0.6723  0.1832
 5826SOL     OW29110   2.664   2.998  16.723  0.9940 -0.6923  0.1714
 5826SOL    HW129111   2.753   3.011  16.691  1.1142 -2.0537 -0.0554
 5826SOL    HW229112   2.687   2.919  16.771  2.1046 -1.3730 -1.4903
 5827SOL     OW29113   2.515   1.948   8.038 -0.6691 -0.3721  0.6275
 5827SOL    HW129114   2.583   1.961   8.103  0.5679 -0.6042 -0.6198
 5827SOL    HW229115   2.541   1.865   7.999  0.3284 -0.3358  1.2176
 5828SOL     OW29116   0.352   2.829   0.861 -0.8640 -0.0974 -0.3225
 5828SOL    HW129117   0.323   2.869   0.943  0.4396 -1.3374  0.7344
 5828SOL    HW229118   0.267   2.830   0.817 -0.4886  1.8254 -1.0376
 5829SOL     OW29119   2.075   1.776   2.425 -0.3078  0.0477  0.3151
 5829SOL    HW129120   2.073   1.872   2.428 -0.0261  0.0638 -0.0182
 5829SOL    HW229121   2.021   1.759   2.348 -0.9647  0.3186  0.7209
 5830SOL     OW29122   0.596   0.484   8.435 -0.2682  0.3586  0.3940
 5830SOL    HW129123   0.531   0.436   8.487 -0.1270 -0.9903 -0.6777
 5830SOL    HW229124   0.666   0.419   8.443 -0.6263 -0.1117 -0.2968
 5831SOL     OW29125   1.137   1.703   8.911  0.4133 -0.0272  0.3061
 5831SOL    HW129126   1.178   1.696   8.826 -2.0271  0.1044 -0.8907
 5831SOL    HW229127   1.127   1.798   8.909 -1.2716 -0.1861  0.9855
 5832SOL     OW29128   0.889   3.977  12.033 -0.6534  0.3452  0.3561
 5832SOL    HW129129   0.957   4.026  12.078  0.5552  0.7286 -1.8949
 5832SOL    HW229130   0.913   3.999  11.943 -0.8837 -0.4807  0.0955
 5833SOL     OW29131   3.122   3.605   7.284  0.4277 -0.1720  0.2229
 5833SOL    HW129132   3.202   3.579   7.240 -0.8939 -1.7627 -1.2408
 5833SOL    HW229133   3.049   3.550   7.257 -0.8661  1.6360  0.0025
 5834SOL     OW29134   2.884   0.042   2.041  0.6402  0.1600 -0.1939
 5834SOL    HW129135   2.907   0.088   2.121 -0.4978 -0.3698  0.4378
 5834SOL    HW229136   2.864   0.113   1.979  0.6711  0.0497 -0.3301
 5835SOL     OW29137   3.490   3.729   4.866  0.7257 -0.5671 -0.5429
 5835SOL    HW129138   3.574   3.775   4.867 -0.3707  1.4291  0.7953
 5835SOL    HW229139   3.473   3.701   4.955 -3.8777  0.7500 -0.9941
 5836SOL     OW29140   3.340   1.492   2.818 -0.3183 -0.4006 -0.3561
 5836SOL    HW129141   3.365   1.584   2.829  2.2422 -0.8031 -2.9234
 5836SOL    HW229142   3.316   1.493   2.726  0.7941  0.8400 -0.6372
 5837SOL     OW29143   0.025   2.132   2.861 -0.1058 -0.1604 -0.0859
 5837SOL    HW129144   0.073   2.207   2.827  1.0383 -1.1448 -0.6685
 5837SOL    HW229145   0.094   2.065   2.864  0.7998  0.7149 -1.6766
 5838SOL     OW29146   0.429   2.780   8.798 -0.6369  0.3097 -0.2444
 5838SOL    HW129147   0.411   2.870   8.827 -0.1212  0.5218 -0.5775
 5838SOL    HW229148   0.496   2.799   8.732  0.1065 -0.6811  0.2278
 5839SOL     OW29149   4.446   3.349   9.322 -0.6885 -0.2061  0.0877
 5839SOL    HW129150   4.431   3.362   9.415 -0.7086  0.7655 -0.0555
 5839SOL    HW229151   4.456   3.440   9.294  0.2831  0.3798  2.3960
 5840SOL     OW29152   3.559   1.254   1.641  0.2445 -0.1320 -0.2300
 5840SOL    HW129153   3.573   1.198   1.717 -0.3400 -0.3130 -0.2573
 5840SOL    HW229154   3.469   1.279   1.661 -0.7678 -1.3959 -3.2906
 5841SOL     OW29155   0.228   2.183   7.319  0.5984  0.1424  0.5182
 5841SOL    HW129156   0.172   2.171   7.395  0.9887 -1.8629  0.4875
 5841SOL    HW229157   0.309   2.138   7.343  0.3573 -0.8554 -0.5523
 5842SOL     OW29158   3.130   3.366   5.687  0.0420  0.0728 -0.3999
 5842SOL    HW129159   3.084   3.447   5.665 -0.3689 -0.4890 -1.6074
 5842SOL    HW229160   3.205   3.373   5.628  0.7108 -0.3464  0.4176
 5843SOL     OW29161   1.464   4.507   2.378 -0.4339 -0.5694  0.5898
 5843SOL    HW129162   1.488   4.544   2.463  0.1398 -1.4959  0.8291
 5843SOL    HW229163   1.471   4.413   2.393  1.9198 -0.6075 -0.8787
 5844SOL     OW29164   3.952   0.728   8.266  0.1514 -0.1932  0.4101
 5844SOL    HW129165   3.979   0.806   8.218 -1.1289  1.0311  1.6993
 5844SOL    HW229166   3.874   0.754   8.314 -0.7894 -3.5460  0.7216
 5845SOL     OW29167   3.343   0.699  17.272  0.0609  0.2698 -0.3744
 5845SOL    HW129168   3.298   0.632  17.221 -0.3491  0.1224  0.1826
 5845SOL    HW229169   3.436   0.678  17.257 -0.0847 -1.9285  1.8170
 5846SOL     OW29170   4.200   0.833   2.156 -0.2832  0.0717  0.0433
 5846SOL    HW129171   4.263   0.888   2.109 -0.7684 -0.2566 -0.9990
 5846SOL    HW229172   4.176   0.776   2.083  0.3630  0.8505 -0.7835
 5847SOL     OW29173   3.035   4.082  12.908  0.1580 -0.2346 -0.4527
 5847SOL    HW129174   3.099   4.147  12.937  0.0729 -0.0198 -0.7514
 5847SOL    HW229175   2.964   4.082  12.973 -2.0670  0.8436 -2.8963
 5848SOL     OW29176   0.839   0.951   5.289 -0.2295 -0.1663  0.5626
 5848SOL    HW129177   0.857   1.031   5.337  1.1798  0.8001 -1.5643
 5848SOL    HW229178   0.744   0.938   5.297 -0.3597  0.6098  0.3029
 5849SOL     OW29179   1.708   4.366  13.269 -0.1778  0.2203  0.0264
 5849SOL    HW129180   1.618   4.366  13.300 -0.1173  0.6057  0.2084
 5849SOL    HW229181   1.719   4.278  13.234  0.8761 -0.3371  1.7618
 5850SOL     OW29182   3.559   2.316   6.408  0.3116  0.2081 -0.1543
 5850SOL    HW129183   3.547   2.230   6.448 -2.9183  1.4522  1.5468
 5850SOL    HW229184   3.652   2.336   6.412  0.8813 -2.0855 -1.6674
 5851SOL     OW29185   1.068   0.415   6.622  0.1064  0.3541  0.3627
 5851SOL    HW129186   1.030   0.328   6.613 -1.0038  0.8869 -0.0959
 5851SOL    HW229187   1.048   0.438   6.712 -1.0602 -2.1562  0.7267
 5852SOL     OW29188   2.494   2.441   3.729  0.4374 -0.2201 -0.5369
 5852SOL    HW129189   2.565   2.378   3.723  1.9201  1.2308  1.7281
 5852SOL    HW229190   2.543   2.523   3.718  1.2580 -0.3318  2.0986
 5853SOL     OW29191   3.347   0.311   3.106 -0.5824 -0.0116 -0.0980
 5853SOL    HW129192   3.421   0.275   3.056 -0.6140  1.0300 -0.9119
 5853SOL    HW229193   3.319   0.235   3.157  1.3828 -2.2843 -2.3527
 5854SOL     OW29194   2.727   0.529   2.183  0.3822 -0.0895  0.0183
 5854SOL    HW129195   2.683   0.444   2.181 -0.2678  0.2958 -2.5488
 5854SOL    HW229196   2.820   0.508   2.168  0.4215 -0.5619  0.9068
 5855SOL     OW29197   0.454   1.164   5.891  0.5560  0.1969 -0.2152
 5855SOL    HW129198   0.523   1.101   5.909 -1.7370 -2.3394 -0.3609
 5855SOL    HW229199   0.492   1.251   5.904  1.0418 -0.0568  0.0254
 5856SOL     OW29200   4.028   0.232   7.694 -0.4026  0.1696 -0.2138
 5856SOL    HW129201   3.944   0.263   7.729  0.1695  0.5092  0.8763
 5856SOL    HW229202   4.074   0.316   7.703  0.3658 -0.2679 -0.0755
 5857SOL     OW29203   1.083   4.053  16.819  0.6927  0.0013 -0.1151
 5857SOL    HW129204   1.073   4.146  16.798 -0.3253 -0.8603 -3.4810
 5857SOL    HW229205   1.127   4.026  16.739 -1.5552  0.6251 -1.5565
 5858SOL     OW29206   2.587   3.883  13.837  0.2092  0.3375 -0.0109
 5858SOL    HW129207   2.645   3.869  13.763  0.8640 -0.1987  0.6089
 5858SOL    HW229208   2.538   3.956  13.798  1.6015 -0.0290 -2.4114
 5859SOL     OW29209   1.301   1.693   6.362  0.4377  0.1274 -0.0921
 5859SOL    HW129210   1.390   1.665   6.383 -0.0556 -0.5118  1.1326
 5859SOL    HW229211   1.308   1.783   6.332 -1.0134  0.5823  0.9493
 5860SOL     OW29212   4.349   0.774  10.027  0.1095 -0.8504  0.5672
 5860SOL    HW129213   4.398   0.854  10.046  0.4454 -0.7434 -0.7511
 5860SOL    HW229214   4.270   0.797  10.075 -0.0094  0.3917 -0.2060
 5861SOL     OW29215   1.859   2.369   7.548 -0.0326 -0.1602  0.7018
 5861SOL    HW129216   1.896   2.306   7.610 -0.7824 -1.2619  0.0307
 5861SOL    HW229217   1.854   2.444   7.607  1.2044 -0.0834  0.7051
 5862SOL     OW29218   4.723   1.306   9.934  0.2893  0.1103 -0.0664
 5862SOL    HW129219   0.057   1.295   9.871  0.0690  1.9138 -0.6312
 5862SOL    HW229220   4.735   1.228   9.988 -2.0959  0.0305  0.3269
 5863SOL     OW29221   3.894   2.823   7.348  0.0325  0.0488 -0.3243
 5863SOL    HW129222   3.916   2.826   7.441  1.9640  1.2344 -0.8089
 5863SOL    HW229223   3.828   2.755   7.356 -0.4523  0.3422 -1.7630
 5864SOL     OW29224   0.777   4.684  16.338 -0.0759 -0.3171  0.0590
 5864SOL    HW129225   0.871   4.701  16.343  0.1049 -2.0512  2.1632
 5864SOL    HW229226   0.747   0.019  16.393  1.1901  0.0785  0.2278
 5865SOL     OW29227   2.440   3.483   8.044 -0.4613 -0.7393  0.0350
 5865SOL    HW129228   2.524   3.525   8.063  0.1236 -1.4763 -0.9531
 5865SOL    HW229229   2.407   3.486   8.134 -0.4046 -0.2513  0.0406
 5866SOL     OW29230   0.286   1.365  13.247 -0.4914 -0.2764  0.4035
 5866SOL    HW129231   0.276   1.458  13.224  1.3680 -0.5078 -1.3712
 5866SOL    HW229232   0.379   1.369  13.268 -0.0940 -2.4088 -1.0218
 5867SOL     OW29233   0.837   3.977   5.540  0.1024 -0.6580 -0.1288
 5867SOL    HW129234   0.846   4.018   5.454  1.5062  1.3722  0.9555
 5867SOL    HW229235   0.804   3.890   5.519 -1.3974  0.3167 -1.8082
 5868SOL     OW29236   1.278   4.201   9.462  0.2898  0.3570 -0.0892
 5868SOL    HW129237   1.280   4.293   9.435 -0.6683 -0.2104 -1.9965
 5868SOL    HW229238   1.202   4.194   9.520 -0.3737 -1.7136 -1.2379
 5869SOL     OW29239   0.179   0.085  15.784 -0.0676  0.0966  0.3930
 5869SOL    HW129240   0.129   0.132  15.718  0.7174 -2.3874 -1.9402
 5869SOL    HW229241   0.269   0.090  15.752  0.0338  1.6189  0.9094
 5870SOL     OW29242   0.826   4.128   5.028 -0.0051  0.1676  0.2525
 5870SOL    HW129243   0.870   4.212   5.020 -1.0402  0.5056 -1.9275
 5870SOL    HW229244   0.734   4.149   5.036 -0.4028 -0.7659 -1.8346
 5871SOL     OW29245   1.296   4.531   9.494 -0.1089  0.7171 -0.0815
 5871SOL    HW129246   1.387   4.503   9.486 -0.7786 -1.4986  0.1750
 5871SOL    HW229247   1.260   4.531   9.405 -0.4333 -0.6462  0.0457
 5872SOL     OW29248   2.150   0.581   0.067  0.3925 -0.1369  0.4438
 5872SOL    HW129249   2.090   0.618   0.002  0.6160  0.6845  0.7056
 5872SOL    HW229250   2.127   0.639   0.139  0.3490 -0.4133  0.6520
 5873SOL     OW29251   2.354   1.960  14.401  0.0109  0.2240 -0.0135
 5873SOL    HW129252   2.349   2.032  14.464 -1.0634 -0.4928  0.7149
 5873SOL    HW229253   2.407   2.002  14.334 -1.0243  0.4199 -0.7032
 5874SOL     OW29254   1.885   1.314   8.115 -0.1518  0.3405  0.6390
 5874SOL    HW129255   1.979   1.331   8.113 -0.1669  0.0817 -1.7714
 5874SOL    HW229256   1.868   1.289   8.025 -2.0396  1.2887  0.7320
 5875SOL     OW29257   3.212   1.866  14.122  0.5266  0.2096 -0.1731
 5875SOL    HW129258   3.270   1.794  14.097  2.7709  0.8175  3.3116
 5875SOL    HW229259   3.274   1.937  14.138  3.5936 -2.2441 -1.1757
 5876SOL     OW29260   1.520   3.312   9.216 -0.2078  0.0575 -0.3985
 5876SOL    HW129261   1.577   3.286   9.143  2.4682  1.6893  1.1116
 5876SOL    HW229262   1.467   3.378   9.171 -0.3734  0.0650 -0.1912
 5877SOL     OW29263   3.111   4.511   1.727  0.3155 -0.1232  0.3941
 5877SOL    HW129264   3.069   4.494   1.643  0.7872 -3.4908  0.8170
 5877SOL    HW229265   3.031   4.528   1.778  0.8677 -0.5056  1.4015
 5878SOL     OW29266   0.141   3.731   1.333  0.0804 -0.3283  0.1885
 5878SOL    HW129267   0.073   3.667   1.352 -2.7047  2.2611 -1.1064
 5878SOL    HW229268   0.091   3.807   1.303  1.2871  0.9786  1.5103
 5879SOL     OW29269   0.223   4.225   2.757  0.0015 -0.4422  0.1174
 5879SOL    HW129270   0.315   4.249   2.765  0.6874 -2.2870 -2.3583
 5879SOL    HW229271   0.232   4.149   2.814  0.3930 -0.4959 -0.0195
 5880SOL     OW29272   0.571   3.985   5.048  0.6152  0.1897 -0.0965
 5880SOL    HW129273   0.628   3.908   5.050  1.0670  0.5370  0.3699
 5880SOL    HW229274   0.534   3.975   4.960  0.3810 -0.1168  0.0389
 5881SOL     OW29275   1.348   2.806   8.515 -0.4055  0.1203 -0.3203
 5881SOL    HW129276   1.320   2.715   8.521  0.2003  0.0258  1.0628
 5881SOL    HW229277   1.331   2.806   8.421 -0.1143  0.0274 -0.3729
 5882SOL     OW29278   1.174   2.573   3.355 -0.6437 -0.2356 -0.4350
 5882SOL    HW129279   1.263   2.604   3.371 -0.2595 -0.8625 -1.3470
 5882SOL    HW229280   1.141   2.573   3.445  2.6657 -0.2704  0.7763
 5883SOL     OW29281   1.650   2.935   6.495  0.2215 -0.0552 -0.0177
 5883SOL    HW129282   1.743   2.924   6.477 -0.2217  0.7463 -2.8238
 5883SOL    HW229283   1.615   2.847   6.484 -0.5576  0.4281 -1.3514
 5884SOL     OW29284   4.413   2.591   1.773  0.1859 -0.2870  0.3096
 5884SOL    HW129285   4.379   2.561   1.689  1.0614  0.9461 -0.4758
 5884SOL    HW229286   4.331   2.600   1.822  0.0533  2.5930 -0.4137
 5885SOL     OW29287   2.887   4.373   3.460 -0.2258  0.2034  0.6199
 5885SOL    HW129288   2.896   4.361   3.555  2.1828  2.6324  0.7022
 5885SOL    HW229289   2.833   4.452   3.465  1.1874  1.2715 -1.1903
 5886SOL     OW29290   2.766   0.527  10.917  0.9381  0.3802 -0.1108
 5886SOL    HW129291   2.770   0.502  11.010 -1.0615 -0.2230 -0.1843
 5886SOL    HW229292   2.858   0.542  10.893  0.5085  0.6041 -1.6130
 5887SOL     OW29293   0.870   2.901   1.999  0.4904  0.3339 -0.4165
 5887SOL    HW129294   0.946   2.843   2.006  0.1593 -0.2679 -1.7885
 5887SOL    HW229295   0.911   2.986   2.013 -0.2869  0.6848 -0.2705
 5888SOL     OW29296   1.125   4.623   3.053 -0.5087  0.1311  0.2269
 5888SOL    HW129297   1.042   4.665   3.029 -0.6054  0.0501  0.4148
 5888SOL    HW229298   1.107   4.529   3.049 -0.0109 -0.0216  1.7090
 5889SOL     OW29299   0.101   2.339  10.208 -0.3942 -0.7579 -0.3495
 5889SOL    HW129300   0.085   2.411  10.146  0.2534  0.4234  0.8596
 5889SOL    HW229301   0.123   2.268  10.148  0.7913  0.9334 -1.9155
 5890SOL     OW29302   2.598   1.158   1.304  0.1004  0.3884 -0.0459
 5890SOL    HW129303   2.541   1.234   1.297 -1.3530 -0.6931 -0.1089
 5890SOL    HW229304   2.588   1.122   1.216 -1.0328 -2.1198  1.0864
 5891SOL     OW29305   2.104   0.648   0.952 -0.3830  0.3532 -0.2675
 5891SOL    HW129306   2.078   0.699   0.876  0.8407 -0.4861 -1.2510
 5891SOL    HW229307   2.182   0.696   0.979 -0.1388 -0.9201  1.2889
 5892SOL     OW29308   1.400   2.176   7.020 -0.1598 -0.4232  0.2686
 5892SOL    HW129309   1.489   2.202   7.047 -0.1369  0.8158 -0.9601
 5892SOL    HW229310   1.354   2.174   7.103 -0.6047  1.3429  0.0753
 5893SOL     OW29311   1.131   1.227   7.004 -0.3051 -0.1082 -0.4435
 5893SOL    HW129312   1.167   1.288   7.068  0.6658  0.7147 -1.7608
 5893SOL    HW229313   1.114   1.278   6.925  1.9853  0.7253 -0.3973
 5894SOL     OW29314   3.430   1.312   2.603 -0.3034 -0.1821  0.5485
 5894SOL    HW129315   3.450   1.380   2.668 -1.5533  0.0829  0.6619
 5894SOL    HW229316   3.513   1.318   2.555 -0.0488  0.2413  1.0320
 5895SOL     OW29317   3.266   2.735  17.684  0.0996 -0.0471 -0.1901
 5895SOL    HW129318   3.253   2.817  17.734 -1.2114  0.0085 -0.6252
 5895SOL    HW229319   3.214   2.755  17.607  1.0533 -0.0615 -0.8388
 5896SOL     OW29320   4.418   3.090  16.747 -0.3696 -0.7694  0.5960
 5896SOL    HW129321   4.509   3.078  16.774 -0.0338 -0.1597 -0.2517
 5896SOL    HW229322   4.384   3.136  16.823 -0.4439  1.2979 -0.6645
 5897SOL     OW29323   3.845   1.847   4.899  0.7485 -0.0834 -0.2088
 5897SOL    HW129324   3.870   1.918   4.841 -0.3455  0.2063 -0.3344
 5897SOL    HW229325   3.920   1.829   4.954  0.7182 -2.0404 -0.7912
 5898SOL     OW29326   2.653   4.287   2.662 -0.0066  0.0362  0.2535
 5898SOL    HW129327   2.587   4.305   2.729 -0.5486 -0.2950 -0.1874
 5898SOL    HW229328   2.613   4.217   2.610 -1.7167  0.6966  0.6941
 5899SOL     OW29329   3.998   2.077   5.573 -0.3237  0.2649 -0.3023
 5899SOL    HW129330   4.007   2.012   5.503 -0.7016  1.5300 -1.5351
 5899SOL    HW229331   3.978   2.151   5.516 -0.3043 -2.0074 -3.2741
 5900SOL     OW29332   4.043   2.622   9.250 -0.0123  0.5400 -0.0472
 5900SOL    HW129333   4.016   2.571   9.326  0.7788 -0.4437 -0.4297
 5900SOL    HW229334   4.117   2.664   9.295 -0.0178  3.2748 -2.5609
 5901SOL     OW29335   4.072   2.014   6.427  0.1394  0.0876  0.0045
 5901SOL    HW129336   4.166   2.004   6.447  0.6175  0.7070 -1.9763
 5901SOL    HW229337   4.082   2.044   6.337 -0.7094 -3.4107 -1.2352
 5902SOL     OW29338   2.117   2.669   2.249 -0.2069 -0.4535 -0.2908
 5902SOL    HW129339   2.085   2.681   2.338 -0.4344 -1.9464 -0.1635
 5902SOL    HW229340   2.035   2.659   2.200 -1.5029  0.4699  1.7331
 5903SOL     OW29341   2.566   3.758   5.770  0.7904 -0.4430 -0.9558
 5903SOL    HW129342   2.591   3.799   5.687 -0.0408  0.2909 -0.8453
 5903SOL    HW229343   2.605   3.671   5.767 -1.7973 -1.6756  2.4916
 5904SOL     OW29344   0.164   2.741   6.994  0.8258  0.2270  0.1560
 5904SOL    HW129345   0.169   2.765   7.086  0.8821  2.3774 -0.4242
 5904SOL    HW229346   0.129   2.823   6.960  0.9385  0.2635  0.1301
 5905SOL     OW29347   0.532   2.943   7.524  0.3339 -0.5089 -0.3386
 5905SOL    HW129348   0.443   2.979   7.523  0.7799  0.6279 -0.0997
 5905SOL    HW229349   0.585   3.023   7.519 -1.2266  0.5544 -0.0851
 5906SOL     OW29350   2.353   3.396  16.629  0.3788  0.5914  0.3858
 5906SOL    HW129351   2.306   3.426  16.551  2.3033 -0.2098 -1.0870
 5906SOL    HW229352   2.438   3.365  16.597 -0.5577 -0.5716 -0.9624
 5907SOL     OW29353   2.233   2.992  10.215 -0.0994 -0.3870  0.1671
 5907SOL    HW129354   2.193   3.056  10.273  2.4214 -1.7220  3.4075
 5907SOL    HW229355   2.323   2.993  10.249  0.4278 -1.9512 -1.1154
 5908SOL     OW29356   0.132   4.295   1.799  0.4610 -0.1141 -0.5069
 5908SOL    HW129357   0.224   4.280   1.821  1.3818  2.0591 -2.9277
 5908SOL    HW229358   0.110   4.323   1.888  4.3078 -0.8384  0.6769
 5909SOL     OW29359   1.751   2.579   4.521  0.1811 -0.0633 -0.0662
 5909SOL    HW129360   1.705   2.663   4.520 -1.7658 -1.1450 -0.3528
 5909SOL    HW229361   1.838   2.604   4.488  1.5560 -0.0631  3.5163
 5910SOL     OW29362   4.701   2.303   5.659  0.5881  0.0679  0.4001
 5910SOL    HW129363   4.692   2.383   5.607  2.0540 -0.5605 -0.8069
 5910SOL    HW229364   0.058   2.305   5.674  0.7241  0.2415 -0.4656
 5911SOL     OW29365   1.396   0.015   5.213 -0.2596 -0.2599 -0.0833
 5911SOL    HW129366   1.403   4.723   5.304 -1.1234  2.1192  0.7423
 5911SOL    HW229367   1.389   0.110   5.221  0.1610 -0.4766  2.8777
 5912SOL     OW29368   1.455   1.798   4.950  0.2386 -0.0977  0.2800
 5912SOL    HW129369   1.376   1.769   4.995 -0.0142  0.6594  0.3265
 5912SOL    HW229370   1.431   1.891   4.946  0.1291 -0.2026 -1.6573
 5913SOL     OW29371   1.283   3.852   5.156  0.3410 -0.2401  0.6069
 5913SOL    HW129372   1.338   3.775   5.173  0.5453 -0.2018  0.1166
 5913SOL    HW229373   1.298   3.860   5.061 -2.3028  3.5009  0.5399
 5914SOL     OW29374   3.836   2.678   1.946 -0.5596 -0.5258 -0.7876
 5914SOL    HW129375   3.744   2.700   1.958 -1.0149 -1.6066 -2.3748
 5914SOL    HW229376   3.836   2.588   1.981 -2.2847 -0.4800 -0.6626
 5915SOL     OW29377   1.618   4.459   1.585  0.4681 -0.1148  0.4237
 5915SOL    HW129378   1.711   4.443   1.604  1.3680  3.5833 -0.8913
 5915SOL    HW229379   1.603   4.539   1.535 -0.0011 -0.3693  0.1553
 5916SOL     OW29380   4.402   1.316  13.453  0.3776 -0.1259  0.1528
 5916SOL    HW129381   4.433   1.396  13.494  1.0849 -0.8080  0.9624
 5916SOL    HW229382   4.315   1.336  13.419  1.3016  2.6075 -0.5801
 5917SOL     OW29383   0.554   4.622   3.050 -0.6894  0.3707  0.2690
 5917SOL    HW129384   0.479   4.643   3.105 -1.2732  0.5402 -0.5878
 5917SOL    HW229385   0.618   4.667   3.104  1.7386 -1.3640 -1.1373
 5918SOL     OW29386   4.414   1.854   8.916 -0.0985  0.4701 -0.0143
 5918SOL    HW129387   4.437   1.944   8.939  1.7818 -0.5254  2.0296
 5918SOL    HW229388   4.320   1.851   8.935 -0.0882  0.0312 -0.0391
 5919SOL     OW29389   3.836   0.835   7.910  0.4578 -0.0378 -0.6158
 5919SOL    HW129390   3.762   0.848   7.970 -0.1334 -1.1412 -1.1006
 5919SOL    HW229391   3.803   0.878   7.831  0.1507 -0.2542 -0.6060
 5920SOL     OW29392   3.243   2.356   4.735 -0.0618  0.0279 -0.1583
 5920SOL    HW129393   3.210   2.304   4.662 -1.4869  0.3847  0.2354
 5920SOL    HW229394   3.337   2.344   4.721  0.4711  2.5548  1.3593
 5921SOL     OW29395   2.416   0.471   3.622  0.0268  0.3844  0.1026
 5921SOL    HW129396   2.327   0.463   3.587 -0.0406 -0.9630  0.5979
 5921SOL    HW229397   2.439   0.379   3.616 -1.8288 -0.0421 -0.6881
 5922SOL     OW29398   3.941   2.403  14.185  0.6172 -0.2407  0.1765
 5922SOL    HW129399   3.917   2.443  14.269 -1.1494 -0.9292  0.0034
 5922SOL    HW229400   3.885   2.326  14.173 -0.0433  0.4705 -1.2967
 5923SOL     OW29401   2.160   0.062   9.034 -0.3761 -0.2280 -0.0989
 5923SOL    HW129402   2.231   0.071   9.098  0.2888 -0.2796 -0.8225
 5923SOL    HW229403   2.090   0.079   9.097  0.0808 -0.3326  0.4384
 5924SOL     OW29404   2.568   0.740  10.829  0.4639  0.1670  0.1883
 5924SOL    HW129405   2.612   0.659  10.854  0.8131  0.0575 -0.7740
 5924SOL    HW229406   2.645   0.796  10.821 -1.1367  2.2509 -0.7917
 5925SOL     OW29407   0.416   0.285   6.311  0.3640  0.3330 -0.0891
 5925SOL    HW129408   0.335   0.329   6.334 -0.3809 -1.1074  0.0369
 5925SOL    HW229409   0.424   0.231   6.389 -0.2673 -0.5771 -0.6586
 5926SOL     OW29410   4.449   0.288  16.708  0.2178 -1.5979 -0.3375
 5926SOL    HW129411   4.498   0.334  16.776  0.6594 -2.6078  0.0393
 5926SOL    HW229412   4.475   0.339  16.631  1.1976 -2.6629 -0.7183
 5927SOL     OW29413   1.129   1.740   7.927  0.3537  0.2109 -0.0833
 5927SOL    HW129414   1.110   1.750   7.834 -1.1828 -0.0552  0.2029
 5927SOL    HW229415   1.067   1.793   7.977 -0.3333  0.8663 -1.6482
 5928SOL     OW29416   1.962   2.026   5.425  0.1319  0.5719 -0.3618
 5928SOL    HW129417   1.989   2.113   5.396  3.1544 -0.2966 -0.1200
 5928SOL    HW229418   2.041   1.991   5.466 -1.4734 -0.9023  1.4630
 5929SOL     OW29419   0.398   2.683   3.056  0.4942  0.4622 -0.8480
 5929SOL    HW129420   0.306   2.658   3.065  0.1938  1.4678 -1.1143
 5929SOL    HW229421   0.405   2.775   3.083 -2.1973  0.9482 -1.8364
 5930SOL     OW29422   2.808   1.613   8.453 -0.0738 -0.5907 -0.1526
 5930SOL    HW129423   2.765   1.549   8.397  0.5422  1.5242 -3.0725
 5930SOL    HW229424   2.805   1.580   8.543 -0.1935  2.4794  0.9953
 5931SOL     OW29425   1.200   2.586   7.925 -0.2159  0.4879  0.4649
 5931SOL    HW129426   1.146   2.547   7.856  1.7087 -0.4427 -0.5029
 5931SOL    HW229427   1.164   2.675   7.932  0.5406  0.8330 -0.1498
 5932SOL     OW29428   2.415   3.987  12.881 -0.6487 -0.0051  0.2872
 5932SOL    HW129429   2.457   3.932  12.816 -1.7735 -1.0171  0.4137
 5932SOL    HW229430   2.338   3.936  12.907 -0.7267 -0.3820 -0.7189
 5933SOL     OW29431   2.536   3.514   7.326 -0.2783  0.6158 -0.0252
 5933SOL    HW129432   2.460   3.511   7.268 -0.3357  1.0517  0.0288
 5933SOL    HW229433   2.569   3.424   7.321 -0.6575  0.4740  0.0389
 5934SOL     OW29434   1.728   4.551   1.848  0.2243 -0.4714  0.2517
 5934SOL    HW129435   1.807   4.578   1.801 -1.9790  3.0646 -1.4264
 5934SOL    HW229436   1.756   4.575   1.936  2.0784 -0.2141 -0.3958
 5935SOL     OW29437   4.675   0.052   3.541 -0.0477  0.0559 -0.2733
 5935SOL    HW129438   4.733   0.111   3.588 -0.1266 -0.0243 -0.0772
 5935SOL    HW229439   4.601   0.051   3.601 -0.5177  0.2813 -0.8550
 5936SOL     OW29440   3.148   1.819  14.397  0.1270 -0.3994  0.1245
 5936SOL    HW129441   3.157   1.851  14.307 -0.8431  0.5865  0.3792
 5936SOL    HW229442   3.156   1.723  14.395 -2.2361 -0.6158  1.6642
 5937SOL     OW29443   2.562   3.279   8.268  0.1598 -1.0719  0.5907
 5937SOL    HW129444   2.652   3.311   8.277  0.0221  0.2255 -2.9759
 5937SOL    HW229445   2.513   3.354   8.302 -0.0606 -0.9185 -0.0749
 5938SOL     OW29446   0.960   1.949  16.540  0.1020  0.0134 -0.1926
 5938SOL    HW129447   0.922   2.028  16.501  0.8547  1.0184  1.1036
 5938SOL    HW229448   1.044   1.970  16.582 -0.4624  0.9531  0.4621
 5939SOL     OW29449   1.219   4.558   7.820 -0.1906  0.1390  0.8715
 5939SOL    HW129450   1.183   4.581   7.735 -0.1271 -0.2709  0.7337
 5939SOL    HW229451   1.156   4.601   7.877  2.3242  0.4324  3.4782
 5940SOL     OW29452   1.071   2.170   4.064 -0.2295 -0.5632 -0.1541
 5940SOL    HW129453   1.043   2.172   4.155  1.2122 -1.5703  0.3143
 5940SOL    HW229454   1.003   2.123   4.017 -0.6024 -0.7661  0.6003
 5941SOL     OW29455   3.976   4.263   6.934 -0.0218  0.1630  0.4958
 5941SOL    HW129456   3.883   4.282   6.917  0.0342  1.1871  1.3082
 5941SOL    HW229457   3.979   4.254   7.029  2.1615  0.7754  0.4727
 5942SOL     OW29458   4.328   2.985   2.471  0.0767  0.0395  0.1626
 5942SOL    HW129459   4.312   2.960   2.380 -0.4057  0.6553  0.0749
 5942SOL    HW229460   4.423   2.990   2.461 -0.0985  0.7905 -1.1141
 5943SOL     OW29461   4.608   2.632   9.519 -0.1274  0.4226  0.0374
 5943SOL    HW129462   4.640   2.595   9.436 -1.0131 -1.3744  0.4952
 5943SOL    HW229463   4.587   2.723   9.497 -0.7799  0.5989  1.3755
 5944SOL     OW29464   4.214   4.474   2.071 -0.2864  0.6149 -0.0543
 5944SOL    HW129465   4.139   4.439   2.119  0.4704 -0.6815  0.2032
 5944SOL    HW229466   4.190   4.444   1.984  2.2483  0.0709 -0.5703
 5945SOL     OW29467   3.995   3.767   4.255  0.1846 -0.3671  0.2889
 5945SOL    HW129468   4.019   3.701   4.191  0.5482 -1.5001  1.6017
 5945SOL    HW229469   3.925   3.820   4.217 -0.2004 -2.0254 -1.2812
 5946SOL     OW29470   2.620   3.964   6.995  0.3385 -0.5471  0.6098
 5946SOL    HW129471   2.698   3.910   7.001  0.1626 -1.0393 -1.4384
 5946SOL    HW229472   2.576   3.918   7.067 -0.1691 -0.0154  0.6405
 5947SOL     OW29473   3.750   1.265   4.754  0.1758 -0.2967 -0.7165
 5947SOL    HW129474   3.717   1.344   4.798  0.8564  0.7774 -2.1413
 5947SOL    HW229475   3.687   1.197   4.777  0.7641 -0.5002  0.2910
 5948SOL     OW29476   2.126   4.431  13.003 -0.7404 -0.2890 -0.5513
 5948SOL    HW129477   2.031   4.426  12.988 -0.7868 -0.5538 -0.1735
 5948SOL    HW229478   2.147   4.523  13.020 -1.0203  0.0805 -2.1755
 5949SOL     OW29479   2.203   2.694  13.965  0.0457 -0.3461 -0.2530
 5949SOL    HW129480   2.140   2.720  14.033 -1.8159 -0.5499 -1.8904
 5949SOL    HW229481   2.225   2.611  14.008 -2.5118 -1.3135 -0.7727
 5950SOL     OW29482   1.808   3.701  16.442  0.7002  0.7050  0.4717
 5950SOL    HW129483   1.873   3.647  16.397 -2.5834 -2.9441  0.1064
 5950SOL    HW229484   1.855   3.724  16.521 -0.0401  1.3153  0.7338
 5951SOL     OW29485   1.056   2.754   8.700 -0.2480 -0.1958 -0.0768
 5951SOL    HW129486   0.989   2.777   8.636 -2.2411 -0.9710  1.7271
 5951SOL    HW229487   1.045   2.659   8.708 -1.1308 -0.0622  0.2973
 5952SOL     OW29488   2.227   1.159   5.518 -0.3503  0.5320 -0.6032
 5952SOL    HW129489   2.220   1.074   5.562  0.6736  1.6828  1.7620
 5952SOL    HW229490   2.141   1.199   5.536 -0.5869 -0.8863  1.4063
 5953SOL     OW29491   3.059   2.238  12.237  0.0648  0.0848  0.3303
 5953SOL    HW129492   3.057   2.164  12.298 -0.4248  0.1064  0.3425
 5953SOL    HW229493   2.969   2.232  12.206 -0.7280  1.3250  2.4269
 5954SOL     OW29494   3.735   3.450   2.686 -0.3491  0.0346  0.3823
 5954SOL    HW129495   3.748   3.473   2.594  1.0326  0.5591  0.7114
 5954SOL    HW229496   3.818   3.408   2.706 -0.4774  1.4588  3.8120
 5955SOL     OW29497   2.132   3.847  16.410 -0.0772 -0.6980 -0.2962
 5955SOL    HW129498   2.226   3.837  16.395  0.4044  3.3987 -0.0411
 5955SOL    HW229499   2.095   3.820  16.327 -0.0184  0.1304 -0.5904
 5956SOL     OW29500   1.041   1.018  14.726 -0.7387 -0.1389  0.1602
 5956SOL    HW129501   1.086   1.093  14.686 -1.0664  0.7001  1.3444
 5956SOL    HW229502   1.077   0.946  14.674 -0.3535  0.9828 -1.1368
 5957SOL     OW29503   1.248   3.483   7.440 -0.0525 -0.2644  0.1103
 5957SOL    HW129504   1.164   3.504   7.398  0.5625 -0.6646 -1.3296
 5957SOL    HW229505   1.252   3.554   7.505  3.0420 -0.0252 -0.3666
 5958SOL     OW29506   4.081   4.416   4.701  0.5965 -0.3345 -0.4111
 5958SOL    HW129507   4.174   4.400   4.682  0.8074  0.6875 -0.2424
 5958SOL    HW229508   4.057   4.443   4.613  0.2287 -2.4301 -0.9516
 5959SOL     OW29509   3.243   1.101  16.342 -0.6631  0.0205  0.1216
 5959SOL    HW129510   3.219   1.101  16.435 -0.7302 -0.0193  0.1043
 5959SOL    HW229511   3.310   1.034  16.336 -1.4145 -0.8905  1.6979
 5960SOL     OW29512   1.466   0.753   4.397 -0.2403  0.4025  0.3985
 5960SOL    HW129513   1.538   0.702   4.360 -3.4928 -3.3277 -0.8073
 5960SOL    HW229514   1.415   0.673   4.412 -1.1623  1.2205  1.6610
 5961SOL     OW29515   4.507   1.656   4.253 -0.0029 -0.6075  0.2416
 5961SOL    HW129516   4.438   1.632   4.191 -1.2503 -0.7814  1.6914
 5961SOL    HW229517   4.578   1.703   4.209  0.9555 -0.0802  2.3729
 5962SOL     OW29518   2.978   0.493  10.284 -0.0323  0.4071 -0.2143
 5962SOL    HW129519   2.950   0.408  10.317  1.1034  0.1646  0.1223
 5962SOL    HW229520   3.068   0.509  10.314 -0.1499  1.1209 -0.2534
 5963SOL     OW29521   3.048   2.427   3.664  0.1719  0.1183 -0.1775
 5963SOL    HW129522   3.085   2.382   3.740 -0.4163  0.2734  0.2037
 5963SOL    HW229523   3.112   2.414   3.595 -0.6760 -0.7686 -0.7846
 5964SOL     OW29524   3.145   1.708   8.025 -0.2419  0.0522  0.4438
 5964SOL    HW129525   3.098   1.639   8.072  0.9822 -3.2293 -3.0991
 5964SOL    HW229526   3.189   1.752   8.097  2.9003 -2.3916  0.0240
 5965SOL     OW29527   1.482   3.019  13.909  0.5028 -0.0049 -0.5416
 5965SOL    HW129528   1.538   3.026  13.832  1.9342 -0.1986  0.4802
 5965SOL    HW229529   1.490   2.927  13.935  0.1497  0.0605 -0.1909
 5966SOL     OW29530   4.480   4.031   5.872  0.6787  0.2121 -0.3592
 5966SOL    HW129531   4.451   4.083   5.797 -2.6589 -0.7036  0.3151
 5966SOL    HW229532   4.405   3.973   5.878  0.9497  0.0356  1.1910
 5967SOL     OW29533   3.475   1.704  15.249  0.5579  0.6208  0.2190
 5967SOL    HW129534   3.478   1.614  15.218 -0.8884  0.5944  0.1695
 5967SOL    HW229535   3.383   1.727  15.235  0.4200  0.1503  0.3740
 5968SOL     OW29536   4.101   1.887   8.137  0.0827  0.6651 -0.1274
 5968SOL    HW129537   4.162   1.923   8.073  0.6229 -0.9739 -0.5172
 5968SOL    HW229538   4.066   1.964   8.182 -3.2179 -1.3664  0.7992
 5969SOL     OW29539   0.801   3.982   0.752 -0.5786 -0.0529 -0.0813
 5969SOL    HW129540   0.733   3.939   0.700 -0.9807  0.6719 -0.1520
 5969SOL    HW229541   0.762   3.966   0.838 -0.6605  3.3520  0.5112
 5970SOL     OW29542   3.632   2.046   4.426  0.4756  0.3863  0.1743
 5970SOL    HW129543   3.689   2.064   4.501  1.6653 -2.2163 -0.0807
 5970SOL    HW229544   3.580   2.127   4.426 -1.0056 -0.5564 -3.0056
 5971SOL     OW29545   1.436   1.774   9.817 -0.2929 -0.4098  0.5595
 5971SOL    HW129546   1.358   1.771   9.873 -0.8159 -0.3705 -0.1731
 5971SOL    HW229547   1.408   1.763   9.726  0.3399 -0.7265  0.4047
 5972SOL     OW29548   3.300   1.369   1.547  0.1967  0.3422 -0.1517
 5972SOL    HW129549   3.218   1.323   1.530 -0.3877  1.5425 -0.5387
 5972SOL    HW229550   3.334   1.371   1.457  1.8500  1.6893  0.4933
 5973SOL     OW29551   2.260   0.774   2.779  0.6133 -0.5475 -0.1150
 5973SOL    HW129552   2.207   0.740   2.707 -0.0379  0.7823 -0.2675
 5973SOL    HW229553   2.346   0.753   2.741  0.0562  0.6075 -2.0351
 5974SOL     OW29554   0.030   0.127  17.224  0.2601 -0.1780  0.2219
 5974SOL    HW129555   0.121   0.098  17.222 -0.0399 -1.2548  2.4568
 5974SOL    HW229556   0.037   0.198  17.159  1.6409 -0.9707 -0.4985
 5975SOL     OW29557   2.488   2.661   8.208  0.3027 -0.3441 -0.1038
 5975SOL    HW129558   2.567   2.715   8.199  1.3932 -1.9512 -0.1888
 5975SOL    HW229559   2.512   2.589   8.150  1.3303  0.7072 -1.0003
 5976SOL     OW29560   3.994   2.123   5.029 -0.3540 -0.0423  0.7247
 5976SOL    HW129561   3.939   2.090   4.959  0.6343  1.0288 -0.5575
 5976SOL    HW229562   4.078   2.105   4.987  0.2023  1.8256  1.0143
 5977SOL     OW29563   1.570   2.271   5.313 -0.3527  0.2228  0.3331
 5977SOL    HW129564   1.584   2.177   5.315 -1.3087  0.0811  0.6284
 5977SOL    HW229565   1.658   2.305   5.324 -0.2890  1.0612 -2.6618
 5978SOL     OW29566   0.072   1.238   3.293  0.0167  0.3886  0.6556
 5978SOL    HW129567   0.145   1.188   3.258  0.9679  0.4405  2.5481
 5978SOL    HW229568   0.076   1.316   3.239 -1.1246 -0.8032 -1.1646
 5979SOL     OW29569   3.130   1.079   6.648  0.2624 -0.6879 -0.0209
 5979SOL    HW129570   3.225   1.074   6.648  0.3693  1.4742  0.9551
 5979SOL    HW229571   3.104   1.092   6.557 -1.9539  0.2178  0.7355
 5980SOL     OW29572   1.876   1.709  14.276 -0.0464  0.4466 -0.2124
 5980SOL    HW129573   1.927   1.764  14.336  0.3442 -1.5492  1.3080
 5980SOL    HW229574   1.876   1.624  14.321 -0.0760  1.1655  1.1360
 5981SOL     OW29575   1.866   0.082   1.148 -0.2332 -0.1659 -1.0962
 5981SOL    HW129576   1.801   0.130   1.097  0.6287  1.0295 -1.0632
 5981SOL    HW229577   1.835   0.082   1.238  3.7288 -1.2339  0.2739
 5982SOL     OW29578   4.083   0.762   8.897  0.1277 -0.1045  0.5659
 5982SOL    HW129579   4.158   0.797   8.944  0.6034  0.5686 -0.6707
 5982SOL    HW229580   4.129   0.700   8.841 -0.5854  0.3551 -0.5385
 5983SOL     OW29581   0.999   1.167  15.939 -0.0576 -0.6809 -0.4749
 5983SOL    HW129582   0.921   1.196  15.986 -0.4059 -1.5919 -0.4920
 5983SOL    HW229583   0.965   1.150  15.851  2.0437 -0.7745 -1.2724
 5984SOL     OW29584   4.178   2.621   1.866  0.0307 -0.4426  0.3687
 5984SOL    HW129585   4.168   2.687   1.935  0.2393 -1.6873  1.5947
 5984SOL    HW229586   4.089   2.588   1.853 -0.0206 -0.0573 -0.2800
 5985SOL     OW29587   1.105   3.056   7.351 -0.1155 -0.2297 -0.2231
 5985SOL    HW129588   1.043   3.005   7.299  0.1166 -2.2008  1.3786
 5985SOL    HW229589   1.187   3.007   7.353  0.8155  1.3771  0.5040
 5986SOL     OW29590   0.776   3.526   5.503  0.8076 -0.1959  0.0758
 5986SOL    HW129591   0.722   3.451   5.478 -0.5062  1.5465 -2.3632
 5986SOL    HW229592   0.829   3.487   5.572  0.1134  1.5233  1.5904
 5987SOL     OW29593   1.069   3.640   7.678 -0.1715  0.4019 -0.3553
 5987SOL    HW129594   1.118   3.648   7.760 -0.9634  0.2912  0.1283
 5987SOL    HW229595   1.052   3.547   7.686 -0.3487  0.3468 -1.3702
 5988SOL     OW29596   4.025   3.294   7.216 -0.1610  0.8493  0.0338
 5988SOL    HW129597   3.974   3.217   7.243  0.5963  1.2427  2.6002
 5988SOL    HW229598   3.979   3.367   7.256 -0.6412  1.3350 -1.4238
 5989SOL     OW29599   4.386   1.532  11.573 -0.0975 -0.0414  0.1015
 5989SOL    HW129600   4.369   1.605  11.632 -2.1358 -1.7771  1.7076
 5989SOL    HW229601   4.481   1.525  11.578  0.1756  3.8173 -0.1564
 5990SOL     OW29602   1.206   3.065  13.864  0.5393  0.1545 -0.0003
 5990SOL    HW129603   1.299   3.044  13.862  0.3792 -0.5784  0.3415
 5990SOL    HW229604   1.166   2.983  13.833 -0.1597  0.9128 -1.1216
 5991SOL     OW29605   0.095   4.236   9.323  0.3945 -0.4930 -0.0849
 5991SOL    HW129606   0.135   4.279   9.398  3.2645 -0.3694 -1.6678
 5991SOL    HW229607   0.107   4.143   9.343  2.9430  0.1057  1.2159
 5992SOL     OW29608   2.675   3.005   0.364 -0.8117 -0.2818  0.0099
 5992SOL    HW129609   2.611   2.939   0.391 -1.0090  0.6798  1.9473
 5992SOL    HW229610   2.631   3.060   0.300 -2.0907 -1.3383 -0.0251
 5993SOL     OW29611   2.600   1.245   3.820  0.3459 -0.5026 -0.7502
 5993SOL    HW129612   2.547   1.273   3.746  0.3693 -0.6275 -0.8143
 5993SOL    HW229613   2.563   1.288   3.897  1.0052 -1.3567  0.0558
 5994SOL     OW29614   1.049   3.748   0.087 -0.0794 -0.6674  0.0541
 5994SOL    HW129615   0.991   3.688   0.135 -1.0118  0.3981  0.2503
 5994SOL    HW229616   1.003   3.751   0.003  1.1922 -0.5748 -0.6332
 5995SOL     OW29617   3.147   2.009   9.515  0.0965 -0.8435  0.3603
 5995SOL    HW129618   3.076   2.034   9.574  1.6722  3.0513  0.6375
 5995SOL    HW229619   3.191   1.947   9.574  1.9195 -1.2874 -1.4674
 5996SOL     OW29620   4.129   1.341  10.009  0.3962  0.3269 -0.5797
 5996SOL    HW129621   4.133   1.250  10.040 -5.0343 -0.4952 -2.2540
 5996SOL    HW229622   4.187   1.387  10.069  0.5942  0.0269 -0.5382
 5997SOL     OW29623   4.188   2.868   0.011  0.9113  0.1531  0.5881
 5997SOL    HW129624   4.182   2.857   0.106 -0.0627 -0.3949  0.4674
 5997SOL    HW229625   4.108   2.826  17.723 -0.7945  3.1090  0.9262
 5998SOL     OW29626   1.638   4.468   5.320 -0.0153 -0.0843  0.4542
 5998SOL    HW129627   1.618   4.536   5.384  2.6291  0.8885  0.2861
 5998SOL    HW229628   1.625   4.511   5.235  1.7558 -0.4491 -0.0208
 5999SOL     OW29629   0.254   0.039   7.682 -0.5842  0.4394 -0.4673
 5999SOL    HW129630   0.229   0.084   7.762 -0.1492 -1.0729  0.5272
 5999SOL    HW229631   0.192   4.703   7.676 -1.9706  1.5544  0.2783
 6000SOL     OW29632   3.474   3.024   4.029 -0.3704 -0.0147  0.1186
 6000SOL    HW129633   3.541   3.031   4.096 -1.4091 -1.1692  1.2682
 6000SOL    HW229634   3.518   2.954   3.980 -0.5819 -0.7897  1.0376
 6001SOL     OW29635   3.023   3.767  10.318  0.5762  0.3503  0.2070
 6001SOL    HW129636   3.085   3.777  10.390  1.8412 -2.7719 -0.4496
 6001SOL    HW229637   3.025   3.671  10.325 -0.5225  0.2018 -1.4885
 6002SOL     OW29638   0.968   2.695  15.384 -0.0427  0.0158 -0.3890
 6002SOL    HW129639   0.977   2.788  15.362  0.1415  0.0472 -0.1815
 6002SOL    HW229640   0.908   2.696  15.459 -0.8716  0.6246 -1.0649
 6003SOL     OW29641   4.122   3.623   2.875 -0.6418 -0.3157 -0.1286
 6003SOL    HW129642   4.124   3.586   2.787  2.0394 -3.3731  1.2322
 6003SOL    HW229643   4.031   3.654   2.881 -0.5459 -0.0035 -0.2755
 6004SOL     OW29644   0.648   2.507   4.881  0.2104 -0.0993 -0.2613
 6004SOL    HW129645   0.572   2.565   4.887  0.6142  0.6824 -2.6047
 6004SOL    HW229646   0.702   2.559   4.942 -0.2443  2.0865 -1.7058
 6005SOL     OW29647   3.007   0.394   6.074 -0.3262 -0.6437 -0.2522
 6005SOL    HW129648   3.094   0.360   6.094  0.6901  0.9227 -2.0657
 6005SOL    HW229649   3.032   0.465   6.016  1.9990  0.9352  2.6504
 6006SOL     OW29650   3.392   4.578   2.960 -0.2474 -0.0178 -0.2859
 6006SOL    HW129651   3.334   4.564   2.885  0.0620  1.9068 -0.8835
 6006SOL    HW229652   3.334   4.559   3.034 -1.2488 -0.6992 -1.2598
 6007SOL     OW29653   0.184   0.048   7.367 -0.1295 -0.2904  0.0659
 6007SOL    HW129654   0.232   4.722   7.422 -0.9888  1.4422  2.8158
 6007SOL    HW229655   0.161   4.720   7.301  1.9183  0.1196 -1.0539
 6008SOL     OW29656   3.938   1.735   3.074  0.3205  0.3257  0.4215
 6008SOL    HW129657   3.857   1.692   3.045  0.0667  0.8655  0.3247
 6008SOL    HW229658   3.913   1.818   3.114 -0.0269  1.1751 -1.5243
 6009SOL     OW29659   2.303   3.496  16.207  0.0871 -0.1739  0.1261
 6009SOL    HW129660   2.366   3.445  16.156  0.0240  0.4576 -0.5981
 6009SOL    HW229661   2.298   3.574  16.152  0.2460 -0.2600 -0.0098
 6010SOL     OW29662   3.443   2.867  12.422  0.6359  0.1779  0.2071
 6010SOL    HW129663   3.431   2.780  12.383  0.4975  0.4293 -0.3024
 6010SOL    HW229664   3.401   2.844  12.505  0.8839 -1.7565 -0.1804
 6011SOL     OW29665   2.238   0.358  10.353  0.6963 -0.6694  0.2981
 6011SOL    HW129666   2.207   0.337  10.441  3.5187 -1.2825  1.1381
 6011SOL    HW229667   2.213   0.285  10.297  2.4795  0.3284 -1.7812
 6012SOL     OW29668   1.665   3.979   1.561 -0.3589  0.6189  0.1294
 6012SOL    HW129669   1.632   3.947   1.477  1.6546 -0.3820 -0.2599
 6012SOL    HW229670   1.578   3.988   1.600  0.4369 -0.5152  2.1551
 6013SOL     OW29671   0.280   2.892   0.503  0.3021  0.1023  0.2270
 6013SOL    HW129672   0.362   2.845   0.490 -0.2803 -0.4838 -1.3230
 6013SOL    HW229673   0.233   2.836   0.566  0.0185  0.1831  0.0898
 6014SOL     OW29674   1.064   4.157  13.385 -0.3951 -0.3946 -0.8448
 6014SOL    HW129675   1.122   4.224  13.424  0.2541  0.3785 -3.1584
 6014SOL    HW229676   1.000   4.133  13.452  1.0367 -3.7851 -0.7049
 6015SOL     OW29677   2.598   1.655  10.185  0.0403 -0.7873 -0.0701
 6015SOL    HW129678   2.603   1.570  10.143  1.3916  0.4036 -2.3066
 6015SOL    HW229679   2.617   1.610  10.268 -1.3525 -2.0265 -0.4194
 6016SOL     OW29680   0.178   1.088   4.393 -0.7418  0.1233 -0.1740
 6016SOL    HW129681   0.106   1.129   4.441 -0.5130  1.0471 -0.6013
 6016SOL    HW229682   0.129   1.051   4.319 -0.6602  0.1985 -0.2669
 6017SOL     OW29683   0.003   1.527   2.013  0.3159 -0.0308  0.5757
 6017SOL    HW129684   4.669   1.558   1.957  1.1944  0.4929 -0.2555
 6017SOL    HW229685   0.036   1.614   2.035  0.1785 -0.5008  2.6012
 6018SOL     OW29686   2.517   0.900   3.649  0.5490 -0.0032 -0.2079
 6018SOL    HW129687   2.464   0.900   3.570  1.3980 -1.9741 -0.7933
 6018SOL    HW229688   2.446   0.901   3.714 -0.1637  2.6773 -1.0742
 6019SOL     OW29689   2.664   4.714  15.181  0.6044 -0.2066 -0.0003
 6019SOL    HW129690   2.734   0.009  15.238  2.2046 -0.7729 -1.6729
 6019SOL    HW229691   2.682   4.620  15.184  1.1973 -0.1035 -0.3013
 6020SOL     OW29692   4.522   1.567   4.691 -0.4125 -0.5698  0.2294
 6020SOL    HW129693   4.506   1.643   4.635  4.0531  2.2514  2.7583
 6020SOL    HW229694   4.578   1.604   4.760 -1.0214 -0.2175  0.5365
 6021SOL     OW29695   2.660   2.261   6.733  0.3002 -0.7348 -0.1126
 6021SOL    HW129696   2.652   2.177   6.687 -2.4709  0.8228 -2.4100
 6021SOL    HW229697   2.584   2.260   6.791  1.0023 -3.9032  0.8037
 6022SOL     OW29698   1.923   3.054   1.333 -0.2452  0.4899 -0.2450
 6022SOL    HW129699   1.984   3.126   1.322  2.2388 -1.5257  0.2368
 6022SOL    HW229700   1.840   3.100   1.320  0.2043  0.3481 -3.4146
 6023SOL     OW29701   0.723   1.473   3.686 -0.0803 -1.1461 -0.1618
 6023SOL    HW129702   0.628   1.477   3.696 -0.1455  1.3904 -1.7989
 6023SOL    HW229703   0.742   1.425   3.766  1.2201 -0.6472 -0.1754
 6024SOL     OW29704   0.476   1.660   3.600  0.3973  0.1772  0.4268
 6024SOL    HW129705   0.522   1.643   3.518 -1.2716 -1.1592 -0.2275
 6024SOL    HW229706   0.389   1.655   3.562  1.3159  1.0026 -1.7761
 6025SOL     OW29707   0.687   4.056   7.298 -0.3914 -0.0301  0.2024
 6025SOL    HW129708   0.744   4.110   7.352 -1.5752  2.3362 -0.8601
 6025SOL    HW229709   0.656   4.108   7.223  0.4708  1.4257  0.8631
 6026SOL     OW29710   0.140   2.244   8.243 -0.0245 -0.1599 -0.0498
 6026SOL    HW129711   0.208   2.311   8.249  2.0678 -2.1708 -1.1620
 6026SOL    HW229712   0.191   2.166   8.222  2.2671  1.3099 -0.0445
 6027SOL     OW29713   0.782   3.396   0.471  0.1902 -0.1462  0.5508
 6027SOL    HW129714   0.796   3.302   0.458  2.0833 -0.3163  3.7985
 6027SOL    HW229715   0.798   3.395   0.565 -2.7653 -0.7401  1.0340
 6028SOL     OW29716   0.156   2.169   9.106  0.0791 -0.0501  0.3984
 6028SOL    HW129717   0.142   2.234   9.174 -0.9774 -0.0662  0.1866
 6028SOL    HW229718   0.249   2.147   9.117  0.2051 -0.1054 -0.6968
 6029SOL     OW29719   0.678   2.806   4.703 -0.2561 -0.2061 -0.0717
 6029SOL    HW129720   0.586   2.832   4.705  0.2594  1.7428 -1.6485
 6029SOL    HW229721   0.688   2.769   4.615  0.8762 -1.4936  0.5969
 6030SOL     OW29722   1.683   4.232  14.246  0.1202  0.2279  0.0825
 6030SOL    HW129723   1.603   4.187  14.217 -0.2743  0.6703  0.4651
 6030SOL    HW229724   1.665   4.319  14.209  2.2197  0.7124  0.2019
 6031SOL     OW29725   0.936   2.643   7.218  0.1969  0.3050  0.0081
 6031SOL    HW129726   0.879   2.684   7.283  1.6095  0.7419  0.9684
 6031SOL    HW229727   0.965   2.723   7.174  0.2178  1.4303  2.0699
 6032SOL     OW29728   1.435   0.529   5.159  0.4196 -0.1081 -0.7883
 6032SOL    HW129729   1.490   0.595   5.118  0.4382  0.5151  0.2233
 6032SOL    HW229730   1.347   0.548   5.124  1.1852  0.5414 -2.3395
 6033SOL     OW29731   2.172   4.686   3.273 -0.4001  0.0559  0.0771
 6033SOL    HW129732   2.259   4.725   3.260 -0.6394  0.4221 -0.4213
 6033SOL    HW229733   2.119   0.027   3.293 -2.9175 -1.7097  0.2410
 6034SOL     OW29734   0.461   2.197   9.518 -0.4519 -0.1363  0.1110
 6034SOL    HW129735   0.541   2.147   9.533  0.8125  2.3434  1.7354
 6034SOL    HW229736   0.496   2.282   9.490  0.2047  0.3019  2.2751
 6035SOL     OW29737   4.504   0.181  13.270 -0.0117  0.3295 -0.2758
 6035SOL    HW129738   4.494   0.245  13.199  1.6223 -0.5919 -1.3330
 6035SOL    HW229739   4.555   0.116  13.221 -1.4211 -1.0546  0.1092
 6036SOL     OW29740   1.666   2.823   5.682 -0.1005  0.3045  0.5943
 6036SOL    HW129741   1.572   2.812   5.666 -0.1145 -0.7521  1.3956
 6036SOL    HW229742   1.697   2.739   5.717  2.6611  1.7278  1.5684
 6037SOL     OW29743   2.222   3.690   2.412  0.4143 -0.4666 -0.2068
 6037SOL    HW129744   2.211   3.745   2.335 -2.1521 -0.6290  0.0271
 6037SOL    HW229745   2.308   3.651   2.395  0.3145 -0.8139  0.0773
 6038SOL     OW29746   0.355   2.781  11.554 -0.4698  0.3533 -0.4563
 6038SOL    HW129747   0.347   2.860  11.607  0.1404  0.7001 -0.8888
 6038SOL    HW229748   0.272   2.735  11.569 -0.5399  0.7316  0.3480
 6039SOL     OW29749   3.188   2.573   2.331  0.7338 -0.9265 -0.1543
 6039SOL    HW129750   3.167   2.572   2.424 -0.5862 -1.9088 -0.4655
 6039SOL    HW229751   3.105   2.590   2.286  0.3513  2.3654  1.8183
 6040SOL     OW29752   0.621   1.603   7.785  0.3851 -0.2876  0.1733
 6040SOL    HW129753   0.701   1.555   7.806  1.4631  0.8200 -1.4164
 6040SOL    HW229754   0.613   1.579   7.693  0.6454 -3.2498  0.9244
 6041SOL     OW29755   4.025   1.347  15.660  0.0294 -0.1705  0.3177
 6041SOL    HW129756   3.995   1.361  15.750 -0.5694  0.1513  0.0664
 6041SOL    HW229757   4.022   1.252  15.650  1.9207 -0.1921 -0.0709
 6042SOL     OW29758   2.778   4.237   0.072  0.2309 -0.4769 -0.3914
 6042SOL    HW129759   2.691   4.221   0.109  1.0347 -1.9988  0.8147
 6042SOL    HW229760   2.778   4.309   0.008 -0.4686 -1.1908 -1.1905
 6043SOL     OW29761   3.565   3.856   1.397 -0.4919 -0.2397 -0.3107
 6043SOL    HW129762   3.546   3.821   1.484  0.7093  0.0148  0.0542
 6043SOL    HW229763   3.633   3.917   1.424 -3.0639  1.9249  1.2702
 6044SOL     OW29764   1.415   1.069  11.450 -0.2190  0.2742  0.4109
 6044SOL    HW129765   1.411   1.045  11.357 -0.0444  5.2209 -0.8714
 6044SOL    HW229766   1.486   1.013  11.481 -0.6598 -0.2112  0.5458
 6045SOL     OW29767   3.894   1.009   6.676 -0.0340  0.0953  0.3246
 6045SOL    HW129768   3.971   1.050   6.637 -0.2433 -0.5241 -0.7343
 6045SOL    HW229769   3.937   0.923   6.678 -0.8552 -0.3031  0.6497
 6046SOL     OW29770   2.375   3.542   0.512  0.3707 -0.1348 -0.1559
 6046SOL    HW129771   2.395   3.504   0.427  0.9321  0.8933 -0.4816
 6046SOL    HW229772   2.460   3.532   0.557  0.8880  2.0779 -0.6528
 6047SOL     OW29773   0.033   3.403  15.196  0.3400  0.2085 -0.3856
 6047SOL    HW129774   0.023   3.358  15.280  0.8606  1.4670  0.3502
 6047SOL    HW229775   4.718   3.348  15.137  0.5301  0.3491 -0.6814
 6048SOL     OW29776   1.830   3.368   2.730 -0.3161 -0.1026 -0.0296
 6048SOL    HW129777   1.826   3.458   2.761  1.9653  0.4190 -1.2925
 6048SOL    HW229778   1.824   3.313   2.808  0.5381 -0.7472 -0.4236
 6049SOL     OW29779   1.561   2.364   5.912 -0.2810 -0.1575 -0.4242
 6049SOL    HW129780   1.628   2.431   5.904  0.4640 -0.5820  2.4940
 6049SOL    HW229781   1.516   2.381   5.829  1.1313 -2.1857 -1.6255
 6050SOL     OW29782   4.021   2.265   8.874  0.6174 -0.2431  0.2114
 6050SOL    HW129783   3.985   2.342   8.831 -0.2283 -1.1729 -0.7526
 6050SOL    HW229784   3.966   2.196   8.836 -0.1540  0.7639 -0.4788
 6051SOL     OW29785   2.756   1.978   0.308 -0.6868  0.1158  0.5697
 6051SOL    HW129786   2.726   1.891   0.331 -1.6303  0.1569 -0.5055
 6051SOL    HW229787   2.758   2.025   0.392 -0.6213 -0.5881  0.9579
 6052SOL     OW29788   0.073   3.072   5.325 -0.3485  0.3937  0.2858
 6052SOL    HW129789   0.020   3.108   5.396 -0.5010  1.6042 -0.4436
 6052SOL    HW229790   0.003   3.055   5.262  2.1335 -2.0412 -1.8095
 6053SOL     OW29791   0.754   1.219   9.767 -0.5635  0.4176  0.4455
 6053SOL    HW129792   0.680   1.212   9.827 -0.9038  1.0536  0.0954
 6053SOL    HW229793   0.754   1.315   9.763  1.9477  0.4570  1.1044
 6054SOL     OW29794   0.614   0.026   3.859  0.4947  0.2277 -0.4591
 6054SOL    HW129795   0.571   4.678   3.871  0.2620  0.3158 -0.6722
 6054SOL    HW229796   0.560   0.080   3.917  1.8862  1.5386 -0.3805
 6055SOL     OW29797   2.405   2.880   6.401  0.5494  0.3334 -0.8099
 6055SOL    HW129798   2.348   2.942   6.356 -1.6248 -0.6412  0.5913
 6055SOL    HW229799   2.495   2.910   6.390  0.4813 -0.5403 -3.6180
 6056SOL     OW29800   2.165   4.731   6.817 -0.4669  0.1538  0.0484
 6056SOL    HW129801   2.181   4.710   6.909  0.5285  1.0321  0.0833
 6056SOL    HW229802   2.155   4.642   6.785  1.9420  0.3224 -1.2008
 6057SOL     OW29803   1.803   0.547   4.643  0.6626 -0.1576 -0.1282
 6057SOL    HW129804   1.853   0.622   4.673 -1.1708  0.7833  0.6204
 6057SOL    HW229805   1.826   0.535   4.551  4.0515  0.6387  0.6423
 6058SOL     OW29806   3.973   2.661  15.896  0.1700 -0.1208 -0.4041
 6058SOL    HW129807   3.912   2.680  15.825 -0.0228  0.6756 -0.0208
 6058SOL    HW229808   3.958   2.745  15.939 -0.1051  0.2192 -1.1752
 6059SOL     OW29809   4.562   0.626   2.759 -0.1262  0.4134  0.2546
 6059SOL    HW129810   4.652   0.657   2.767  0.3016 -1.3034  2.1875
 6059SOL    HW229811   4.540   0.588   2.844  0.7533 -1.7964 -0.5105
 6060SOL     OW29812   3.877   0.579   4.098 -0.4377  0.6235  0.5264
 6060SOL    HW129813   3.807   0.623   4.145  0.8808  2.2669  0.9587
 6060SOL    HW229814   3.861   0.496   4.144 -1.2779  1.4563  1.7345
 6061SOL     OW29815   4.278   2.902   4.021  0.6694 -0.0688  0.0714
 6061SOL    HW129816   4.270   2.945   4.107  1.1783  1.6015 -0.7145
 6061SOL    HW229817   4.223   2.943   3.955  0.0118 -1.1504 -0.0435
 6062SOL     OW29818   1.515   0.658   8.944 -0.4404  0.5147  0.0001
 6062SOL    HW129819   1.577   0.726   8.918 -0.9427  0.5160 -1.2081
 6062SOL    HW229820   1.450   0.707   8.993 -0.5567 -0.4848  0.8492
 6063SOL     OW29821   1.681   3.438   1.248 -0.3468 -0.0531 -0.3132
 6063SOL    HW129822   1.720   3.393   1.173  0.1671 -0.0617 -0.0389
 6063SOL    HW229823   1.752   3.498   1.268 -1.6426  1.9434 -1.6264
 6064SOL     OW29824   0.025   0.967   5.163  0.9060  0.1227 -0.0213
 6064SOL    HW129825   4.691   0.987   5.102 -0.0020 -1.1731  0.6031
 6064SOL    HW229826   0.022   1.046   5.217  0.2349  0.8004 -1.0485
 6065SOL     OW29827   0.078   2.145  17.272  0.3631  0.2313 -0.2325
 6065SOL    HW129828   0.062   2.223  17.325  0.3828 -1.4505  2.2251
 6065SOL    HW229829   4.724   2.132  17.245 -0.0987 -0.2916  1.5944
 6066SOL     OW29830   4.350   1.905  14.813 -0.2261  0.7753 -0.1019
 6066SOL    HW129831   4.436   1.897  14.853 -1.7188 -1.7759  2.5916
 6066SOL    HW229832   4.305   1.973  14.863  2.1316  2.4858 -0.3211
 6067SOL     OW29833   0.614   0.159   0.166 -0.0440 -0.4919  0.3813
 6067SOL    HW129834   0.521   0.138   0.171  0.6446 -3.3068  1.3184
 6067SOL    HW229835   0.644   0.146   0.076 -0.5015 -2.3749  0.5096
 6068SOL     OW29836   4.495   4.368  10.715 -0.1103 -0.4529  0.3521
 6068SOL    HW129837   4.435   4.437  10.742 -0.0462 -0.1132 -0.4002
 6068SOL    HW229838   4.500   4.320  10.798 -1.9490  0.0248  0.7482
 6069SOL     OW29839   1.661   2.831  16.636 -0.5899 -0.4514  0.1370
 6069SOL    HW129840   1.721   2.892  16.593 -2.3576  0.9603 -0.3365
 6069SOL    HW229841   1.725   2.782  16.686  1.2216 -1.3485 -3.0683
 6070SOL     OW29842   4.377   2.980  12.041 -0.2587  0.1803  0.1353
 6070SOL    HW129843   4.347   2.945  12.125 -0.6775  0.6663  0.1901
 6070SOL    HW229844   4.294   3.020  12.012 -1.2167 -2.5281 -0.8650
 6071SOL     OW29845   0.640   2.410   9.464  0.5302  0.2369 -0.2517
 6071SOL    HW129846   0.616   2.474   9.397 -2.4615 -0.7503 -0.1052
 6071SOL    HW229847   0.729   2.384   9.442 -0.4918 -1.7208 -2.0862
 6072SOL     OW29848   0.359   0.566   9.374  0.1903 -0.2031  0.1760
 6072SOL    HW129849   0.416   0.542   9.447 -0.9958 -0.8900  0.8733
 6072SOL    HW229850   0.270   0.540   9.395 -0.1120 -0.0029 -0.8257
 6073SOL     OW29851   3.167   3.514  13.030  0.2303  0.0814 -0.2215
 6073SOL    HW129852   3.238   3.553  13.081  0.3848  1.5267 -1.5353
 6073SOL    HW229853   3.161   3.423  13.058  1.3264 -0.6999 -2.5558
 6074SOL     OW29854   3.965   0.337   6.149 -0.0691 -0.5100 -0.3912
 6074SOL    HW129855   3.938   0.368   6.235  0.0561 -1.9635  0.1845
 6074SOL    HW229856   3.959   0.241   6.146  0.7900 -0.4826 -3.3377
 6075SOL     OW29857   3.975   1.538  17.174 -0.0557  0.4417  0.5447
 6075SOL    HW129858   3.938   1.591  17.104 -1.9876 -0.1902  1.0754
 6075SOL    HW229859   4.067   1.561  17.165  0.0471  0.7079  2.1727
 6076SOL     OW29860   2.655   1.093   9.332  0.4240 -0.2935  0.0141
 6076SOL    HW129861   2.560   1.105   9.335  0.1061 -2.6538 -0.6156
 6076SOL    HW229862   2.677   1.153   9.403  0.4050  0.7472 -0.8715
 6077SOL     OW29863   0.553   0.102  15.311  0.2169 -0.0493  0.2156
 6077SOL    HW129864   0.599   0.038  15.258 -0.3305 -1.2575  1.2068
 6077SOL    HW229865   0.596   0.083  15.394  0.1102 -0.8982  0.0690
 6078SOL     OW29866   0.011   2.333   4.327  0.3648 -0.0504  0.8751
 6078SOL    HW129867   4.702   2.254   4.353 -2.4286  1.3180  0.0541
 6078SOL    HW229868   0.091   2.299   4.286 -0.0862  0.6944 -0.6299
 6079SOL     OW29869   0.610   2.761  12.774  0.5701  0.0273  0.1955
 6079SOL    HW129870   0.633   2.768  12.867  0.5067  0.5093  0.1785
 6079SOL    HW229871   0.671   2.693  12.749  1.8535  1.7205 -1.2796
 6080SOL     OW29872   3.482   4.058  13.530 -0.0027 -0.0274  0.7582
 6080SOL    HW129873   3.443   4.133  13.485 -1.1423 -0.5812  0.8366
 6080SOL    HW229874   3.484   4.085  13.622  1.0484  0.2129  0.6723
 6081SOL     OW29875   1.409   0.209   2.999 -0.5497 -0.2364 -0.4903
 6081SOL    HW129876   1.354   0.174   3.068 -1.2770  0.2160 -0.8430
 6081SOL    HW229877   1.361   0.291   2.987  1.2024  1.0504  1.3233
 6082SOL     OW29878   0.341   4.090   8.902 -0.3654  0.3220 -0.8848
 6082SOL    HW129879   0.275   4.025   8.877 -0.6231  0.0158  0.5903
 6082SOL    HW229880   0.290   4.150   8.956  0.8090 -0.2896  0.8967
 6083SOL     OW29881   3.960   1.092  15.635 -0.3970 -0.1653 -0.3828
 6083SOL    HW129882   3.963   1.050  15.549 -2.6407  1.3017 -1.1793
 6083SOL    HW229883   4.002   1.024  15.688  3.9874  2.2679 -0.7056
 6084SOL     OW29884   3.282   3.161   1.915 -0.4374  0.0982 -0.2240
 6084SOL    HW129885   3.283   3.088   1.977  0.2283  1.0282  0.8655
 6084SOL    HW229886   3.303   3.234   1.973  1.2204 -1.6860  1.4565
 6085SOL     OW29887   0.748   4.377   4.783  0.4116 -0.1751  0.1589
 6085SOL    HW129888   0.739   4.381   4.878  2.0375 -2.2726  0.3918
 6085SOL    HW229889   0.841   4.390   4.765  0.4168  1.6611  1.5008
 6086SOL     OW29890   1.875   4.678   9.605  0.0272 -0.6605 -0.0890
 6086SOL    HW129891   1.886   0.032   9.577 -1.1816 -0.4822  0.0270
 6086SOL    HW229892   1.966   4.648   9.597  0.7182  1.3585  0.1543
 6087SOL     OW29893   1.078   4.678   6.532 -0.3260 -0.5542  0.9494
 6087SOL    HW129894   1.161   4.671   6.580  0.2190 -2.5624 -0.2348
 6087SOL    HW229895   1.104   0.005   6.466 -0.5742 -1.8487 -0.4129
 6088SOL     OW29896   0.875   3.421   0.017  0.1729 -0.0061  0.3819
 6088SOL    HW129897   0.895   3.328   0.011  1.2849  0.2895 -0.5143
 6088SOL    HW229898   0.798   3.419  17.705  0.2286  1.1446  0.2771
 6089SOL     OW29899   2.484   0.425   9.849  0.1070 -0.0807  0.0151
 6089SOL    HW129900   2.407   0.435   9.905 -2.1313 -0.3360 -2.9955
 6089SOL    HW229901   2.449   0.371   9.778 -0.1587  0.0661  0.0331
 6090SOL     OW29902   3.415   2.734   5.683  0.1377  0.3069  0.1054
 6090SOL    HW129903   3.372   2.815   5.656 -0.6830 -0.0380  0.3707
 6090SOL    HW229904   3.432   2.742   5.777 -1.7856  0.4930  0.4379
 6091SOL     OW29905   2.687   2.084   5.615  0.5595 -0.0784  0.1354
 6091SOL    HW129906   2.688   2.017   5.546  0.3693  0.5226 -0.4455
 6091SOL    HW229907   2.758   2.141   5.585  1.1346 -1.2388 -0.7243
 6092SOL     OW29908   1.575   1.587   6.444 -0.0059 -0.4108 -0.4355
 6092SOL    HW129909   1.634   1.662   6.454  1.4144 -1.5309 -0.3311
 6092SOL    HW229910   1.573   1.562   6.352  1.9269 -0.5204 -0.4412
 6093SOL     OW29911   3.307   3.910   4.072 -0.4210  0.3152 -1.1159
 6093SOL    HW129912   3.233   3.969   4.089  0.3797  0.7999  0.6222
 6093SOL    HW229913   3.345   3.961   4.000 -0.6513  0.2182 -1.3094
 6094SOL     OW29914   1.614   1.654   7.699 -0.2761  0.2231 -0.0824
 6094SOL    HW129915   1.699   1.614   7.717 -0.3330  0.3530  0.4865
 6094SOL    HW229916   1.613   1.653   7.603 -1.5578  2.1157 -0.0868
 6095SOL     OW29917   2.079   0.714  12.610 -0.0099 -0.5919  0.0294
 6095SOL    HW129918   2.062   0.769  12.687  1.4203  1.8228 -1.3965
 6095SOL    HW229919   2.001   0.724  12.557  1.5342  0.5916 -2.0278
 6096SOL     OW29920   4.261   1.458  10.247 -0.1289 -0.6012 -0.7337
 6096SOL    HW129921   4.334   1.464  10.186 -0.5344  2.3559 -0.9565
 6096SOL    HW229922   4.295   1.445  10.335  0.2976  0.7340 -0.7022
 6097SOL     OW29923   0.597   1.250   8.394 -0.1948  0.3057  0.3339
 6097SOL    HW129924   0.521   1.303   8.419  1.1010  0.2266  4.4933
 6097SOL    HW229925   0.671   1.306   8.416  0.0751  0.9466 -2.2147
 6098SOL     OW29926   3.144   2.829   5.586  0.2517  0.2858 -0.1911
 6098SOL    HW129927   3.154   2.736   5.568  0.0074  0.4103 -0.9608
 6098SOL    HW229928   3.093   2.819   5.666  1.4775 -0.6318  0.4726
 6099SOL     OW29929   1.674   3.477   4.967  0.3971  0.0151 -0.1808
 6099SOL    HW129930   1.614   3.430   4.910 -0.8677  2.6756 -1.0634
 6099SOL    HW229931   1.628   3.561   4.977  2.5241  1.0994  0.5217
 6100SOL     OW29932   1.814   3.543   2.262  0.1087  0.3518 -0.2842
 6100SOL    HW129933   1.728   3.552   2.303 -0.4361  0.2035 -1.3934
 6100SOL    HW229934   1.868   3.572   2.336  0.7481 -0.0797 -0.5787
 6101SOL     OW29935   0.254   2.266   8.661  0.5010 -0.7129  0.0400
 6101SOL    HW129936   0.324   2.221   8.614  1.7687  2.8233 -1.4611
 6101SOL    HW229937   0.204   2.192   8.694 -3.2123  1.3605 -0.8506
 6102SOL     OW29938   0.636   4.308   5.700 -0.0499 -0.2822  0.0101
 6102SOL    HW129939   0.728   4.327   5.717 -0.4349  1.6197  0.0077
 6102SOL    HW229940   0.638   4.213   5.701  1.7702 -0.2430  0.8371
 6103SOL     OW29941   0.670   2.170   1.557 -0.0557  0.5235 -0.6613
 6103SOL    HW129942   0.582   2.207   1.560 -0.5695 -0.8929  2.4813
 6103SOL    HW229943   0.710   2.247   1.597 -2.4050  0.5619  1.6578
 6104SOL     OW29944   1.249   2.752  17.129  0.1322  0.3691 -0.1191
 6104SOL    HW129945   1.313   2.724  17.194 -0.6825 -0.8027  0.1894
 6104SOL    HW229946   1.310   2.757  17.055 -0.3318 -0.2168 -0.5493
 6105SOL     OW29947   3.989   4.343   9.326  0.0315 -0.2918  0.4759
 6105SOL    HW129948   4.040   4.271   9.362 -0.2604 -0.6081  0.2583
 6105SOL    HW229949   3.903   4.318   9.361  0.6820 -2.1953  0.7211
 6106SOL     OW29950   2.999   0.886  14.287 -0.1792  0.2446  0.5022
 6106SOL    HW129951   3.042   0.931  14.214  0.3974 -1.9147 -0.4731
 6106SOL    HW229952   2.962   0.806  14.249  1.6845  0.0778 -0.9803
 6107SOL     OW29953   2.220   2.408   4.017  0.1262  0.4624 -0.0264
 6107SOL    HW129954   2.223   2.373   3.927 -1.5939 -1.1838  0.5672
 6107SOL    HW229955   2.129   2.431   4.032  0.1398  1.7597 -1.9723
 6108SOL     OW29956   1.475   0.111   3.957  0.2366 -0.8962 -0.6746
 6108SOL    HW129957   1.559   0.154   3.975  0.3652 -2.1233  1.5562
 6108SOL    HW229958   1.497   0.067   3.875  1.3401  0.4555 -1.1150
 6109SOL     OW29959   0.512   0.070   7.277 -0.2794  0.4834 -0.0402
 6109SOL    HW129960   0.445   0.018   7.232 -0.1777  0.9411 -0.7214
 6109SOL    HW229961   0.556   0.000   7.325  1.3725  0.1104 -2.1191
 6110SOL     OW29962   4.099   2.536  10.397 -0.2693 -0.3861  0.5361
 6110SOL    HW129963   4.104   2.524  10.302  3.4394 -0.7329  0.7722
 6110SOL    HW229964   4.119   2.447  10.427  0.6269 -0.9303 -1.6727
 6111SOL     OW29965   0.194   0.906  12.060  0.1331  0.5939  0.1106
 6111SOL    HW129966   0.248   0.859  11.996 -0.6410  0.0805 -0.1661
 6111SOL    HW229967   0.199   0.844  12.133 -2.6390 -1.3644 -1.3414
 6112SOL     OW29968   4.377   2.630  14.557  0.2436  0.9583  0.5419
 6112SOL    HW129969   4.335   2.596  14.478  0.4958 -1.1991  1.3348
 6112SOL    HW229970   4.316   2.598  14.623 -1.2282 -1.6671 -2.0240
 6113SOL     OW29971   2.288   4.042   4.426  0.7055  0.3417 -0.3421
 6113SOL    HW129972   2.207   4.005   4.389 -0.0683 -1.0115  2.6734
 6113SOL    HW229973   2.249   4.095   4.496  0.7510  1.5091 -1.2174
 6114SOL     OW29974   0.320   4.675  12.513  0.5762 -0.3316 -0.3665
 6114SOL    HW129975   0.336   4.581  12.520  0.2427 -0.5461 -2.4598
 6114SOL    HW229976   0.245   4.684  12.454 -0.6386 -3.7090  0.6396
 6115SOL     OW29977   4.219   3.103  15.772 -0.4588  0.1110  0.2319
 6115SOL    HW129978   4.144   3.160  15.758 -0.9729 -1.1583 -2.3424
 6115SOL    HW229979   4.280   3.136  15.706 -1.2838  0.8789 -0.1507
 6116SOL     OW29980   3.593   1.491   0.603 -0.4478  0.9284  0.3818
 6116SOL    HW129981   3.510   1.500   0.649 -0.0354  1.8336  0.9550
 6116SOL    HW229982   3.562   1.494   0.513  0.4857 -3.1648 -0.1064
 6117SOL     OW29983   1.161   2.086  16.706  0.6691 -0.2173  0.5295
 6117SOL    HW129984   1.145   2.181  16.707  2.5234  0.1027  0.9313
 6117SOL    HW229985   1.122   2.066  16.791 -0.4258 -0.1883  0.0234
 6118SOL     OW29986   1.149   1.301   6.095 -0.3099 -0.5945 -0.2952
 6118SOL    HW129987   1.151   1.228   6.156 -0.7128  1.1100  1.7518
 6118SOL    HW229988   1.106   1.371   6.144  0.8967 -1.2436  1.6843
 6119SOL     OW29989   1.291   3.952  11.958 -0.3918  0.3157  0.5459
 6119SOL    HW129990   1.330   3.950  11.871 -0.4248  0.4496  0.5291
 6119SOL    HW229991   1.247   3.867  11.958 -1.1762  0.7254 -0.4714
 6120SOL     OW29992   4.589   4.693  12.780 -0.0548 -0.4920  0.6160
 6120SOL    HW129993   4.496   4.669  12.774 -0.3531  0.7674  0.0031
 6120SOL    HW229994   4.623   4.649  12.703 -0.5507  1.2290 -0.5849
 6121SOL     OW29995   3.420   3.686   4.183  0.4580 -0.2458  0.3467
 6121SOL    HW129996   3.446   3.725   4.266 -1.8784 -1.4389  1.6442
 6121SOL    HW229997   3.395   3.765   4.135  0.4040  1.6794  3.5365
 6122SOL     OW29998   4.440   3.119   7.216  0.5431 -0.3754  0.1300
 6122SOL    HW129999   4.426   3.177   7.141 -3.5220 -2.9178 -1.0710
 6122SOL    HW230000   4.351   3.106   7.248  0.1306 -0.1658 -0.9247
 6123SOL     OW30001   1.534   3.199   7.409  0.0323  0.1631  0.4474
 6123SOL    HW130002   1.562   3.109   7.394  3.1112  1.0124  1.0105
 6123SOL    HW230003   1.559   3.239   7.325  0.5107 -0.2082  0.4130
 6124SOL     OW30004   2.448   3.929   2.133 -0.5576 -0.5989  0.4224
 6124SOL    HW130005   2.519   3.986   2.103 -0.5323  0.7967  3.1696
 6124SOL    HW230006   2.471   3.928   2.226 -2.7448 -0.8992  0.9638
 6125SOL     OW30007   0.168   3.469   6.266  0.3139 -0.3077  0.1633
 6125SOL    HW130008   0.078   3.448   6.241  0.3024 -1.1315  0.9289
 6125SOL    HW230009   0.145   3.523   6.341 -3.8148 -1.0990 -0.5394
 6126SOL     OW30010   1.361   3.278   5.970 -0.3674 -0.3520  0.2285
 6126SOL    HW130011   1.436   3.220   5.977 -1.2569 -1.4764  0.3276
 6126SOL    HW230012   1.367   3.321   6.056  0.4833 -0.0870  0.0413
 6127SOL     OW30013   3.791   2.878  14.834  0.1970  0.0897  0.0236
 6127SOL    HW130014   3.849   2.827  14.777 -1.2041 -0.0719 -1.2501
 6127SOL    HW230015   3.782   2.817  14.907 -0.5715 -0.9031 -0.9088
 6128SOL     OW30016   2.483   0.135   2.934 -0.2045 -0.2632  0.0966
 6128SOL    HW130017   2.408   0.193   2.918 -0.4175 -0.4864  0.2820
 6128SOL    HW230018   2.561   0.190   2.935 -0.1816 -0.3566  1.8738
 6129SOL     OW30019   4.002   0.853   5.138  0.1194  0.2961  0.0614
 6129SOL    HW130020   4.055   0.813   5.207 -0.6051 -0.3741  0.2319
 6129SOL    HW230021   3.945   0.778   5.119  1.0126 -0.0316 -1.3136
 6130SOL     OW30022   1.620   0.659   8.638  0.1481 -0.1150 -0.2617
 6130SOL    HW130023   1.539   0.632   8.681 -1.0041 -0.2205 -2.4646
 6130SOL    HW230024   1.590   0.724   8.574 -0.1031 -1.8975 -1.9759
 6131SOL     OW30025   4.042   4.620   2.987 -0.3581  0.6301  0.3450
 6131SOL    HW130026   3.978   4.555   2.959  1.2119 -0.6991 -0.1459
 6131SOL    HW230027   4.116   4.604   2.928 -0.4983  0.8449  0.1144
 6132SOL     OW30028   3.318   3.184   3.145 -0.2994 -0.2409 -0.0063
 6132SOL    HW130029   3.236   3.228   3.124 -0.2813 -1.5400 -2.8335
 6132SOL    HW230030   3.331   3.223   3.231  0.3712 -2.8300  1.0664
 6133SOL     OW30031   0.810   0.048   8.532  0.1701  0.2491  0.4295
 6133SOL    HW130032   0.724   0.008   8.517  0.2486 -0.4508  1.8605
 6133SOL    HW230033   0.798   0.096   8.615  1.2134 -1.3121  1.4743
 6134SOL     OW30034   1.679   3.981   5.661 -0.1487  0.1112  0.3715
 6134SOL    HW130035   1.713   4.059   5.617 -1.6598  0.5339 -0.0588
 6134SOL    HW230036   1.698   4.001   5.753 -0.2195 -1.2983  0.6874
 6135SOL     OW30037   4.230   2.674   1.515 -0.2777  0.0109 -0.5610
 6135SOL    HW130038   4.250   2.744   1.577  1.8135 -2.4698  1.5496
 6135SOL    HW230039   4.261   2.723   1.438  0.2580  0.5061 -0.0258
 6136SOL     OW30040   3.125   1.646   3.740  0.1323  0.1124  0.0280
 6136SOL    HW130041   3.143   1.648   3.834 -0.3972 -0.8516  0.1461
 6136SOL    HW230042   3.198   1.705   3.723 -0.3627  0.3890 -1.1157
 6137SOL     OW30043   4.475   3.083   1.663  0.5437 -0.2792 -0.2996
 6137SOL    HW130044   4.424   3.023   1.718  2.5525 -0.1729  1.6912
 6137SOL    HW230045   4.550   3.029   1.642 -0.2611 -2.4569  2.4356
 6138SOL     OW30046   0.875   3.413  12.890  0.3761 -0.0947 -0.0494
 6138SOL    HW130047   0.900   3.502  12.864  0.2382 -0.0793 -0.1280
 6138SOL    HW230048   0.943   3.363  12.845  1.1306  1.8284 -1.0318
 6139SOL     OW30049   0.341   2.047  14.345  0.3151  0.5030  0.0471
 6139SOL    HW130050   0.433   2.072  14.338 -0.0326  1.4350 -1.2045
 6139SOL    HW230051   0.327   2.111  14.415 -2.0509  0.0404  0.0173
 6140SOL     OW30052   4.224   2.058   6.797  0.0402  0.5679 -0.2703
 6140SOL    HW130053   4.229   2.008   6.879 -0.3315  1.0835  0.0767
 6140SOL    HW230054   4.128   2.054   6.794  0.0310  1.1608 -0.7807
 6141SOL     OW30055   4.648   3.451   2.467  0.1003  0.4234 -0.0391
 6141SOL    HW130056   4.566   3.422   2.507  0.1836 -1.7616 -1.5145
 6141SOL    HW230057   4.611   3.514   2.405  0.8836  1.2848  0.3634
 6142SOL     OW30058   4.600   4.323   9.208  0.3118 -0.7949  0.1302
 6142SOL    HW130059   4.622   4.412   9.180  0.4996 -0.5126  1.1744
 6142SOL    HW230060   4.688   4.294   9.230  0.4234 -1.3860 -1.1230
 6143SOL     OW30061   2.506   3.198  14.500  0.1710  0.2555 -0.7090
 6143SOL    HW130062   2.412   3.194  14.482  0.1563 -2.9091  0.0096
 6143SOL    HW230063   2.532   3.115  14.539  0.0096  0.7633  0.4777
 6144SOL     OW30064   2.361   0.830  11.019 -0.2834 -0.0670 -0.3187
 6144SOL    HW130065   2.417   0.855  11.092  0.2626 -0.0421 -0.7481
 6144SOL    HW230066   2.434   0.797  10.968  0.9673 -0.0826  1.4729
 6145SOL     OW30067   4.254   1.230   3.604 -0.2013 -0.8223 -0.3159
 6145SOL    HW130068   4.234   1.152   3.655 -2.2899 -0.4905 -0.5870
 6145SOL    HW230069   4.216   1.289   3.670 -0.4910  0.1984 -1.3872
 6146SOL     OW30070   0.746   3.997   8.051 -0.2478  0.1264  0.5637
 6146SOL    HW130071   0.750   3.973   7.959  0.9377 -0.9916  0.9108
 6146SOL    HW230072   0.786   4.084   8.056 -1.3834  0.8289 -2.3917
 6147SOL     OW30073   1.151   4.291   4.290 -0.8252  0.2509  0.3150
 6147SOL    HW130074   1.083   4.257   4.348  0.2060 -1.1387  0.7263
 6147SOL    HW230075   1.107   4.359   4.239 -1.5187 -1.0040 -0.7599
 6148SOL     OW30076   1.252   1.161   1.959  0.1282 -0.1415 -0.1347
 6148SOL    HW130077   1.256   1.250   1.993  0.1221  0.2252 -1.0921
 6148SOL    HW230078   1.158   1.151   1.942  0.5167 -0.0918 -2.3082
 6149SOL     OW30079   4.500   1.699   7.716  0.3686 -0.4495 -0.0614
 6149SOL    HW130080   4.529   1.791   7.711  1.5795 -0.6574  2.7429
 6149SOL    HW230081   4.445   1.713   7.793  1.7700  0.2846  0.8245
 6150SOL     OW30082   4.682   1.841   4.655 -0.7886  0.2582 -0.1578
 6150SOL    HW130083   4.721   1.792   4.728  0.3178 -1.3114 -1.7866
 6150SOL    HW230084   0.014   1.908   4.654  0.0600 -0.5713  1.1225
 6151SOL     OW30085   0.044   1.200  12.905 -0.2959  0.1330  0.1594
 6151SOL    HW130086   0.079   1.208  12.816  0.0541  0.8444  0.3620
 6151SOL    HW230087   4.696   1.242  12.897 -0.7675 -0.8694 -0.1095
 6152SOL     OW30088   2.154   1.557  16.995  0.8963 -0.0350  0.1307
 6152SOL    HW130089   2.092   1.511  17.052  0.2130 -0.2403 -0.7856
 6152SOL    HW230090   2.226   1.494  16.994 -0.8526 -2.0692  1.2147
 6153SOL     OW30091   3.766   4.396   7.658  0.0971  0.2557  0.6210
 6153SOL    HW130092   3.693   4.434   7.609  0.7952  2.1370  1.0475
 6153SOL    HW230093   3.746   4.422   7.748 -2.1851  0.8806 -0.0622
 6154SOL     OW30094   0.983   4.135   2.081  0.6494 -0.6460 -0.0069
 6154SOL    HW130095   0.905   4.086   2.055  0.0034  0.5602 -0.3344
 6154SOL    HW230096   0.973   4.124   2.175  2.2949  1.2168  0.3882
 6155SOL     OW30097   3.885   4.165   3.778  0.4295 -0.2898  0.6370
 6155SOL    HW130098   3.947   4.166   3.706 -0.5623 -1.6894 -0.2546
 6155SOL    HW230099   3.809   4.213   3.744  0.1402 -0.3197  1.2273
 6156SOL     OW30100   0.249   1.934   2.791  0.1157  0.1348 -0.4985
 6156SOL    HW130101   0.213   1.951   2.704 -0.9785  1.1356  0.1442
 6156SOL    HW230102   0.334   1.976   2.775  1.4666 -2.2404  0.5344
 6157SOL     OW30103   2.785   2.546   5.459  0.0795 -0.2774 -0.6048
 6157SOL    HW130104   2.812   2.492   5.532 -2.0179 -1.7330 -0.9036
 6157SOL    HW230105   2.824   2.498   5.386  0.6804  0.3744 -0.7207
 6158SOL     OW30106   0.748   0.992   6.167 -0.2332 -0.2690  0.3956
 6158SOL    HW130107   0.768   0.954   6.252 -2.2222  0.0172  0.9869
 6158SOL    HW230108   0.824   0.971   6.114  1.4011 -1.5437  3.2747
 6159SOL     OW30109   4.253   4.083   2.378  0.5512 -0.3744 -0.2990
 6159SOL    HW130110   4.334   4.052   2.418 -0.4698 -1.9964  0.4975
 6159SOL    HW230111   4.286   4.087   2.288  1.2571  0.2120 -0.0135
 6160SOL     OW30112   2.390   2.157   4.461  0.0424 -0.3193  0.7078
 6160SOL    HW130113   2.383   2.070   4.498 -2.1758 -0.1468  0.6906
 6160SOL    HW230114   2.301   2.191   4.468 -0.9598 -2.8332  0.0640
 6161SOL     OW30115   4.178   0.175  15.147 -0.6032  0.3506 -0.4166
 6161SOL    HW130116   4.099   0.214  15.185 -0.0725  1.7103 -0.6862
 6161SOL    HW230117   4.144   0.087  15.131  2.4645 -0.2566 -3.6506
 6162SOL     OW30118   0.713   1.581   8.078  0.2333 -0.2537 -0.6437
 6162SOL    HW130119   0.734   1.494   8.112  0.4667 -1.1500 -3.0832
 6162SOL    HW230120   0.617   1.585   8.074  0.1783 -0.9006 -0.0937
 6163SOL     OW30121   0.191   2.895  14.483  0.1246 -0.2447  0.5289
 6163SOL    HW130122   0.225   2.814  14.447 -1.3253 -0.7193  0.2327
 6163SOL    HW230123   0.125   2.917  14.417 -0.9329 -0.8520  1.3816
 6164SOL     OW30124   3.204   0.849   7.437 -0.5275  0.2773  0.3247
 6164SOL    HW130125   3.252   0.784   7.386  1.8145  2.0128  0.3666
 6164SOL    HW230126   3.227   0.815   7.523  0.7590  1.1590  0.3204
 6165SOL     OW30127   3.725   3.069   6.870 -0.3749  0.3899 -0.0233
 6165SOL    HW130128   3.664   3.119   6.924  1.3275  0.6190  1.6463
 6165SOL    HW230129   3.685   3.075   6.783 -1.6719  2.1513  0.6952
 6166SOL     OW30130   0.356   4.077   1.562  0.1446 -0.0706 -0.5891
 6166SOL    HW130131   0.371   4.086   1.467  0.3800  0.9276 -0.4574
 6166SOL    HW230132   0.314   3.996   1.590  0.9596  1.3222  4.6113
 6167SOL     OW30133   0.024   4.539   3.453 -0.5441 -0.5800 -0.1631
 6167SOL    HW130134   0.051   4.626   3.485 -1.4773 -0.7471  1.0951
 6167SOL    HW230135   4.667   4.537   3.474 -0.4501  3.7740  0.6301
 6168SOL     OW30136   2.773   0.918   0.641  0.0321  0.0998 -0.2508
 6168SOL    HW130137   2.729   0.904   0.558 -0.2712 -2.1030  0.2952
 6168SOL    HW230138   2.716   0.974   0.695  0.5719  1.6026 -1.2303
 6169SOL     OW30139   1.500   0.129   8.769  0.0525 -0.6837  0.5641
 6169SOL    HW130140   1.513   0.224   8.765 -1.4728 -0.6361 -2.5608
 6169SOL    HW230141   1.496   0.109   8.676  0.6302 -1.8564  0.7841
 6170SOL     OW30142   4.600   3.062   1.937 -0.1930 -0.3769  0.2567
 6170SOL    HW130143   4.681   3.056   1.987 -1.0032 -1.1750  1.4597
 6170SOL    HW230144   4.577   2.971   1.917 -0.8294  0.1510 -1.4169
 6171SOL     OW30145   4.444   1.900   7.164  0.6732 -0.2036 -0.4591
 6171SOL    HW130146   4.412   1.945   7.243  0.4319  0.9432 -1.2129
 6171SOL    HW230147   4.368   1.907   7.106  0.5970  0.9396 -0.2193
 6172SOL     OW30148   4.420   2.778  16.779 -0.1507 -0.3653  0.2027
 6172SOL    HW130149   4.497   2.788  16.835  1.0848 -0.2622 -1.5402
 6172SOL    HW230150   4.352   2.786  16.846  1.1752  1.4043  1.3639
 6173SOL     OW30151   0.836   4.597  11.289  0.4120 -0.5872  0.4121
 6173SOL    HW130152   0.924   4.559  11.283 -0.8008 -3.2193 -0.9115
 6173SOL    HW230153   0.858   4.671  11.346  2.1217 -0.1239 -0.8594
 6174SOL     OW30154   4.078   1.435   9.723 -0.0377 -0.2644  0.0056
 6174SOL    HW130155   4.155   1.462   9.673 -0.7215  0.8750 -0.4375
 6174SOL    HW230156   4.120   1.403   9.803  0.1866 -0.9542 -0.3907
 6175SOL     OW30157   0.983   2.126   1.924  0.0558 -0.0459 -0.0110
 6175SOL    HW130158   1.021   2.064   1.987 -1.0957 -0.5091  0.2364
 6175SOL    HW230159   0.998   2.089   1.837  1.5806  2.0639 -0.6161
 6176SOL     OW30160   2.540   0.918   7.295 -0.2043 -0.1404  0.1355
 6176SOL    HW130161   2.585   0.983   7.350 -0.3006  0.0184  0.0244
 6176SOL    HW230162   2.465   0.966   7.261 -0.1340  0.4908  0.8631
 6177SOL     OW30163   1.734   2.393  10.599 -0.3537 -0.1296 -0.2853
 6177SOL    HW130164   1.790   2.464  10.630 -1.6397  0.2303  1.1835
 6177SOL    HW230165   1.744   2.333  10.672 -1.1622 -1.5229 -1.3342
 6178SOL     OW30166   1.908   4.372  17.221  0.1272  0.0852 -0.3837
 6178SOL    HW130167   1.863   4.452  17.248 -0.8232 -0.9572  1.0962
 6178SOL    HW230168   1.972   4.397  17.154 -0.4484  2.3430 -0.0808
 6179SOL     OW30169   0.521   2.836   8.312 -0.0079  0.2189 -0.2090
 6179SOL    HW130170   0.566   2.909   8.271 -0.6311 -1.5863 -4.0513
 6179SOL    HW230171   0.555   2.767   8.255  0.3333  1.4578 -1.4998
 6180SOL     OW30172   0.549   1.040   7.343  0.4177 -0.5676 -0.1921
 6180SOL    HW130173   0.618   1.030   7.409  1.1225  1.1726 -0.6481
 6180SOL    HW230174   0.547   0.952   7.306  1.8492 -0.9446  0.5961
 6181SOL     OW30175   0.174   1.932  17.145 -0.1992  0.3042  0.5151
 6181SOL    HW130176   0.107   1.870  17.174  1.7529 -2.4857 -0.8855
 6181SOL    HW230177   0.145   2.017  17.178  0.2037 -0.2973  2.4445
 6182SOL     OW30178   2.984   3.959  14.999 -0.1086 -0.1200 -0.2672
 6182SOL    HW130179   2.999   3.894  15.068 -0.4289  0.0101 -0.0751
 6182SOL    HW230180   2.891   3.956  14.979 -1.0226 -0.7535  4.1051
 6183SOL     OW30181   1.170   1.017   5.284 -0.9857 -0.5544 -0.2484
 6183SOL    HW130182   1.078   1.001   5.261 -1.2595 -1.2471  1.2728
 6183SOL    HW230183   1.154   1.047   5.373  2.8352 -0.8843  0.5430
 6184SOL     OW30184   4.340   3.066   4.686 -0.0049 -0.7313 -0.3552
 6184SOL    HW130185   4.268   3.015   4.649 -1.7598  0.1851  1.7601
 6184SOL    HW230186   4.316   3.154   4.655 -2.2879 -0.5990  1.7774
 6185SOL     OW30187   1.484   2.623   3.328  0.3965  0.2896 -0.3196
 6185SOL    HW130188   1.442   2.643   3.244 -2.0430  0.1876  0.8649
 6185SOL    HW230189   1.574   2.622   3.295  1.0407  0.8064  1.3902
 6186SOL     OW30190   0.721   2.878   9.692  0.0054  0.2819  0.2908
 6186SOL    HW130191   0.713   2.956   9.747  0.0422 -1.0328  2.1339
 6186SOL    HW230192   0.812   2.849   9.701  0.2871  0.8428 -0.7137
 6187SOL     OW30193   0.296   2.707  14.328  0.2748 -0.3409  0.2620
 6187SOL    HW130194   0.345   2.625  14.327  0.5962 -0.1471  0.6241
 6187SOL    HW230195   0.361   2.774  14.307  0.4157 -0.5190  0.1361
 6188SOL     OW30196   2.880   0.264   4.253  0.3448 -0.3426 -0.0854
 6188SOL    HW130197   2.816   0.202   4.220  1.7421 -2.2388  0.7290
 6188SOL    HW230198   2.914   0.217   4.329 -2.2087 -1.9458  0.0618
 6189SOL     OW30199   4.119   2.259   7.938 -0.0469 -0.0092  0.0722
 6189SOL    HW130200   4.158   2.325   7.882 -0.1394 -0.7783 -0.9024
 6189SOL    HW230201   4.036   2.245   7.893  1.5637 -2.1609 -2.2058
 6190SOL     OW30202   2.712   2.790  17.216 -0.1918  0.3521  0.2630
 6190SOL    HW130203   2.741   2.881  17.217  0.1801  0.2443 -0.5457
 6190SOL    HW230204   2.736   2.771  17.125 -1.6362 -1.1790  0.1972
 6191SOL     OW30205   4.293   3.527   5.117 -0.2876 -0.3089 -0.5686
 6191SOL    HW130206   4.252   3.445   5.148  1.2361 -0.4894  0.9301
 6191SOL    HW230207   4.220   3.586   5.098 -0.7537 -1.6263 -2.9233
 6192SOL     OW30208   3.320   3.278   2.195 -0.7374 -0.0146  0.4094
 6192SOL    HW130209   3.386   3.222   2.236 -2.3007  0.3406  3.3529
 6192SOL    HW230210   3.239   3.246   2.235 -0.8383  1.4654  1.3615
 6193SOL     OW30211   4.488   2.672   3.366  0.4247  0.4076  0.3409
 6193SOL    HW130212   4.458   2.653   3.278  1.2504  0.8451 -0.0378
 6193SOL    HW230213   4.583   2.665   3.357  0.3182  0.9543 -1.1231
 6194SOL     OW30214   0.668   1.953   2.334  0.4499  0.0957 -0.4384
 6194SOL    HW130215   0.680   1.948   2.429  2.7911  0.8045 -0.6905
 6194SOL    HW230216   0.755   1.925   2.305 -0.1846 -1.1228 -1.1788
 6195SOL     OW30217   3.612   4.167   1.482 -0.1686 -0.4219 -0.2649
 6195SOL    HW130218   3.686   4.128   1.437  1.4542  2.0706  0.2383
 6195SOL    HW230219   3.664   4.232   1.529 -1.8007 -1.1671  2.5940
 6196SOL     OW30220   1.922   4.522  13.356 -0.3005 -0.2511  0.4658
 6196SOL    HW130221   1.861   4.461  13.316  0.8432 -0.2941 -1.2289
 6196SOL    HW230222   1.858   4.567  13.411  0.8026  1.5382  0.3038
 6197SOL     OW30223   2.619   3.021   6.814 -0.6289 -0.3474  0.0538
 6197SOL    HW130224   2.597   2.951   6.754 -0.0942  0.4839 -1.1160
 6197SOL    HW230225   2.715   3.024   6.823 -0.7568  1.0744  1.0708
 6198SOL     OW30226   0.102   1.152  13.174  0.2386  0.7809 -0.0997
 6198SOL    HW130227   0.157   1.219  13.215  0.1185  0.5888  0.3803
 6198SOL    HW230228   0.125   1.164  13.082 -2.5367 -1.0739 -1.0388
 6199SOL     OW30229   3.658   3.321   1.849 -0.0882 -0.2412 -0.5083
 6199SOL    HW130230   3.605   3.242   1.851  1.5169 -1.3395 -0.9110
 6199SOL    HW230231   3.702   3.313   1.764 -1.8353 -2.4928 -1.1969
 6200SOL     OW30232   4.559   0.692  14.407  0.1610  0.1802 -0.1885
 6200SOL    HW130233   4.555   0.705  14.312  2.2648 -0.0906 -0.3301
 6200SOL    HW230234   4.478   0.649  14.434  0.6093  0.3473  1.4246
 6201SOL     OW30235   3.717   4.578   5.996 -0.1001  0.5321 -0.4026
 6201SOL    HW130236   3.714   4.651   5.934 -0.0777  0.1574 -0.8357
 6201SOL    HW230237   3.682   4.509   5.940  1.0654  0.9223 -1.5997
 6202SOL     OW30238   2.200   0.710   3.971 -0.6692 -0.0587 -0.3683
 6202SOL    HW130239   2.239   0.766   4.038 -0.2397 -0.3675 -0.3657
 6202SOL    HW230240   2.238   0.751   3.893  0.8252  0.0127  0.4036
 6203SOL     OW30241   3.400   4.468   2.446  0.5258  0.0551  1.1923
 6203SOL    HW130242   3.469   4.439   2.387  0.9740 -1.9007  2.6805
 6203SOL    HW230243   3.327   4.482   2.386  1.9421  0.2041 -0.4692
 6204SOL     OW30244   4.704   0.902   4.315 -0.4845 -0.9280 -0.2118
 6204SOL    HW130245   4.666   0.943   4.238  2.4312 -1.1408 -1.7612
 6204SOL    HW230246   4.721   0.813   4.285  3.5694  0.1115 -0.9935
 6205SOL     OW30247   1.516   0.603   2.674 -0.6328  0.8353 -0.7667
 6205SOL    HW130248   1.538   0.532   2.734 -0.1179 -1.1423 -3.2537
 6205SOL    HW230249   1.423   0.609   2.692 -0.9491  0.1567 -2.1590
 6206SOL     OW30250   3.066   1.313   1.942 -0.4151 -0.2723 -0.9385
 6206SOL    HW130251   3.156   1.290   1.919 -1.0089  0.1756 -3.7244
 6206SOL    HW230252   3.067   1.408   1.929 -0.3333 -0.1071  0.2635
 6207SOL     OW30253   3.237   2.126   8.840  0.3246 -0.3611  0.3300
 6207SOL    HW130254   3.169   2.082   8.787  0.9898 -0.8941 -0.0800
 6207SOL    HW230255   3.315   2.080   8.808  0.2224 -0.3427  0.0519
 6208SOL     OW30256   4.385   2.842  13.537  0.7287 -0.2155  0.0987
 6208SOL    HW130257   4.341   2.912  13.587 -1.8354 -1.1169 -0.8706
 6208SOL    HW230258   4.394   2.782  13.610  1.0786 -0.3316 -0.0452
 6209SOL     OW30259   3.498   1.686  11.253 -0.0651 -0.3288  0.3298
 6209SOL    HW130260   3.424   1.657  11.200  0.3458 -0.2408 -0.2917
 6209SOL    HW230261   3.561   1.707  11.184  1.7272  0.7208  2.2433
 6210SOL     OW30262   0.000   3.000   8.733  0.3956 -0.5700 -0.3686
 6210SOL    HW130263   0.076   3.048   8.700  1.2128 -1.5954  0.0184
 6210SOL    HW230264   0.039   2.943   8.799  2.5913 -1.5237 -2.4701
 6211SOL     OW30265   0.326   0.318  10.067 -0.7083 -0.5900  0.2213
 6211SOL    HW130266   0.255   0.280  10.118 -0.4530 -0.1781  0.8947
 6211SOL    HW230267   0.294   0.290   9.982 -2.0716  1.3302  0.1004
 6212SOL     OW30268   3.220   4.680   1.450 -0.3112  0.3571 -0.0675
 6212SOL    HW130269   3.294   4.632   1.487  0.2170 -0.9935 -2.8253
 6212SOL    HW230270   3.152   4.612   1.453  0.6202 -0.5450  0.5302
 6213SOL     OW30271   3.781   3.990   6.407 -0.3878  0.8111  0.4612
 6213SOL    HW130272   3.747   4.008   6.319 -0.1979 -1.5981 -0.1193
 6213SOL    HW230273   3.694   3.993   6.446 -1.0835  3.6442 -1.2684
 6214SOL     OW30274   3.711   1.258   9.178 -0.1144 -0.1855 -0.7488
 6214SOL    HW130275   3.770   1.285   9.107  0.5720 -1.7935 -0.7989
 6214SOL    HW230276   3.671   1.340   9.205  2.2662  1.5097 -2.4060
 6215SOL     OW30277   2.861   2.820   6.298 -0.0903  0.6937  0.0930
 6215SOL    HW130278   2.856   2.821   6.394  0.7599 -2.0817  0.1727
 6215SOL    HW230279   2.825   2.904   6.270 -1.2078  1.0152  2.5105
 6216SOL     OW30280   3.042   2.020   3.531 -0.2853  0.6247 -0.1772
 6216SOL    HW130281   3.072   2.023   3.622 -0.8939 -1.5020  0.0986
 6216SOL    HW230282   3.114   2.073   3.495  0.7469  1.5621  3.3325
 6217SOL     OW30283   2.557   3.617  16.594  0.2489 -0.5916 -0.3928
 6217SOL    HW130284   2.635   3.562  16.602  0.9364  1.1386  4.7598
 6217SOL    HW230285   2.505   3.580  16.665 -1.6108 -0.4107 -1.6354
 6218SOL     OW30286   0.719   0.579  15.747 -0.6720 -0.0567  0.2831
 6218SOL    HW130287   0.626   0.563  15.756 -0.5700 -1.2574 -0.7700
 6218SOL    HW230288   0.749   0.498  15.705  1.7714 -0.7755  3.3484
 6219SOL     OW30289   3.028   3.986   6.694 -0.6434  0.3046 -0.3708
 6219SOL    HW130290   2.956   3.939   6.735 -0.2497  1.6364  1.8393
 6219SOL    HW230291   2.979   4.056   6.651  0.0650 -0.9532 -3.2292
 6220SOL     OW30292   1.785   1.106  11.553  0.1833 -0.1015  0.0900
 6220SOL    HW130293   1.751   1.150  11.631 -0.6226  0.7178 -0.7162
 6220SOL    HW230294   1.733   1.026  11.558  1.5641 -1.1335 -2.2271
 6221SOL     OW30295   3.866   1.270   8.002 -0.3968  0.2189 -0.2177
 6221SOL    HW130296   3.835   1.233   8.085  2.7840 -0.8684  0.5011
 6221SOL    HW230297   3.848   1.363   8.011 -0.5240  0.2438 -0.7676
 6222SOL     OW30298   0.138   1.915   0.146 -0.7559 -0.2509 -0.2412
 6222SOL    HW130299   0.123   1.960   0.229  0.7344  2.6559 -1.5457
 6222SOL    HW230300   0.229   1.889   0.162 -0.5793 -0.0873 -0.9928
 6223SOL     OW30301   1.976   3.853  16.628  0.1454  0.1074  0.0592
 6223SOL    HW130302   2.010   3.862  16.539 -1.0588 -0.9302 -0.5015
 6223SOL    HW230303   1.946   3.940  16.654 -2.5273 -0.9321  0.4172
 6224SOL     OW30304   3.437   2.888  14.131 -0.3716 -0.1045 -0.0415
 6224SOL    HW130305   3.502   2.912  14.065  1.2233 -3.0510  0.4768
 6224SOL    HW230306   3.382   2.835  14.073  0.2335 -2.5266  1.6030
 6225SOL     OW30307   0.896   1.489   4.569 -0.1517 -0.1586  0.0874
 6225SOL    HW130308   0.929   1.408   4.608 -0.2098 -1.6550 -2.9784
 6225SOL    HW230309   0.969   1.549   4.588 -1.5131  1.4492  0.2571
 6226SOL     OW30310   0.494   0.153   6.549 -0.0617  0.1653 -0.3441
 6226SOL    HW130311   0.503   0.086   6.481  1.6975  3.3171 -3.2653
 6226SOL    HW230312   0.560   0.121   6.609  0.5464 -0.5718 -1.4090
 6227SOL     OW30313   0.850   1.639   3.431  0.5785 -0.1242 -0.5814
 6227SOL    HW130314   0.902   1.601   3.501  0.6764 -2.3747 -1.8949
 6227SOL    HW230315   0.880   1.596   3.352 -0.4152  2.4957 -2.4033
 6228SOL     OW30316   3.123   3.447   8.437 -0.4788 -0.3672  0.1125
 6228SOL    HW130317   3.056   3.388   8.471 -1.0977  1.6974  2.4112
 6228SOL    HW230318   3.167   3.468   8.520 -1.1789  1.1418  0.0919
 6229SOL     OW30319   4.343   4.082   6.622  0.1106  0.1770 -0.1387
 6229SOL    HW130320   4.257   4.114   6.649  0.1766 -0.0645  0.3385
 6229SOL    HW230321   4.403   4.122   6.684 -1.3615  0.2241  1.2623
 6230SOL     OW30322   4.126   1.148  10.404 -0.8297 -0.4750  0.5648
 6230SOL    HW130323   4.055   1.090  10.430 -1.5110  0.4479  0.7952
 6230SOL    HW230324   4.156   1.181  10.489  1.1752 -0.0663 -0.2964
 6231SOL     OW30325   4.450   1.709   3.744 -0.3693  0.6830 -0.8476
 6231SOL    HW130326   4.459   1.787   3.799  0.3024  0.5539 -0.7798
 6231SOL    HW230327   4.537   1.674   3.762 -0.9504 -0.8018 -0.9424
 6232SOL     OW30328   4.514   0.536  14.710 -0.3780  0.1911 -0.0173
 6232SOL    HW130329   4.486   0.473  14.642  3.5673 -2.8152  1.1383
 6232SOL    HW230330   4.424   0.545  14.741  0.2422  0.8682  1.5742
 6233SOL     OW30331   2.737   2.249   2.346  0.0834  1.0482 -0.1525
 6233SOL    HW130332   2.656   2.298   2.328 -1.4396 -2.0331 -1.6626
 6233SOL    HW230333   2.766   2.299   2.422 -0.1312  1.9692 -0.6716
 6234SOL     OW30334   3.603   2.295   2.094 -0.4006 -0.1891  0.3293
 6234SOL    HW130335   3.587   2.265   2.183  0.9404 -0.7623  0.3781
 6234SOL    HW230336   3.517   2.335   2.079  0.0084  0.5060 -0.1469
 6235SOL     OW30337   1.769   4.557   8.452  0.0044  0.1904 -0.3589
 6235SOL    HW130338   1.770   4.463   8.474 -2.5561 -0.0191 -1.1766
 6235SOL    HW230339   1.839   4.578   8.514 -0.5132 -1.8823  0.9228
 6236SOL     OW30340   0.765   2.805  13.248 -0.3323 -0.6463  0.6680
 6236SOL    HW130341   0.765   2.837  13.338 -0.3752 -2.2450  1.2399
 6236SOL    HW230342   0.858   2.802  13.226 -0.3571  0.9333  0.3366
 6237SOL     OW30343   1.741   4.064   4.713  0.2042 -0.4538  0.0377
 6237SOL    HW130344   1.698   4.147   4.690 -0.1270 -0.6339  0.0021
 6237SOL    HW230345   1.737   4.063   4.808  1.6587  0.9438  0.1114
 6238SOL     OW30346   4.703   2.289   7.427 -0.4168 -0.4394  0.3264
 6238SOL    HW130347   4.700   2.344   7.349 -2.2142  0.9389  1.3752
 6238SOL    HW230348   4.679   2.203   7.393  0.7282 -0.0057 -1.5793
 6239SOL     OW30349   3.736   3.781   8.055  0.4925 -0.2047 -0.4953
 6239SOL    HW130350   3.679   3.725   8.002 -0.8205  3.5728 -3.0564
 6239SOL    HW230351   3.667   3.839   8.088  2.0302  1.0626  0.4911
 6240SOL     OW30352   2.667   2.718  15.739 -0.3233  0.0146 -0.1634
 6240SOL    HW130353   2.746   2.769  15.721  0.3976 -0.5842  1.3210
 6240SOL    HW230354   2.690   2.673  15.820 -2.1635  1.5610  1.2141
 6241SOL     OW30355   3.216   1.283   2.446  0.2534  0.1883 -0.8125
 6241SOL    HW130356   3.205   1.377   2.435 -0.9847  0.4060  2.2089
 6241SOL    HW230357   3.281   1.285   2.516 -0.0422 -0.7538 -0.5170
 6242SOL     OW30358   0.825   3.238   8.294  0.4127 -0.0634 -0.4831
 6242SOL    HW130359   0.808   3.318   8.344 -0.5672 -1.3631  1.2251
 6242SOL    HW230360   0.893   3.269   8.233  0.5688  0.6601  0.0470
 6243SOL     OW30361   1.034   3.641   5.918 -0.2723 -0.0021 -0.0715
 6243SOL    HW130362   1.092   3.708   5.954 -0.3189  2.2350 -4.2050
 6243SOL    HW230363   1.074   3.635   5.832  1.6922  1.0654  0.7620
 6244SOL     OW30364   1.575   2.699   6.906  0.0178 -0.2046  0.0013
 6244SOL    HW130365   1.655   2.743   6.878  0.9676 -2.5003 -0.9277
 6244SOL    HW230366   1.544   2.772   6.961  0.4755  0.5909 -0.8070
 6245SOL     OW30367   0.736   3.851   4.698  0.2676 -0.2635 -0.2554
 6245SOL    HW130368   0.791   3.776   4.674 -0.0368 -0.4431 -0.4085
 6245SOL    HW230369   0.796   3.905   4.749 -2.2744  1.7470  0.6236
 6246SOL     OW30370   4.233   2.031   8.665  0.1724 -0.3201 -0.2413
 6246SOL    HW130371   4.214   1.985   8.747  0.4229  0.2384  0.1355
 6246SOL    HW230372   4.263   2.116   8.697  0.0116  0.0287 -1.0306
 6247SOL     OW30373   1.489   4.641  11.236  0.0576 -0.1239  0.0696
 6247SOL    HW130374   1.478   4.561  11.288 -0.8170  0.2196  0.4193
 6247SOL    HW230375   1.533   4.594  11.165  1.7846  0.9695  0.4304
 6248SOL     OW30376   3.660   2.061   5.575  0.9435  0.0835 -0.2316
 6248SOL    HW130377   3.622   2.062   5.662 -1.2645  0.2712 -1.2110
 6248SOL    HW230378   3.747   2.029   5.598  0.7280  0.3102  0.8994
 6249SOL     OW30379   2.982   4.447  14.933  0.4483 -0.5002  0.2785
 6249SOL    HW130380   2.913   4.382  14.946 -1.0142  1.3334  1.8314
 6249SOL    HW230381   2.933   4.520  14.895  0.2978  0.7509  2.8180
 6250SOL     OW30382   2.978   3.158  10.449 -0.0640  0.0590  0.2240
 6250SOL    HW130383   2.883   3.144  10.445 -0.2230  1.4666 -0.9805
 6250SOL    HW230384   3.012   3.105  10.377  3.0799  0.2455  1.5722
 6251SOL     OW30385   0.484   4.532   3.884  0.7059  0.0660 -0.6464
 6251SOL    HW130386   0.503   4.454   3.832  1.0166  0.4891 -1.1694
 6251SOL    HW230387   0.456   4.494   3.967  1.2564 -0.3822 -0.6635
 6252SOL     OW30388   1.941   0.208  10.464  0.5223  0.5602 -0.4727
 6252SOL    HW130389   1.907   0.188  10.552  4.0078  1.3865  1.0688
 6252SOL    HW230390   1.864   0.250  10.426 -0.1909 -0.9549 -0.6697
 6253SOL     OW30391   1.518   4.055   0.612  0.3340 -0.0905 -0.6235
 6253SOL    HW130392   1.534   4.039   0.705 -0.1467  0.9852 -0.3565
 6253SOL    HW230393   1.424   4.070   0.618  0.0615 -2.3347  1.1153
 6254SOL     OW30394   3.654   4.032   5.801 -0.3586  0.1351 -0.0364
 6254SOL    HW130395   3.747   4.054   5.794 -0.3240  1.1902  3.9468
 6254SOL    HW230396   3.623   4.118   5.773  0.6607  1.1794  2.0423
 6255SOL     OW30397   0.082   3.663   8.953 -0.1593 -0.2733  0.0974
 6255SOL    HW130398   0.005   3.714   8.979 -0.8088 -1.5872  0.7582
 6255SOL    HW230399   0.061   3.639   8.863  1.5716 -0.5428 -0.2294
 6256SOL     OW30400   4.417   1.420   5.457 -0.2554  0.0065 -0.1775
 6256SOL    HW130401   4.476   1.344   5.449  1.4613  1.2353  0.7248
 6256SOL    HW230402   4.334   1.374   5.452 -0.7150  0.8683 -0.3922
 6257SOL     OW30403   1.098   3.232  13.636  0.1975  0.3084  0.2585
 6257SOL    HW130404   1.113   3.220  13.730 -0.9364  2.3630  0.7080
 6257SOL    HW230405   1.003   3.224  13.627  0.1638  1.5512 -0.4923
 6258SOL     OW30406   2.361   3.503   3.806 -0.2814 -0.0394 -0.0896
 6258SOL    HW130407   2.402   3.588   3.819 -0.5560 -0.4248  3.1817
 6258SOL    HW230408   2.364   3.466   3.894 -2.6346 -1.4263 -0.5856
 6259SOL     OW30409   4.113   1.603   3.252  0.1281  0.3126 -0.5953
 6259SOL    HW130410   4.056   1.660   3.201  0.5516 -1.8079 -3.4520
 6259SOL    HW230411   4.194   1.630   3.209 -0.5698 -1.1117 -2.8091
 6260SOL     OW30412   2.498   4.671   5.824 -0.1794 -0.1006  0.2137
 6260SOL    HW130413   2.535   4.598   5.873  0.5998  0.1992  0.0820
 6260SOL    HW230414   2.540   0.008   5.868 -0.3303  0.3677 -0.4242
 6261SOL     OW30415   0.203   1.554   6.762 -0.3376  0.0100  0.2429
 6261SOL    HW130416   0.241   1.475   6.801 -0.0478  1.8681  3.6288
 6261SOL    HW230417   0.157   1.522   6.684 -0.1572 -2.2917  1.0780
 6262SOL     OW30418   0.716   2.411   4.560  0.1485  0.2732 -0.0588
 6262SOL    HW130419   0.624   2.428   4.576  0.5548  1.5291  0.8935
 6262SOL    HW230420   0.720   2.318   4.581  0.9493  0.4657  0.6312
 6263SOL     OW30421   3.300   2.952   8.702 -0.1379  0.8174  0.1455
 6263SOL    HW130422   3.361   2.917   8.636  1.8462  0.0340  2.3941
 6263SOL    HW230423   3.223   2.985   8.657  0.1174  3.2047  1.4548
 6264SOL     OW30424   3.646   2.231   9.139  0.1559  0.1336  0.2369
 6264SOL    HW130425   3.561   2.219   9.097 -0.6718  0.4803  1.8072
 6264SOL    HW230426   3.644   2.325   9.120  1.6453 -0.3153 -2.2029
 6265SOL     OW30427   2.841   2.413   5.219  0.2091  0.0480 -0.1224
 6265SOL    HW130428   2.768   2.378   5.167  0.3721  0.5403 -0.6801
 6265SOL    HW230429   2.884   2.476   5.162 -1.3774  1.0995 -0.1695
 6266SOL     OW30430   4.101   3.992   8.409  0.0631 -0.0520 -0.5229
 6266SOL    HW130431   4.064   4.080   8.418 -0.7651 -0.3943 -0.5722
 6266SOL    HW230432   4.060   3.971   8.326  0.2063  1.9770 -1.0971
 6267SOL     OW30433   2.028   1.640   6.824  0.2161  0.0084  0.0918
 6267SOL    HW130434   2.037   1.654   6.730 -0.2706 -0.8293 -0.0773
 6267SOL    HW230435   1.965   1.707   6.850 -1.6617 -1.4647 -0.6598
 6268SOL     OW30436   3.893   1.248  17.126 -0.0770 -0.3223  0.2887
 6268SOL    HW130437   3.958   1.178  17.110 -1.0703 -0.6921 -2.1275
 6268SOL    HW230438   3.951   1.323  17.134 -0.2633  0.0750 -2.0116
 6269SOL     OW30439   3.207   3.161   8.538  0.4495  0.5456 -0.1396
 6269SOL    HW130440   3.245   3.178   8.452 -0.9087 -0.3754 -0.9140
 6269SOL    HW230441   3.267   3.203   8.599  2.9546 -0.8743 -1.6163
 6270SOL     OW30442   2.720   0.874  15.288 -0.6350 -0.2096  0.7293
 6270SOL    HW130443   2.701   0.967  15.290 -0.2512 -0.1476  1.7984
 6270SOL    HW230444   2.631   0.843  15.267 -0.8127  0.0419  1.1001
 6271SOL     OW30445   2.146   2.674   7.313 -0.2096 -0.4186  0.5571
 6271SOL    HW130446   2.068   2.630   7.280 -0.7762  0.7992  0.2805
 6271SOL    HW230447   2.171   2.726   7.236  0.2566  0.6413  1.4226
 6272SOL     OW30448   2.383   1.353   1.259 -0.2125 -0.3763 -0.3537
 6272SOL    HW130449   2.363   1.341   1.352 -1.0266 -1.4205 -0.6701
 6272SOL    HW230450   2.384   1.448   1.243 -0.8837  0.1203  2.5903
 6273SOL     OW30451   2.702   3.430   8.635  0.3155  0.3349 -0.4076
 6273SOL    HW130452   2.616   3.427   8.679 -0.0496 -1.7646 -1.2728
 6273SOL    HW230453   2.753   3.504   8.669  0.1424  0.7293 -1.0117
 6274SOL     OW30454   2.860   0.374   3.627 -0.2660 -0.1755  0.1807
 6274SOL    HW130455   2.931   0.386   3.564 -0.4858  1.9120  0.3119
 6274SOL    HW230456   2.788   0.401   3.571  0.9094  1.8547 -0.3562
 6275SOL     OW30457   0.742   2.844   1.525  0.3107 -0.2156  0.6658
 6275SOL    HW130458   0.766   2.929   1.488  2.6968 -1.2445 -0.1440
 6275SOL    HW230459   0.739   2.871   1.617 -0.7234 -0.5325  0.7260
 6276SOL     OW30460   4.588   1.348  15.050  0.2350 -0.1584  0.5691
 6276SOL    HW130461   4.573   1.410  15.121  1.8595  1.2807 -0.3364
 6276SOL    HW230462   4.677   1.368  15.020 -0.0701  2.1282  1.2015
 6277SOL     OW30463   0.178   0.907   2.685 -0.1329 -0.0401 -0.0690
 6277SOL    HW130464   0.088   0.937   2.675  0.4019  1.7132  0.3353
 6277SOL    HW230465   0.177   0.842   2.615  3.2651 -0.4955  0.2717
 6278SOL     OW30466   1.666   2.272   7.358  0.1867 -0.0820 -1.0035
 6278SOL    HW130467   1.725   2.289   7.432  1.5174 -4.0073 -1.1827
 6278SOL    HW230468   1.589   2.325   7.378  1.4739  1.0651  0.9340
 6279SOL     OW30469   0.370   3.995  15.174  0.0798 -0.1151 -0.0113
 6279SOL    HW130470   0.445   3.970  15.228 -0.8133  2.6797  2.5151
 6279SOL    HW230471   0.302   3.963  15.233  0.8638 -1.0812  0.3707
 6280SOL     OW30472   3.633   4.715   5.441  0.4495  0.2795  0.2304
 6280SOL    HW130473   3.697   0.048   5.425  1.1057 -0.0837  1.2626
 6280SOL    HW230474   3.688   4.637   5.435  1.3239  0.8700  0.5757
 6281SOL     OW30475   1.583   2.967   6.175  0.4210  0.3453  0.4468
 6281SOL    HW130476   1.567   3.047   6.225 -2.1395  1.5194 -2.3040
 6281SOL    HW230477   1.565   2.998   6.086 -0.5679 -1.8221 -0.1102
 6282SOL     OW30478   2.400   0.606   6.200 -0.0924  0.0466 -0.1015
 6282SOL    HW130479   2.491   0.594   6.172 -0.7187  1.1436 -2.6246
 6282SOL    HW230480   2.395   0.540   6.269  0.7238 -2.7147 -2.6332
 6283SOL     OW30481   1.236   4.077  13.689 -0.4583  0.0922 -0.4237
 6283SOL    HW130482   1.316   4.060  13.739 -0.1220 -2.1750 -1.7405
 6283SOL    HW230483   1.276   4.090  13.603  0.1748  3.6593  0.4158
 6284SOL     OW30484   2.541   3.270   6.769 -0.4055  0.1913 -0.4983
 6284SOL    HW130485   2.628   3.310   6.775 -0.1067 -0.5055 -0.1398
 6284SOL    HW230486   2.568   3.179   6.775 -0.9444  0.0166 -0.7198
 6285SOL     OW30487   0.392   4.509   9.927 -0.1701  0.0888 -0.1261
 6285SOL    HW130488   0.346   4.569   9.868 -3.5694 -0.8608  1.5389
 6285SOL    HW230489   0.392   4.567  10.003 -0.7711 -0.9163  0.6386
 6286SOL     OW30490   2.607   4.591   9.110 -0.7898 -0.3586  0.3298
 6286SOL    HW130491   2.598   4.635   9.026 -0.1467  0.1810  0.5491
 6286SOL    HW230492   2.697   4.610   9.136 -1.1958 -1.3820  2.5058
 6287SOL     OW30493   2.349   1.257   7.424 -0.3034  0.2640 -0.2502
 6287SOL    HW130494   2.369   1.209   7.344  1.1173 -1.8386  1.3782
 6287SOL    HW230495   2.435   1.296   7.440 -0.2136  0.9833 -2.3980
 6288SOL     OW30496   4.591   4.026   8.008  0.0435 -0.2922  0.3969
 6288SOL    HW130497   4.545   3.975   8.074  0.6877  0.1265  1.1686
 6288SOL    HW230498   4.608   4.113   8.044  0.0684 -0.8072  1.6231
 6289SOL     OW30499   2.436   3.609   6.491  0.0922  0.1618  0.5783
 6289SOL    HW130500   2.506   3.554   6.458 -0.6287  0.6532 -1.7161
 6289SOL    HW230501   2.408   3.567   6.573  0.3055 -0.6815  0.2144
 6290SOL     OW30502   3.683   4.142  12.477  0.8869  0.2439 -0.4609
 6290SOL    HW130503   3.709   4.193  12.554 -0.6113  1.2485 -0.6319
 6290SOL    HW230504   3.604   4.092  12.494  0.5535  1.4095  1.4062
 6291SOL     OW30505   1.359   2.622   1.646  0.4427 -0.0482  0.1398
 6291SOL    HW130506   1.387   2.711   1.670 -0.3539 -0.2678  1.8116
 6291SOL    HW230507   1.280   2.643   1.595  0.6435 -1.1955 -0.6458
 6292SOL     OW30508   0.190   4.025   7.311  0.3112 -0.3232  0.1037
 6292SOL    HW130509   0.249   3.950   7.312  1.5180  0.5821 -1.5841
 6292SOL    HW230510   0.101   3.989   7.308  0.7835 -1.7466  3.2336
 6293SOL     OW30511   0.430   3.467   3.736 -0.2636  0.3887  0.0280
 6293SOL    HW130512   0.516   3.476   3.696  0.8726  2.2557  2.8971
 6293SOL    HW230513   0.419   3.372   3.730 -1.3965  0.4202  1.5759
 6294SOL     OW30514   2.635   1.197   7.392 -0.0192  0.1077 -0.2003
 6294SOL    HW130515   2.723   1.210   7.358 -0.0405  1.7579  0.3715
 6294SOL    HW230516   2.652   1.126   7.453  3.9598  0.8635 -0.4250
 6295SOL     OW30517   3.288   3.234   6.411  0.0003 -0.0947 -0.2109
 6295SOL    HW130518   3.369   3.219   6.361 -0.2697  1.4513 -1.0839
 6295SOL    HW230519   3.258   3.144   6.422 -4.0847  1.3390  0.2980
 6296SOL     OW30520   1.988   2.685   0.917 -0.2501 -0.1407 -0.1813
 6296SOL    HW130521   2.075   2.675   0.878  0.0039  0.3150  0.2579
 6296SOL    HW230522   2.004   2.713   1.008  4.1646 -0.1097 -0.9661
 6297SOL     OW30523   4.056   1.881   7.326 -0.5520  0.6402 -0.1598
 6297SOL    HW130524   4.028   1.799   7.285 -2.4812 -0.0166  2.5182
 6297SOL    HW230525   3.977   1.934   7.315 -0.1976  0.9474 -1.2392
 6298SOL     OW30526   0.393   1.547   5.555  0.6155 -0.2986  0.1706
 6298SOL    HW130527   0.415   1.575   5.466 -0.8921  2.3279  0.6247
 6298SOL    HW230528   0.417   1.627   5.602 -2.3009  0.9023 -0.3766
 6299SOL     OW30529   3.601   1.325  14.958  0.5420  0.0536 -0.0968
 6299SOL    HW130530   3.566   1.374  14.883 -1.8430 -0.0205  0.9979
 6299SOL    HW230531   3.560   1.239  14.954  3.2581 -1.2929  1.0855
 6300SOL     OW30532   0.930   0.211   3.463  0.6283 -0.1550  0.0200
 6300SOL    HW130533   0.902   0.166   3.384  1.1056  0.8756 -0.7356
 6300SOL    HW230534   0.876   0.177   3.534 -0.4814  0.4062 -0.5611
 6301SOL     OW30535   1.205   1.263   9.814  0.2474  0.3090 -0.0174
 6301SOL    HW130536   1.184   1.198   9.880  0.3205  0.0260 -0.2703
 6301SOL    HW230537   1.299   1.264   9.830  0.2298 -1.3033  0.1439
 6302SOL     OW30538   3.872   1.280   4.494 -0.3452 -0.6252 -0.5451
 6302SOL    HW130539   3.859   1.280   4.588 -0.5873 -0.9036 -0.5801
 6302SOL    HW230540   3.938   1.347   4.476 -0.0138 -0.2313  2.1171
 6303SOL     OW30541   3.733   3.113  16.415  0.2562  0.5933 -0.2241
 6303SOL    HW130542   3.824   3.106  16.442  0.4867 -2.3857 -1.7489
 6303SOL    HW230543   3.732   3.175  16.342  0.2110  0.1189 -0.6258
 6304SOL     OW30544   1.390   0.953   7.380  0.4332  0.0309  0.0746
 6304SOL    HW130545   1.320   0.949   7.445  0.9997 -0.7469  0.6402
 6304SOL    HW230546   1.351   1.016   7.319 -0.6525  1.0509  1.8233
 6305SOL     OW30547   1.580   1.495  12.066 -0.3387 -0.0458  0.3278
 6305SOL    HW130548   1.664   1.505  12.022  0.0070  0.6130  1.1244
 6305SOL    HW230549   1.556   1.406  12.041  0.7645  0.3324 -2.0390
 6306SOL     OW30550   3.367   3.067   5.594  0.3117  0.4138 -0.3308
 6306SOL    HW130551   3.351   3.138   5.533  0.1211 -0.2199 -1.0152
 6306SOL    HW230552   3.276   3.039   5.603  0.3424  0.2685 -0.4762
 6307SOL     OW30553   3.464   0.346  13.836  0.0250  0.1159 -0.3371
 6307SOL    HW130554   3.534   0.407  13.815  0.1026  0.0572 -0.2499
 6307SOL    HW230555   3.516   0.270  13.864  0.7651  1.1239  1.0208
 6308SOL     OW30556   2.667   2.781   3.709  0.1998  0.5851  0.3309
 6308SOL    HW130557   2.747   2.771   3.761 -0.3829  0.7006  1.2618
 6308SOL    HW230558   2.659   2.877   3.708 -0.8481  0.5055  0.9843
 6309SOL     OW30559   3.022   2.695  13.485 -0.0432  0.4661 -0.6609
 6309SOL    HW130560   2.932   2.695  13.518  0.4356 -0.4819  0.6285
 6309SOL    HW230561   3.032   2.790  13.479 -1.4373  0.6610  0.0339
 6310SOL     OW30562   4.701   0.808   4.569 -0.3022  0.0425  0.0225
 6310SOL    HW130563   4.685   0.891   4.615 -1.5468  0.1583 -0.6181
 6310SOL    HW230564   4.703   0.844   4.481  2.4476 -0.7470 -0.2325
 6311SOL     OW30565   3.946   4.259   5.081 -0.3437 -0.2911  0.2386
 6311SOL    HW130566   3.882   4.282   5.014  0.0227  4.1616  1.3961
 6311SOL    HW230567   4.017   4.323   5.077 -1.1589  0.6637  0.9948
 6312SOL     OW30568   0.968   1.455   3.274 -0.1845  0.7380  0.4503
 6312SOL    HW130569   0.992   1.367   3.301  0.0297  0.3144 -1.0858
 6312SOL    HW230570   0.880   1.440   3.240 -1.9127  2.4303  4.2521
 6313SOL     OW30571   0.775   3.763   8.714 -0.0303  0.2247  0.1866
 6313SOL    HW130572   0.779   3.678   8.759  0.0193  0.4883  0.6863
 6313SOL    HW230573   0.863   3.790   8.740  0.1489 -0.8582  0.7151
 6314SOL     OW30574   3.294   2.850   4.744  0.8445 -0.0408 -0.0303
 6314SOL    HW130575   3.285   2.883   4.834  0.5183  0.6436 -0.3134
 6314SOL    HW230576   3.203   2.839   4.718  0.9850 -1.1125 -0.0419
 6315SOL     OW30577   3.097   0.869   2.561  0.1087  0.5663  0.9043
 6315SOL    HW130578   3.055   0.949   2.530  0.1406  0.2471  0.0444
 6315SOL    HW230579   3.052   0.855   2.644 -0.9058 -1.7943 -0.0646
 6316SOL     OW30580   1.436   4.323  13.288 -0.0996 -0.4121 -0.4379
 6316SOL    HW130581   1.406   4.330  13.198  1.4674  0.2698 -0.8970
 6316SOL    HW230582   1.429   4.416  13.307 -0.6480 -1.0943  2.7391
 6317SOL     OW30583   4.579   1.342   8.077 -0.0777 -0.3260  0.0119
 6317SOL    HW130584   4.526   1.339   8.157  0.5631  3.8156  0.5921
 6317SOL    HW230585   4.642   1.413   8.091 -0.1994 -0.5345  1.6709
 6318SOL     OW30586   0.865   1.322   2.109 -0.9641 -0.5428 -0.1237
 6318SOL    HW130587   0.858   1.403   2.059 -1.4355  0.2678  1.2686
 6318SOL    HW230588   0.788   1.333   2.165 -1.7484 -1.2605 -1.0481
 6319SOL     OW30589   4.246   4.072  10.829 -0.2901 -0.3089 -0.2617
 6319SOL    HW130590   4.228   4.004  10.894 -0.9138  1.0829  1.0117
 6319SOL    HW230591   4.333   4.102  10.855 -1.0065  0.2580  1.4295
 6320SOL     OW30592   2.422   4.474  13.114  0.0945 -0.4535 -0.0008
 6320SOL    HW130593   2.442   4.405  13.051  1.3397  1.4298 -1.6789
 6320SOL    HW230594   2.373   4.538  13.061 -0.3060  0.0948  1.0295
 6321SOL     OW30595   3.232   1.324   4.575 -0.2534  0.0614  0.9537
 6321SOL    HW130596   3.224   1.419   4.567  2.9056  0.3983  1.4153
 6321SOL    HW230597   3.256   1.310   4.666  0.8085  0.0463  0.6837
 6322SOL     OW30598   4.579   4.526  14.490  0.1738  0.1307 -0.2715
 6322SOL    HW130599   4.625   4.589  14.435 -0.3276 -0.5463 -1.4571
 6322SOL    HW230600   4.637   4.449  14.494 -1.8468 -1.2505  2.8037
 6323SOL     OW30601   1.244   0.803  17.054  0.2484  0.0667 -0.3327
 6323SOL    HW130602   1.196   0.722  17.074 -1.1731  1.3936  1.6885
 6323SOL    HW230603   1.218   0.802  16.962  1.0990  3.2445 -0.5996
 6324SOL     OW30604   2.938   2.190   2.138  0.4152 -0.2279  0.2636
 6324SOL    HW130605   2.878   2.213   2.209  1.5351 -0.6017  1.3108
 6324SOL    HW230606   2.990   2.126   2.186  0.8678  0.6715  0.9588
 6325SOL     OW30607   4.041   4.223   8.653 -0.3326 -0.1011 -0.2586
 6325SOL    HW130608   4.093   4.148   8.682  0.1161 -0.3042 -1.6072
 6325SOL    HW230609   4.021   4.267   8.736 -0.8519 -2.7800  1.0259
 6326SOL     OW30610   2.811   0.587   4.805  0.2479  0.1747 -0.5248
 6326SOL    HW130611   2.717   0.591   4.791  0.2041 -2.9503 -1.2291
 6326SOL    HW230612   2.828   0.503   4.761  1.7524  0.5728 -0.7213
 6327SOL     OW30613   0.782   1.695  15.354 -0.3241  1.0432  0.1172
 6327SOL    HW130614   0.709   1.711  15.295 -1.2514 -2.5166  0.3451
 6327SOL    HW230615   0.777   1.770  15.414 -1.8808  1.3977 -0.4523
 6328SOL     OW30616   1.353   2.331   6.090 -0.4154  0.3209 -0.0537
 6328SOL    HW130617   1.424   2.353   6.030 -0.7986  0.8141 -0.3249
 6328SOL    HW230618   1.321   2.252   6.046  2.2830 -1.2480  0.8358
 6329SOL     OW30619   3.685   0.250   4.772 -0.1897 -0.2523  0.2054
 6329SOL    HW130620   3.647   0.166   4.744 -1.6956  0.2721  0.6785
 6329SOL    HW230621   3.642   0.258   4.857  1.6064 -0.9709  1.1873
 6330SOL     OW30622   0.415   1.958  11.803  0.5136 -0.2305 -0.3052
 6330SOL    HW130623   0.480   1.892  11.824  0.1913  0.3409  2.4359
 6330SOL    HW230624   0.423   2.006  11.885  1.2219 -1.1387  0.1468
 6331SOL     OW30625   1.881   3.946   6.758 -0.5043 -0.8039 -0.0179
 6331SOL    HW130626   1.954   3.947   6.697  0.5684  1.8986  1.3160
 6331SOL    HW230627   1.813   3.899   6.711 -0.4696  1.1637 -2.0363
 6332SOL     OW30628   0.051   2.635  10.840 -0.3389 -0.0811  0.1070
 6332SOL    HW130629   0.012   2.610  10.757 -1.1950 -0.3299  0.5825
 6332SOL    HW230630   4.714   2.681  10.881 -0.8547 -0.8214 -0.0023
 6333SOL     OW30631   3.398   0.465   6.525 -0.0449 -0.3156  0.5235
 6333SOL    HW130632   3.333   0.535   6.516  1.0347  0.5904 -0.2548
 6333SOL    HW230633   3.375   0.432   6.611 -1.0284 -0.5874  0.1547
 6334SOL     OW30634   2.462   1.586   5.529  0.3930  0.1999 -0.2451
 6334SOL    HW130635   2.380   1.568   5.574  1.1590 -0.5025  0.8471
 6334SOL    HW230636   2.500   1.499   5.520  2.4018  1.1288 -0.7938
 6335SOL     OW30637   3.191   0.566   9.500  0.5805 -0.4408  0.1917
 6335SOL    HW130638   3.141   0.619   9.438  0.8957  0.4063  0.6484
 6335SOL    HW230639   3.179   0.610   9.585 -1.6595 -1.9541  0.6489
 6336SOL     OW30640   3.698   4.711   3.893  0.1281 -0.3617  0.5085
 6336SOL    HW130641   3.720   0.049   3.948 -0.7822 -0.3139  0.8001
 6336SOL    HW230642   3.766   4.650   3.921  1.1627  0.5139 -0.0811
 6337SOL     OW30643   2.720   1.930   7.616 -0.1224  0.2960 -0.0349
 6337SOL    HW130644   2.642   1.985   7.625  0.6350  1.0559  1.9290
 6337SOL    HW230645   2.799   1.985   7.622 -1.0177  1.7460 -1.4259
 6338SOL     OW30646   3.289   0.145  14.500 -0.5747  0.5891 -0.5004
 6338SOL    HW130647   3.305   0.051  14.510  1.8238  1.2410  1.9143
 6338SOL    HW230648   3.224   0.155  14.431 -1.1044  0.5075 -0.0092
 6339SOL     OW30649   1.028   4.097   3.102 -0.3416  0.6251  0.3072
 6339SOL    HW130650   0.982   4.097   3.019  0.6596  2.4421 -0.2431
 6339SOL    HW230651   0.956   4.060   3.153 -0.5431 -2.8352 -2.5076
 6340SOL     OW30652   3.081   4.528   8.923  0.1887  0.5498  0.3181
 6340SOL    HW130653   3.002   4.553   8.875 -0.9925 -0.7417  1.6293
 6340SOL    HW230654   3.033   4.519   9.005  0.1016  1.2785  0.3495
 6341SOL     OW30655   3.048   1.528   8.268 -0.0001  0.4902  0.0605
 6341SOL    HW130656   3.124   1.503   8.319 -0.0678 -1.4082 -0.7882
 6341SOL    HW230657   2.987   1.549   8.339  0.4721 -2.8545  1.4586
 6342SOL     OW30658   3.369   2.231   9.057  0.1918  0.3780 -0.0447
 6342SOL    HW130659   3.339   2.159   9.002  1.4991 -1.2179  1.3480
 6342SOL    HW230660   3.285   2.260   9.093 -0.1476 -2.1387  1.1957
 6343SOL     OW30661   1.410   3.438   9.001  0.4028  0.0097  0.4709
 6343SOL    HW130662   1.439   3.436   8.910 -1.0595 -0.4271  0.0237
 6343SOL    HW230663   1.337   3.376   9.002 -1.0657  1.7191 -1.6153
 6344SOL     OW30664   2.973   0.656   2.386 -0.4211 -0.1460  0.0570
 6344SOL    HW130665   3.022   0.726   2.430  1.3979 -1.0349 -0.6152
 6344SOL    HW230666   2.892   0.707   2.378 -1.0331 -0.9245  1.1968
 6345SOL     OW30667   1.481   4.193  16.581 -0.1410 -0.3465  0.5238
 6345SOL    HW130668   1.516   4.249  16.650  0.7633  0.1371 -0.3337
 6345SOL    HW230669   1.543   4.120  16.588  0.4913 -0.2052 -3.4887
 6346SOL     OW30670   3.812   0.940  11.704 -0.1713 -0.0336  0.2465
 6346SOL    HW130671   3.891   0.902  11.744  1.7968  3.9222  0.1371
 6346SOL    HW230672   3.826   0.909  11.615  2.3805 -1.1425  1.0090
 6347SOL     OW30673   3.489   4.337  17.429  0.2202 -0.2957 -0.0543
 6347SOL    HW130674   3.580   4.324  17.405  0.4588 -1.3430  1.3723
 6347SOL    HW230675   3.455   4.368  17.345 -0.4236  2.0985  1.0844
 6348SOL     OW30676   1.060   3.156   0.158 -0.0565 -0.5967 -0.2840
 6348SOL    HW130677   1.109   3.219   0.212 -0.3461  0.9814 -1.8709
 6348SOL    HW230678   1.134   3.096   0.143  0.4413  0.7025 -3.1209
 6349SOL     OW30679   2.800   3.133   8.852  0.5906 -0.0494  0.2367
 6349SOL    HW130680   2.866   3.089   8.799  0.4947  0.9156 -0.6733
 6349SOL    HW230681   2.717   3.123   8.806 -0.3774  0.1665  1.9227
 6350SOL     OW30682   3.586   1.163   5.607  0.2585  0.1587  0.4871
 6350SOL    HW130683   3.592   1.106   5.530  2.5962  1.2695 -0.1619
 6350SOL    HW230684   3.630   1.109   5.672 -1.5469  0.5890  2.0663
 6351SOL     OW30685   3.515   3.334   8.089  0.2267  0.0223  0.1303
 6351SOL    HW130686   3.580   3.286   8.140  0.5521 -0.1759 -0.4699
 6351SOL    HW230687   3.477   3.394   8.153 -0.1064 -1.0232  0.8998
 6352SOL     OW30688   0.812   3.465   8.422  0.0986  0.0825  0.3303
 6352SOL    HW130689   0.892   3.504   8.457  0.9337 -0.3182 -1.1372
 6352SOL    HW230690   0.748   3.532   8.447 -0.7060  0.3944 -2.6349
 6353SOL     OW30691   3.689   1.897   7.441  0.2696  0.5958  0.1819
 6353SOL    HW130692   3.624   1.831   7.414  0.9689 -0.3707  0.8658
 6353SOL    HW230693   3.748   1.844   7.494  0.1846  0.2912 -0.0294
 6354SOL     OW30694   3.677   4.614   8.539  0.3134 -0.2055  0.0337
 6354SOL    HW130695   3.657   4.535   8.590  0.3873 -0.2920 -0.0691
 6354SOL    HW230696   3.604   4.665   8.572  1.2314  1.2670 -0.2134
 6355SOL     OW30697   4.061   2.479   5.316  0.3362  0.7424  0.8106
 6355SOL    HW130698   3.989   2.490   5.253  0.0260  1.6399  1.3271
 6355SOL    HW230699   4.124   2.427   5.267 -0.6353 -0.2603  0.6330
 6356SOL     OW30700   0.753   1.931   2.587  0.6036 -0.5438  0.0684
 6356SOL    HW130701   0.804   1.854   2.611 -0.6128 -0.7885  1.9016
 6356SOL    HW230702   0.814   2.000   2.614  0.7817 -1.3891  1.8558
 6357SOL     OW30703   2.201   2.469   2.010  0.1590  0.5463 -0.1526
 6357SOL    HW130704   2.179   2.457   2.102 -2.7350 -1.8242 -1.1555
 6357SOL    HW230705   2.211   2.564   1.999  1.1108  0.0576 -3.7642
 6358SOL     OW30706   2.162   0.601   4.941  0.0608 -0.4653  0.0081
 6358SOL    HW130707   2.149   0.580   4.848  0.4765  1.8739 -0.5633
 6358SOL    HW230708   2.244   0.557   4.965  2.2070  1.8591 -3.0448
 6359SOL     OW30709   0.818   0.377   1.308  0.4789  0.1480  0.5822
 6359SOL    HW130710   0.808   0.329   1.226 -1.7183 -0.1794  1.0205
 6359SOL    HW230711   0.900   0.337   1.335  1.4131 -0.0213 -2.5605
 6360SOL     OW30712   0.540   2.263   8.308 -0.0341 -0.3131 -0.2711
 6360SOL    HW130713   0.563   2.352   8.334 -0.2799 -0.4475  0.3921
 6360SOL    HW230714   0.483   2.283   8.233 -0.3206 -0.5336 -0.1129
 6361SOL     OW30715   1.485   4.376   9.147  0.1705  0.2701 -0.4655
 6361SOL    HW130716   1.488   4.449   9.085  1.9539  1.5357  1.1129
 6361SOL    HW230717   1.416   4.317   9.118  2.4604 -2.7093  0.1419
 6362SOL     OW30718   4.049   2.994   5.764  0.4270 -0.0595 -0.1193
 6362SOL    HW130719   3.984   2.986   5.834 -0.1271  2.1700 -0.3831
 6362SOL    HW230720   4.072   2.903   5.745  0.1583  0.1238 -1.3434
 6363SOL     OW30721   2.467   2.765   2.718 -0.3766 -0.1800  0.6534
 6363SOL    HW130722   2.405   2.699   2.688  0.2960  0.1404 -1.4633
 6363SOL    HW230723   2.431   2.787   2.804  2.9544  0.2797  1.9168
 6364SOL     OW30724   4.211   3.243   7.824  0.4157 -0.2577 -0.8932
 6364SOL    HW130725   4.244   3.156   7.850  2.1548  0.6813  0.0823
 6364SOL    HW230726   4.276   3.278   7.763  0.9091 -0.1466 -0.3071
 6365SOL     OW30727   0.076   0.681   3.310 -0.5108  0.1958  0.4166
 6365SOL    HW130728   0.118   0.595   3.301 -3.4463 -1.2537  0.7279
 6365SOL    HW230729   0.080   0.715   3.221 -0.1460  0.3743  0.5002
 6366SOL     OW30730   2.516   2.173  11.946 -0.7468  0.8064 -0.6945
 6366SOL    HW130731   2.464   2.104  11.989  1.7641 -0.3973  0.3874
 6366SOL    HW230732   2.445   2.226  11.910  0.4147  1.1045 -2.5738
 6367SOL     OW30733   3.801   0.223  17.014  0.1254 -0.4545 -0.8554
 6367SOL    HW130734   3.743   0.176  17.074 -1.2041  1.8827 -0.2998
 6367SOL    HW230735   3.741   0.225  16.940  1.7693 -0.7469 -2.1910
 6368SOL     OW30736   0.798   2.206   4.884  0.4794  0.1848 -0.3343
 6368SOL    HW130737   0.789   2.207   4.980  1.0577 -3.7031 -0.2521
 6368SOL    HW230738   0.864   2.274   4.868 -1.1347  1.3900 -1.8920
 6369SOL     OW30739   1.313   0.581   2.034 -0.1207  0.1730 -0.2347
 6369SOL    HW130740   1.236   0.633   2.056  1.0385  1.1012  1.5849
 6369SOL    HW230741   1.292   0.558   1.943  0.0042 -1.7478  0.2212
 6370SOL     OW30742   1.222   3.267   2.534 -0.2599  0.2558 -0.9669
 6370SOL    HW130743   1.194   3.314   2.613 -0.0937  2.2476 -2.0956
 6370SOL    HW230744   1.223   3.341   2.473 -0.0755 -0.1384 -1.4440
 6371SOL     OW30745   2.844   4.500   9.685 -1.0952  0.3066  0.2826
 6371SOL    HW130746   2.796   4.440   9.743  0.6184 -1.6932 -0.3754
 6371SOL    HW230747   2.890   4.549   9.753  1.9752 -1.1492 -0.7093
 6372SOL     OW30748   3.351   0.400   4.136  0.0060 -0.0440  0.1727
 6372SOL    HW130749   3.295   0.328   4.106 -2.6952  1.2125  2.2609
 6372SOL    HW230750   3.300   0.472   4.098 -0.0384  0.3705  1.0279
 6373SOL     OW30751   2.822   3.305   7.838 -0.0717  0.0237 -0.4289
 6373SOL    HW130752   2.792   3.353   7.760  4.1914  1.6642 -1.0697
 6373SOL    HW230753   2.838   3.386   7.885  0.9988 -0.6783  0.4075
 6374SOL     OW30754   3.688   4.125   9.718  0.0426 -0.1973  0.0203
 6374SOL    HW130755   3.725   4.163   9.798 -0.3306 -2.7983  1.4565
 6374SOL    HW230756   3.595   4.129   9.743  0.0963  2.8425 -0.3318
 6375SOL     OW30757   0.922   1.647   8.634 -0.1017  0.5422 -0.1845
 6375SOL    HW130758   1.012   1.670   8.613  0.5744 -0.8907  1.0568
 6375SOL    HW230759   0.901   1.697   8.713  0.6508  1.1134 -0.3546
 6376SOL     OW30760   4.549   1.678  10.104 -0.1380  0.7449  0.0092
 6376SOL    HW130761   4.498   1.626  10.042  0.6276  1.3074 -1.0898
 6376SOL    HW230762   4.604   1.609  10.141 -0.4893  0.1082 -0.6388
 6377SOL     OW30763   4.029   2.867   3.342  0.1848  0.2492 -0.0968
 6377SOL    HW130764   4.088   2.824   3.404 -0.2512  1.6518  1.2876
 6377SOL    HW230765   3.979   2.935   3.387  1.3456  2.5064 -2.2461
 6378SOL     OW30766   1.121   1.520   4.236 -0.1587 -0.4585  0.2253
 6378SOL    HW130767   1.097   1.444   4.288  0.7432 -0.5791  0.4724
 6378SOL    HW230768   1.039   1.569   4.230 -0.4194 -0.8645  0.4477
 6379SOL     OW30769   3.925   1.643   3.928  0.6766  0.6854  0.5584
 6379SOL    HW130770   3.919   1.548   3.932 -0.3381  0.7257 -0.0311
 6379SOL    HW230771   4.015   1.653   3.898  0.5343  1.0854  0.2682
 6380SOL     OW30772   3.951   0.491   8.071 -0.0223 -0.8364 -0.1932
 6380SOL    HW130773   3.959   0.557   8.002  1.0707  1.4645  2.1135
 6380SOL    HW230774   3.915   0.538   8.146 -1.6903 -0.6287 -1.1227
 6381SOL     OW30775   1.362   3.714   8.786 -0.3049 -0.0906  0.1066
 6381SOL    HW130776   1.442   3.753   8.820 -1.4973  1.8798  0.6624
 6381SOL    HW230777   1.344   3.771   8.711  1.0156  0.7794  0.4500
 6382SOL     OW30778   2.807   3.424   9.626 -0.2863 -0.2152 -0.1418
 6382SOL    HW130779   2.836   3.342   9.667 -1.3616 -0.5717 -0.0846
 6382SOL    HW230780   2.885   3.479   9.629 -1.4737  1.4316  0.6896
 6383SOL     OW30781   0.176   1.638  13.390  0.0102 -1.0882  0.1398
 6383SOL    HW130782   0.145   1.550  13.412 -0.4918 -0.6226  1.3089
 6383SOL    HW230783   0.137   1.639  13.302 -0.6956  0.9755  0.4573
 6384SOL     OW30784   3.659   3.609   0.690  0.2726  0.0971  0.3738
 6384SOL    HW130785   3.570   3.583   0.712 -0.1455  0.5457 -0.7664
 6384SOL    HW230786   3.707   3.527   0.702 -0.5424 -0.1269  2.1292
 6385SOL     OW30787   3.426   2.227   8.258 -0.1858 -0.3106 -0.4965
 6385SOL    HW130788   3.477   2.151   8.288 -0.4136 -1.0483 -1.9469
 6385SOL    HW230789   3.377   2.242   8.339 -0.2997 -0.4679 -0.5360
 6386SOL     OW30790   3.551   3.170  12.083 -0.0255  0.5720 -0.0501
 6386SOL    HW130791   3.468   3.180  12.129  0.4282  0.8546  0.6994
 6386SOL    HW230792   3.554   3.257  12.043  2.0286  0.2915 -0.4991
 6387SOL     OW30793   1.322   2.056   4.091  0.1220  0.1283  0.1250
 6387SOL    HW130794   1.242   2.108   4.084 -0.1099 -0.5389 -2.0691
 6387SOL    HW230795   1.283   1.969   4.085  0.7743 -0.0392 -1.5657
 6388SOL     OW30796   3.911   2.432   7.865  0.7454  0.2039  0.3058
 6388SOL    HW130797   3.847   2.497   7.835  2.3727  2.2901  1.3565
 6388SOL    HW230798   3.892   2.356   7.810  0.9393  0.3807 -0.0055
 6389SOL     OW30799   4.547   4.701   2.193 -0.1242  0.1758 -0.0650
 6389SOL    HW130800   4.616   4.657   2.143  0.3440  0.6478  0.1647
 6389SOL    HW230801   4.538   4.635   2.262 -0.4184 -1.9065 -2.0837
 6390SOL     OW30802   4.142   2.775   7.026 -1.0066  0.0658  0.2636
 6390SOL    HW130803   4.052   2.796   7.003 -0.7347 -0.7353 -1.5387
 6390SOL    HW230804   4.124   2.736   7.111 -1.9376  0.9028  0.4494
 6391SOL     OW30805   3.670   0.321   6.316 -0.1411 -0.0213 -0.2714
 6391SOL    HW130806   3.665   0.295   6.224  2.8706 -1.5391 -0.0039
 6391SOL    HW230807   3.641   0.243   6.364  2.2292 -0.0354  1.0893
 6392SOL     OW30808   1.836   1.428  14.947  0.0691 -1.1520 -0.3905
 6392SOL    HW130809   1.894   1.490  14.905  2.3553 -1.4705  2.3434
 6392SOL    HW230810   1.813   1.456  15.035  0.1651  0.2989 -0.8232
 6393SOL     OW30811   2.054   3.029  12.254  0.7335  0.0578  0.0637
 6393SOL    HW130812   2.102   3.019  12.172 -0.4037 -0.0131 -0.6056
 6393SOL    HW230813   2.116   2.993  12.316  0.5209  0.7661  0.6860
 6394SOL     OW30814   1.357   0.432   8.908 -0.2220 -0.4044 -0.5466
 6394SOL    HW130815   1.349   0.433   8.813  0.7544  0.8812 -0.6204
 6394SOL    HW230816   1.415   0.508   8.919  1.3772 -1.7459  0.2527
 6395SOL     OW30817   1.245   3.277   6.859 -0.3499  0.3771  0.0081
 6395SOL    HW130818   1.325   3.326   6.841  0.6024 -1.2987 -0.3418
 6395SOL    HW230819   1.223   3.245   6.771  2.0806 -0.0440 -0.4393
 6396SOL     OW30820   2.004   4.321   1.809  0.5250  0.4633  0.5903
 6396SOL    HW130821   1.965   4.371   1.737  0.0082  2.4369  2.2489
 6396SOL    HW230822   1.960   4.239   1.784 -1.1995  1.6262 -0.2012
 6397SOL     OW30823   1.534   3.068   0.170 -0.1312 -0.1530 -0.4795
 6397SOL    HW130824   1.605   3.020   0.126  0.7009  0.5575  0.0772
 6397SOL    HW230825   1.566   3.084   0.259  0.2497 -0.7121 -0.5119
 6398SOL     OW30826   1.651   4.480   6.300 -0.4048 -0.0790  0.3635
 6398SOL    HW130827   1.686   4.484   6.210  0.1781 -0.7720  0.5540
 6398SOL    HW230828   1.698   4.402   6.330 -1.6198 -2.1820 -3.2364
 6399SOL     OW30829   3.523   1.142   5.312 -0.2318  0.2548  0.1799
 6399SOL    HW130830   3.483   1.223   5.344 -1.3726 -0.0595 -0.4537
 6399SOL    HW230831   3.543   1.166   5.221  0.1070  0.4023  0.2943
 6400SOL     OW30832   1.737   2.663   5.313  0.5778  0.2977  0.3989
 6400SOL    HW130833   1.657   2.612   5.327  1.1127 -0.4123  0.8526
 6400SOL    HW230834   1.708   2.748   5.345  0.7085  1.0890 -1.5382
 6401SOL     OW30835   2.717   1.696   7.744 -0.3787  0.0737  0.1231
 6401SOL    HW130836   2.746   1.622   7.690 -0.0667 -0.7228  1.3954
 6401SOL    HW230837   2.713   1.770   7.683  0.4114 -0.4335 -0.5387
 6402SOL     OW30838   4.262   4.688   5.861 -0.0561  0.4343  0.0055
 6402SOL    HW130839   4.255   0.043   5.885  1.0191  0.8342 -1.2651
 6402SOL    HW230840   4.326   4.701   5.792 -0.9495 -1.4407 -1.1666
 6403SOL     OW30841   1.623   3.868   6.083 -0.1924 -0.3240  0.1738
 6403SOL    HW130842   1.532   3.852   6.108  0.2152 -3.2527 -0.1703
 6403SOL    HW230843   1.668   3.787   6.110 -0.8278 -0.1717  1.7010
 6404SOL     OW30844   3.540   3.254   6.279 -0.4805 -0.4967  0.7066
 6404SOL    HW130845   3.508   3.290   6.196  2.3384 -0.1472 -0.2045
 6404SOL    HW230846   3.619   3.305   6.294 -0.5773 -0.2263  0.2765
 6405SOL     OW30847   4.506   2.836  13.261  0.2659  0.0161  0.2317
 6405SOL    HW130848   4.501   2.809  13.352  1.4302  0.7449  0.5123
 6405SOL    HW230849   4.443   2.773  13.225  0.2657 -0.2604  0.7276
 6406SOL     OW30850   4.211   0.570   8.725 -0.0632 -0.3220  0.7428
 6406SOL    HW130851   4.301   0.604   8.729  0.0336 -0.6857  1.7555
 6406SOL    HW230852   4.199   0.538   8.636  3.0106 -2.0566  0.9397
 6407SOL     OW30853   0.195   1.003  10.480  0.8877 -0.0152  0.3452
 6407SOL    HW130854   0.202   1.095  10.505 -2.0090  0.8664 -2.1197
 6407SOL    HW230855   0.159   0.966  10.561  1.6773  0.0457  0.7350
 6408SOL     OW30856   1.318   1.754  10.875  0.2232 -0.1190  0.6370
 6408SOL    HW130857   1.281   1.670  10.902  1.3943 -1.4290 -1.8041
 6408SOL    HW230858   1.251   1.809  10.914  1.7936  0.2118  2.8980
 6409SOL     OW30859   3.699   3.205   6.550  0.3921  0.7067 -0.2316
 6409SOL    HW130860   3.612   3.238   6.572 -0.5363 -1.8421 -0.1154
 6409SOL    HW230861   3.683   3.141   6.481  0.0005  1.7034 -1.0673
 6410SOL     OW30862   3.942   4.637   8.486 -0.3489  0.1138 -0.2880
 6410SOL    HW130863   3.927   4.694   8.410 -0.4742 -0.0143 -0.3585
 6410SOL    HW230864   3.856   4.637   8.527 -0.4106 -2.2184 -0.4073
 6411SOL     OW30865   2.754   0.466   9.330 -0.3423 -0.5806 -0.1723
 6411SOL    HW130866   2.748   0.411   9.252 -0.5748 -2.7937  1.4159
 6411SOL    HW230867   2.842   0.494   9.306 -1.2105  2.2060 -0.1664
 6412SOL     OW30868   3.544   1.178  16.834 -0.0088 -0.2701 -0.0280
 6412SOL    HW130869   3.451   1.155  16.833  0.1587 -0.7309 -3.1350
 6412SOL    HW230870   3.553   1.176  16.929 -1.3258  0.0128  0.1102
 6413SOL     OW30871   1.533   2.801   4.599  0.1390 -0.4283  0.4199
 6413SOL    HW130872   1.483   2.882   4.585 -0.0915 -0.5131  0.7474
 6413SOL    HW230873   1.471   2.765   4.662 -2.7491  3.4581 -0.2015
 6414SOL     OW30874   4.711   2.717   2.314  0.0737  0.1607 -0.5047
 6414SOL    HW130875   0.065   2.688   2.323 -0.2243 -0.5158  0.3327
 6414SOL    HW230876   4.668   2.633   2.305 -4.0311  2.1596  0.5011
 6415SOL     OW30877   0.859   0.411   1.846  0.4010  0.5846  0.1822
 6415SOL    HW130878   0.821   0.369   1.769 -2.3245 -0.7691  2.2627
 6415SOL    HW230879   0.861   0.332   1.900  2.5629  0.3143 -0.2912
 6416SOL     OW30880   1.385   2.900   1.659  0.3825 -0.0910  0.1663
 6416SOL    HW130881   1.418   2.891   1.569 -0.1370 -1.3322  0.0948
 6416SOL    HW230882   1.363   2.992   1.646  2.0866  0.1379 -1.2135
 6417SOL     OW30883   0.542   4.086   9.072  0.0333  0.0446  0.1836
 6417SOL    HW130884   0.474   4.099   9.006  1.8936 -1.2902 -2.0190
 6417SOL    HW230885   0.575   3.999   9.052  0.6590  0.7267 -1.7679
 6418SOL     OW30886   0.540   0.315   4.927  0.1876  0.2553 -0.6928
 6418SOL    HW130887   0.461   0.292   4.879 -0.0169 -0.6375  0.0751
 6418SOL    HW230888   0.509   0.331   5.016 -1.3228 -0.5509 -1.0798
 6419SOL     OW30889   0.633   3.672  16.722  1.0672 -0.1801 -0.2835
 6419SOL    HW130890   0.676   3.653  16.805  0.1940 -0.1071  0.1839
 6419SOL    HW230891   0.546   3.633  16.733  2.0436 -2.9641 -2.2211
 6420SOL     OW30892   4.732   3.322   9.317 -0.2875 -0.0662 -0.3391
 6420SOL    HW130893   4.638   3.303   9.323 -0.4771  0.5136 -1.4336
 6420SOL    HW230894   0.007   3.360   9.230  0.4041  0.1597 -0.1383
 6421SOL     OW30895   0.840   1.292   3.972  0.1484 -0.1641 -0.8174
 6421SOL    HW130896   0.774   1.231   3.940  1.1412 -1.5267 -0.2525
 6421SOL    HW230897   0.849   1.261   4.062 -0.9789  2.1004  0.0645
 6422SOL     OW30898   3.402   1.372   5.088 -0.5658 -0.2945  0.6302
 6422SOL    HW130899   3.432   1.427   5.161 -0.6695  1.5576 -0.7325
 6422SOL    HW230900   3.484   1.331   5.059 -1.2653 -0.6273 -0.8690
 6423SOL     OW30901   3.673   1.309   8.468  0.3361 -0.0613 -0.1287
 6423SOL    HW130902   3.701   1.362   8.542  0.1993 -1.7711  1.1664
 6423SOL    HW230903   3.590   1.353   8.451  0.1295  0.1239  1.3056
 6424SOL     OW30904   2.913   3.478   5.295  0.7295  0.0447 -0.6580
 6424SOL    HW130905   2.908   3.383   5.285  1.6576  0.1389 -1.9235
 6424SOL    HW230906   3.000   3.497   5.260  0.8674 -1.8145 -1.3041
 6425SOL     OW30907   1.903   2.087   6.147  0.2628 -0.3273  0.0936
 6425SOL    HW130908   1.903   2.175   6.184 -0.5787  0.4384 -1.7810
 6425SOL    HW230909   1.817   2.077   6.106  0.0506  2.6255 -0.1650
 6426SOL     OW30910   0.287   0.650   0.695 -0.3849 -0.1050  0.9616
 6426SOL    HW130911   0.350   0.628   0.764  1.5134  1.1237 -0.3979
 6426SOL    HW230912   0.211   0.679   0.745  0.1125  3.1619 -0.1617
 6427SOL     OW30913   0.391   3.559  14.800 -0.0183 -0.6284  0.1230
 6427SOL    HW130914   0.484   3.541  14.785  0.5528  1.2876  1.2664
 6427SOL    HW230915   0.347   3.475  14.788  0.3080 -0.7895  0.0475
 6428SOL     OW30916   0.535   3.005  12.874  0.6906 -0.1861  0.3155
 6428SOL    HW130917   0.468   2.988  12.940  0.4504 -2.1822 -0.4435
 6428SOL    HW230918   0.552   2.917  12.841  0.6380 -0.0584 -0.0570
 6429SOL     OW30919   4.391   1.574   2.278  0.3772  0.4539  0.1042
 6429SOL    HW130920   4.388   1.523   2.198  2.2681  0.0634  0.2835
 6429SOL    HW230921   4.483   1.600   2.285  0.2073  1.0803 -0.0045
 6430SOL     OW30922   2.157   0.069   1.813  0.3148 -0.6959  1.1138
 6430SOL    HW130923   2.084   0.013   1.839  0.1215 -0.2691  1.4780
 6430SOL    HW230924   2.156   0.054   1.718  1.0549  2.1240  0.6808
 6431SOL     OW30925   2.760   0.826   2.340  0.1385  0.7713  0.2436
 6431SOL    HW130926   2.735   0.856   2.427  4.9816  1.7033  1.3027
 6431SOL    HW230927   2.669   0.822   2.310  0.9464 -1.4847 -1.9492
 6432SOL     OW30928   4.661   3.407  11.918 -0.8742  0.3985  0.6156
 6432SOL    HW130929   4.605   3.472  11.874  0.3657  1.0615 -0.0037
 6432SOL    HW230930   4.735   3.461  11.945 -0.2089  0.1610 -0.7112
 6433SOL     OW30931   2.375   2.912   9.527  0.1188 -0.4295  0.0477
 6433SOL    HW130932   2.280   2.915   9.518  0.2165  3.0620  0.0352
 6433SOL    HW230933   2.379   2.849   9.598 -0.7502 -0.9257 -0.3352
 6434SOL     OW30934   2.106   1.771  15.531  0.2445  0.1654  0.4409
 6434SOL    HW130935   2.154   1.844  15.491  2.5842 -1.5795  0.0611
 6434SOL    HW230936   2.031   1.813  15.573 -1.2730 -0.7990 -1.3316
 6435SOL     OW30937   4.486   2.098   9.524  0.0218 -0.2410 -0.6019
 6435SOL    HW130938   4.537   2.174   9.494  0.6964 -0.0884  0.9017
 6435SOL    HW230939   4.485   2.036   9.452 -0.5722 -0.5388 -0.3385
 6436SOL     OW30940   2.876   0.669   3.794 -0.2251 -0.1230  0.4156
 6436SOL    HW130941   2.786   0.636   3.788 -0.0849 -0.0875 -1.9699
 6436SOL    HW230942   2.901   0.689   3.704  0.4560  0.1406  0.6640
 6437SOL     OW30943   0.936   0.394  14.884  0.2306 -0.5724 -0.3647
 6437SOL    HW130944   0.970   0.308  14.859 -1.2686 -0.7795 -1.7129
 6437SOL    HW230945   0.842   0.379  14.871  0.0946 -0.1161  0.0884
 6438SOL     OW30946   2.708   2.668   2.451  0.2813  0.1267 -0.6099
 6438SOL    HW130947   2.640   2.625   2.400  0.7926 -1.5098  0.0905
 6438SOL    HW230948   2.669   2.755   2.456 -1.4838 -0.8251  2.0159
 6439SOL     OW30949   2.576   1.408   2.247 -0.4238  0.0856 -0.0498
 6439SOL    HW130950   2.654   1.357   2.225 -0.4937  0.0334 -0.1786
 6439SOL    HW230951   2.534   1.420   2.162 -2.2578 -2.9861  0.4082
 6440SOL     OW30952   1.415   3.992   7.709  0.3374 -0.0479  0.1294
 6440SOL    HW130953   1.389   4.054   7.777 -0.4043  0.9823 -1.0988
 6440SOL    HW230954   1.493   3.958   7.751 -0.2131 -0.5562  0.7444
 6441SOL     OW30955   2.945   0.955   5.600 -0.2956 -0.2590  0.7678
 6441SOL    HW130956   2.860   0.938   5.559 -0.4970  0.0837  1.0422
 6441SOL    HW230957   2.955   1.050   5.600 -1.0381 -0.1838  0.2512
 6442SOL     OW30958   3.480   2.285   4.504  0.0712  0.3995 -0.0255
 6442SOL    HW130959   3.389   2.257   4.507  0.8474 -2.1369 -0.2704
 6442SOL    HW230960   3.484   2.346   4.577  1.4545  0.3818 -0.0826
 6443SOL     OW30961   0.370   3.505   9.087  0.0714 -0.9274 -0.5907
 6443SOL    HW130962   0.359   3.579   9.028  0.9021 -1.3117 -1.2194
 6443SOL    HW230963   0.423   3.434   9.053  0.1847 -1.3667  0.5017
 6444SOL     OW30964   0.103   3.049   2.666  0.5795  0.1814 -0.2219
 6444SOL    HW130965   0.137   2.964   2.692  0.1056 -0.9332 -3.2352
 6444SOL    HW230966   0.086   3.089   2.751  1.4547  0.8526 -0.3567
 6445SOL     OW30967   0.038   1.123  11.970  0.2510  0.2014 -0.7692
 6445SOL    HW130968   0.124   1.098  11.936  0.8400  1.5241 -0.2665
 6445SOL    HW230969   0.046   1.088  12.058 -2.1476  0.6361 -0.3602
 6446SOL     OW30970   3.209   2.300   6.658 -0.2674 -0.1492 -0.1693
 6446SOL    HW130971   3.185   2.257   6.576 -2.0323  0.7783 -0.1378
 6446SOL    HW230972   3.253   2.373   6.614  0.2486  0.8018  1.9470
 6447SOL     OW30973   1.648   0.072   2.234 -0.1863  0.2593 -0.6025
 6447SOL    HW130974   1.593   0.016   2.180  0.1723 -1.3959  0.7611
 6447SOL    HW230975   1.583   0.096   2.300 -1.7161  1.2154 -2.4499
 6448SOL     OW30976   1.381   3.978   1.593 -0.2824 -0.1862 -0.6988
 6448SOL    HW130977   1.344   3.957   1.507 -1.0803 -0.3283 -0.3167
 6448SOL    HW230978   1.311   4.023   1.641 -1.6766 -1.0825 -1.8832
 6449SOL     OW30979   4.553   0.239   7.065 -0.3927 -0.0001 -0.0117
 6449SOL    HW130980   4.559   0.144   7.059 -0.4219  0.0121 -0.2349
 6449SOL    HW230981   4.472   0.264   7.020  0.2198 -0.9329 -1.6353
 6450SOL     OW30982   2.864   1.238  11.097 -0.5728  0.9979 -0.3510
 6450SOL    HW130983   2.840   1.308  11.157 -2.6562 -2.3365  2.7470
 6450SOL    HW230984   2.957   1.231  11.119 -0.3932 -0.0135 -1.4281
 6451SOL     OW30985   4.072   2.216   3.128 -0.3556 -0.0609 -0.0008
 6451SOL    HW130986   4.098   2.125   3.110  1.0913  0.3569 -0.0832
 6451SOL    HW230987   4.007   2.197   3.195 -0.9549 -1.0403 -0.8592
 6452SOL     OW30988   0.913   3.319   0.723  0.3608  0.1761  0.2214
 6452SOL    HW130989   0.954   3.405   0.731  0.2571  0.1305  1.2407
 6452SOL    HW230990   0.978   3.274   0.669  0.1149 -1.7770  1.5313
 6453SOL     OW30991   1.071   0.353   3.199  0.6280 -0.0690  0.1610
 6453SOL    HW130992   1.077   0.267   3.240  2.6795  0.8553  1.7556
 6453SOL    HW230993   1.116   0.403   3.267  1.7756 -1.0209  0.0992
 6454SOL     OW30994   4.383   1.869  17.205  0.0721  0.0634  0.5736
 6454SOL    HW130995   4.304   1.922  17.194  0.8168  0.7734 -1.3644
 6454SOL    HW230996   4.361   1.790  17.156  1.2993  0.1883 -0.1933
 6455SOL     OW30997   2.285   0.570  15.714 -0.7747  0.3128 -0.4692
 6455SOL    HW130998   2.243   0.484  15.710  3.1889 -1.4308 -4.0288
 6455SOL    HW230999   2.364   0.556  15.765 -0.2289  0.6663 -1.2309
 6456SOL     OW31000   0.077   1.007   3.012 -0.4926 -0.1589 -0.6319
 6456SOL    HW131001   0.103   0.915   3.011 -3.4442 -1.0021 -0.5918
 6456SOL    HW231002   0.141   1.020   3.081 -0.4514 -2.6075 -0.2217
 6457SOL     OW31003   0.244   1.426   7.612 -0.6723  0.0063  0.0989
 6457SOL    HW131004   0.293   1.351   7.579 -2.5985 -0.7484 -1.0312
 6457SOL    HW231005   0.210   1.393   7.695 -0.2768  0.5711  0.4874
 6458SOL     OW31006   1.480   1.881   1.160  0.2036  0.0886 -0.3362
 6458SOL    HW131007   1.521   1.795   1.173  0.4181  0.1807 -0.3986
 6458SOL    HW231008   1.396   1.853   1.124 -0.2583 -2.5730  2.7982
 6459SOL     OW31009   0.570   1.702   7.089  0.6868 -0.0201  0.0179
 6459SOL    HW131010   0.571   1.795   7.110  0.6710 -0.5980  2.5289
 6459SOL    HW231011   0.482   1.689   7.124  0.9876  1.3394  1.2412
 6460SOL     OW31012   2.099   2.336  13.154 -0.6393  0.7352  0.1547
 6460SOL    HW131013   2.039   2.309  13.084 -0.9051 -0.0593  0.6862
 6460SOL    HW231014   2.185   2.320  13.115 -0.5140  0.5459  0.5076
 6461SOL     OW31015   0.430   0.982   9.912  0.1930  0.6985 -0.4506
 6461SOL    HW131016   0.408   0.985  10.005 -2.7162 -1.8066 -1.0670
 6461SOL    HW231017   0.458   1.072   9.893  2.3860  0.3803  1.3404
 6462SOL     OW31018   1.061   1.892   7.623  0.1466  0.3899 -0.2976
 6462SOL    HW131019   1.152   1.877   7.598  0.4978 -0.9596  1.7628
 6462SOL    HW231020   1.053   1.984   7.597  0.0255  0.0981 -1.3208
 6463SOL     OW31021   3.591   3.532   1.611  0.4046 -0.1977 -0.0257
 6463SOL    HW131022   3.602   3.559   1.520 -0.5276  2.5737  0.6567
 6463SOL    HW231023   3.668   3.480   1.632  0.4405  1.0307  2.8526
 6464SOL     OW31024   3.122   3.862   3.860 -0.1211 -0.1389 -0.4931
 6464SOL    HW131025   3.174   3.893   3.786 -0.5811  0.8898 -0.3729
 6464SOL    HW231026   3.176   3.792   3.898 -0.8502  1.2500  3.1048
 6465SOL     OW31027   2.175   2.780  16.150 -0.5389 -0.1279  0.0331
 6465SOL    HW131028   2.237   2.742  16.212  0.5085  1.3259 -0.1367
 6465SOL    HW231029   2.232   2.791  16.073  2.5771  0.4396  2.4222
 6466SOL     OW31030   1.336   3.833   4.890  0.2061 -0.2899 -0.4648
 6466SOL    HW131031   1.319   3.760   4.831  1.2994 -0.1982 -0.8878
 6466SOL    HW231032   1.315   3.905   4.831 -1.6232  1.3091  2.1099
 6467SOL     OW31033   1.939   1.810   5.248 -0.0671 -0.1630  0.1874
 6467SOL    HW131034   1.961   1.885   5.302  2.4562  0.3936 -1.6356
 6467SOL    HW231035   1.930   1.869   5.173 -2.5720 -1.2493 -0.3822
 6468SOL     OW31036   2.138   2.342   9.236 -0.3330  0.0200  0.4754
 6468SOL    HW131037   2.189   2.420   9.259  2.3988 -1.5118 -0.3902
 6468SOL    HW231038   2.065   2.392   9.199  1.2645  1.3066 -0.9745
 6469SOL     OW31039   2.814   0.198  14.809  0.2006  1.0666  0.4846
 6469SOL    HW131040   2.880   0.244  14.862  0.3057  1.6978 -0.1933
 6469SOL    HW231041   2.737   0.255  14.819  0.6280  1.9932 -1.7016
 6470SOL     OW31042   0.504   2.500   6.321  0.4888 -0.0824  0.0440
 6470SOL    HW131043   0.442   2.569   6.343  0.6910  0.0419  0.2133
 6470SOL    HW231044   0.541   2.496   6.409  0.3251  1.8961  0.1880
 6471SOL     OW31045   3.297   3.907  12.859  0.3795 -0.6150 -0.0979
 6471SOL    HW131046   3.242   3.982  12.879  0.6364  0.3247 -2.9712
 6471SOL    HW231047   3.234   3.839  12.837 -0.4782 -0.7193  2.6347
 6472SOL     OW31048   3.362   3.552   8.862  0.5840  0.5086 -0.0896
 6472SOL    HW131049   3.435   3.603   8.826  1.2072  0.6747  1.4293
 6472SOL    HW231050   3.380   3.556   8.956  0.2639 -0.7498  0.0259
 6473SOL     OW31051   1.321   4.257  17.507  0.1632 -0.6753 -0.2969
 6473SOL    HW131052   1.231   4.288  17.511  1.0651  1.9868 -0.2949
 6473SOL    HW231053   1.313   4.187  17.572 -0.3108 -0.5542 -0.2277
 6474SOL     OW31054   2.450   1.622   7.592 -0.4108  0.0855  0.3702
 6474SOL    HW131055   2.539   1.609   7.560 -0.5483 -0.5198  0.2451
 6474SOL    HW231056   2.451   1.717   7.609  2.1957  0.4724 -1.8670
 6475SOL     OW31057   0.599   0.846   1.111  0.1866 -0.6575  0.4358
 6475SOL    HW131058   0.597   0.777   1.178  0.5325 -1.1466 -0.0596
 6475SOL    HW231059   0.511   0.880   1.127  0.9151  0.0947  2.9232
 6476SOL     OW31060   2.054   0.009   1.557 -0.1740 -0.1078 -0.0372
 6476SOL    HW131061   2.024   0.099   1.564  0.2461 -0.1718  2.6606
 6476SOL    HW231062   2.131   0.022   1.501 -0.2656 -4.3561 -1.1170
 6477SOL     OW31063   0.746   3.071   6.165 -0.3009  0.4634 -0.3421
 6477SOL    HW131064   0.718   3.161   6.148  0.4689  1.0258  1.3726
 6477SOL    HW231065   0.656   3.038   6.171 -1.5578  3.6442 -1.6320
 6478SOL     OW31066   2.825   1.465  10.717  0.6055 -0.3987 -0.0256
 6478SOL    HW131067   2.761   1.505  10.776 -0.7130 -1.6401 -0.6211
 6478SOL    HW231068   2.879   1.541  10.698 -2.1433  1.3798 -0.7537
 6479SOL     OW31069   2.540   4.318   3.416 -0.2374  0.2343 -1.1497
 6479SOL    HW131070   2.540   4.366   3.334 -3.3744  0.7811 -0.8219
 6479SOL    HW231071   2.455   4.274   3.413 -0.5424  0.8183 -1.0920
 6480SOL     OW31072   1.845   4.185  13.563  0.0029  0.0069  0.1225
 6480SOL    HW131073   1.888   4.134  13.495 -0.4127 -0.5112  0.2458
 6480SOL    HW231074   1.898   4.149  13.634  1.9913  1.2457 -0.7288
 6481SOL     OW31075   2.415   4.140  15.265  0.1649 -0.0255 -0.0995
 6481SOL    HW131076   2.471   4.075  15.222  0.2500 -0.7919  1.1572
 6481SOL    HW231077   2.369   4.084  15.328 -0.3534  0.7122  0.1802
 6482SOL     OW31078   3.972   0.399   2.795  0.0040 -0.0679 -0.1526
 6482SOL    HW131079   4.061   0.418   2.764  0.4404  0.6343  1.5383
 6482SOL    HW231080   3.948   0.320   2.747  1.7180 -0.1226 -0.9266
 6483SOL     OW31081   4.405   2.456   7.823 -0.6292  0.4841 -0.0173
 6483SOL    HW131082   4.329   2.496   7.782 -0.3805  1.6311  0.6336
 6483SOL    HW231083   4.448   2.529   7.868 -0.3028  0.0005  0.4560
 6484SOL     OW31084   1.109   0.137   2.224  0.1343  0.4057 -0.2583
 6484SOL    HW131085   1.083   0.046   2.222  0.6093  0.2787 -0.8200
 6484SOL    HW231086   1.197   0.131   2.260 -0.6026  0.0834  1.4685
 6485SOL     OW31087   2.606   3.644   3.896 -0.3610 -0.0458  0.1285
 6485SOL    HW131088   2.580   3.676   3.982 -0.9367  3.2080 -1.2578
 6485SOL    HW231089   2.586   3.723   3.846 -1.5136  0.9418  2.1268
 6486SOL     OW31090   3.313   3.600   6.841 -0.1082 -0.1682  0.2311
 6486SOL    HW131091   3.282   3.545   6.769  0.8685  0.0223 -0.3389
 6486SOL    HW231092   3.273   3.679   6.806 -3.4968 -1.8733  0.3093
 6487SOL     OW31093   0.499   3.345   0.458 -0.8996 -0.4432 -0.6785
 6487SOL    HW131094   0.498   3.249   0.464 -0.9824 -0.5298 -1.9347
 6487SOL    HW231095   0.595   3.350   0.464 -1.0805  0.7457  1.0060
 6488SOL     OW31096   3.358   4.403   6.601  0.0803 -0.0844 -0.3026
 6488SOL    HW131097   3.351   4.416   6.696  1.6258  0.8833 -0.3192
 6488SOL    HW231098   3.314   4.483   6.574 -2.5693 -1.5539 -0.3436
 6489SOL     OW31099   1.421   0.970  11.209  0.3539  0.4148  0.7286
 6489SOL    HW131100   1.394   0.961  11.118  0.1792  0.0078  0.8169
 6489SOL    HW231101   1.456   0.882  11.224 -1.4832 -0.4970 -0.3670
 6490SOL     OW31102   0.633   2.712  13.036 -0.1239  0.0310  0.0193
 6490SOL    HW131103   0.656   2.620  13.022  0.8363  0.0135  1.6657
 6490SOL    HW231104   0.683   2.729  13.117  2.0863 -1.9788 -0.8958
 6491SOL     OW31105   1.502   3.384  14.272  0.0681  0.3519 -0.1117
 6491SOL    HW131106   1.504   3.469  14.229 -1.2232  0.4850  0.0798
 6491SOL    HW231107   1.477   3.331  14.196 -1.0938 -1.3973  1.4830
 6492SOL     OW31108   4.171   3.652   3.391 -0.4303  0.4609  0.7946
 6492SOL    HW131109   4.079   3.645   3.368 -0.4811  3.0666  0.2419
 6492SOL    HW231110   4.215   3.625   3.310 -1.3018  1.3013  0.0394
 6493SOL     OW31111   3.580   1.913   5.102 -0.0002 -0.3077  0.4037
 6493SOL    HW131112   3.667   1.920   5.063  0.7665 -1.5172  1.9052
 6493SOL    HW231113   3.592   1.920   5.197 -2.1744  0.8251  0.5946
 6494SOL     OW31114   3.127   4.579   2.836 -0.3701  0.0488  0.4333
 6494SOL    HW131115   3.104   4.617   2.751  0.2257 -1.7271 -0.5364
 6494SOL    HW231116   3.112   4.489   2.806 -0.4983 -0.5128  2.1946
 6495SOL     OW31117   2.968   3.899   2.380 -0.0415  0.8462 -0.1588
 6495SOL    HW131118   2.888   3.952   2.375 -0.5701 -0.1454 -2.3348
 6495SOL    HW231119   2.996   3.919   2.290 -1.9004  1.0536 -0.6923
 6496SOL     OW31120   0.347   0.513   6.129 -0.2288 -0.1086 -0.3139
 6496SOL    HW131121   0.253   0.499   6.125 -0.0906 -1.4408  0.9669
 6496SOL    HW231122   0.388   0.437   6.171  0.2280  1.1842  1.6021
 6497SOL     OW31123   2.508   2.819   8.691 -0.3954  0.3087 -0.4713
 6497SOL    HW131124   2.449   2.828   8.616  0.8266  1.4395 -1.3126
 6497SOL    HW231125   2.515   2.725   8.706 -0.8313 -0.1370 -2.9985
 6498SOL     OW31126   0.880   4.697   7.434  0.2252  0.5605 -0.4612
 6498SOL    HW131127   0.809   4.643   7.470  0.3664  0.8565  0.2716
 6498SOL    HW231128   0.847   0.049   7.452 -0.5570  0.4944 -1.5758
 6499SOL     OW31129   2.654   1.770   6.589 -0.3577  0.5807  0.5203
 6499SOL    HW131130   2.744   1.785   6.620 -0.0265  0.0976 -0.2138
 6499SOL    HW231131   2.655   1.676   6.604 -0.2005  0.4620 -0.2413
 6500SOL     OW31132   3.346   0.992   0.405 -0.2505  0.3177 -0.2195
 6500SOL    HW131133   3.268   0.947   0.440 -2.5986  0.3473 -5.3391
 6500SOL    HW231134   3.372   1.048   0.478  1.8753 -0.4179 -0.4240
 6501SOL     OW31135   4.030   0.197  12.255 -0.0566  0.3149 -0.1101
 6501SOL    HW131136   4.088   0.245  12.195  1.0915  0.7467  1.3483
 6501SOL    HW231137   4.083   0.121  12.279  0.5143  1.1776  1.3050
 6502SOL     OW31138   4.153   4.208   3.184  0.2537  0.3562 -0.4771
 6502SOL    HW131139   4.153   4.298   3.217 -0.0270  0.7674 -1.5987
 6502SOL    HW231140   4.133   4.238   3.095 -0.7419  0.2127 -0.3006
 6503SOL     OW31141   2.435   1.046   2.824  0.1020  0.3295  0.0823
 6503SOL    HW131142   2.494   1.073   2.893  0.5544 -1.4146  0.3852
 6503SOL    HW231143   2.461   0.954   2.820  2.1474  0.7986  2.6859
 6504SOL     OW31144   3.554   4.139   4.882  0.6392  0.0736  0.2234
 6504SOL    HW131145   3.566   4.216   4.936 -0.8027  0.9420 -0.6870
 6504SOL    HW231146   3.481   4.093   4.923 -0.6051  0.2116 -1.7906
 6505SOL     OW31147   0.106   0.568   2.838 -0.1371 -0.6164 -0.7912
 6505SOL    HW131148   0.051   0.492   2.820 -0.3940 -0.7185  0.4565
 6505SOL    HW231149   0.191   0.528   2.818  0.4831 -0.3308  1.3095
 6506SOL     OW31150   1.049   1.011   4.130 -0.8150 -0.0056  0.4326
 6506SOL    HW131151   0.965   1.040   4.165 -0.2215 -0.5371  2.3224
 6506SOL    HW231152   1.081   0.973   4.212  0.4253  0.3035  0.0993
 6507SOL     OW31153   1.025   4.649  14.844 -0.4200  0.4459 -0.5128
 6507SOL    HW131154   1.042   4.574  14.901  0.0042  2.4062  1.9359
 6507SOL    HW231155   0.964   4.612  14.779 -1.6359  2.3165 -0.4525
 6508SOL     OW31156   1.731   3.581   0.079  0.0302 -0.0412 -0.3661
 6508SOL    HW131157   1.657   3.539   0.036 -2.2955  3.2896  0.3772
 6508SOL    HW231158   1.705   3.670   0.102  1.1326  0.3537 -0.6773
 6509SOL     OW31159   3.486   0.894   3.353 -0.3313  0.1573 -0.4688
 6509SOL    HW131160   3.473   0.835   3.279 -2.4731  0.1602 -0.0898
 6509SOL    HW231161   3.576   0.871   3.378 -1.1076 -2.1602  0.2655
 6510SOL     OW31162   2.380   0.958   3.423 -0.3497  0.3391 -0.1758
 6510SOL    HW131163   2.397   0.967   3.329  2.4283  2.3929  0.5022
 6510SOL    HW231164   2.368   1.050   3.448  1.2925 -0.0787  2.1549
 6511SOL     OW31165   2.288   2.485   0.163 -0.5659 -0.4319 -0.5008
 6511SOL    HW131166   2.363   2.437   0.199 -0.2593  0.4777  0.0615
 6511SOL    HW231167   2.246   2.522   0.240 -1.5537  1.6238 -2.0210
 6512SOL     OW31168   0.916   2.460   4.741  0.1658  0.0843  0.2048
 6512SOL    HW131169   0.867   2.446   4.660 -0.9248 -0.2193  0.9302
 6512SOL    HW231170   0.845   2.475   4.802 -1.9456 -3.3869 -1.3845
 6513SOL     OW31171   0.540   1.765   1.286 -0.3922 -0.3002  0.0146
 6513SOL    HW131172   0.506   1.678   1.307 -1.6807 -0.5671 -3.2531
 6513SOL    HW231173   0.579   1.792   1.369  0.1706 -0.2003 -0.2865
 6514SOL     OW31174   2.815   1.822   2.759 -0.0352 -0.2975  0.0607
 6514SOL    HW131175   2.833   1.857   2.847 -3.0935 -0.0714  0.5870
 6514SOL    HW231176   2.836   1.896   2.703 -0.2352  1.4594  2.3372
 6515SOL     OW31177   2.693   1.949   0.679  0.2128  0.1864  0.0704
 6515SOL    HW131178   2.674   2.030   0.631  0.1326  0.1206 -0.0080
 6515SOL    HW231179   2.782   1.966   0.711 -0.0081  0.2795  0.6203
 6516SOL     OW31180   0.738   0.615   1.498 -0.1717  0.2257 -0.0013
 6516SOL    HW131181   0.767   0.700   1.533 -2.8937  0.7116  1.0606
 6516SOL    HW231182   0.819   0.564   1.508  1.8619  3.1653 -1.5279
 6517SOL     OW31183   2.741   0.733   7.824 -0.4317 -0.5375  0.6473
 6517SOL    HW131184   2.835   0.716   7.839  0.0149  0.4374 -1.1007
 6517SOL    HW231185   2.728   0.714   7.731  0.0373 -0.9445  0.6607
 6518SOL     OW31186   3.265   3.700  11.214  0.8896 -0.2160 -0.4759
 6518SOL    HW131187   3.326   3.629  11.193  0.8795 -0.6811  1.0587
 6518SOL    HW231188   3.192   3.690  11.153  1.9645 -1.7203 -1.5076
 6519SOL     OW31189   2.211   4.174   8.824 -0.1154  0.2565  0.0620
 6519SOL    HW131190   2.233   4.177   8.917 -1.5061 -1.7710  0.4655
 6519SOL    HW231191   2.130   4.226   8.818 -0.9882 -1.2972 -1.5960
 6520SOL     OW31192   0.364   3.557  13.111 -0.2013  0.6431 -0.1616
 6520SOL    HW131193   0.360   3.470  13.149  2.9900  0.3133 -0.5565
 6520SOL    HW231194   0.454   3.574  13.139  0.4382 -1.5406 -0.9270
 6521SOL     OW31195   3.787   0.196   3.337 -0.3049  0.9217 -0.0294
 6521SOL    HW131196   3.734   0.155   3.405 -0.0192 -2.5447 -1.8903
 6521SOL    HW231197   3.769   0.287   3.360 -1.3722  0.6578  0.1740
 6522SOL     OW31198   4.709   1.264   4.529  0.0604  0.1327 -0.7303
 6522SOL    HW131199   4.675   1.321   4.460 -1.0034 -0.3692 -0.6104
 6522SOL    HW231200   4.627   1.222   4.554 -0.3400 -0.6177 -3.3744
 6523SOL     OW31201   2.992   3.059   4.350 -0.0286 -0.6208  0.0977
 6523SOL    HW131202   2.974   2.969   4.376 -0.4963 -0.9369 -1.3564
 6523SOL    HW231203   3.081   3.055   4.314  0.2816 -1.6298  0.9744
 6524SOL     OW31204   3.797   3.361  16.028  0.3249 -0.6271 -0.1747
 6524SOL    HW131205   3.817   3.347  15.935 -1.0074 -0.1296 -0.5260
 6524SOL    HW231206   3.880   3.333  16.069 -1.1868 -1.0474  2.5994
 6525SOL     OW31207   3.298   0.078  12.784 -0.8495  0.5028 -0.4478
 6525SOL    HW131208   3.269   0.117  12.866 -0.6738  2.3674 -1.2743
 6525SOL    HW231209   3.336   0.157  12.745  4.5681 -1.6832  0.3863
 6526SOL     OW31210   0.935   0.409   7.461  0.2719  0.1734 -0.2682
 6526SOL    HW131211   0.924   0.418   7.366  1.3568  0.0891 -0.4084
 6526SOL    HW231212   0.954   0.498   7.491  1.3398  0.1853 -0.9695
 6527SOL     OW31213   4.234   1.663   5.440  0.5071 -0.4963 -0.0494
 6527SOL    HW131214   4.316   1.705   5.414  0.1544 -0.7308 -1.5504
 6527SOL    HW231215   4.250   1.649   5.533 -0.6497  1.1852  0.3938
 6528SOL     OW31216   2.048   1.793   8.040  0.1602  0.2636  0.0996
 6528SOL    HW131217   2.063   1.782   7.946 -0.8891 -0.7137  0.0426
 6528SOL    HW231218   2.110   1.728   8.071  0.7899  1.3699  1.2023
 6529SOL     OW31219   2.343   4.728  11.932 -0.0464  0.0038  0.3729
 6529SOL    HW131220   2.368   0.051  11.861 -2.5145 -0.7812 -1.1631
 6529SOL    HW231221   2.401   0.016  12.004  1.8874  0.5423 -1.3684
 6530SOL     OW31222   2.723   0.403   4.560  0.0687 -0.0232 -0.3924
 6530SOL    HW131223   2.648   0.419   4.503  0.6112  2.5437 -0.3867
 6530SOL    HW231224   2.742   0.310   4.549  0.6101 -0.1571  1.6424
 6531SOL     OW31225   1.097   3.135   4.948 -0.0205  0.2496 -0.3048
 6531SOL    HW131226   1.034   3.163   5.014  0.5367 -1.3773  0.9315
 6531SOL    HW231227   1.050   3.165   4.871 -0.0174 -0.0850 -0.4387
 6532SOL     OW31228   2.146   1.878   1.076 -0.0755 -0.7452 -0.3647
 6532SOL    HW131229   2.189   1.891   1.160 -0.2352 -0.1130 -0.3823
 6532SOL    HW231230   2.057   1.857   1.104 -1.0544  3.2150 -0.5859
 6533SOL     OW31231   2.422   3.844  16.680 -0.2811 -0.0125  0.0550
 6533SOL    HW131232   2.381   3.911  16.625  0.2811 -0.1923 -0.5921
 6533SOL    HW231233   2.466   3.785  16.619  0.7026 -0.6682  1.3958
 6534SOL     OW31234   0.991   4.701   5.121  0.4847  0.0301 -0.1505
 6534SOL    HW131235   1.046   4.700   5.042 -0.8685 -1.1040 -1.0937
 6534SOL    HW231236   0.941   0.045   5.112 -1.9113 -1.4099  0.2961
 6535SOL     OW31237   0.166   4.425   8.198 -0.4436 -0.5036  0.3272
 6535SOL    HW131238   0.254   4.389   8.191 -0.9129 -1.4994 -0.4759
 6535SOL    HW231239   0.168   4.462   8.110  2.0076 -2.3560 -0.4037
 6536SOL     OW31240   0.807   4.303   8.396 -0.0031 -0.1819  0.0806
 6536SOL    HW131241   0.759   4.249   8.459 -0.3299  0.0746  0.0512
 6536SOL    HW231242   0.862   4.231   8.364 -0.9830 -1.1025  0.4648
 6537SOL     OW31243   0.050   4.431  13.093  0.2372 -0.3875 -0.1673
 6537SOL    HW131244   0.092   4.515  13.076 -0.2976 -0.5361 -2.1311
 6537SOL    HW231245   0.050   4.392  13.006  1.6450 -0.0891 -0.3001
 6538SOL     OW31246   0.719   0.100   5.142  0.2802 -0.2672  0.0773
 6538SOL    HW131247   0.705   0.048   5.062  0.7619 -0.6800  0.2588
 6538SOL    HW231248   0.693   0.037   5.209  0.0161  0.5335  0.7292
 6539SOL     OW31249   0.014   4.018   5.765  0.2480  0.2310  0.0791
 6539SOL    HW131250   0.048   3.932   5.792  0.3424 -0.8024 -3.3687
 6539SOL    HW231251   4.665   4.014   5.807  0.2942  2.6482  0.3622
 6540SOL     OW31252   4.679   3.180   2.893  0.6040 -0.0906 -0.0857
 6540SOL    HW131253   4.706   3.243   2.826 -1.6979 -0.1226 -1.0454
 6540SOL    HW231254   4.584   3.188   2.890  0.5837 -1.2438 -2.6245
 6541SOL     OW31255   2.611   0.554   3.960 -0.0723  0.3955  0.3220
 6541SOL    HW131256   2.627   0.593   3.874 -1.2725 -1.8551 -0.9312
 6541SOL    HW231257   2.699   0.529   3.989  0.3808  2.7914  1.0078
 6542SOL     OW31258   3.758   1.519  10.212  0.1765 -0.2336  0.0453
 6542SOL    HW131259   3.772   1.426  10.195  0.5535  0.2486 -2.3644
 6542SOL    HW231260   3.840   1.564  10.193 -0.5409 -0.0620 -2.6649
 6543SOL     OW31261   3.314   1.422  17.542 -0.2178  0.5249 -0.0354
 6543SOL    HW131262   3.355   1.359  17.483 -1.7096 -0.3916 -0.1117
 6543SOL    HW231263   3.388   1.482  17.542  1.7275 -1.8760  0.3098
 6544SOL     OW31264   3.788   1.123   8.903 -0.4519 -0.4133 -0.1845
 6544SOL    HW131265   3.862   1.133   8.844  0.1663  0.4333  0.7248
 6544SOL    HW231266   3.826   1.080   8.979  0.3106  0.5778 -0.0034
 6545SOL     OW31267   0.478   0.993  12.739  0.3391 -0.2704 -0.8333
 6545SOL    HW131268   0.564   0.988  12.697  0.6792  1.5914 -0.3632
 6545SOL    HW231269   0.474   1.087  12.757  3.6317 -0.3217  0.1569
 6546SOL     OW31270   1.405   2.707  16.928  0.1033  0.5673 -0.4330
 6546SOL    HW131271   1.475   2.769  16.948  0.3112  0.0582  0.4255
 6546SOL    HW231272   1.402   2.730  16.835  1.4325 -0.3172 -0.6903
 6547SOL     OW31273   1.707   2.214  10.091 -0.8594  0.2566  0.5080
 6547SOL    HW131274   1.656   2.133  10.085 -0.6527  0.1237  0.5801
 6547SOL    HW231275   1.728   2.207  10.184 -1.4419 -0.3532  0.5948
 6548SOL     OW31276   4.691   4.593  12.533  0.4298  0.0915 -0.2712
 6548SOL    HW131277   4.688   4.528  12.463 -1.6856 -0.4519  0.3203
 6548SOL    HW231278   4.683   4.676  12.486  0.2528  0.4331  0.3667
 6549SOL     OW31279   2.997   3.201   8.150  0.1445 -0.0436  0.2023
 6549SOL    HW131280   2.971   3.124   8.100 -0.4385  0.1311  0.2405
 6549SOL    HW231281   2.967   3.272   8.093 -0.9451 -0.9561 -0.3600
 6550SOL     OW31282   3.480   3.807  10.650  0.0939  0.0852 -0.0379
 6550SOL    HW131283   3.512   3.897  10.652  1.8950 -0.6048  2.3085
 6550SOL    HW231284   3.537   3.783  10.577  0.2415 -1.9579  0.7561
 6551SOL     OW31285   1.398   3.678   2.711  0.1962 -0.1382  0.7449
 6551SOL    HW131286   1.352   3.762   2.704 -0.0418 -0.4935 -2.2512
 6551SOL    HW231287   1.488   3.702   2.690 -0.7741  1.7741 -1.1401
 6552SOL     OW31288   0.461   2.608  17.054 -0.1844 -0.0990  0.3056
 6552SOL    HW131289   0.535   2.547  17.060  0.1263  0.2349 -0.2182
 6552SOL    HW231290   0.490   2.671  16.988 -4.4678 -1.1703 -2.6042
 6553SOL     OW31291   3.727   0.636   5.806 -0.0191  0.5540 -0.2097
 6553SOL    HW131292   3.738   0.574   5.734 -0.9366  0.4007 -0.2221
 6553SOL    HW231293   3.814   0.675   5.802  1.6994 -2.8389  3.5366
 6554SOL     OW31294   2.222   4.716   4.515 -0.2036 -0.1920  0.2643
 6554SOL    HW131295   2.129   4.726   4.490 -1.1001 -0.0723  3.7092
 6554SOL    HW231296   2.237   4.671   4.432  0.6840  0.4391  0.0874
 6555SOL     OW31297   2.753   1.472  13.515  0.4138  0.4948  0.4512
 6555SOL    HW131298   2.667   1.481  13.473  1.0764 -0.8728 -1.2235
 6555SOL    HW231299   2.746   1.400  13.579 -0.5489 -1.3231 -1.6783
 6556SOL     OW31300   1.049   0.616  10.085  0.3644 -0.3530 -0.4731
 6556SOL    HW131301   1.028   0.523  10.075  2.3206 -0.8219 -0.3836
 6556SOL    HW231302   0.979   0.657  10.035  0.6951  0.3893 -0.3168
 6557SOL     OW31303   3.742   3.938  14.879 -0.0818  0.7400  0.7063
 6557SOL    HW131304   3.685   3.948  14.956 -1.0144  2.4412 -0.2000
 6557SOL    HW231305   3.679   3.916  14.810  0.9327  2.0263 -0.6314
 6558SOL     OW31306   0.191   2.921   9.145 -0.1053  0.0188 -0.0953
 6558SOL    HW131307   0.097   2.911   9.160 -0.0689 -1.4463 -0.8875
 6558SOL    HW231308   0.225   2.938   9.233 -0.3476 -2.4895  0.4665
 6559SOL     OW31309   4.355   1.645  14.282 -0.5759  0.0223  0.2328
 6559SOL    HW131310   4.397   1.720  14.325  0.5532 -1.1745  1.2646
 6559SOL    HW231311   4.334   1.594  14.360 -2.1500 -1.8010 -1.4063
 6560SOL     OW31312   1.968   1.922   4.995  0.2492 -0.5455 -0.3039
 6560SOL    HW131313   2.007   1.956   4.915  1.5076 -1.4654 -0.0733
 6560SOL    HW231314   1.876   1.943   4.976  0.2803 -0.0603  0.0831
 6561SOL     OW31315   4.157   3.601   5.769 -0.2455 -0.3880 -0.2485
 6561SOL    HW131316   4.182   3.595   5.677 -1.7174 -2.1303 -0.5245
 6561SOL    HW231317   4.086   3.539   5.756 -0.9265  0.2707  0.3466
 6562SOL     OW31318   3.627   0.249  16.786  0.3358  0.0552  0.1308
 6562SOL    HW131319   3.586   0.293  16.861 -1.5411  1.8300 -1.9670
 6562SOL    HW231320   3.566   0.177  16.770  0.0995  0.6895 -1.7268
 6563SOL     OW31321   4.446   1.025   0.344 -0.3818  0.2754 -0.3455
 6563SOL    HW131322   4.400   1.105   0.370 -0.8327 -0.0016 -0.2726
 6563SOL    HW231323   4.513   1.039   0.278  0.5540  3.5883  1.3620
 6564SOL     OW31324   3.968   2.655   8.737  0.2090  0.4977 -0.2676
 6564SOL    HW131325   3.968   2.682   8.829 -1.8312 -0.9241  0.1425
 6564SOL    HW231326   4.063   2.652   8.725  0.0457 -1.4479 -1.0185
 6565SOL     OW31327   4.558   0.793   1.074  0.4268  0.6718 -0.4013
 6565SOL    HW131328   4.622   0.863   1.062 -0.1965  1.2845 -0.1465
 6565SOL    HW231329   4.606   0.716   1.044  0.4522  0.1365  1.0192
 6566SOL     OW31330   3.397   2.669   7.126  0.1188  0.1633  0.2897
 6566SOL    HW131331   3.406   2.627   7.211  0.5264  2.6826  1.4840
 6566SOL    HW231332   3.381   2.760   7.150  0.5781  0.6120 -1.0596
 6567SOL     OW31333   3.648   2.612  11.116 -0.5790  0.1858 -0.4228
 6567SOL    HW131334   3.666   2.564  11.034 -0.2563  0.3498 -0.4477
 6567SOL    HW231335   3.722   2.673  11.108  0.8236 -1.1193  2.7148
 6568SOL     OW31336   2.262   3.150   6.653 -0.1736  0.2128  0.1279
 6568SOL    HW131337   2.316   3.170   6.576 -3.2094  1.4353 -1.6937
 6568SOL    HW231338   2.304   3.068   6.678  0.0050 -0.1984 -1.5155
 6569SOL     OW31339   0.888   3.904  13.713 -0.1292  0.3016 -0.1681
 6569SOL    HW131340   0.853   3.818  13.690  1.5287 -0.7213  1.1725
 6569SOL    HW231341   0.869   3.955  13.634 -0.4746 -2.9815 -2.2267
 6570SOL     OW31342   1.136   2.888  15.894  0.2117 -0.6280  0.4080
 6570SOL    HW131343   1.194   2.963  15.907 -0.3842 -0.0338 -0.4113
 6570SOL    HW231344   1.126   2.860  15.985  2.3775  0.5929  1.0084
 6571SOL     OW31345   3.102   0.754   9.316  0.0624 -0.0142  1.0958
 6571SOL    HW131346   3.111   0.850   9.319  0.5563 -0.0329  0.3821
 6571SOL    HW231347   3.187   0.730   9.278 -1.3734 -0.0324 -2.0910
 6572SOL     OW31348   2.623   3.003  14.654 -0.1494  0.4601  0.2442
 6572SOL    HW131349   2.594   2.923  14.697  0.6355 -0.7540 -1.4735
 6572SOL    HW231350   2.701   3.022  14.706  3.3232 -3.1084 -3.6220
 6573SOL     OW31351   0.758   0.120   5.523 -0.2098  0.8770 -0.7001
 6573SOL    HW131352   0.812   0.107   5.445  2.8701 -0.9453  1.7268
 6573SOL    HW231353   0.715   0.204   5.507 -2.3533  0.6363  3.8029
 6574SOL     OW31354   3.587   4.718   6.202 -0.2039  0.1091  0.0747
 6574SOL    HW131355   3.615   4.654   6.136 -0.0149 -0.5581  0.7912
 6574SOL    HW231356   3.565   0.041   6.131 -0.4005 -0.2363 -0.1544
 6575SOL     OW31357   2.511   3.679  15.871 -0.1129 -0.5211  0.7737
 6575SOL    HW131358   2.434   3.707  15.921 -1.1930 -0.4517 -0.9102
 6575SOL    HW231359   2.559   3.613  15.921  1.7057 -0.9427 -1.5489
 6576SOL     OW31360   2.728   1.479  12.001  0.6448 -0.5064 -0.1358
 6576SOL    HW131361   2.725   1.574  11.995 -0.2927 -0.4685  0.8491
 6576SOL    HW231362   2.822   1.472  12.013  0.8535  2.3199 -0.0306
 6577SOL     OW31363   1.183   3.993   8.798  0.2764  0.2638  0.0513
 6577SOL    HW131364   1.273   4.019   8.779  0.6902 -1.5676 -0.5342
 6577SOL    HW231365   1.148   4.064   8.852 -0.6320 -0.4368  0.3844
 6578SOL     OW31366   0.111   3.073   0.349  0.4854 -0.6127 -0.7182
 6578SOL    HW131367   0.167   3.001   0.378  0.6293 -0.4517 -0.5957
 6578SOL    HW231368   0.024   3.038   0.368 -0.2193  1.1736 -0.6937
 6579SOL     OW31369   2.900   1.115   7.302 -0.2651 -0.2858  0.0505
 6579SOL    HW131370   2.922   1.024   7.281  0.6341  0.2629 -1.4341
 6579SOL    HW231371   2.986   1.156   7.310  0.1925 -1.9050  3.2759
 6580SOL     OW31372   4.398   4.222   8.749 -0.0653 -0.5183 -0.7936
 6580SOL    HW131373   4.330   4.156   8.741  0.5065 -1.4066  1.5038
 6580SOL    HW231374   4.463   4.182   8.807 -1.0974 -0.0236  0.6978
 6581SOL     OW31375   0.824   4.715   2.102  0.0991 -0.5478 -0.5194
 6581SOL    HW131376   0.762   4.656   2.060 -0.7219 -1.3387  1.8239
 6581SOL    HW231377   0.885   4.661   2.153  0.1411 -0.2660 -0.2669
 6582SOL     OW31378   0.492   0.438   3.564 -0.0754  0.2418 -0.0893
 6582SOL    HW131379   0.487   0.393   3.479 -1.6368  1.0555 -0.4163
 6582SOL    HW231380   0.519   0.527   3.540 -0.8881  0.3883 -0.4636
 6583SOL     OW31381   2.406   1.282   4.151 -0.0740 -0.0030  0.4436
 6583SOL    HW131382   2.438   1.353   4.096 -0.7708 -0.3252 -0.3746
 6583SOL    HW231383   2.359   1.227   4.088 -1.2524  0.1966  1.1284
 6584SOL     OW31384   0.260   4.728   9.820 -0.1917  0.4491  0.1214
 6584SOL    HW131385   0.237   4.699   9.731 -0.7848 -0.9294  0.7183
 6584SOL    HW231386   0.172   4.726   9.857  0.0160  0.0626  0.5925
 6585SOL     OW31387   0.094   3.803   3.070 -0.0974 -0.1751  0.1592
 6585SOL    HW131388   0.018   3.837   3.119 -0.3843  0.0484 -0.4406
 6585SOL    HW231389   0.077   3.710   3.059 -0.9727 -0.0719  0.6262
 6586SOL     OW31390   2.585   3.294   7.092 -0.0569 -0.4484 -0.7713
 6586SOL    HW131391   2.612   3.373   7.045  1.4140  0.9276  2.3953
 6586SOL    HW231392   2.517   3.260   7.034 -0.7181  0.2663 -0.4195
 6587SOL     OW31393   1.070   1.415   3.559 -0.0807  0.2777 -0.7694
 6587SOL    HW131394   1.101   1.395   3.471  2.1487  1.7205 -0.3209
 6587SOL    HW231395   1.107   1.340   3.604 -0.3902  0.9592  0.6272
 6588SOL     OW31396   3.759   0.590   3.735 -0.2499 -0.4840 -0.4386
 6588SOL    HW131397   3.683   0.562   3.786 -1.7445  3.4386 -0.5670
 6588SOL    HW231398   3.758   0.685   3.732  2.0943 -0.4413 -0.2051
 6589SOL     OW31399   0.814   3.694   2.313  0.1243 -0.1192  0.0641
 6589SOL    HW131400   0.856   3.674   2.229  0.8651  0.2431  0.3518
 6589SOL    HW231401   0.727   3.656   2.303 -0.6543  1.6945  0.0474
 6590SOL     OW31402   1.392   1.880   3.066 -0.8430 -0.0543  0.3544
 6590SOL    HW131403   1.377   1.818   2.995 -1.6818  1.8573 -1.1609
 6590SOL    HW231404   1.395   1.822   3.142 -0.3141 -0.4348  0.0407
 6591SOL     OW31405   0.671   4.584   7.552  0.2080 -0.1904 -0.0085
 6591SOL    HW131406   0.712   4.551   7.632  2.3244  0.4934 -0.8048
 6591SOL    HW231407   0.604   4.516   7.541  0.2863  0.1148 -2.4035
 6592SOL     OW31408   0.517   2.727   0.500 -0.2045 -0.2575 -0.3663
 6592SOL    HW131409   0.481   2.666   0.564 -0.4673  0.0823 -0.1889
 6592SOL    HW231410   0.538   2.667   0.428 -0.0820 -0.2517 -0.3349
 6593SOL     OW31411   2.084   3.495  16.755  0.3706  0.4263  0.5195
 6593SOL    HW131412   2.039   3.410  16.757  1.4587 -0.1443  0.6550
 6593SOL    HW231413   2.165   3.474  16.801  0.4242  2.3303  1.2810
 6594SOL     OW31414   0.292   0.608  17.499  0.0862 -0.3248 -0.2198
 6594SOL    HW131415   0.243   0.575  17.574 -0.0976 -0.4197 -0.3822
 6594SOL    HW231416   0.357   0.650  17.556 -0.3465 -1.3619  1.0603
 6595SOL     OW31417   1.598   3.888   3.326 -0.1562  0.3767  0.4116
 6595SOL    HW131418   1.647   3.936   3.260  2.1340 -0.7295  1.3100
 6595SOL    HW231419   1.547   3.962   3.360  0.9615  1.8895 -1.2241
 6596SOL     OW31420   0.832   1.896   6.187  0.2545  0.2974 -0.3710
 6596SOL    HW131421   0.848   1.860   6.274  2.9849  1.5819 -0.3402
 6596SOL    HW231422   0.834   1.987   6.218 -0.5776  0.1400  0.1362
 6597SOL     OW31423   0.640   0.387  13.419 -0.3273  0.6463 -0.6038
 6597SOL    HW131424   0.580   0.382  13.494 -0.7617  1.1018 -0.9248
 6597SOL    HW231425   0.651   0.482  13.412 -1.6623  0.7072 -1.7855
 6598SOL     OW31426   4.637   0.986   6.680 -0.0646  0.0025 -0.5447
 6598SOL    HW131427   4.684   1.065   6.707  0.0129 -0.5198  0.8435
 6598SOL    HW231428   4.671   0.921   6.742 -0.8651 -1.1078 -1.2647
 6599SOL     OW31429   3.334   0.685   7.267  0.2666  0.1415  0.7372
 6599SOL    HW131430   3.279   0.669   7.191  2.4195  2.0402 -1.2220
 6599SOL    HW231431   3.413   0.640   7.235 -0.1811  1.2481 -1.9040
 6600SOL     OW31432   3.752   2.693   6.507 -0.0482  0.3286 -0.1650
 6600SOL    HW131433   3.817   2.636   6.467 -0.1575  0.1106 -0.0330
 6600SOL    HW231434   3.774   2.680   6.599 -0.8922  1.8128  0.2424
 6601SOL     OW31435   2.619   1.645  10.796  0.2873 -0.2961  0.4400
 6601SOL    HW131436   2.563   1.592  10.739 -0.3130 -0.9420  1.6443
 6601SOL    HW231437   2.594   1.727  10.753 -0.6811 -0.2813  1.0340
 6602SOL     OW31438   0.853   3.225   5.061  0.1105 -0.3973  0.2726
 6602SOL    HW131439   0.790   3.164   5.025  0.1798 -0.4427  0.2277
 6602SOL    HW231440   0.819   3.311   5.036  1.6335  0.6045  1.6464
 6603SOL     OW31441   0.724   4.516   4.539 -0.1621  0.4832 -0.0311
 6603SOL    HW131442   0.698   4.598   4.581 -0.0910  0.4547  0.0681
 6603SOL    HW231443   0.734   4.460   4.616 -0.7531  0.9191  0.3711
 6604SOL     OW31444   1.628   1.654  10.862 -0.1397  0.4113 -0.1885
 6604SOL    HW131445   1.595   1.584  10.806  2.0370 -1.7891  1.2976
 6604SOL    HW231446   1.548   1.689  10.900 -0.4779 -1.0952  0.5016
 6605SOL     OW31447   3.408   1.172   7.725  0.2524 -0.4724  0.4198
 6605SOL    HW131448   3.463   1.175   7.647  2.8156 -0.8610  2.2239
 6605SOL    HW231449   3.376   1.261   7.743  0.1072  0.4305 -4.5265
 6606SOL     OW31450   4.349   1.896  12.737 -0.8788 -0.4747  0.7076
 6606SOL    HW131451   4.397   1.933  12.812 -1.7004 -0.1119  1.0480
 6606SOL    HW231452   4.373   1.803  12.733 -1.9638 -0.6324 -1.9922
 6607SOL     OW31453   3.839   2.409   8.695  0.4373 -0.1128 -0.3972
 6607SOL    HW131454   3.794   2.388   8.613 -1.7464 -1.0915  1.0298
 6607SOL    HW231455   3.906   2.473   8.674  0.8802 -0.2946  0.4584
 6608SOL     OW31456   3.536   3.942  15.047  0.6815  0.2387  0.6314
 6608SOL    HW131457   3.493   4.027  15.046 -0.8199 -0.5239  0.8318
 6608SOL    HW231458   3.551   3.934  15.141 -4.1771  0.6924  1.4228
 6609SOL     OW31459   1.519   0.197  10.172 -0.5013 -0.4031  0.0065
 6609SOL    HW131460   1.488   0.257  10.239 -0.2594 -0.8621  0.5342
 6609SOL    HW231461   1.449   0.215  10.110 -0.2734  1.6902  0.3740
 6610SOL     OW31462   4.273   4.464   7.837  0.3639 -0.3015  0.3555
 6610SOL    HW131463   4.258   4.542   7.784  1.0052  0.0511  0.6882
 6610SOL    HW231464   4.202   4.410   7.804  0.5446 -0.5744  0.4123
 6611SOL     OW31465   3.483   4.510   8.177  0.4936 -0.3494 -0.0662
 6611SOL    HW131466   3.437   4.582   8.135 -0.0415 -0.7090 -0.1007
 6611SOL    HW231467   3.544   4.561   8.230 -0.3987 -2.1439  2.7123
 6612SOL     OW31468   1.678   2.377   2.688  0.7425  0.0711  0.7660
 6612SOL    HW131469   1.597   2.413   2.654  0.1891 -0.8936  1.0707
 6612SOL    HW231470   1.663   2.395   2.781 -1.7366  0.3276  0.2979
 6613SOL     OW31471   1.265   1.088   4.587 -0.2185 -0.1476  0.2281
 6613SOL    HW131472   1.324   1.134   4.528 -0.3575 -1.6664 -1.0834
 6613SOL    HW231473   1.270   1.143   4.666 -1.0967  2.3954 -1.4792
 6614SOL     OW31474   2.456   3.326   8.761  0.2666 -0.0340  0.6264
 6614SOL    HW131475   2.496   3.244   8.732  0.9083 -0.0801  1.6413
 6614SOL    HW231476   2.489   3.323   8.850  0.5236 -0.0012  0.5309
 6615SOL     OW31477   0.824   4.004   3.595 -0.2977  0.1715 -0.0551
 6615SOL    HW131478   0.874   3.987   3.674  1.2969 -0.1310 -1.1165
 6615SOL    HW231479   0.805   3.914   3.568 -0.6660  0.3770 -0.4707
 6616SOL     OW31480   2.394   0.243   2.586  0.2693 -0.3922 -0.0133
 6616SOL    HW131481   2.487   0.254   2.566  0.7808 -1.1653  1.9821
 6616SOL    HW231482   2.390   0.244   2.681  0.0256 -0.4545 -0.0229
 6617SOL     OW31483   1.445   1.660   5.801 -0.8200 -0.3763  0.7163
 6617SOL    HW131484   1.417   1.607   5.876  0.9483  1.9270  3.0167
 6617SOL    HW231485   1.360   1.698   5.781 -0.5019  1.6102  3.0743
 6618SOL     OW31486   2.485   3.588   2.478 -0.0832 -0.0823  0.5612
 6618SOL    HW131487   2.550   3.586   2.548  1.2519  0.8347 -0.6455
 6618SOL    HW231488   2.516   3.523   2.415  0.1606  0.6029 -0.0326
 6619SOL     OW31489   0.285   3.988   4.806 -0.3236 -0.2785  0.0776
 6619SOL    HW131490   0.269   4.017   4.896  0.9024 -1.6088  0.7029
 6619SOL    HW231491   0.353   3.921   4.808 -0.8141 -0.7548  0.7062
 6620SOL     OW31492   4.400   0.090   7.304 -0.8009  0.1763 -0.2716
 6620SOL    HW131493   4.324   0.072   7.358  1.3296 -1.8711  2.0232
 6620SOL    HW231494   4.354   0.127   7.228  0.7889 -0.0485 -1.3655
 6621SOL     OW31495   4.316   1.641   5.921 -0.5266  0.1057 -0.0531
 6621SOL    HW131496   4.355   1.554   5.933  0.7457  0.7050  0.2610
 6621SOL    HW231497   4.309   1.665   6.014  0.0146 -0.9979  0.2710
 6622SOL     OW31498   3.186   3.634  17.191  0.2402 -0.2290  0.1678
 6622SOL    HW131499   3.248   3.706  17.175 -0.3280  0.0137 -0.9897
 6622SOL    HW231500   3.106   3.684  17.174 -0.2765 -0.2205  2.6227
 6623SOL     OW31501   3.711   3.570   1.052  0.0907 -0.6347  0.2731
 6623SOL    HW131502   3.750   3.496   1.007 -0.8225 -0.7747 -0.2878
 6623SOL    HW231503   3.701   3.627   0.976 -0.1208 -0.3397  0.5250
 6624SOL     OW31504   1.346   0.157  15.937 -0.0897  0.5454  0.0797
 6624SOL    HW131505   1.348   0.109  16.020 -0.7780 -0.4264 -0.4581
 6624SOL    HW231506   1.367   0.244  15.970 -0.5415  0.7788 -0.2628
 6625SOL     OW31507   1.594   3.120  14.642  0.5091  0.6884  0.1695
 6625SOL    HW131508   1.632   3.133  14.555  0.0349  0.2550 -0.1040
 6625SOL    HW231509   1.648   3.060  14.694 -0.9198 -0.4962  0.3113
 6626SOL     OW31510   1.560   1.973   4.005  0.3981  0.4807 -0.3184
 6626SOL    HW131511   1.498   1.998   4.073 -0.1106 -0.9340 -0.2674
 6626SOL    HW231512   1.613   1.913   4.057  0.6236  2.1611  1.4139
 6627SOL     OW31513   0.335   0.149   5.273 -0.6613  0.1448 -0.5437
 6627SOL    HW131514   0.372   0.063   5.254  0.7474  0.8691 -1.1100
 6627SOL    HW231515   0.415   0.202   5.266 -1.0081  0.5774 -1.2843
 6628SOL     OW31516   3.961   2.923   6.417  0.0657 -0.4505  0.7625
 6628SOL    HW131517   3.900   2.853   6.441 -0.3408  0.3668  2.1062
 6628SOL    HW231518   3.979   2.972   6.497  0.4749 -0.5905  0.7543
 6629SOL     OW31519   3.219   3.428  15.864 -0.7351  0.7601  0.5914
 6629SOL    HW131520   3.294   3.482  15.843  0.0838 -0.5048  0.2847
 6629SOL    HW231521   3.264   3.348  15.891  1.9880  2.4659  0.9871
 6630SOL     OW31522   3.524   2.854   2.362  0.2333 -0.1678  0.2746
 6630SOL    HW131523   3.605   2.890   2.325 -0.3733  0.7122 -0.2113
 6630SOL    HW231524   3.549   2.765   2.388  1.7377 -0.3333 -1.6703
 6631SOL     OW31525   3.359   4.191   0.999 -0.0122  0.3602 -0.2068
 6631SOL    HW131526   3.329   4.262   1.056 -1.5309  0.1478 -0.7246
 6631SOL    HW231527   3.419   4.140   1.053 -2.6096 -2.2777  0.1855
 6632SOL     OW31528   2.637   1.885  10.673  0.3925  0.5594  0.3297
 6632SOL    HW131529   2.718   1.921  10.707 -1.0636  1.7485  2.5507
 6632SOL    HW231530   2.660   1.872  10.581  0.5412  0.5562  0.3684
 6633SOL     OW31531   2.777   0.994   7.935 -0.0776  0.6995 -0.0079
 6633SOL    HW131532   2.866   0.979   7.967 -0.4733  0.5669  1.0279
 6633SOL    HW231533   2.755   0.911   7.891  2.3259  1.1473 -2.0711
 6634SOL     OW31534   0.894   1.801   6.457 -0.5990  0.1492  0.1715
 6634SOL    HW131535   0.966   1.854   6.491 -1.8059  1.0669  1.2712
 6634SOL    HW231536   0.931   1.717   6.486  0.7396  1.2314  1.5779
 6635SOL     OW31537   3.679   2.197   3.193 -0.0968 -0.3980  0.2267
 6635SOL    HW131538   3.633   2.244   3.263  0.8784  0.1050  0.5417
 6635SOL    HW231539   3.637   2.233   3.115 -1.0969  0.8693  1.3472
 6636SOL     OW31540   0.438   3.051   7.130  0.4289  0.0635 -0.4297
 6636SOL    HW131541   0.368   3.050   7.195 -1.9656  3.0707 -2.9107
 6636SOL    HW231542   0.474   3.139   7.144 -0.4260  0.5823 -1.4410
 6637SOL     OW31543   2.146   1.087   6.562  0.2934 -0.6862 -0.2432
 6637SOL    HW131544   2.068   1.133   6.593 -1.1377 -3.2886  0.0873
 6637SOL    HW231545   2.198   1.158   6.525  0.3752  0.6327  2.4716
 6638SOL     OW31546   3.494   4.660   7.911 -0.5954  0.2488  0.2676
 6638SOL    HW131547   3.482   4.734   7.971 -2.3369  1.0486 -1.0657
 6638SOL    HW231548   3.414   4.607   7.921  0.5511 -1.3629  1.0099
 6639SOL     OW31549   0.639   1.888   1.514 -0.5573  0.1683  0.1369
 6639SOL    HW131550   0.672   1.978   1.518 -2.2617  0.8119 -0.4083
 6639SOL    HW231551   0.689   1.855   1.588 -2.1439  0.1010  1.1829
 6640SOL     OW31552   0.872   4.415   6.839 -0.3270  0.4909 -0.2531
 6640SOL    HW131553   0.832   4.356   6.903  0.4758 -0.3427 -0.5237
 6640SOL    HW231554   0.830   4.395   6.755 -1.0672  2.3273 -0.3097
 6641SOL     OW31555   0.956   1.766   1.955 -0.7738  0.0129 -0.6126
 6641SOL    HW131556   1.044   1.801   1.971 -0.9795  0.1029  0.3612
 6641SOL    HW231557   0.909   1.824   2.016  1.0528  1.9371 -1.0375
 6642SOL     OW31558   2.866   1.001   1.570  1.0801 -0.1062 -0.4078
 6642SOL    HW131559   2.853   0.957   1.486  0.2567  0.6382 -0.6585
 6642SOL    HW231560   2.906   0.931   1.622  0.6858  1.8902  2.6188
 6643SOL     OW31561   2.498   4.357  14.825  0.5186  0.6446 -0.0559
 6643SOL    HW131562   2.429   4.341  14.889  0.8391 -0.6698 -0.0449
 6643SOL    HW231563   2.450   4.352  14.742  0.2026  0.2760  0.1511
 6644SOL     OW31564   0.192   0.688  12.285 -0.1648 -0.2539 -0.0467
 6644SOL    HW131565   0.285   0.674  12.304 -0.5213 -0.6740  1.4323
 6644SOL    HW231566   0.172   0.704  12.377 -0.3086 -0.0837 -0.1082
 6645SOL     OW31567   0.855   1.843   6.846  0.1159 -0.3867  0.4103
 6645SOL    HW131568   0.839   1.933   6.874 -2.4622 -0.9479  0.8067
 6645SOL    HW231569   0.945   1.831   6.875  0.5263 -1.0781 -1.1522
 6646SOL     OW31570   0.666   2.912   7.193 -0.6688  0.6733 -0.7904
 6646SOL    HW131571   0.625   2.825   7.190  0.3003  0.1739  0.3919
 6646SOL    HW231572   0.596   2.966   7.157 -1.1268  0.4075 -0.3003
 6647SOL     OW31573   4.731   0.654   3.618 -0.1458  0.4126 -0.5927
 6647SOL    HW131574   4.637   0.643   3.629  0.2654 -0.5182  1.9048
 6647SOL    HW231575   4.733   0.674   3.524 -0.4270 -1.8613 -1.1049
 6648SOL     OW31576   1.004   1.501   1.955 -0.4142  0.0784  0.0338
 6648SOL    HW131577   0.990   1.595   1.946 -0.2109  0.0350 -0.7755
 6648SOL    HW231578   0.996   1.467   1.866 -1.5272  2.5665 -0.8202
 6649SOL     OW31579   4.042   4.387   7.336  0.3606  0.0462 -0.1229
 6649SOL    HW131580   4.016   4.296   7.323 -0.9261  0.1734  1.5341
 6649SOL    HW231581   4.104   4.400   7.264  1.2853 -0.9659  0.4918
 6650SOL     OW31582   3.901   3.888   6.054  0.3016  0.1540  0.4661
 6650SOL    HW131583   3.812   3.916   6.034 -0.0181 -2.2623 -1.3542
 6650SOL    HW231584   3.879   3.798   6.076 -0.2443 -0.3636 -2.2154
 6651SOL     OW31585   0.081   0.157   6.526  0.1977 -0.0637 -0.6619
 6651SOL    HW131586   0.022   0.229   6.549  1.6149  0.9323 -0.1648
 6651SOL    HW231587   0.078   0.164   6.431 -2.1124 -2.6908 -0.8018
 6652SOL     OW31588   3.470   4.036   7.092 -0.5881  1.0012 -0.4110
 6652SOL    HW131589   3.398   3.982   7.125  1.0924 -1.1660 -0.3009
 6652SOL    HW231590   3.490   3.982   7.016 -0.6272 -0.1019  0.3503
 6653SOL     OW31591   2.213   2.049   7.085  0.2165  0.0178 -0.2496
 6653SOL    HW131592   2.191   1.956   7.074 -0.2347  0.1993 -0.8652
 6653SOL    HW231593   2.168   2.065   7.168  1.1841 -0.7640  0.4198
 6654SOL     OW31594   2.821   1.202   6.583 -0.1074 -0.0284 -0.6580
 6654SOL    HW131595   2.781   1.125   6.543  0.8936 -1.2083  0.6108
 6654SOL    HW231596   2.912   1.195   6.554  0.4446  0.0894  1.0445
 6655SOL     OW31597   2.721   1.193  10.174 -0.0558  0.3410  0.0627
 6655SOL    HW131598   2.748   1.274  10.132  0.0698  0.1930 -0.1435
 6655SOL    HW231599   2.799   1.178  10.227 -0.3660 -0.0225  0.4188
 6656SOL     OW31600   4.190   2.781   5.102  0.1700  0.3847  0.3824
 6656SOL    HW131601   4.231   2.810   5.184  1.0622 -0.6764  0.3148
 6656SOL    HW231602   4.250   2.812   5.034  0.8426 -3.1340 -0.6277
 6657SOL     OW31603   3.229   4.506   3.165 -0.6824  0.7997 -0.5582
 6657SOL    HW131604   3.196   4.565   3.232  1.6588  1.9599 -0.4273
 6657SOL    HW231605   3.166   4.434   3.167 -1.3287  1.3843  0.1715
 6658SOL     OW31606   2.214   4.704  10.584 -0.1490 -0.1092 -1.0845
 6658SOL    HW131607   2.282   0.018  10.628  0.3866 -1.2297 -0.6178
 6658SOL    HW231608   2.140   4.715  10.644  1.8158 -0.5098  1.4314
 6659SOL     OW31609   0.752   2.224   2.074 -0.3319  0.3924  0.2715
 6659SOL    HW131610   0.787   2.311   2.054  1.1534 -0.1794  0.3436
 6659SOL    HW231611   0.830   2.189   2.117 -0.8343 -0.3944  0.5607
 6660SOL     OW31612   4.636   0.433   5.266  0.7770 -0.4607  0.2653
 6660SOL    HW131613   4.695   0.441   5.192 -0.1980 -0.2797 -0.4903
 6660SOL    HW231614   4.632   0.519   5.307 -3.6855 -0.7723  0.5643
 6661SOL     OW31615   1.169   1.022  10.858 -0.1662 -0.2801  0.3262
 6661SOL    HW131616   1.260   1.010  10.886 -0.4647 -2.1692  0.4823
 6661SOL    HW231617   1.182   0.978  10.773 -0.2494  0.7114 -0.1960
 6662SOL     OW31618   1.943   4.114   6.143 -0.5266  0.1673  0.5408
 6662SOL    HW131619   2.006   4.182   6.119 -1.3563 -0.2838 -2.8522
 6662SOL    HW231620   1.987   4.042   6.098  0.7790  3.0188 -2.7317
 6663SOL     OW31621   2.007   2.730  12.135  0.0223  0.0126  0.0073
 6663SOL    HW131622   1.961   2.684  12.066  1.4955 -0.0769 -0.9064
 6663SOL    HW231623   2.093   2.693  12.118 -0.9181 -1.0921 -2.2687
 6664SOL     OW31624   2.788   1.533  17.557 -0.0137  0.6141 -0.6962
 6664SOL    HW131625   2.743   1.526  17.640 -0.8328 -1.0609 -1.2721
 6664SOL    HW231626   2.873   1.505  17.592 -0.0915 -1.2469 -1.9660
 6665SOL     OW31627   2.897   0.085   2.688  0.3809 -1.0635 -0.3051
 6665SOL    HW131628   2.949   0.030   2.630  1.3997  1.6554 -1.9939
 6665SOL    HW231629   2.950   0.163   2.704 -1.0445 -0.6293  2.2413
 6666SOL     OW31630   4.689   0.231  14.296  0.0743  0.4818  0.1528
 6666SOL    HW131631   4.733   0.316  14.302 -3.0567  2.1631 -0.2310
 6666SOL    HW231632   4.602   0.266  14.274 -0.5917  1.5745  4.4065
 6667SOL     OW31633   1.635   1.016   6.476 -0.2145  0.2679 -0.3396
 6667SOL    HW131634   1.550   0.977   6.456  0.1647 -0.4173 -0.6039
 6667SOL    HW231635   1.696   0.949   6.508 -0.6270 -0.1763 -0.4777
 6668SOL     OW31636   0.258   3.675   2.271  0.3024  0.1124  0.5637
 6668SOL    HW131637   0.189   3.741   2.263  1.6942  1.4809 -0.2658
 6668SOL    HW231638   0.276   3.644   2.183  0.9344  0.1190  0.6832
 6669SOL     OW31639   0.322   3.834   4.493  0.0869  0.3244  0.0574
 6669SOL    HW131640   0.306   3.928   4.502 -1.2480  0.1454 -0.4148
 6669SOL    HW231641   0.343   3.826   4.400 -0.0076 -2.5031  0.2871
 6670SOL     OW31642   2.122   0.208   1.138  0.0395 -0.2387  0.1784
 6670SOL    HW131643   2.035   0.168   1.148 -1.4084  2.1651 -2.5978
 6670SOL    HW231644   2.109   0.275   1.205 -2.5149  0.4989 -1.0216
 6671SOL     OW31645   4.171   0.221   3.230 -0.2673  0.3606 -0.5724
 6671SOL    HW131646   4.112   0.251   3.300 -0.5319 -3.7116  0.9811
 6671SOL    HW231647   4.206   0.304   3.199  0.9320  0.1943  0.3645
 6672SOL     OW31648   4.213   2.763   9.664  0.3456  0.0536 -0.0318
 6672SOL    HW131649   4.225   2.712   9.744 -1.8029  0.5915  0.6405
 6672SOL    HW231650   4.133   2.815   9.676  0.8400  1.0418 -1.0761
 6673SOL     OW31651   4.685   0.192  10.416 -0.0170 -0.8116  0.1237
 6673SOL    HW131652   4.636   0.227  10.490  1.0882 -1.6405  1.2368
 6673SOL    HW231653   0.035   0.192  10.455  0.0949  2.4571 -0.1727
 6674SOL     OW31654   0.807   3.076   1.165  0.0868  0.4327 -0.2472
 6674SOL    HW131655   0.814   3.086   1.259  1.3439  0.8473 -0.3819
 6674SOL    HW231656   0.717   3.048   1.153  0.3164 -0.6076  0.3708
 6675SOL     OW31657   3.725   1.675  16.826 -0.4290 -0.4096 -0.6287
 6675SOL    HW131658   3.763   1.617  16.761  1.5273 -1.3854  1.3801
 6675SOL    HW231659   3.684   1.743  16.772 -0.7277 -0.4374 -0.4408
 6676SOL     OW31660   4.181   0.092   3.803 -0.1096 -0.4381  0.1530
 6676SOL    HW131661   4.224   0.136   3.876 -0.6701  1.2537 -0.5280
 6676SOL    HW231662   4.140   0.169   3.763 -1.7939 -1.0007  0.8204
 6677SOL     OW31663   0.955   4.056  10.945  0.6509  0.6189  0.1314
 6677SOL    HW131664   0.873   4.105  10.945  0.5101  0.3850  0.0889
 6677SOL    HW231665   0.925   3.979  10.993  4.6378  1.1197  3.4059
 6678SOL     OW31666   0.742   4.148   1.486  0.1853  0.1758  0.4632
 6678SOL    HW131667   0.820   4.197   1.511 -1.0151  2.6266 -0.5691
 6678SOL    HW231668   0.743   4.070   1.540 -4.6625 -0.1474  0.0933
 6679SOL     OW31669   3.994   1.544   7.362  0.1698  0.0045  0.1539
 6679SOL    HW131670   4.087   1.536   7.339  0.2289  0.5075  0.2287
 6679SOL    HW231671   3.995   1.604   7.436  0.4132  0.0002  0.1523
 6680SOL     OW31672   3.959   4.594   6.780  0.0214 -0.4605  0.2248
 6680SOL    HW131673   4.029   4.577   6.843  0.5018  1.6873  0.2504
 6680SOL    HW231674   3.905   4.650   6.836  1.8935  1.9441 -0.3883
 6681SOL     OW31675   4.545   0.555   8.633  0.6738 -0.2264  0.1860
 6681SOL    HW131676   4.546   0.624   8.700  0.4785 -0.2598  0.2240
 6681SOL    HW231677   4.637   0.530   8.638  0.7036  0.0506  1.1321
 6682SOL     OW31678   1.832   0.125  11.422 -0.1652 -0.2729  0.4666
 6682SOL    HW131679   1.839   0.105  11.515  0.4634 -2.9270 -0.1647
 6682SOL    HW231680   1.801   0.216  11.429  1.5967  0.3636  0.0878
 6683SOL     OW31681   4.418   1.109   1.901  0.4608  0.3700 -0.1942
 6683SOL    HW131682   4.456   1.166   1.834  0.8695  0.4611  0.1136
 6683SOL    HW231683   4.398   1.175   1.968 -0.4274  1.0959 -1.1656
 6684SOL     OW31684   2.749   1.427  10.016 -0.0122 -0.2724 -0.3328
 6684SOL    HW131685   2.770   1.378   9.936  0.7400  1.8797 -1.4265
 6684SOL    HW231686   2.653   1.420  10.014 -0.1347  1.0579  0.9226
 6685SOL     OW31687   1.025   2.635   2.616  0.5541 -0.0759  0.3979
 6685SOL    HW131688   0.996   2.673   2.699 -0.1862  2.0805 -0.8619
 6685SOL    HW231689   0.990   2.547   2.634  0.5097 -0.5151 -1.7533
 6686SOL     OW31690   2.643   1.282   0.594  0.2456 -0.5849 -0.5408
 6686SOL    HW131691   2.549   1.298   0.599  0.3795  0.3826 -1.1216
 6686SOL    HW231692   2.666   1.279   0.501 -2.3353 -0.6641 -1.1673
 6687SOL     OW31693   4.609   3.048  10.468  0.2715 -0.1648 -0.2975
 6687SOL    HW131694   4.576   3.070  10.556  0.8183 -2.2318  0.4250
 6687SOL    HW231695   4.659   2.968  10.486  1.1535  0.6037  0.6860
 6688SOL     OW31696   4.598   0.421  13.446  0.2029 -0.6937 -0.2622
 6688SOL    HW131697   4.664   0.351  13.447  2.6702  1.6249 -0.8075
 6688SOL    HW231698   4.650   0.501  13.443  0.1520 -0.6411  0.2448
 6689SOL     OW31699   4.205   1.130  15.819 -0.0774  0.1112 -0.1460
 6689SOL    HW131700   4.243   1.146  15.732  0.7546  1.5147  0.4903
 6689SOL    HW231701   4.152   1.051  15.804 -1.1189 -0.0884  4.6493
 6690SOL     OW31702   4.708   3.628   8.716 -0.6329 -0.3944 -0.2476
 6690SOL    HW131703   4.613   3.630   8.721 -0.6757 -2.2336 -0.3958
 6690SOL    HW231704   4.734   3.635   8.624  0.3344  2.1841  0.2051
 6691SOL     OW31705   0.160   0.331   5.594  0.1986  0.4922  0.3021
 6691SOL    HW131706   0.137   0.247   5.553  1.3250  0.9152 -1.1631
 6691SOL    HW231707   0.238   0.305   5.644 -0.3671  0.5645  1.2282
 6692SOL     OW31708   0.724   1.982   4.190  0.5123 -0.3139 -0.0049
 6692SOL    HW131709   0.658   2.045   4.160 -2.1304 -0.7200  4.8768
 6692SOL    HW231710   0.707   1.907   4.133 -1.5963  1.2678 -1.4496
 6693SOL     OW31711   1.182   2.761  13.471  0.1630 -0.8007 -0.0171
 6693SOL    HW131712   1.262   2.710  13.457  1.3634  1.1277 -0.1666
 6693SOL    HW231713   1.123   2.703  13.423 -2.1275  1.8492 -0.3783
 6694SOL     OW31714   0.720   3.132   7.419  0.2014  0.3810 -0.6584
 6694SOL    HW131715   0.694   3.212   7.373 -0.3998  0.5456 -0.0403
 6694SOL    HW231716   0.703   3.062   7.355 -0.2947  2.0450 -2.3442
 6695SOL     OW31717   1.629   2.099   1.827 -0.7747 -0.2445 -0.1540
 6695SOL    HW131718   1.609   2.122   1.736  0.8006  2.2466  0.1095
 6695SOL    HW231719   1.708   2.049   1.807  0.5515  1.8736 -0.2068
 6696SOL     OW31720   3.363   2.103  14.458 -0.2480 -0.5248 -0.2070
 6696SOL    HW131721   3.419   2.180  14.454  1.3119 -1.7602 -2.1520
 6696SOL    HW231722   3.280   2.142  14.433  0.5503  1.7726  0.7589
 6697SOL     OW31723   2.770   4.254   3.066 -0.1218  0.4699 -0.2499
 6697SOL    HW131724   2.730   4.168   3.060 -2.5389  1.4920  1.1787
 6697SOL    HW231725   2.774   4.293   2.979  1.2655  0.7933 -0.0409
 6698SOL     OW31726   3.488   1.926  14.753 -0.0989 -0.2168 -0.0587
 6698SOL    HW131727   3.582   1.905  14.758 -0.1739 -0.6821 -0.6652
 6698SOL    HW231728   3.459   1.941  14.843  0.6902 -0.2695  0.2112
 6699SOL     OW31729   1.055   3.285  14.549  0.2926  0.3181 -0.1052
 6699SOL    HW131730   1.149   3.296  14.539  0.3557  0.9663  1.2402
 6699SOL    HW231731   1.035   3.240  14.467 -2.1631 -0.0513  0.6992
 6700SOL     OW31732   2.372   2.850   5.310  0.2734 -0.2839 -0.2652
 6700SOL    HW131733   2.423   2.917   5.354 -0.4342  0.6487 -0.8751
 6700SOL    HW231734   2.367   2.788   5.383  1.1377  1.3663  1.1771
 6701SOL     OW31735   0.903   3.507   9.791  0.1078  0.2499  0.5592
 6701SOL    HW131736   0.958   3.437   9.826  1.2819  0.9847  0.1979
 6701SOL    HW231737   0.927   3.506   9.698 -1.7610 -0.6033  0.1011
 6702SOL     OW31738   4.698   1.341   9.026  0.1027 -0.1064 -0.4691
 6702SOL    HW131739   4.710   1.248   9.006  0.5936  0.1081 -1.1727
 6702SOL    HW231740   0.050   1.376   9.022 -0.3115  0.9954  0.1068
 6703SOL     OW31741   0.365   4.458  15.010 -0.4400 -0.0068  0.0735
 6703SOL    HW131742   0.295   4.488  14.952 -0.2288 -1.1288 -0.7574
 6703SOL    HW231743   0.326   4.374  15.036 -1.4127  0.2321 -0.6184
 6704SOL     OW31744   2.922   1.929   0.910  0.2278 -0.1747  0.4273
 6704SOL    HW131745   3.003   1.927   0.960  1.7853 -0.4681 -2.0740
 6704SOL    HW231746   2.938   1.862   0.843  0.0292 -0.4480  0.6533
 6705SOL     OW31747   0.497   2.976   2.844  0.1480 -0.4841  0.0021
 6705SOL    HW131748   0.552   2.982   2.921 -0.0136 -0.4844  0.1180
 6705SOL    HW231749   0.541   3.048   2.798  0.6555 -0.3716  0.6672
 6706SOL     OW31750   3.224   2.247   0.452  0.5803 -0.8206 -0.1792
 6706SOL    HW131751   3.184   2.328   0.421 -1.0748 -1.9959 -1.0599
 6706SOL    HW231752   3.311   2.254   0.412  1.3800  2.3980  2.0643
 6707SOL     OW31753   4.561   0.400  13.042  0.3330  0.1317  0.0845
 6707SOL    HW131754   4.611   0.460  13.098 -1.0242  0.9115  0.4649
 6707SOL    HW231755   4.628   0.354  12.993 -1.0736 -1.3537 -0.4338
 6708SOL     OW31756   2.396   1.435   6.725 -0.1627  0.0578  0.7531
 6708SOL    HW131757   2.321   1.449   6.782  0.1723 -1.8192  1.6167
 6708SOL    HW231758   2.360   1.371   6.664 -2.2260  1.6878  0.2422
 6709SOL     OW31759   2.857   1.565   6.530  0.0716  0.4725  0.0232
 6709SOL    HW131760   2.816   1.545   6.614 -2.6607  1.5664 -1.0537
 6709SOL    HW231761   2.945   1.531   6.546 -0.1014 -0.8727 -1.9320
 6710SOL     OW31762   2.271   1.017  12.180 -0.5520  0.0873  0.2885
 6710SOL    HW131763   2.346   1.032  12.122 -1.2595 -0.2830 -0.7427
 6710SOL    HW231764   2.316   1.036  12.262  1.1397  1.4040 -0.9355
 6711SOL     OW31765   3.843   2.898   4.557 -0.4640 -0.4906 -0.0419
 6711SOL    HW131766   3.768   2.949   4.588  0.4322  0.3998  0.6893
 6711SOL    HW231767   3.813   2.837   4.490 -1.2645  0.0450 -0.1665
 6712SOL     OW31768   1.656   3.869   5.189  0.3378 -0.4326  0.5350
 6712SOL    HW131769   1.745   3.873   5.225  1.8417  4.2691 -3.6634
 6712SOL    HW231770   1.607   3.848   5.268 -0.1078 -0.9357  0.1216
 6713SOL     OW31771   0.712   1.112   3.266  0.1442  0.1667 -0.0340
 6713SOL    HW131772   0.804   1.121   3.240  0.2903  1.5881  0.9814
 6713SOL    HW231773   0.713   1.167   3.344  0.2466 -0.0039  0.0853
 6714SOL     OW31774   3.067   2.383  14.612  0.3767  0.2748  0.4318
 6714SOL    HW131775   2.976   2.385  14.583 -0.1027  0.7033  1.9774
 6714SOL    HW231776   3.102   2.325  14.544  0.1275  1.7400 -0.9533
 6715SOL     OW31777   4.070   0.547   8.450 -0.0975  0.1516  0.0561
 6715SOL    HW131778   4.063   0.593   8.366  1.2513 -0.5349 -0.4356
 6715SOL    HW231779   3.982   0.550   8.488 -0.3362 -0.5279 -0.4477
 6716SOL     OW31780   3.085   3.433  10.336  0.1728 -0.3531  0.0322
 6716SOL    HW131781   3.050   3.391  10.257  1.0844  0.9011 -1.0404
 6716SOL    HW231782   3.041   3.390  10.410 -0.2097 -0.0274 -0.0043
 6717SOL     OW31783   0.435   0.160   2.805 -0.1995 -0.0690 -0.0060
 6717SOL    HW131784   0.529   0.171   2.797 -0.3187  0.9509  0.0313
 6717SOL    HW231785   0.419   0.193   2.894  0.2327  2.8774 -1.0498
 6718SOL     OW31786   3.536   4.213   7.311  0.0822  0.0446  0.3429
 6718SOL    HW131787   3.572   4.284   7.258  1.9260 -0.1367  1.3143
 6718SOL    HW231788   3.526   4.145   7.246  1.3004 -0.0800  0.2736
 6719SOL     OW31789   4.476   0.125   9.547  0.4236 -0.4818 -0.7591
 6719SOL    HW131790   4.447   0.113   9.637  1.6217  0.8761 -0.1880
 6719SOL    HW231791   4.467   0.220   9.533  1.1317 -0.1766  0.9296
 6720SOL     OW31792   2.304   1.953   5.358  0.0047  0.2799 -0.3010
 6720SOL    HW131793   2.337   2.009   5.428 -2.0396 -1.1461  1.7947
 6720SOL    HW231794   2.233   1.908   5.404 -0.0915 -2.0655 -2.7331
 6721SOL     OW31795   1.155   2.547   3.622  0.0766 -0.0820  0.0178
 6721SOL    HW131796   1.119   2.567   3.709  3.2587  1.2041  1.0460
 6721SOL    HW231797   1.246   2.540   3.650 -0.2668 -1.9393  0.6973
 6722SOL     OW31798   3.052   2.220   5.476 -0.1404  0.2937 -0.3674
 6722SOL    HW131799   3.037   2.129   5.450  1.6959 -0.6439  1.9360
 6722SOL    HW231800   3.067   2.214   5.570  1.4486 -3.0733 -0.8521
 6723SOL     OW31801   3.653   4.304  10.718 -0.1007 -0.6322 -0.7173
 6723SOL    HW131802   3.694   4.316  10.633  1.5402 -1.5814 -0.0695
 6723SOL    HW231803   3.732   4.306  10.773  0.2873  0.7782 -1.3312
 6724SOL     OW31804   3.052   0.886   5.849  0.0526  0.4938  0.3165
 6724SOL    HW131805   3.033   0.925   5.763 -0.4470 -1.3836 -0.4257
 6724SOL    HW231806   3.124   0.940   5.882  1.8942 -0.2951 -2.3538
 6725SOL     OW31807   2.890   3.191   2.804  0.2565  0.1500 -0.1872
 6725SOL    HW131808   2.806   3.238   2.800  0.7337  1.1982  1.9962
 6725SOL    HW231809   2.904   3.199   2.898 -1.6249  2.5488 -0.0944
 6726SOL     OW31810   3.274   1.130  14.308 -0.2989 -0.5131  0.0014
 6726SOL    HW131811   3.272   1.136  14.404 -2.1104 -1.3159  0.0044
 6726SOL    HW231812   3.333   1.197  14.273 -1.6472 -0.0903 -1.4165
 6727SOL     OW31813   0.787   3.698  11.799 -0.3121  0.2093 -0.3352
 6727SOL    HW131814   0.744   3.734  11.876 -0.6242 -1.7919  0.4209
 6727SOL    HW231815   0.760   3.607  11.805 -1.2587  0.5456  0.4432
 6728SOL     OW31816   3.887   3.146   8.173  0.3092 -0.1453  0.0604
 6728SOL    HW131817   3.884   3.179   8.083  0.0474  0.8816  0.4386
 6728SOL    HW231818   3.975   3.179   8.192  0.4769 -0.5321 -0.0563
 6729SOL     OW31819   2.006   4.083  13.769 -0.4053 -0.8863 -0.4086
 6729SOL    HW131820   2.034   4.154  13.826 -0.6702  1.4393 -3.1878
 6729SOL    HW231821   1.952   4.035  13.832 -1.4368  0.8413  0.0056
 6730SOL     OW31822   4.222   0.318   8.487 -0.5199 -0.4563 -0.2556
 6730SOL    HW131823   4.170   0.396   8.468  0.7240  0.3334 -0.3601
 6730SOL    HW231824   4.182   0.251   8.431 -0.7576 -0.7485  0.2707
 6731SOL     OW31825   1.149   3.823   6.952  0.3397 -0.5000 -0.1814
 6731SOL    HW131826   1.126   3.744   7.002 -1.0621 -0.9546 -1.5657
 6731SOL    HW231827   1.233   3.856   6.987 -0.7242  0.9601  0.9953
 6732SOL     OW31828   3.116   0.592   1.256  0.7727  0.4549 -0.3946
 6732SOL    HW131829   3.117   0.639   1.340  2.4486  0.4002 -0.3922
 6732SOL    HW231830   3.179   0.525   1.281  0.9998  0.3727 -1.1948
 6733SOL     OW31831   3.033   3.859  17.033 -0.2994  0.1899 -0.2390
 6733SOL    HW131832   2.964   3.893  16.975 -0.7495 -0.8061 -0.2817
 6733SOL    HW231833   3.088   3.936  17.046  0.8025 -0.8711  1.3189
 6734SOL     OW31834   3.601   1.287  12.879  0.5226 -0.6240 -0.5950
 6734SOL    HW131835   3.683   1.246  12.906  0.5817 -0.1348 -0.0498
 6734SOL    HW231836   3.558   1.284  12.965  1.6678  0.4438  0.0052
 6735SOL     OW31837   4.727   3.352   4.969  0.3076 -0.3312 -0.0870
 6735SOL    HW131838   0.084   3.360   4.985  0.7355 -0.9276 -2.2153
 6735SOL    HW231839   4.690   3.440   4.968  0.6626 -0.1759  0.5940
 6736SOL     OW31840   1.935   4.134   5.475  0.2267  0.4554 -0.5593
 6736SOL    HW131841   2.008   4.195   5.468 -0.8286  1.5907 -1.6033
 6736SOL    HW231842   1.970   4.062   5.528 -2.1803 -0.5129 -0.2707
 6737SOL     OW31843   0.054   2.060   4.158  0.6219  0.0143  0.1366
 6737SOL    HW131844   0.039   2.058   4.064 -0.6748  2.1401  0.2953
 6737SOL    HW231845   0.125   2.124   4.156 -1.3759  2.1670 -0.4675
 6738SOL     OW31846   4.621   3.811   3.243  0.3343  0.1775 -0.3716
 6738SOL    HW131847   4.558   3.751   3.202 -1.7094 -0.2239  3.2950
 6738SOL    HW231848   4.576   3.855   3.315 -0.9395  2.7113 -2.7183
 6739SOL     OW31849   4.083   4.133   6.707 -0.7424  0.3291  0.3390
 6739SOL    HW131850   4.041   4.048   6.717  1.0701 -0.5852  0.1532
 6739SOL    HW231851   4.029   4.186   6.765 -1.4783  1.0734 -1.0196
 6740SOL     OW31852   4.134   3.987  14.491 -0.4139 -0.4587  0.1919
 6740SOL    HW131853   4.081   3.910  14.512  0.6111 -0.6751  1.9912
 6740SOL    HW231854   4.189   3.962  14.417 -1.4466  0.6843 -0.9572
 6741SOL     OW31855   4.688   4.148   2.773 -0.4675 -0.1346  0.2649
 6741SOL    HW131856   4.680   4.056   2.798  2.5548 -0.4336  0.1179
 6741SOL    HW231857   0.039   4.154   2.735  0.1504 -1.0386  1.5757
 6742SOL     OW31858   0.607   3.696   9.472  0.6450  0.3550 -1.1675
 6742SOL    HW131859   0.614   3.615   9.421 -1.0829 -1.7957  2.0295
 6742SOL    HW231860   0.526   3.670   9.515  0.9594  0.6970 -0.3671
 6743SOL     OW31861   2.403   0.223  11.781 -0.3566  0.0135 -0.3855
 6743SOL    HW131862   2.368   0.285  11.717 -2.5262 -1.2534 -0.4191
 6743SOL    HW231863   2.492   0.260  11.781 -1.0907  1.7837 -0.5350
 6744SOL     OW31864   0.811   2.980   4.409 -0.0249  0.1622 -0.1060
 6744SOL    HW131865   0.718   3.005   4.416  0.3131  1.2073  0.7790
 6744SOL    HW231866   0.795   2.887   4.399  0.3774  0.2496 -1.5549
 6745SOL     OW31867   1.302   0.340  16.321  0.2610 -0.1192 -0.1350
 6745SOL    HW131868   1.397   0.342  16.306  0.5808  0.1888  1.9153
 6745SOL    HW231869   1.300   0.354  16.416  0.1995 -1.4902  0.0771
 6746SOL     OW31870   3.121   0.683   6.157  0.4623 -0.0163 -0.4285
 6746SOL    HW131871   3.055   0.651   6.218  1.2980 -0.3926  0.2737
 6746SOL    HW231872   3.094   0.664   6.067 -1.8045  1.2644 -0.0300
 6747SOL     OW31873   2.150   2.568   4.964  0.0118 -0.0613 -0.2856
 6747SOL    HW131874   2.174   2.524   5.045 -3.9768  0.1643  0.9996
 6747SOL    HW231875   2.086   2.506   4.930 -0.2391  0.8759 -1.5388
 6748SOL     OW31876   4.416   3.736   2.960  0.4551  1.1197 -0.3076
 6748SOL    HW131877   4.460   3.654   2.982 -2.4991 -0.5118 -0.5105
 6748SOL    HW231878   4.327   3.704   2.949  0.2304  1.9546 -0.9543
 6749SOL     OW31879   3.226   4.589  15.793  0.0505  0.4392  0.3280
 6749SOL    HW131880   3.237   4.593  15.698 -1.5547  2.1170  0.2298
 6749SOL    HW231881   3.168   4.514  15.807 -0.5228  1.0092  0.9507
 6750SOL     OW31882   1.534   0.470   3.312 -0.5321  0.2050 -0.2542
 6750SOL    HW131883   1.602   0.497   3.373 -2.1328  2.2590  0.6464
 6750SOL    HW231884   1.498   0.557   3.295 -1.1285 -0.0143 -0.1429
 6751SOL     OW31885   0.250   1.430   7.290  0.3009 -0.5383  0.2077
 6751SOL    HW131886   0.252   1.349   7.239  0.3123  0.8316 -1.9513
 6751SOL    HW231887   0.179   1.410   7.352  0.6521 -1.7743  0.2041
 6752SOL     OW31888   3.728   2.452   1.712  0.3768 -0.0551 -0.1290
 6752SOL    HW131889   3.682   2.524   1.754  2.2404  0.6176  0.7684
 6752SOL    HW231890   3.803   2.435   1.770 -1.3965  2.2443  2.8329
 6753SOL     OW31891   0.608   0.824  12.966 -0.5907  0.0605  0.2171
 6753SOL    HW131892   0.652   0.889  13.021 -0.5585  1.3692 -1.3436
 6753SOL    HW231893   0.547   0.876  12.913 -0.2405 -0.2675 -0.5058
 6754SOL     OW31894   0.049   0.975   1.130  0.0273 -0.1758 -0.1970
 6754SOL    HW131895   0.020   1.066   1.134  0.4707 -0.1472  2.7772
 6754SOL    HW231896   0.093   0.968   1.215 -0.7827 -0.2191  0.2151
 6755SOL     OW31897   1.930   2.563   6.862 -0.1624 -0.1963  0.3664
 6755SOL    HW131898   1.905   2.524   6.778  0.8566 -0.5902  0.2383
 6755SOL    HW231899   1.875   2.522   6.929 -0.0760  0.2062  0.6814
 6756SOL     OW31900   2.342   4.272  12.894  0.2349  0.3496  0.4909
 6756SOL    HW131901   2.349   4.187  12.937  1.2073 -0.0418 -0.4468
 6756SOL    HW231902   2.262   4.305  12.936  0.5309  2.1314 -0.3707
 6757SOL     OW31903   1.878   4.197   2.069 -0.4058  0.2396  0.1895
 6757SOL    HW131904   1.865   4.253   2.146 -0.5442 -0.2711  0.5352
 6757SOL    HW231905   1.899   4.265   2.006  0.2239 -1.1524 -1.0991
 6758SOL     OW31906   0.239   0.850   5.614 -0.0055 -0.0739  0.4500
 6758SOL    HW131907   0.182   0.832   5.539 -1.0608 -1.0684  1.4808
 6758SOL    HW231908   0.190   0.866   5.695  1.5087 -3.3387  2.0083
 6759SOL     OW31909   0.080   4.100   8.256 -0.0230  0.1804  0.2686
 6759SOL    HW131910   0.029   4.143   8.188  1.5699  0.9292 -0.4473
 6759SOL    HW231911   0.156   4.159   8.255  0.9490 -1.0867 -0.9554
 6760SOL     OW31912   0.037   3.211  11.522 -0.1620  0.4604 -0.2509
 6760SOL    HW131913   0.129   3.202  11.497 -0.2745  0.4196 -0.6493
 6760SOL    HW231914   0.036   3.305  11.538 -1.5920  0.4454 -0.1755
 6761SOL     OW31915   2.741   3.478   5.830  0.1889  0.3034  0.1576
 6761SOL    HW131916   2.753   3.472   5.736 -1.3668 -2.1538  0.1241
 6761SOL    HW231917   2.787   3.399   5.857 -1.1489 -0.5406 -0.0093
 6762SOL     OW31918   2.600   0.246   2.071  0.3127 -0.7961 -0.6489
 6762SOL    HW131919   2.578   0.224   2.161 -1.5923  0.6719 -0.7570
 6762SOL    HW231920   2.531   0.213   2.013 -1.8746  0.2134  1.3748
 6763SOL     OW31921   2.383   3.669   5.330  0.1190  0.2006 -0.6357
 6763SOL    HW131922   2.329   3.621   5.393  0.4427 -1.4670 -1.6156
 6763SOL    HW231923   2.397   3.748   5.383  4.5085 -1.2022  0.2921
 6764SOL     OW31924   1.679   4.378   7.905 -0.4901 -0.2009  0.4096
 6764SOL    HW131925   1.590   4.370   7.938 -0.1561  2.0362  1.8078
 6764SOL    HW231926   1.712   4.453   7.954  2.6138 -1.1459 -0.1922
 6765SOL     OW31927   2.076   3.916   4.336 -0.1229  0.0709 -0.0553
 6765SOL    HW131928   2.029   3.866   4.269 -2.3143  3.7758 -1.2867
 6765SOL    HW231929   2.037   3.893   4.421  1.5321 -2.2959  0.0546
 6766SOL     OW31930   0.283   1.997  17.578 -0.3502 -0.0020  0.3097
 6766SOL    HW131931   0.350   1.987  17.511 -0.3778 -0.4297  0.3461
 6766SOL    HW231932   0.226   1.928  17.543 -2.0445  0.5970  1.8632
 6767SOL     OW31933   3.106   2.741  13.783  0.4078 -0.0739  0.0891
 6767SOL    HW131934   3.085   2.652  13.755  0.7177 -0.1266  0.0329
 6767SOL    HW231935   3.041   2.745  13.854  1.1176 -0.6091  0.7705
 6768SOL     OW31936   0.531   2.241   4.688 -0.3169  0.1194  0.8363
 6768SOL    HW131937   0.505   2.155   4.654 -1.7886  0.4750  1.0644
 6768SOL    HW231938   0.607   2.215   4.740  0.7707 -1.5284 -1.5763
 6769SOL     OW31939   4.476   0.555  11.690  0.0608  0.5812 -0.3756
 6769SOL    HW131940   4.396   0.570  11.639 -0.0748 -0.5341 -0.4960
 6769SOL    HW231941   4.526   0.637  11.691 -0.1255  0.6792  0.7237
 6770SOL     OW31942   1.204   3.911   6.496 -0.1994  0.2272 -0.2319
 6770SOL    HW131943   1.202   3.970   6.571  0.6454  1.9161 -1.5016
 6770SOL    HW231944   1.111   3.894   6.483 -0.0863  0.2182 -1.0442
 6771SOL     OW31945   0.649   3.334   0.754 -0.0329  0.5748 -0.0616
 6771SOL    HW131946   0.732   3.295   0.782 -0.6545 -1.6482 -1.3148
 6771SOL    HW231947   0.594   3.263   0.722 -0.1652  1.1712 -1.1515
 6772SOL     OW31948   0.411   0.432  11.280  0.2708  0.0637 -0.3057
 6772SOL    HW131949   0.346   0.473  11.337 -1.4040 -0.2294 -2.0045
 6772SOL    HW231950   0.391   0.462  11.191 -0.8713 -0.6856 -0.3084
 6773SOL     OW31951   3.832   2.002  16.858 -0.6924 -0.5714 -0.2822
 6773SOL    HW131952   3.756   1.968  16.809 -3.0288  0.3546  2.7077
 6773SOL    HW231953   3.872   2.053  16.788  3.0384 -1.1677  1.4162
 6774SOL     OW31954   4.270   1.432   7.511 -0.3065 -0.0923  0.4917
 6774SOL    HW131955   4.362   1.411   7.525 -0.1841  0.2037  0.1438
 6774SOL    HW231956   4.282   1.469   7.423 -1.7078  0.4017  0.4974
 6775SOL     OW31957   0.082   0.366  10.801  0.2154  0.0872  0.5602
 6775SOL    HW131958   0.063   0.442  10.857 -0.8037 -0.1153  0.4987
 6775SOL    HW231959   0.140   0.321  10.862 -0.6774 -2.4325 -0.4387
 6776SOL     OW31960   3.142   0.638   7.086  0.0488  0.5206  0.0108
 6776SOL    HW131961   3.143   0.689   7.005 -1.2670 -2.6352 -2.0046
 6776SOL    HW231962   3.060   0.661   7.129  0.1106  0.0204  0.4055
 6777SOL     OW31963   2.546   0.683   9.376 -0.1442  0.3350  0.4115
 6777SOL    HW131964   2.625   0.736   9.384  1.0059 -1.5450  1.6852
 6777SOL    HW231965   2.579   0.609   9.325  0.1497  0.8104 -0.0723
 6778SOL     OW31966   3.471   1.099   2.770 -0.3637 -0.7357 -0.6666
 6778SOL    HW131967   3.554   1.058   2.743  0.9430  1.3887  0.1034
 6778SOL    HW231968   3.475   1.179   2.717  1.1773 -0.0034  0.5486
 6779SOL     OW31969   1.859   1.777   3.415 -0.0443 -0.4228 -0.1155
 6779SOL    HW131970   1.812   1.832   3.478  0.9399  0.9356 -0.5737
 6779SOL    HW231971   1.811   1.695   3.428 -0.7532  0.5118  3.0334
 6780SOL     OW31972   4.646   2.491   9.263 -0.2701 -0.1373  0.3185
 6780SOL    HW131973   4.713   2.503   9.196  0.0355  2.0673  1.0290
 6780SOL    HW231974   4.597   2.415   9.232  0.6216 -0.6323  0.1296
 6781SOL     OW31975   2.262   0.723   3.446  0.0911 -0.1405 -0.4317
 6781SOL    HW131976   2.320   0.799   3.444 -0.9906  0.6554 -1.4963
 6781SOL    HW231977   2.202   0.762   3.510 -1.5556 -1.7709 -0.9760
 6782SOL     OW31978   2.578   2.331   4.589 -0.3125 -0.6798  0.4563
 6782SOL    HW131979   2.520   2.276   4.536  0.4561 -0.3161 -0.7429
 6782SOL    HW231980   2.652   2.342   4.530  0.5805 -0.3297  1.6589
 6783SOL     OW31981   1.634   0.387   8.691 -0.5752 -0.8609 -0.3413
 6783SOL    HW131982   1.704   0.363   8.630 -0.2675 -2.0966  0.4920
 6783SOL    HW231983   1.632   0.482   8.691  2.8392 -0.7688 -0.7721
 6784SOL     OW31984   2.115   2.358   3.217  0.1676 -0.2054 -0.5381
 6784SOL    HW131985   2.151   2.270   3.222 -0.9003 -0.6186 -0.1380
 6784SOL    HW231986   2.083   2.373   3.306  0.7170 -0.0439 -0.3643
 6785SOL     OW31987   1.611   0.176   5.612  0.1282  0.2870  0.0295
 6785SOL    HW131988   1.628   0.246   5.548  3.3438 -0.6959 -0.1703
 6785SOL    HW231989   1.555   0.224   5.673  1.3967 -0.8590  2.0910
 6786SOL     OW31990   1.292   3.706   1.073 -0.2814 -0.3042 -0.9684
 6786SOL    HW131991   1.287   3.697   0.977 -3.1771  1.2153 -0.9395
 6786SOL    HW231992   1.313   3.799   1.073 -1.0418 -0.1405 -0.7145
 6787SOL     OW31993   3.403   4.170   3.272  0.5856  0.2674  0.3221
 6787SOL    HW131994   3.347   4.219   3.332 -2.2043  2.3423 -3.9536
 6787SOL    HW231995   3.342   4.175   3.198  1.9468 -3.0035 -1.0134
 6788SOL     OW31996   3.200   4.343  14.827 -0.1471  0.0237 -0.8216
 6788SOL    HW131997   3.250   4.425  14.815  1.3791 -0.7939 -0.0078
 6788SOL    HW231998   3.123   4.379  14.871  0.6074  0.6950 -0.0562
 6789SOL     OW31999   0.896   4.040   5.286  0.1509  0.1016 -0.3537
 6789SOL    HW132000   0.862   4.071   5.203 -1.1101 -1.1728 -0.3214
 6789SOL    HW232001   0.989   4.060   5.274  0.1763  0.1747 -0.0520
 6790SOL     OW32002   0.118   1.624  13.140  0.1079 -0.0320 -0.3290
 6790SOL    HW132003   0.079   1.695  13.088  1.4638  0.5164 -0.6136
 6790SOL    HW232004   0.135   1.566  13.066 -0.6051  0.1166 -0.6058
 6791SOL     OW32005   4.478   3.453  16.934 -0.0465 -0.0694  0.2450
 6791SOL    HW132006   4.423   3.470  16.858  0.8123 -1.9123 -0.7663
 6791SOL    HW232007   4.542   3.520  16.912 -0.1217  0.4560  1.5952
 6792SOL     OW32008   4.542   2.850   9.372 -0.2422  0.2848  0.2130
 6792SOL    HW132009   4.598   2.915   9.329 -1.0991  0.7335 -0.2278
 6792SOL    HW232010   4.490   2.908   9.428  0.8041  1.3051  0.1265
 6793SOL     OW32011   3.432   3.229  17.746  0.6995  0.0550 -0.2801
 6793SOL    HW132012   3.423   3.262  17.656 -0.3665  3.1462  0.9631
 6793SOL    HW232013   3.485   3.152  17.725  2.9117  1.3453  0.6310
 6794SOL     OW32014   2.937   1.927   6.291  0.0417  0.1363  0.3848
 6794SOL    HW132015   2.855   1.882   6.311 -0.6988  1.4020  0.1726
 6794SOL    HW232016   2.999   1.855   6.280  0.0201  0.2310 -0.3875
 6795SOL     OW32017   2.625   3.867   7.908  0.0780  0.5785  0.3030
 6795SOL    HW132018   2.600   3.775   7.903 -0.5744  0.7631  0.1856
 6795SOL    HW232019   2.697   3.860   7.971 -0.2580  0.5641  0.6837
 6796SOL     OW32020   1.257   0.873   0.674  0.1487  0.3288  0.6422
 6796SOL    HW132021   1.194   0.917   0.617 -1.5515  0.3787  2.5528
 6796SOL    HW232022   1.224   0.783   0.668 -0.5148  0.6606 -0.5821
 6797SOL     OW32023   2.028   3.323   5.590  0.7124 -0.2140  0.0348
 6797SOL    HW132024   2.012   3.242   5.542  1.5642 -1.2093  1.4345
 6797SOL    HW232025   2.045   3.298   5.680  0.9692  2.7395  0.8050
 6798SOL     OW32026   1.940   1.907   9.469 -0.5132 -0.3393  0.2673
 6798SOL    HW132027   1.955   1.939   9.380  0.4284  0.6425  0.7808
 6798SOL    HW232028   1.949   1.987   9.520  3.1386 -0.4403 -0.2013
 6799SOL     OW32029   4.025   4.155  15.493  0.4095  0.0979  0.0869
 6799SOL    HW132030   3.951   4.147  15.554 -0.4389  0.6043 -0.8844
 6799SOL    HW232031   3.983   4.130  15.411  0.6078  0.3674 -0.0971
 6800SOL     OW32032   1.907   2.431   2.981 -0.4433  0.3922 -0.3094
 6800SOL    HW132033   1.926   2.391   3.066  0.5547 -1.1637 -1.2547
 6800SOL    HW232034   1.993   2.446   2.943 -0.0403 -0.5360  0.2224
 6801SOL     OW32035   3.940   2.057   3.931 -0.2381  0.7518  0.8282
 6801SOL    HW132036   3.961   2.032   4.020  0.4167  1.9516  1.0084
 6801SOL    HW232037   3.845   2.045   3.936 -0.2191  0.7849  1.2309
 6802SOL     OW32038   4.478   1.528  13.562 -0.0648  0.8064  0.8900
 6802SOL    HW132039   4.464   1.567  13.649 -1.5696  2.0293  0.1105
 6802SOL    HW232040   4.447   1.606  13.516 -0.3249  0.3766  0.3418
 6803SOL     OW32041   1.726   2.267   6.731 -0.5580  0.2759  0.2098
 6803SOL    HW132042   1.636   2.294   6.710 -0.4822  0.8678  0.6357
 6803SOL    HW232043   1.748   2.215   6.654  0.0267 -1.9959  1.9113
 6804SOL     OW32044   4.548   1.076   8.297 -0.3594  0.4957  0.6628
 6804SOL    HW132045   4.498   0.995   8.311 -0.4124  0.3703 -0.2728
 6804SOL    HW232046   4.639   1.047   8.293 -0.9344 -1.0663 -1.2107
 6805SOL     OW32047   0.371   1.941  12.688  0.2775 -0.7526 -0.0187
 6805SOL    HW132048   0.345   1.878  12.621  0.8129 -2.2576  1.1712
 6805SOL    HW232049   0.456   1.904  12.713 -0.0973 -1.8433 -0.3378
 6806SOL     OW32050   4.002   1.981   4.236 -0.3783  0.2898 -0.0131
 6806SOL    HW132051   4.016   2.069   4.271  0.6358  0.0378  0.2181
 6806SOL    HW232052   3.922   1.968   4.287  0.0440 -2.7525 -0.1543
 6807SOL     OW32053   3.036   3.650  11.759 -0.2690  0.9697 -0.5651
 6807SOL    HW132054   2.964   3.598  11.723  1.2473 -0.5954 -1.3204
 6807SOL    HW232055   3.102   3.639  11.690 -0.5423  1.1554 -0.8558
 6808SOL     OW32056   3.866   1.892   1.841 -0.1505 -0.7403 -0.2661
 6808SOL    HW132057   3.784   1.857   1.876  0.5927 -0.4362  1.8142
 6808SOL    HW232058   3.835   1.936   1.762 -0.9512 -0.0526  0.4277
 6809SOL     OW32059   2.281   4.134   4.688 -0.2475 -0.0520  0.3542
 6809SOL    HW132060   2.362   4.159   4.733  0.7757 -0.5438 -1.2113
 6809SOL    HW232061   2.241   4.084   4.760 -1.0705 -0.7838 -0.6199
 6810SOL     OW32062   0.252   0.025   6.223  0.4481 -0.5222  0.1590
 6810SOL    HW132063   0.265   0.114   6.257  0.4790 -0.8103  0.9035
 6810SOL    HW232064   0.344   4.736   6.227  0.8774  1.4444  3.0689
 6811SOL     OW32065   2.928   3.323  13.344 -1.0623 -0.5739 -0.1306
 6811SOL    HW132066   2.997   3.384  13.370 -2.2224  0.5137  0.3894
 6811SOL    HW232067   2.979   3.274  13.280  1.3502 -0.4827  1.7499
 6812SOL     OW32068   1.066   0.650  13.737 -0.0690  0.2338 -0.6154
 6812SOL    HW132069   1.062   0.555  13.745  1.3700  0.1059 -1.4189
 6812SOL    HW232070   1.114   0.669  13.818  2.4409 -0.2444 -2.0079
 6813SOL     OW32071   1.698   3.272  14.430  0.3687  0.5041 -0.1727
 6813SOL    HW132072   1.620   3.318  14.398 -1.4953 -1.9542  0.8478
 6813SOL    HW232073   1.719   3.208  14.362 -1.2949  1.3721 -1.4981
 6814SOL     OW32074   3.730   3.329   4.709 -0.7493  0.1752 -0.1846
 6814SOL    HW132075   3.752   3.415   4.745 -1.3466 -0.2194  1.1135
 6814SOL    HW232076   3.642   3.317   4.744 -0.0428 -0.4363  1.3611
 6815SOL     OW32077   2.658   2.818   9.580  0.1370 -0.5520  0.4461
 6815SOL    HW132078   2.706   2.750   9.533  0.7390  0.5980 -0.6309
 6815SOL    HW232079   2.632   2.778   9.662 -0.0338  2.8024  2.0349
 6816SOL     OW32080   0.771   2.530  12.721  0.4107  0.0033  0.0711
 6816SOL    HW132081   0.852   2.527  12.770 -0.2252  0.1832  1.1250
 6816SOL    HW232082   0.781   2.448  12.672  0.4551 -0.6698  1.2209
 6817SOL     OW32083   2.910   4.132  10.378 -1.0330  0.0407  0.2791
 6817SOL    HW132084   2.963   4.167  10.307  0.6608  0.5719  1.8244
 6817SOL    HW232085   2.951   4.174  10.453 -2.0174  1.6026 -0.0581
 6818SOL     OW32086   2.111   3.813   7.293  0.2945  0.9170  0.8311
 6818SOL    HW132087   2.159   3.829   7.212 -1.1343  1.5465  0.1148
 6818SOL    HW232088   2.020   3.790   7.272  0.7722  0.3685 -0.6009
 6819SOL     OW32089   4.547   0.489   2.533 -0.4240  0.3765  0.0344
 6819SOL    HW132090   4.531   0.538   2.614 -4.5249  2.2040 -1.8891
 6819SOL    HW232091   4.544   0.564   2.473  0.6709 -0.3383 -0.9164
 6820SOL     OW32092   2.963   1.927   8.440  0.1207  0.0199  0.0356
 6820SOL    HW132093   3.016   1.916   8.519 -0.9359  0.9391  0.8778
 6820SOL    HW232094   2.877   1.941   8.478 -0.5761 -0.3730 -1.4182
 6821SOL     OW32095   1.537   4.433   9.397 -0.0639  0.4838 -0.1681
 6821SOL    HW132096   1.509   4.422   9.306 -2.4526 -0.8315  0.7319
 6821SOL    HW232097   1.600   4.361   9.400  0.7062  1.1366 -0.5530
 6822SOL     OW32098   3.933   3.328   8.985  0.7248  0.7425 -0.6520
 6822SOL    HW132099   3.904   3.280   9.062  3.9705  0.8859  0.6634
 6822SOL    HW232100   3.953   3.253   8.930 -2.8782 -0.6084 -0.1186
 6823SOL     OW32101   4.648   0.358   1.522 -0.1424  0.1529 -0.3507
 6823SOL    HW132102   4.670   0.281   1.468  1.5704  0.0997  0.4167
 6823SOL    HW232103   4.725   0.365   1.578 -1.5569 -1.1787  1.7404
 6824SOL     OW32104   4.434   0.848   1.310  0.3631  0.1203  0.2212
 6824SOL    HW132105   4.508   0.880   1.361  1.1050 -2.5031  0.8108
 6824SOL    HW232106   4.486   0.821   1.235  2.1028  1.0748  1.0696
 6825SOL     OW32107   2.389   1.781  10.078  0.2991  0.3529  0.0531
 6825SOL    HW132108   2.457   1.720  10.107  0.1490 -0.5319 -1.4733
 6825SOL    HW232109   2.373   1.758   9.986  0.8393 -1.1393  0.3295
 6826SOL     OW32110   2.847   3.916  10.184 -0.1568  0.6300 -0.5006
 6826SOL    HW132111   2.910   3.860  10.231  0.2050 -1.9340 -4.0476
 6826SOL    HW232112   2.857   3.995  10.237  1.2706 -0.4369  0.8380
 6827SOL     OW32113   1.967   1.195   7.120  0.4484 -0.0984 -0.8228
 6827SOL    HW132114   1.900   1.262   7.105 -0.8167 -1.2375 -0.2046
 6827SOL    HW232115   2.027   1.249   7.172  0.0689  0.8720 -1.3885
 6828SOL     OW32116   3.404   0.486   3.661 -0.4070 -0.4978 -0.3006
 6828SOL    HW132117   3.442   0.570   3.637 -0.3802 -0.7658 -1.1878
 6828SOL    HW232118   3.337   0.515   3.724  0.2002  2.8572 -1.1903
 6829SOL     OW32119   0.557   2.956   6.910  0.0674 -0.1034  0.1291
 6829SOL    HW132120   0.498   2.989   6.843  1.0281  1.2875 -0.0231
 6829SOL    HW232121   0.506   2.969   6.990  1.5496  1.0625  0.8680
 6830SOL     OW32122   1.285   2.752   7.086 -0.2065  0.2805 -0.0552
 6830SOL    HW132123   1.299   2.829   7.141 -1.0585 -1.0303  2.0276
 6830SOL    HW232124   1.358   2.695   7.109  0.4260  0.3865 -1.8644
 6831SOL     OW32125   3.056   3.362  11.639  0.6139 -0.1263  0.1667
 6831SOL    HW132126   2.962   3.371  11.649  0.3763 -2.5428  0.0760
 6831SOL    HW232127   3.088   3.372  11.728 -1.6142 -1.4943  1.1114
 6832SOL     OW32128   3.895   2.109   3.312  0.6221 -0.9533 -0.1732
 6832SOL    HW132129   3.818   2.128   3.258 -1.6126 -2.2285  2.6045
 6832SOL    HW232130   3.871   2.117   3.404  2.4272 -2.0260  0.3775
 6833SOL     OW32131   4.355   0.262  11.663  0.4000  0.1412 -0.1518
 6833SOL    HW132132   4.386   0.324  11.730  0.5102 -0.4079  0.3094
 6833SOL    HW232133   4.438   0.232  11.627  0.3505 -0.6908  0.4247
 6834SOL     OW32134   0.622   0.614  12.084  0.0065 -0.1652  0.3764
 6834SOL    HW132135   0.699   0.616  12.028  1.4257 -0.6304  2.3484
 6834SOL    HW232136   0.626   0.707  12.106 -0.2532 -0.2522  0.8046
 6835SOL     OW32137   4.292   2.490   9.100 -0.2479 -0.0767 -0.5193
 6835SOL    HW132138   4.347   2.568   9.096 -0.9615  0.5080  1.2581
 6835SOL    HW232139   4.203   2.525   9.105 -0.0319  0.4950 -0.6634
 6836SOL     OW32140   1.882   2.638   2.067 -0.2411 -0.5070  0.0444
 6836SOL    HW132141   1.858   2.567   2.008  0.0038 -0.1821 -0.4420
 6836SOL    HW232142   1.930   2.701   2.013  2.7425 -1.2040  1.8792
 6837SOL     OW32143   4.565   1.314   7.255  0.2720 -0.1419 -0.0275
 6837SOL    HW132144   4.635   1.311   7.321  0.4463 -1.1616 -0.2563
 6837SOL    HW232145   4.595   1.393   7.212  2.3030 -1.6654 -1.3847
 6838SOL     OW32146   4.169   3.517   4.721  0.2148  0.1024 -0.9188
 6838SOL    HW132147   4.147   3.610   4.724  1.0794  0.1841  3.0844
 6838SOL    HW232148   4.112   3.494   4.647 -1.8207  1.9110  0.0998
 6839SOL     OW32149   0.748   3.004   0.742 -0.1782  0.1655  0.1690
 6839SOL    HW132150   0.796   3.055   0.807  0.6660 -0.1142 -0.2335
 6839SOL    HW232151   0.663   3.020   0.782 -1.7501 -1.1729 -2.6220
 6840SOL     OW32152   3.643   3.620   9.066  0.1813 -0.3251  0.2187
 6840SOL    HW132153   3.563   3.613   9.117  0.3787  1.7476  0.8143
 6840SOL    HW232154   3.656   3.530   9.035  2.0379 -0.2017  0.6324
 6841SOL     OW32155   0.131   3.421   1.489 -0.6606  0.3414  0.1547
 6841SOL    HW132156   0.057   3.483   1.492 -0.6462  0.3022  1.2230
 6841SOL    HW232157   0.105   3.357   1.554 -0.3643 -0.2628 -0.3212
 6842SOL     OW32158   2.960   3.438   1.759 -0.0309  0.4805 -0.0532
 6842SOL    HW132159   2.913   3.422   1.677 -0.7675  1.4889  0.1725
 6842SOL    HW232160   2.973   3.349   1.792  0.3215  0.8448  0.7789
 6843SOL     OW32161   3.584   1.927  15.633 -0.2277  0.1069  0.2700
 6843SOL    HW132162   3.596   1.834  15.654 -0.4770  0.0938  0.3567
 6843SOL    HW232163   3.539   1.959  15.710  0.0458 -0.0291  0.4880
 6844SOL     OW32164   4.249   2.766   9.364 -0.0289  0.1103  0.2122
 6844SOL    HW132165   4.234   2.747   9.457  1.2642 -1.7513  0.0378
 6844SOL    HW232166   4.333   2.721   9.359  0.6497  1.2647  1.0925
 6845SOL     OW32167   3.790   0.251   4.363  0.0322  0.1403 -0.0476
 6845SOL    HW132168   3.885   0.247   4.362 -0.0551 -1.4734 -2.1393
 6845SOL    HW232169   3.771   0.158   4.372 -0.7363  0.4492  1.5421
 6846SOL     OW32170   2.964   3.881  12.315  0.3879  0.0057 -0.0521
 6846SOL    HW132171   2.973   3.975  12.302 -3.4657  0.7058  2.2146
 6846SOL    HW232172   2.877   3.875  12.355  0.9442 -2.2073  0.8501
 6847SOL     OW32173   2.022   2.055  16.788  0.0767  0.3217 -0.6609
 6847SOL    HW132174   1.985   2.043  16.700  1.3146 -0.2968 -1.0847
 6847SOL    HW232175   2.071   1.975  16.804 -0.5357  0.1184  0.2056
 6848SOL     OW32176   4.502   0.735  14.130 -0.6112 -0.1730  0.1420
 6848SOL    HW132177   4.424   0.790  14.138 -1.6119 -1.2996 -1.9141
 6848SOL    HW232178   4.512   0.696  14.044  1.8045  1.3678 -0.2835
 6849SOL     OW32179   2.200   2.738   0.353 -0.3435 -0.1547 -0.8043
 6849SOL    HW132180   2.107   2.759   0.357 -0.6168 -1.5881  0.5600
 6849SOL    HW232181   2.217   2.802   0.284 -1.4494 -1.0875 -1.9402
 6850SOL     OW32182   2.567   1.904  13.480  0.3881  0.3085 -0.0683
 6850SOL    HW132183   2.488   1.948  13.447  0.3896 -0.0127 -0.4920
 6850SOL    HW232184   2.626   1.954  13.425 -0.4953 -0.3466 -1.6178
 6851SOL     OW32185   1.207   1.578   4.632  0.2594 -0.2632  0.5459
 6851SOL    HW132186   1.283   1.590   4.689  0.2161  0.4283  0.4512
 6851SOL    HW232187   1.156   1.655   4.657 -3.9449 -2.7115 -0.3455
 6852SOL     OW32188   1.690   0.599  15.270  0.1639 -0.5020  0.5263
 6852SOL    HW132189   1.639   0.614  15.350  1.9908  2.2067  1.1764
 6852SOL    HW232190   1.782   0.600  15.298  1.1954  2.6024 -2.9992
 6853SOL     OW32191   3.005   4.183   1.943  0.3415  0.2019 -0.1041
 6853SOL    HW132192   3.090   4.202   1.902 -0.1789  2.5260 -0.1031
 6853SOL    HW232193   2.962   4.161   1.860  1.4509 -0.5682 -0.4892
 6854SOL     OW32194   2.659   0.901   0.400 -0.3326  0.3061 -0.3047
 6854SOL    HW132195   2.633   0.834   0.337  0.3491  2.0052 -2.4033
 6854SOL    HW232196   2.578   0.946   0.420 -1.6766 -1.0960 -2.6219
 6855SOL     OW32197   2.080   0.917   5.209  0.0001  0.0719 -1.0028
 6855SOL    HW132198   2.048   0.988   5.266 -1.0551 -2.5678  1.7123
 6855SOL    HW232199   2.160   0.960   5.178  1.4371  0.0816  2.7377
 6856SOL     OW32200   1.566   1.293   5.766  0.1440 -0.1169 -0.3543
 6856SOL    HW132201   1.509   1.314   5.840 -2.0220 -2.8164 -1.2739
 6856SOL    HW232202   1.554   1.198   5.775 -0.2245 -0.1563 -1.3021
 6857SOL     OW32203   4.221   3.602   9.367  0.6684  0.3063 -0.0033
 6857SOL    HW132204   4.292   3.614   9.303 -0.2989 -0.5312 -1.2411
 6857SOL    HW232205   4.264   3.602   9.452 -0.3876  3.4959  0.5119
 6858SOL     OW32206   0.232   1.784   0.399  0.6393 -0.3160 -0.1500
 6858SOL    HW132207   0.225   1.879   0.405  1.5903 -0.2583  0.0465
 6858SOL    HW232208   0.290   1.767   0.325  0.4305 -0.9487 -0.1695
 6859SOL     OW32209   3.104   3.958  11.158  0.0148 -0.0330  0.3173
 6859SOL    HW132210   3.121   3.864  11.159  1.1113  0.1751  0.7972
 6859SOL    HW232211   3.093   3.971  11.063  1.8873  0.8927  0.2322
 6860SOL     OW32212   2.846   1.568   3.267 -0.0842  0.6459 -0.6544
 6860SOL    HW132213   2.915   1.574   3.201 -0.4923 -1.3798 -1.2551
 6860SOL    HW232214   2.887   1.621   3.334 -0.9440  1.8562 -1.0775
 6861SOL     OW32215   4.702   2.901  11.714  0.0125  0.0934 -0.5436
 6861SOL    HW132216   4.647   2.895  11.792 -0.2873  0.8365 -0.6944
 6861SOL    HW232217   4.647   2.950  11.653 -1.1937 -0.6170 -0.0234
 6862SOL     OW32218   2.653   4.314   9.776  0.1434 -0.1587  0.0323
 6862SOL    HW132219   2.631   4.273   9.692 -1.9778  1.1864 -0.0841
 6862SOL    HW232220   2.574   4.364   9.795 -2.5692 -4.1282 -0.8311
 6863SOL     OW32221   1.402   1.815   2.556  0.1709 -0.0529  0.5683
 6863SOL    HW132222   1.494   1.796   2.539  0.7999  0.3937  3.5411
 6863SOL    HW232223   1.369   1.785   2.471  0.1383  0.8011  0.2838
 6864SOL     OW32224   0.004   0.328  13.986  0.6230  0.0151 -0.0489
 6864SOL    HW132225   0.094   0.307  13.959  0.0545 -2.2835 -0.1454
 6864SOL    HW232226   4.735   0.284  14.071  0.5434 -1.5985 -0.8984
 6865SOL     OW32227   2.347   1.896   3.978  0.1725 -0.5612  0.4074
 6865SOL    HW132228   2.333   1.987   3.951 -1.4980 -0.3958  1.8598
 6865SOL    HW232229   2.281   1.892   4.048  0.0767 -1.4817  0.2634
 6866SOL     OW32230   2.897   0.527   1.552  0.2282 -0.1540 -0.1458
 6866SOL    HW132231   2.801   0.524   1.555  0.2215 -1.2390 -1.5354
 6866SOL    HW232232   2.915   0.458   1.489 -1.9164  0.4649 -1.4579
 6867SOL     OW32233   2.002   1.271   7.781  0.2337  0.5208 -0.7789
 6867SOL    HW132234   2.070   1.276   7.848  0.1158  0.2456 -0.6377
 6867SOL    HW232235   1.980   1.179   7.795  1.4535  0.5220  1.1505
 6868SOL     OW32236   4.542   3.155   5.292 -0.1726 -0.1910 -0.3720
 6868SOL    HW132237   4.548   3.147   5.197 -0.3008  0.5168 -0.4409
 6868SOL    HW232238   4.483   3.225   5.317 -0.2835 -0.1648 -0.7105
 6869SOL     OW32239   0.518   2.212   5.825 -0.2611 -1.1218 -0.1855
 6869SOL    HW132240   0.580   2.159   5.775 -1.1481 -0.6073 -1.8309
 6869SOL    HW232241   0.543   2.297   5.790 -0.8029  0.0194  2.2012
 6870SOL     OW32242   2.204   3.009  12.022 -0.2789 -0.7535 -0.1635
 6870SOL    HW132243   2.238   3.068  11.955  1.6218 -0.9492  0.6285
 6870SOL    HW232244   2.247   2.930  11.991 -2.4269 -2.4453  1.1984
 6871SOL     OW32245   0.028   1.774   1.638  0.5896 -0.5258  0.2262
 6871SOL    HW132246   0.007   1.852   1.586 -2.0543 -0.6248  1.1425
 6871SOL    HW232247   4.723   1.801   1.720  1.5948 -0.6000  0.7698
 6872SOL     OW32248   4.714   1.568   1.137  0.2478  0.3379 -0.2008
 6872SOL    HW132249   4.711   1.581   1.231  2.6506 -1.8337  0.2065
 6872SOL    HW232250   0.072   1.555   1.125 -0.0441 -0.0271 -2.2283
 6873SOL     OW32251   2.855   4.675  14.851  0.2565 -0.1716 -0.5244
 6873SOL    HW132252   2.861   0.033  14.844  1.7888 -0.2517 -0.3866
 6873SOL    HW232253   2.792   4.662  14.781 -0.3910  0.8089 -0.1180
 6874SOL     OW32254   0.391   1.862   4.128  0.2485  0.2066 -0.6514
 6874SOL    HW132255   0.425   1.795   4.188  0.8442 -0.8219 -2.1294
 6874SOL    HW232256   0.385   1.804   4.052  1.0845  0.9774 -1.3162
 6875SOL     OW32257   4.175   3.186   7.012 -0.5282  0.1191  0.9005
 6875SOL    HW132258   4.124   3.214   7.087 -2.9291  0.0405 -0.7063
 6875SOL    HW232259   4.136   3.099   7.000 -0.4340  0.0549  1.0581
 6876SOL     OW32260   2.232   0.434   2.452  0.0108 -0.0100  0.3959
 6876SOL    HW132261   2.297   0.492   2.412  0.0888 -1.0479 -0.9893
 6876SOL    HW232262   2.288   0.362   2.483 -1.4557 -0.8737  1.0206
 6877SOL     OW32263   3.963   3.472   4.543 -0.5552  0.1481  0.4857
 6877SOL    HW132264   3.908   3.479   4.465  1.6993 -0.0200 -1.1076
 6877SOL    HW232265   3.896   3.485   4.610 -2.9411  0.1962 -1.8921
 6878SOL     OW32266   3.345   2.408   2.617  0.2027 -0.1225 -0.1377
 6878SOL    HW132267   3.296   2.336   2.657  2.4226 -1.1969  0.7038
 6878SOL    HW232268   3.272   2.469   2.612  0.7792  0.6320  0.6138
 6879SOL     OW32269   1.834   3.256   6.134 -0.0073 -0.0675  0.2410
 6879SOL    HW132270   1.776   3.322   6.170 -0.7301 -0.6794  0.1926
 6879SOL    HW232271   1.809   3.174   6.177  2.7237 -0.5566  0.9490
 6880SOL     OW32272   4.601   3.919   3.928 -0.4513  0.0686  0.6483
 6880SOL    HW132273   4.601   3.865   4.007  1.0466 -0.8180  0.0607
 6880SOL    HW232274   4.693   3.946   3.935 -0.5850  0.4334  0.9960
 6881SOL     OW32275   2.781   4.009   8.365 -0.0722 -0.1128 -0.2905
 6881SOL    HW132276   2.855   3.969   8.410  0.6431  1.8040  0.1986
 6881SOL    HW232277   2.794   4.103   8.377  0.2196 -0.4367  1.9471
 6882SOL     OW32278   0.535   3.549   7.649  0.7936 -0.1898  0.3565
 6882SOL    HW132279   0.497   3.506   7.726 -2.0757 -1.5258 -1.8002
 6882SOL    HW232280   0.507   3.638   7.670  4.3649  1.5305 -2.1258
 6883SOL     OW32281   0.505   3.308   5.036 -0.0603  0.0278 -0.5078
 6883SOL    HW132282   0.568   3.377   5.015 -1.0910  0.0975 -3.3882
 6883SOL    HW232283   0.425   3.359   5.043 -0.9727 -1.6486  1.4462
 6884SOL     OW32284   2.931   4.396  12.239  0.3458 -0.0857 -0.1953
 6884SOL    HW132285   2.955   4.478  12.196  2.2349 -0.3547  0.3561
 6884SOL    HW232286   2.951   4.422  12.329 -0.7518  1.7058 -0.4718
 6885SOL     OW32287   0.605   0.631   6.037 -0.2894  0.8053 -0.3826
 6885SOL    HW132288   0.564   0.606   5.954 -1.0216 -0.7552  0.4631
 6885SOL    HW232289   0.546   0.580   6.092  1.8232 -1.3528 -0.1581
 6886SOL     OW32290   0.019   2.599   6.740  0.1532  0.2306  0.0044
 6886SOL    HW132291   4.732   2.667   6.803 -1.1151 -1.1206  1.0027
 6886SOL    HW232292   0.055   2.534   6.800  0.3591  0.0636 -0.2978
 6887SOL     OW32293   1.357   1.953   8.008  0.0032  0.2532  0.2816
 6887SOL    HW132294   1.398   1.874   7.973 -1.4992 -0.6012  0.4264
 6887SOL    HW232295   1.325   1.991   7.926  1.3743  0.9434  0.0741
 6888SOL     OW32296   3.261   1.083   3.410  0.3713  0.3558  0.9724
 6888SOL    HW132297   3.296   1.159   3.457 -0.5003  1.1949  0.2566
 6888SOL    HW232298   3.346   1.042   3.392 -0.2260 -0.6148  0.3445
 6889SOL     OW32299   2.587   0.024  10.198  0.5934 -0.2047  0.3008
 6889SOL    HW132300   2.571   0.117  10.187  2.4846 -0.2496 -2.6460
 6889SOL    HW232301   2.538   4.723  10.125 -0.3148  2.9985 -0.7504
 6890SOL     OW32302   4.683   0.555   1.024  0.2380 -0.5712 -0.3309
 6890SOL    HW132303   4.679   0.459   1.021 -0.2779 -0.5694  0.4680
 6890SOL    HW232304   4.710   0.569   1.114 -2.1849 -0.3612  0.3688
 6891SOL     OW32305   3.950   2.513   6.413  0.0208 -0.7314  0.1108
 6891SOL    HW132306   3.946   2.428   6.455 -0.0423 -0.8267 -0.0876
 6891SOL    HW232307   4.042   2.521   6.437  0.1049 -0.5040 -0.2753
 6892SOL     OW32308   0.428   0.897   3.938 -0.4576  0.2060  0.8737
 6892SOL    HW132309   0.388   0.846   4.009  1.2372 -1.3819  0.6959
 6892SOL    HW232310   0.366   0.887   3.866 -0.0665 -1.6304  0.7925
 6893SOL     OW32311   0.898   4.363   5.729 -0.6347 -0.4633  0.1111
 6893SOL    HW132312   0.951   4.423   5.782 -0.4703 -1.4779  1.0915
 6893SOL    HW232313   0.943   4.355   5.645  0.3884 -0.4224  0.6568
 6894SOL     OW32314   2.789   1.321   2.948 -0.0088 -0.1209  0.1796
 6894SOL    HW132315   2.773   1.413   2.926 -1.5907  0.0104  1.9474
 6894SOL    HW232316   2.870   1.334   2.998  1.4867 -2.3509 -1.6024
 6895SOL     OW32317   4.562   1.137  17.540  0.5391 -0.3420 -0.2461
 6895SOL    HW132318   4.633   1.085  17.503  0.8560  1.6926 -2.4784
 6895SOL    HW232319   4.614   1.201  17.588 -1.2258 -0.7156  2.1487
 6896SOL     OW32320   2.501   0.217   8.482  0.2297 -0.4514  0.0483
 6896SOL    HW132321   2.423   0.249   8.528  0.5336  0.4699 -0.0688
 6896SOL    HW232322   2.515   0.286   8.417  2.2187  1.1549  2.2071
 6897SOL     OW32323   4.283   0.583   0.968  0.0912  0.3714 -0.1595
 6897SOL    HW132324   4.330   0.629   0.898  1.7809  0.0265  0.7696
 6897SOL    HW232325   4.297   0.492   0.941 -0.4791  0.1271  0.3794
 6898SOL     OW32326   4.460   0.030   7.727 -0.2821  0.1852 -0.4966
 6898SOL    HW132327   4.371   0.046   7.697 -0.2446  1.0864 -0.1272
 6898SOL    HW232328   4.496   0.116   7.707 -1.4891  0.9213  0.5082
 6899SOL     OW32329   1.873   4.193  10.927  0.0322 -0.1564  0.1918
 6899SOL    HW132330   1.889   4.147  10.844 -0.8422 -0.2554  0.0767
 6899SOL    HW232331   1.960   4.196  10.967  0.6470 -1.0084 -1.0385
 6900SOL     OW32332   2.887   3.788   7.383  0.0782 -0.1361 -0.3626
 6900SOL    HW132333   2.925   3.737   7.454  1.2339 -1.1070 -1.6636
 6900SOL    HW232334   2.943   3.750   7.315 -0.1706 -1.3137  0.1037
 6901SOL     OW32335   3.349   4.661  16.057 -0.2805 -0.8807 -0.4068
 6901SOL    HW132336   3.412   4.596  16.024  1.6757  0.1420  1.3729
 6901SOL    HW232337   3.293   4.653  15.979  0.2297 -0.2018 -0.8387
 6902SOL     OW32338   3.243   2.692   8.436  0.2743  0.5478 -0.0239
 6902SOL    HW132339   3.261   2.657   8.523 -4.1020 -0.3599  0.5094
 6902SOL    HW232340   3.148   2.688   8.438  0.3056  0.1840  0.5814
 6903SOL     OW32341   3.984   2.857   3.014  0.3859  0.8714 -0.0065
 6903SOL    HW132342   3.891   2.877   3.015  0.4959  1.4702 -1.5295
 6903SOL    HW232343   3.981   2.765   3.041 -3.4243  1.1278  0.4627
 6904SOL     OW32344   0.482   4.257   3.415 -0.0990  0.6945 -0.3991
 6904SOL    HW132345   0.451   4.336   3.371 -0.7466  1.1472  0.8831
 6904SOL    HW232346   0.419   4.187   3.400 -0.7623  1.3876 -0.8533
 6905SOL     OW32347   4.541   2.790  11.912  0.6100 -0.3356  0.3110
 6905SOL    HW132348   4.497   2.845  11.978  0.0439 -0.7724  0.2896
 6905SOL    HW232349   4.459   2.773  11.867  0.0807 -1.6014  1.7590
 6906SOL     OW32350   2.753   4.276   6.184  0.4956 -0.2861 -0.2034
 6906SOL    HW132351   2.832   4.292   6.235  0.4584 -1.8044  0.3217
 6906SOL    HW232352   2.697   4.323   6.247  0.7215  1.3454 -1.2190
 6907SOL     OW32353   0.907   0.415   5.815  0.2563 -0.4813 -0.5142
 6907SOL    HW132354   0.823   0.373   5.836  0.7746  0.0420  2.6146
 6907SOL    HW232355   0.908   0.421   5.719  3.1460 -0.6148 -0.4913
 6908SOL     OW32356   2.332   0.636  14.040 -0.0667  0.0869  0.0905
 6908SOL    HW132357   2.236   0.632  14.041 -0.0231 -0.6952  0.9375
 6908SOL    HW232358   2.343   0.730  14.021  1.9153  0.0622  1.1486
 6909SOL     OW32359   4.175   4.398   6.604 -0.0668 -0.3635 -0.1997
 6909SOL    HW132360   4.174   4.342   6.526  2.6424  0.6664 -0.9714
 6909SOL    HW232361   4.082   4.422   6.600 -0.1108 -0.5153 -0.0865
 6910SOL     OW32362   0.060   1.686   5.944  0.1562 -0.3141  0.2276
 6910SOL    HW132363   0.044   1.690   6.038 -2.1343  2.0641 -0.2665
 6910SOL    HW232364   4.710   1.662   5.910 -0.2914 -0.0719  1.2059
 6911SOL     OW32365   0.610   3.763   5.965 -0.5634  0.6181 -0.5407
 6911SOL    HW132366   0.662   3.717   5.899  0.7021  1.5273 -0.1979
 6911SOL    HW232367   0.572   3.689   6.011  1.3006  0.4502  0.7470
 6912SOL     OW32368   3.283   2.952   0.444  0.3132 -0.2177  0.2274
 6912SOL    HW132369   3.192   2.972   0.464  0.1705  0.0455 -0.6779
 6912SOL    HW232370   3.304   2.978   0.354 -1.1941 -0.4554 -0.1958
 6913SOL     OW32371   3.769   0.122  11.680 -0.1035 -0.9298 -0.2135
 6913SOL    HW132372   3.698   0.163  11.730  0.2103  0.5866 -1.0269
 6913SOL    HW232373   3.741   0.139  11.590 -0.6525  0.8097  0.2779
 6914SOL     OW32374   2.953   0.286   1.373  0.0746  0.1779 -0.4124
 6914SOL    HW132375   3.038   0.270   1.414  1.0726  0.9945 -2.1891
 6914SOL    HW232376   2.912   0.200   1.376  1.2096 -0.3406 -0.0598
 6915SOL     OW32377   2.566   4.467   7.071  0.3824 -0.3043  0.3293
 6915SOL    HW132378   2.503   4.401   7.098  1.2473 -1.3888 -0.2912
 6915SOL    HW232379   2.571   4.516   7.153  2.9955 -0.2823  0.1762
 6916SOL     OW32380   3.932   0.797   2.861  0.2572 -0.5537 -0.1027
 6916SOL    HW132381   4.027   0.792   2.853  0.1935 -1.0248 -0.5496
 6916SOL    HW232382   3.891   0.726   2.812  0.2717  0.3734 -1.4371
 6917SOL     OW32383   1.726   1.998   4.918  0.5480 -0.0915 -0.7583
 6917SOL    HW132384   1.682   1.933   4.863  2.5062 -1.3189 -0.8624
 6917SOL    HW232385   1.708   2.088   4.888 -0.5809 -0.1252 -0.1861
 6918SOL     OW32386   3.676   3.671   6.705 -0.1877 -0.1432 -0.3355
 6918SOL    HW132387   3.745   3.688   6.642  0.9373  0.7165  1.1267
 6918SOL    HW232388   3.603   3.648   6.648 -0.8824 -1.7692  1.1870
 6919SOL     OW32389   2.856   1.734   0.092 -0.3997 -0.0301 -0.7803
 6919SOL    HW132390   2.783   1.680   0.063 -2.4742  0.1590  4.1324
 6919SOL    HW232391   2.846   1.812   0.037 -3.4450 -0.5169 -0.8927
 6920SOL     OW32392   3.363   0.952   7.874  0.1903  0.0537 -0.3106
 6920SOL    HW132393   3.391   1.029   7.825 -0.0893 -0.3478 -1.1063
 6920SOL    HW232394   3.289   0.980   7.928  1.8425 -0.6338  2.3249
 6921SOL     OW32395   0.265   1.042   5.125  0.0215 -0.6378  0.5898
 6921SOL    HW132396   0.179   1.003   5.142  0.2259 -1.0850  0.5765
 6921SOL    HW232397   0.308   1.028   5.209 -0.0387 -0.6629  0.6164
 6922SOL     OW32398   0.514   2.324   4.299 -0.1777  0.7563 -1.0544
 6922SOL    HW132399   0.580   2.285   4.356 -0.3783  0.1504 -1.2330
 6922SOL    HW232400   0.502   2.256   4.233  0.5278  0.1763 -0.5790
 6923SOL     OW32401   0.278   3.043   8.225  0.4456  0.0822 -0.0322
 6923SOL    HW132402   0.220   3.070   8.155 -0.2224  0.2281  0.5756
 6923SOL    HW232403   0.286   2.951   8.202 -0.0271  0.0443 -0.0509
 6924SOL     OW32404   4.444   0.279   3.717 -0.0325  0.3483 -0.0497
 6924SOL    HW132405   4.369   0.337   3.733 -1.0442 -0.4896 -1.6704
 6924SOL    HW232406   4.439   0.241   3.804  0.4361  0.6256  0.0968
 6925SOL     OW32407   0.944   3.491  13.705 -0.0209  0.0428  0.1888
 6925SOL    HW132408   0.989   3.446  13.777 -0.7076 -0.2166  0.4602
 6925SOL    HW232409   0.969   3.434  13.633 -1.5472 -0.7225  0.2770
 6926SOL     OW32410   2.399   0.497   0.160  0.4007 -0.1216  0.6240
 6926SOL    HW132411   2.326   0.518   0.102 -1.2931 -2.8378  1.7668
 6926SOL    HW232412   2.368   0.419   0.206  0.1069  0.4029  1.3155
 6927SOL     OW32413   2.756   2.557   6.292  0.7483  0.1373 -0.0076
 6927SOL    HW132414   2.768   2.652   6.295  0.2720  0.1701  0.9028
 6927SOL    HW232415   2.671   2.533   6.330  0.2281  3.4809  0.9373
 6928SOL     OW32416   3.022   2.686   5.143  0.5836 -0.0667  0.1874
 6928SOL    HW132417   2.971   2.744   5.086  1.6069 -2.2827 -3.0255
 6928SOL    HW232418   2.960   2.682   5.216  1.7275  2.1586  1.2664
 6929SOL     OW32419   2.351   2.929  12.389  0.3495 -0.6148 -0.1722
 6929SOL    HW132420   2.391   2.975  12.315  0.6214 -1.7878 -0.7544
 6929SOL    HW232421   2.416   2.860  12.400  0.1127 -0.7172  0.5458
 6930SOL     OW32422   3.149   0.099   6.065 -0.3211  0.5324 -0.0803
 6930SOL    HW132423   3.141   0.121   5.972 -3.2707  0.9072  0.2733
 6930SOL    HW232424   3.217   0.031   6.067  0.1548  0.9666 -1.1919
 6931SOL     OW32425   4.233   0.087  16.737  0.6619  0.2975  0.2479
 6931SOL    HW132426   4.156   0.109  16.685  0.6763  1.0253  0.5338
 6931SOL    HW232427   4.289   0.160  16.710 -0.4276 -0.0860 -3.0716
 6932SOL     OW32428   2.729   0.112   4.784  0.6884  0.8518  0.2597
 6932SOL    HW132429   2.657   0.052   4.801 -0.8634  2.9080  1.0564
 6932SOL    HW232430   2.684   0.194   4.805 -0.7804 -0.3996  2.0175
 6933SOL     OW32431   3.323   1.437   8.213  0.0895  0.1896  0.7184
 6933SOL    HW132432   3.259   1.376   8.174  0.9510  0.0944 -0.5479
 6933SOL    HW232433   3.373   1.453   8.133  1.4041 -0.3958  1.4206
 6934SOL     OW32434   0.230   2.833  17.204  0.2649 -0.0366  0.3412
 6934SOL    HW132435   0.237   2.824  17.109 -0.1087  0.6773  0.2447
 6934SOL    HW232436   0.323   2.829  17.229  0.0560 -1.7739  0.8356
 6935SOL     OW32437   1.184   1.555  15.420 -0.1849  0.0541 -0.1072
 6935SOL    HW132438   1.114   1.598  15.372 -2.0455 -1.3407  1.3700
 6935SOL    HW232439   1.262   1.600  15.386  0.5720 -0.4179  1.0152
 6936SOL     OW32440   0.410   1.047  10.192 -0.5258 -0.0971 -0.0355
 6936SOL    HW132441   0.470   1.095  10.249 -2.1516  3.8994 -1.6315
 6936SOL    HW232442   0.437   0.956  10.205 -0.5456 -0.0990 -0.0079
 6937SOL     OW32443   1.446   4.209   5.843 -0.1409 -0.0732 -0.1017
 6937SOL    HW132444   1.536   4.177   5.841  0.4051  1.2873  3.0599
 6937SOL    HW232445   1.420   4.202   5.935 -1.9620 -0.7804 -0.6561
 6938SOL     OW32446   3.293   1.857   3.347 -0.1502 -0.2330  0.0367
 6938SOL    HW132447   3.379   1.881   3.383 -0.9934 -0.0035  1.8753
 6938SOL    HW232448   3.307   1.769   3.313  1.7862 -1.6324  4.4936
 6939SOL     OW32449   0.234   4.223   5.340  0.1086  0.3134  0.4349
 6939SOL    HW132450   0.296   4.160   5.376  0.5278  0.6812  0.3629
 6939SOL    HW232451   0.295   4.296   5.328  0.6757 -0.4157 -1.0811
 6940SOL     OW32452   3.492   0.044  11.588 -0.3411 -0.0447 -0.6777
 6940SOL    HW132453   3.541   0.089  11.519 -0.9259  1.6770  0.0331
 6940SOL    HW232454   3.551   4.711  11.617  0.7438  0.6360 -1.2532
 6941SOL     OW32455   1.976   2.920  11.818 -0.1683  0.3195  0.5503
 6941SOL    HW132456   1.991   2.884  11.905  0.7078 -0.7348 -0.0391
 6941SOL    HW232457   1.925   2.852  11.774 -0.9226  0.7589  0.7443
 6942SOL     OW32458   0.073   3.307   2.046 -0.3819 -0.4811 -0.5906
 6942SOL    HW132459   0.137   3.308   2.117  1.7303 -2.6750 -2.4538
 6942SOL    HW232460   0.133   3.323   1.973  0.3785  1.6407  0.4872
 6943SOL     OW32461   0.925   2.747   2.878  0.3784 -0.7542 -0.8795
 6943SOL    HW132462   0.863   2.772   2.946  3.1549 -2.1729  2.2173
 6943SOL    HW232463   0.934   2.652   2.883 -1.0051 -0.9713 -2.5447
 6944SOL     OW32464   4.004   0.276   5.627  0.2405  0.8536 -0.3700
 6944SOL    HW132465   4.099   0.288   5.626  0.3447  0.0945  0.4712
 6944SOL    HW232466   3.985   0.255   5.718 -1.0422  0.5466 -0.7003
 6945SOL     OW32467   1.460   1.334  11.431  0.1402 -0.3546 -0.1695
 6945SOL    HW132468   1.403   1.351  11.506  2.1133  0.8649  1.0578
 6945SOL    HW232469   1.431   1.243  11.420  0.4838 -0.1904 -2.3483
 6946SOL     OW32470   4.608   4.318   6.550  0.2564 -0.0138 -0.2277
 6946SOL    HW132471   4.665   4.384   6.509 -0.3642  0.1750 -0.7741
 6946SOL    HW232472   4.545   4.370   6.599  0.3260  0.2925 -0.4600
 6947SOL     OW32473   2.661   2.095  16.109  0.5045 -0.1008 -0.5969
 6947SOL    HW132474   2.659   2.006  16.143 -2.8195 -1.2026 -3.7122
 6947SOL    HW232475   2.594   2.094  16.040  0.1883  1.4416 -0.3180
 6948SOL     OW32476   3.710   1.101  17.516  0.1088  0.3188  0.0742
 6948SOL    HW132477   3.621   1.069  17.528  0.4769 -1.0191 -0.7454
 6948SOL    HW232478   3.693   1.179  17.464 -0.7332  0.8608  1.1780
 6949SOL     OW32479   4.216   0.254  13.580  0.1281 -0.6334  0.0062
 6949SOL    HW132480   4.217   0.187  13.648  2.2942 -0.6381 -0.0280
 6949SOL    HW232481   4.222   0.340  13.623  2.8207 -1.4619  1.2831
 6950SOL     OW32482   0.270   1.221   2.031 -0.5804 -0.0282 -0.7756
 6950SOL    HW132483   0.286   1.295   1.973  2.6268 -0.9545 -1.1004
 6950SOL    HW232484   0.357   1.205   2.070 -0.3366  0.0677 -1.2835
 6951SOL     OW32485   2.577   4.135  13.043 -0.6321 -0.1585 -0.0849
 6951SOL    HW132486   2.528   4.080  12.982 -1.1241 -0.2358  0.3784
 6951SOL    HW232487   2.601   4.207  12.985 -0.6646 -0.4038 -0.3998
 6952SOL     OW32488   1.799   2.760   3.372 -0.2452  0.3996 -0.5693
 6952SOL    HW132489   1.786   2.732   3.281  0.8424 -2.0720  0.0199
 6952SOL    HW232490   1.882   2.808   3.366  1.1039 -1.8630 -0.3247
 6953SOL     OW32491   3.326   2.322  13.587  0.0614 -0.2331 -0.0220
 6953SOL    HW132492   3.361   2.305  13.499  2.4671 -0.4817  0.9803
 6953SOL    HW232493   3.301   2.234  13.616  0.0483  0.4751  2.0932
 6954SOL     OW32494   0.902   3.539   0.261 -0.3554 -0.0228 -0.0140
 6954SOL    HW132495   0.860   3.511   0.180  1.2090 -0.1335 -0.7799
 6954SOL    HW232496   0.889   3.459   0.311  0.0045  0.2027  0.4388
 6955SOL     OW32497   4.454   3.756  15.921  0.6337 -0.1335 -0.0732
 6955SOL    HW132498   4.509   3.761  16.000  0.3232 -0.3149  0.1556
 6955SOL    HW232499   4.521   3.790  15.862  0.0164  0.0177 -0.6807
 6956SOL     OW32500   1.507   0.858   7.676  0.3062 -0.2151  0.4259
 6956SOL    HW132501   1.562   0.917   7.626 -2.8933  1.4589 -1.1172
 6956SOL    HW232502   1.445   0.829   7.609  0.8189  1.2431 -0.6717
 6957SOL     OW32503   3.118   1.723   6.286  0.1327 -0.3474  0.5400
 6957SOL    HW132504   3.184   1.768   6.340  0.3461 -1.2615  1.0473
 6957SOL    HW232505   3.165   1.640   6.276 -0.2464 -0.5212  0.2301
 6958SOL     OW32506   2.442   1.316   5.573 -0.4093 -0.3974  0.2879
 6958SOL    HW132507   2.422   1.233   5.615  2.7978 -0.4855  1.6743
 6958SOL    HW232508   2.368   1.367   5.604 -0.2863 -0.9457  1.4937
 6959SOL     OW32509   3.257   0.980   1.977  0.0925 -0.1821  0.2668
 6959SOL    HW132510   3.247   1.027   2.060  2.3921 -0.9554  0.9905
 6959SOL    HW232511   3.180   1.014   1.932  0.4277 -2.0136 -1.7369
 6960SOL     OW32512   1.350   2.052   7.757 -0.0228 -0.4569  0.4287
 6960SOL    HW132513   1.411   2.017   7.693 -0.5768 -1.8872  0.6900
 6960SOL    HW232514   1.281   2.073   7.694 -0.8842  2.9453  2.5071
 6961SOL     OW32515   3.133   4.434   7.442 -0.2317  0.2460  0.2851
 6961SOL    HW132516   3.045   4.398   7.434 -0.8592  1.3324  2.3387
 6961SOL    HW232517   3.187   4.355   7.433 -1.8099 -0.8664  0.6501
 6962SOL     OW32518   0.351   2.396   3.984 -0.2411  0.0618 -0.2399
 6962SOL    HW132519   0.345   2.327   3.919  0.2725  2.2656 -2.6064
 6962SOL    HW232520   0.345   2.473   3.928 -0.8851  0.9867  1.0847
 6963SOL     OW32521   2.306   4.550   5.012 -0.2296  0.1656 -0.3470
 6963SOL    HW132522   2.255   4.507   4.943 -0.9311  0.9046 -0.2832
 6963SOL    HW232523   2.286   4.490   5.084  0.9798 -1.0663 -1.0308
 6964SOL     OW32524   3.147   2.805  14.100 -0.0707 -0.1752  0.5350
 6964SOL    HW132525   3.164   2.874  14.164 -2.5174 -0.4224  1.4635
 6964SOL    HW232526   3.059   2.828  14.071 -0.7618 -0.2893  2.5438
 6965SOL     OW32527   1.825   2.965   8.621  0.3892  0.1579  0.1364
 6965SOL    HW132528   1.823   2.871   8.607  3.1513  0.8497 -4.8254
 6965SOL    HW232529   1.905   3.000   8.582  0.3743  0.5524  0.4516
 6966SOL     OW32530   1.737   2.794   2.262 -0.3409  0.1905 -0.0228
 6966SOL    HW132531   1.689   2.712   2.274  1.5294 -0.7134  1.2744
 6966SOL    HW232532   1.783   2.758   2.186  0.6609 -0.3829  0.8595
 6967SOL     OW32533   3.278   3.206  13.354 -0.0197 -0.6276 -0.0301
 6967SOL    HW132534   3.217   3.223  13.282 -1.0846  0.2536  1.0738
 6967SOL    HW232535   3.250   3.273  13.416 -2.7226 -2.7017  0.9517
 6968SOL     OW32536   0.445   2.732  12.523  0.2004 -0.4096  0.4134
 6968SOL    HW132537   0.413   2.821  12.507  2.8156  0.5000  0.3676
 6968SOL    HW232538   0.507   2.758  12.591  2.4883 -1.5945 -1.2457
 6969SOL     OW32539   3.678   2.828   5.612 -0.1211 -0.2196 -0.1775
 6969SOL    HW132540   3.600   2.788   5.651 -0.0907 -2.0030 -1.9274
 6969SOL    HW232541   3.754   2.796   5.660 -1.3595 -4.2279 -0.8105
 6970SOL     OW32542   4.038   0.320   6.661 -0.2337 -0.3226  0.0221
 6970SOL    HW132543   4.125   0.334   6.625 -0.1943 -1.0421 -0.1456
 6970SOL    HW232544   4.014   0.245   6.607  0.0211 -0.3769 -0.0131
 6971SOL     OW32545   0.323   1.688   2.005  0.1520  0.0078 -0.4107
 6971SOL    HW132546   0.236   1.708   2.041  0.8097  0.7412  0.7896
 6971SOL    HW232547   0.384   1.728   2.068 -1.7314  1.3553  0.5816
 6972SOL     OW32548   3.212   4.158   6.790 -0.5494  0.2302 -0.4593
 6972SOL    HW132549   3.167   4.171   6.873  0.3321  1.1722 -0.1241
 6972SOL    HW232550   3.171   4.077   6.761  0.2664 -0.8421  1.3674
 6973SOL     OW32551   3.912   4.561   4.104  0.0081 -0.2053 -0.5865
 6973SOL    HW132552   3.950   4.646   4.128 -0.2969  0.0331 -0.9473
 6973SOL    HW232553   3.971   4.499   4.147 -0.0722  0.1197  0.0003
 6974SOL     OW32554   0.280   2.531   8.201  0.2363  0.2347 -0.5204
 6974SOL    HW132555   0.189   2.544   8.174 -0.0351  0.8313  0.6650
 6974SOL    HW232556   0.279   2.580   8.283 -2.0322 -0.4671 -0.1121
 6975SOL     OW32557   2.983   3.469   8.079  0.4310  0.2349 -0.7477
 6975SOL    HW132558   3.049   3.519   8.032  0.7858  1.2840  0.8921
 6975SOL    HW232559   2.972   3.513   8.163 -2.5734 -0.6343 -0.6726
 6976SOL     OW32560   2.252   1.293   4.645  0.0199  0.0727  0.4408
 6976SOL    HW132561   2.168   1.277   4.600  0.9354  0.2681 -1.3542
 6976SOL    HW232562   2.306   1.305   4.567 -0.3842 -1.4544 -0.0680
 6977SOL     OW32563   3.141   1.621  17.538 -0.0332  0.0820 -0.1525
 6977SOL    HW132564   3.200   1.546  17.534  0.4928  0.4309  1.0369
 6977SOL    HW232565   3.072   1.605  17.474  0.2567  1.0199 -0.6837
 6978SOL     OW32566   1.664   0.973   3.973  0.4451 -0.1296 -0.1533
 6978SOL    HW132567   1.602   0.903   3.991  1.2850 -1.2051 -1.4081
 6978SOL    HW232568   1.657   0.989   3.879  2.7048 -0.1304 -0.3270
 6979SOL     OW32569   1.122   3.020   2.520  0.4250 -0.7775  0.1650
 6979SOL    HW132570   1.114   3.010   2.615  1.7255 -0.1719  0.3345
 6979SOL    HW232571   1.123   3.116   2.518  2.2848 -0.8683 -2.4833
 6980SOL     OW32572   2.389   1.112   9.323  0.0352 -0.4076 -0.2564
 6980SOL    HW132573   2.302   1.101   9.362  0.7653  0.8026  1.7047
 6980SOL    HW232574   2.395   1.052   9.248 -1.4605 -0.7170 -0.1367
 6981SOL     OW32575   0.481   1.394   7.004  0.3952  0.1957 -0.3971
 6981SOL    HW132576   0.509   1.373   7.092  1.9201 -1.9372 -1.3909
 6981SOL    HW232577   0.479   1.490   6.995 -0.9015  0.1935 -0.0547
 6982SOL     OW32578   4.612   0.664   5.423 -0.4203 -0.2181  0.1785
 6982SOL    HW132579   4.619   0.624   5.510 -0.3165  1.2438  0.8449
 6982SOL    HW232580   4.693   0.715   5.424  0.9824 -2.4295 -0.2808
 6983SOL     OW32581   4.075   2.940   1.288 -0.3782 -0.0270 -0.1390
 6983SOL    HW132582   4.166   2.913   1.280 -0.0276 -0.0910  4.1898
 6983SOL    HW232583   4.033   2.855   1.272  0.2861 -0.1747 -1.1031
 6984SOL     OW32584   4.367   0.387   4.461  0.5363 -0.0083 -0.1081
 6984SOL    HW132585   4.424   0.314   4.485  0.3724  0.2199  0.9901
 6984SOL    HW232586   4.411   0.462   4.501 -0.2050  1.7068 -2.5263
 6985SOL     OW32587   4.184   0.199   5.152  0.2658 -0.1031 -0.9386
 6985SOL    HW132588   4.258   0.252   5.123 -0.9594  1.4410 -1.2614
 6985SOL    HW232589   4.119   0.267   5.171  1.3571  0.7548 -0.3094
 6986SOL     OW32590   3.890   1.092   6.962  0.3239 -0.1211 -0.3373
 6986SOL    HW132591   3.980   1.104   6.991  1.0885 -0.0063 -2.7897
 6986SOL    HW232592   3.889   1.082   6.867  0.2488 -1.7965 -0.1599
 6987SOL     OW32593   3.805   1.894   6.379  0.1026 -0.2866  0.7233
 6987SOL    HW132594   3.800   1.858   6.290 -0.6373 -1.6396  1.3064
 6987SOL    HW232595   3.831   1.983   6.354  0.7243 -0.3239  1.2681
 6988SOL     OW32596   0.839   0.826   4.436  0.2405 -0.7297  0.2073
 6988SOL    HW132597   0.864   0.739   4.466 -2.6448 -1.7228 -0.1925
 6988SOL    HW232598   0.810   0.811   4.346  0.0348 -1.6950  0.4336
 6989SOL     OW32599   1.050   0.791   4.936  0.1252 -0.6028  0.5951
 6989SOL    HW132600   1.140   0.817   4.957 -0.2127  0.4895  0.6541
 6989SOL    HW232601   1.066   0.775   4.843  1.4919 -0.1637  0.7462
 6990SOL     OW32602   1.940   0.088   5.971  0.1202 -0.1108 -0.1726
 6990SOL    HW132603   2.026   0.062   6.004 -0.0402 -0.0351  0.3117
 6990SOL    HW232604   1.971   0.165   5.923  1.2663 -0.5558 -0.1308
 6991SOL     OW32605   0.810   0.929   4.894  0.0476  0.6250  0.3407
 6991SOL    HW132606   0.836   0.963   4.808  2.6480 -3.4015 -0.4849
 6991SOL    HW232607   0.893   0.904   4.933  0.9015  0.5643 -1.4795
 6992SOL     OW32608   1.242   2.781   1.011  0.0178 -0.5136  0.2151
 6992SOL    HW132609   1.220   2.736   0.929  2.7556 -1.7957  0.1853
 6992SOL    HW232610   1.155   2.803   1.044  0.6110  0.5557  1.0856
 6993SOL     OW32611   3.757   0.025   1.357  0.1809 -0.1708  0.4632
 6993SOL    HW132612   3.765   0.040   1.263 -2.0768 -0.3492  0.2315
 6993SOL    HW232613   3.769   4.667   1.362 -3.7560 -0.6417  1.4886
 6994SOL     OW32614   1.246   1.493   7.124  0.0140 -0.2714 -0.1320
 6994SOL    HW132615   1.266   1.532   7.209  0.4883  0.1171 -0.4174
 6994SOL    HW232616   1.324   1.500   7.070 -0.9036 -0.3105 -1.4759
 6995SOL     OW32617   4.431   0.865   5.507 -0.5584  0.1401 -0.8611
 6995SOL    HW132618   4.493   0.823   5.448  1.2836  0.4554  0.8541
 6995SOL    HW232619   4.369   0.793   5.518  0.1760 -0.4044 -0.3047
 6996SOL     OW32620   0.927   2.987   4.681 -0.0132 -0.5373 -0.1255
 6996SOL    HW132621   0.856   2.959   4.623 -0.3314 -0.8466  0.4050
 6996SOL    HW232622   0.923   3.082   4.690 -0.3351 -0.5039 -0.6666
 6997SOL     OW32623   4.326   0.692   4.578  0.5666  0.3694 -0.6940
 6997SOL    HW132624   4.290   0.767   4.531 -0.4341 -0.6638 -1.5815
 6997SOL    HW232625   4.411   0.679   4.537  1.8949 -0.6096  2.3588
 6998SOL     OW32626   1.626   3.094   3.589  0.5242 -0.2748 -1.3457
 6998SOL    HW132627   1.568   3.054   3.524 -1.3036  2.4019 -1.3778
 6998SOL    HW232628   1.676   3.153   3.532 -0.1812  0.3927 -1.2719
 6999SOL     OW32629   3.899   2.457   4.414  0.1641 -0.3609 -0.0248
 6999SOL    HW132630   3.844   2.513   4.469 -0.8189 -0.1215 -1.2398
 6999SOL    HW232631   3.958   2.522   4.376  0.5533 -0.6781  0.0343
 7000SOL     OW32632   2.834   4.068  13.986  0.1948 -0.2663  0.0899
 7000SOL    HW132633   2.780   4.067  13.907  0.9764  0.6023 -0.4563
 7000SOL    HW232634   2.829   4.160  14.014 -1.9389 -0.2490 -0.3167
 7001SOL     OW32635   2.739   2.729   1.232 -0.0712  0.2820  0.1942
 7001SOL    HW132636   2.741   2.815   1.191 -1.0357 -0.5229 -1.5623
 7001SOL    HW232637   2.825   2.721   1.272 -0.3415  0.4926  0.8206
 7002SOL     OW32638   2.853   1.201   1.187  0.1886  0.6720  0.7727
 7002SOL    HW132639   2.769   1.174   1.223  1.7547  0.7420  4.4067
 7002SOL    HW232640   2.883   1.129   1.132  0.2559  0.1839  1.4545
 7003SOL     OW32641   3.475   3.755   2.601 -0.1451 -0.3842 -0.0688
 7003SOL    HW132642   3.463   3.787   2.691 -0.7658 -0.1607 -0.2319
 7003SOL    HW232643   3.383   3.756   2.573 -0.4393 -1.6824  0.8331
 7004SOL     OW32644   3.979   2.492  15.568  0.5699  0.9363 -0.4243
 7004SOL    HW132645   4.041   2.426  15.600  0.5330  0.8825 -0.4652
 7004SOL    HW232646   4.019   2.575  15.592 -0.8168  1.6044 -0.4468
 7005SOL     OW32647   2.922   3.169   2.086 -0.4883  0.2616 -0.2132
 7005SOL    HW132648   2.927   3.076   2.062 -2.5479 -0.2001  1.1797
 7005SOL    HW232649   2.999   3.199   2.038  0.6875 -0.5626  1.1313
 7006SOL     OW32650   1.422   1.336   4.755 -0.5334 -0.0497 -0.4832
 7006SOL    HW132651   1.498   1.339   4.813 -0.4066 -0.7894 -0.6114
 7006SOL    HW232652   1.409   1.428   4.734  2.6236  0.4458 -0.3238
 7007SOL     OW32653   0.381   4.364  13.395 -0.4248 -0.0476  0.5574
 7007SOL    HW132654   0.358   4.444  13.348  2.2228  0.4856  0.1894
 7007SOL    HW232655   0.388   4.403  13.483 -1.5695 -0.9051  1.0209
 7008SOL     OW32656   3.613   1.899  13.152 -0.2347  0.5416 -0.1993
 7008SOL    HW132657   3.598   1.977  13.205 -0.8669  1.2637 -1.4363
 7008SOL    HW232658   3.529   1.856  13.161  0.9419 -2.1209 -1.9785
 7009SOL     OW32659   1.300   0.778   0.963 -0.0330  0.7025 -0.5341
 7009SOL    HW132660   1.254   0.807   1.042 -2.8707 -2.2317 -1.0804
 7009SOL    HW232661   1.263   0.830   0.891 -1.4301 -0.7806 -0.8931
 7010SOL     OW32662   4.037   4.032  13.238 -0.1160  0.7019  0.8697
 7010SOL    HW132663   4.108   4.072  13.187 -2.1240  2.2766 -0.6668
 7010SOL    HW232664   3.966   4.093  13.220 -1.6535 -1.4042 -0.2779
 7011SOL     OW32665   2.658   4.212   5.931  0.1231  0.2249  0.3106
 7011SOL    HW132666   2.670   4.228   6.025 -1.5250  1.0294  0.3847
 7011SOL    HW232667   2.591   4.272   5.898  0.4207  0.5076  0.2189
 7012SOL     OW32668   3.500   4.173   3.542  0.1864 -0.2669 -0.5671
 7012SOL    HW132669   3.590   4.195   3.516 -0.3089  0.5244 -1.6001
 7012SOL    HW232670   3.473   4.261   3.570  0.6066 -0.4613  0.4412
 7013SOL     OW32671   1.242   0.962   6.941  0.4124 -0.1728  0.3089
 7013SOL    HW132672   1.333   0.973   6.968 -0.3784  0.8304  2.6033
 7013SOL    HW232673   1.205   1.045   6.972  0.0752 -0.3561  0.4048
 7014SOL     OW32674   2.271   4.076   1.772  0.6198 -0.2245 -0.7024
 7014SOL    HW132675   2.203   4.071   1.839  2.2738 -1.7179  0.8368
 7014SOL    HW232676   2.297   3.985   1.764  0.9317 -0.1278 -0.8130
 7015SOL     OW32677   0.709   1.020   7.571  0.2608  0.3843  0.3650
 7015SOL    HW132678   0.668   0.949   7.619  1.0936  0.7513  1.6128
 7015SOL    HW232679   0.802   1.006   7.591 -0.0922  1.3323  2.5574
 7016SOL     OW32680   0.228   3.958   2.866  0.3385  0.6666 -0.4811
 7016SOL    HW132681   0.305   3.901   2.863 -0.8568 -0.9679 -0.2302
 7016SOL    HW232682   0.176   3.910   2.932 -0.1039 -1.8246 -2.6664
 7017SOL     OW32683   0.063   1.454  14.950  0.0302 -0.5853  0.4118
 7017SOL    HW132684   0.001   1.511  14.904  1.1282 -1.5299 -2.2344
 7017SOL    HW232685   0.137   1.511  14.969  0.4595 -0.5921 -1.2068
 7018SOL     OW32686   3.335   3.569   7.105  0.1457  0.2959  0.4663
 7018SOL    HW132687   3.389   3.644   7.126  1.2877 -0.3330 -0.2344
 7018SOL    HW232688   3.326   3.577   7.010 -1.9185 -1.1326  0.5402
 7019SOL     OW32689   0.270   3.059  15.998 -0.1645  0.0523 -0.3218
 7019SOL    HW132690   0.276   3.067  16.093 -1.2343 -0.8497 -0.1790
 7019SOL    HW232691   0.356   3.089  15.967  0.2935 -0.5592  0.3586
 7020SOL     OW32692   4.475   2.559   6.667 -0.2901  0.5053 -0.1418
 7020SOL    HW132693   4.570   2.561   6.678 -0.1574  3.8581 -2.1281
 7020SOL    HW232694   4.470   2.485   6.606 -3.2388  1.2879 -0.8639
 7021SOL     OW32695   1.654   1.542   3.926 -0.0229 -0.1934 -0.0302
 7021SOL    HW132696   1.564   1.569   3.946  0.4038 -0.4521  2.2771
 7021SOL    HW232697   1.636   1.452   3.898 -1.1044  0.5682 -1.7685
 7022SOL     OW32698   3.881   2.585   9.037 -1.1414 -0.4897 -0.7538
 7022SOL    HW132699   3.807   2.578   9.098  0.4428  0.0529  1.2175
 7022SOL    HW232700   3.957   2.589   9.095 -2.0896 -0.9646  0.5024
 7023SOL     OW32701   1.075   2.931   3.297  0.7078 -0.1351  0.1738
 7023SOL    HW132702   1.136   2.916   3.370  1.9652 -0.7654 -1.0197
 7023SOL    HW232703   1.128   2.942   3.219 -1.4594  0.3817 -1.2161
 7024SOL     OW32704   0.508   3.594  15.407 -0.0062 -0.1094 -0.8417
 7024SOL    HW132705   0.556   3.592  15.490 -1.3472 -1.5240 -0.0892
 7024SOL    HW232706   0.524   3.681  15.371 -1.0501  0.9057  1.1660
 7025SOL     OW32707   1.214   3.339   5.731  0.2579  0.4777  0.3057
 7025SOL    HW132708   1.248   3.254   5.702 -0.9554  0.4655 -1.0913
 7025SOL    HW232709   1.256   3.358   5.814  0.0205  1.6792  0.1507
 7026SOL     OW32710   2.506   4.476   3.642  0.1945  0.3313  0.4776
 7026SOL    HW132711   2.536   4.413   3.707  0.2080 -0.2348 -0.0729
 7026SOL    HW232712   2.543   4.440   3.561  1.0126 -3.3676  2.5054
 7027SOL     OW32713   3.472   2.390   8.044 -0.3128  0.1203 -0.4590
 7027SOL    HW132714   3.480   2.326   8.114  1.8524  0.7743 -0.1222
 7027SOL    HW232715   3.399   2.445   8.071  1.5353  1.6987  1.2908
 7028SOL     OW32716   4.157   3.558   8.033  0.0214 -0.2798  0.4604
 7028SOL    HW132717   4.128   3.586   7.947 -0.5489  0.3181  0.8431
 7028SOL    HW232718   4.069   3.553   8.071 -0.0166  0.5377  0.4776
 7029SOL     OW32719   0.511   3.188   1.396  0.0579  0.1374  0.5901
 7029SOL    HW132720   0.444   3.236   1.347 -0.5066  2.9463  4.0617
 7029SOL    HW232721   0.496   3.213   1.487  1.9236 -0.3193  1.0139
 7030SOL     OW32722   1.297   2.936   6.646  0.6967  0.3720 -0.7926
 7030SOL    HW132723   1.298   2.861   6.706  1.6449 -0.0954 -1.4095
 7030SOL    HW232724   1.212   2.910   6.610  0.8423 -1.5988  0.2528
 7031SOL     OW32725   1.230   4.643  12.662  0.0972 -0.4015 -0.6341
 7031SOL    HW132726   1.161   4.609  12.719  0.6080  1.2710  1.0064
 7031SOL    HW232727   1.301   4.628  12.725 -2.5682  2.5463  3.1312
 7032SOL     OW32728   3.388   0.328   4.643  0.0639 -0.0539  0.3776
 7032SOL    HW132729   3.453   0.390   4.676  2.0463 -2.3819  0.8341
 7032SOL    HW232730   3.349   0.375   4.569 -1.7747 -1.5857  0.3623
 7033SOL     OW32731   3.683   2.689   7.771  0.1915 -0.1040  0.6147
 7033SOL    HW132732   3.684   2.687   7.867  1.5561 -1.3608  0.5631
 7033SOL    HW232733   3.613   2.627   7.750 -1.3338  0.8897  2.6158
 7034SOL     OW32734   2.418   2.684   5.521  0.3840  0.0164  0.4507
 7034SOL    HW132735   2.408   2.694   5.615 -1.3517  0.4623  0.2254
 7034SOL    HW232736   2.329   2.650   5.514  0.0148  1.1782 -0.4913
 7035SOL     OW32737   2.047   2.969   0.806  0.0870 -0.3905  0.4878
 7035SOL    HW132738   1.989   2.934   0.873  1.0078 -2.2120  0.3244
 7035SOL    HW232739   2.033   2.894   0.748  1.5599 -0.3106  0.0172
 7036SOL     OW32740   2.546   1.216  14.688  0.3223  0.2120  0.1584
 7036SOL    HW132741   2.627   1.164  14.688 -0.1112 -0.4487  2.7679
 7036SOL    HW232742   2.552   1.256  14.775  1.3059  1.1169 -0.3172
 7037SOL     OW32743   0.678   4.515   2.847  0.1611  0.0387 -0.3192
 7037SOL    HW132744   0.623   4.570   2.791 -1.0336  0.2772  1.0651
 7037SOL    HW232745   0.642   4.540   2.933 -0.4605  0.3470 -0.6698
 7038SOL     OW32746   0.759   0.144   3.666 -0.4540  0.1866 -0.2944
 7038SOL    HW132747   0.810   0.168   3.743 -1.3324 -1.4903  0.8356
 7038SOL    HW232748   0.694   0.087   3.709 -0.3322 -0.1699 -0.5811
 7039SOL     OW32749   0.976   2.249   7.922 -0.2356 -0.0303  1.0112
 7039SOL    HW132750   0.998   2.331   7.878  0.1590  0.2549  1.7463
 7039SOL    HW232751   0.916   2.206   7.861  1.0730 -0.9324  0.3477
 7040SOL     OW32752   1.934   3.025  14.050 -0.0729  0.1115 -0.0857
 7040SOL    HW132753   2.017   3.065  14.075  1.1506 -1.4477 -1.6479
 7040SOL    HW232754   1.928   3.056  13.960  0.3709 -0.7430 -0.4112
 7041SOL     OW32755   0.936   0.944   5.990  0.5241  0.8346 -0.0207
 7041SOL    HW132756   0.996   0.962   5.918 -0.5210  1.7803 -0.6497
 7041SOL    HW232757   0.895   0.864   5.957  1.2377  0.3959  0.1477
 7042SOL     OW32758   2.062   0.448   7.523 -0.3172 -0.1772 -0.1758
 7042SOL    HW132759   2.047   0.542   7.538 -1.5957 -0.2919 -0.7490
 7042SOL    HW232760   2.008   0.406   7.589 -2.4648  0.6108 -1.4558
 7043SOL     OW32761   3.001   0.968   3.847  0.3656  0.0911 -0.1899
 7043SOL    HW132762   2.917   0.971   3.801  1.2270  1.8243 -1.6352
 7043SOL    HW232763   2.984   1.033   3.916 -0.2995  1.2126 -1.4082
 7044SOL     OW32764   3.483   0.954  17.394  0.2385  0.1648  0.5754
 7044SOL    HW132765   3.473   0.921  17.483  1.4674  1.4177  1.1697
 7044SOL    HW232766   3.458   0.883  17.335  0.6425  1.6138 -1.3250
 7045SOL     OW32767   2.194   0.234  16.183  0.1317 -0.2172  0.2295
 7045SOL    HW132768   2.178   0.154  16.232 -1.3456  0.4430  0.7987
 7045SOL    HW232769   2.136   0.297  16.226 -1.9953 -1.8986 -0.2275
 7046SOL     OW32770   1.345   0.838   4.643 -0.0055  0.1215 -0.5235
 7046SOL    HW132771   1.399   0.832   4.565 -0.0722  1.5638 -0.6885
 7046SOL    HW232772   1.320   0.930   4.635 -1.9303 -0.3309  0.2111
 7047SOL     OW32773   3.847   4.533   1.775 -0.3244  0.1775 -0.3298
 7047SOL    HW132774   3.827   4.625   1.758  0.0434  0.3169 -0.0037
 7047SOL    HW232775   3.803   4.516   1.858  0.2750 -0.5188 -0.1635
 7048SOL     OW32776   4.012   1.535   8.719  0.4296  0.1912  0.3142
 7048SOL    HW132777   4.037   1.467   8.658  1.3927  0.5520  0.3109
 7048SOL    HW232778   4.083   1.525   8.783  0.1452  1.0770  0.7849
 7049SOL     OW32779   3.818   2.207   0.148  0.5044 -0.2988 -0.2687
 7049SOL    HW132780   3.819   2.179   0.240  0.8398 -1.6838 -0.6864
 7049SOL    HW232781   3.731   2.176   0.123  0.7495 -0.7118 -0.6146
 7050SOL     OW32782   4.172   0.026   8.001  0.8360 -0.0188  0.1438
 7050SOL    HW132783   4.162   0.004   7.909  0.2050  1.3422 -0.1081
 7050SOL    HW232784   4.161   4.677   8.042 -1.3627  0.5232  0.7013
 7051SOL     OW32785   1.499   2.169   2.069  0.1895 -0.0495 -0.0168
 7051SOL    HW132786   1.549   2.154   1.988  1.1421 -0.6854  0.6973
 7051SOL    HW232787   1.471   2.258   2.046  0.7220  0.0930 -0.1149
 7052SOL     OW32788   0.441   1.966   4.936 -0.5135 -0.5007  0.2828
 7052SOL    HW132789   0.400   1.969   5.022 -0.3267  1.4314  0.2946
 7052SOL    HW232790   0.500   1.894   4.960 -0.4478 -0.5889 -0.1430
 7053SOL     OW32791   2.016   2.052  16.481  0.0725 -0.0125 -0.1255
 7053SOL    HW132792   2.027   1.969  16.433  0.7687 -0.5774  1.0029
 7053SOL    HW232793   1.945   2.091  16.429 -2.4989 -3.1737  0.9467
 7054SOL     OW32794   2.158   1.429  14.946 -0.1368  0.2286 -0.1939
 7054SOL    HW132795   2.094   1.389  14.887 -0.2599  0.7846 -0.4401
 7054SOL    HW232796   2.216   1.353  14.950  0.4906  0.7861  1.4600
 7055SOL     OW32797   3.382   1.090   8.486  0.0107  0.2522 -0.3828
 7055SOL    HW132798   3.336   1.061   8.408  1.0916 -0.9247 -0.5883
 7055SOL    HW232799   3.388   1.183   8.464  0.9095  0.8044  2.2179
 7056SOL     OW32800   0.635   3.849  15.050 -0.4439 -0.4183  0.0142
 7056SOL    HW132801   0.587   3.769  15.073  0.1451 -1.4421 -2.3245
 7056SOL    HW232802   0.676   3.814  14.971  3.6139  1.6763  1.1717
 7057SOL     OW32803   0.303   1.083  12.531  0.1383  0.6060 -0.0507
 7057SOL    HW132804   0.331   1.014  12.591 -1.6822  1.3886  1.7230
 7057SOL    HW232805   0.263   1.129  12.606  1.2089  3.2053 -1.0646
 7058SOL     OW32806   2.900   0.060  15.298 -0.5013  0.1757 -0.5063
 7058SOL    HW132807   2.895   0.129  15.365 -0.7258 -0.0268 -0.3170
 7058SOL    HW232808   2.963   0.005  15.345 -1.1307  0.7812  1.0484
 7059SOL     OW32809   4.019   2.027   5.824 -0.2449  0.2841  0.3258
 7059SOL    HW132810   4.049   1.938   5.806 -1.5530 -0.7324  3.1107
 7059SOL    HW232811   3.988   2.046   5.736  1.1129 -1.1819 -0.4775
 7060SOL     OW32812   2.782   0.760  11.414 -1.0324 -0.3118 -0.3167
 7060SOL    HW132813   2.763   0.850  11.442  0.8808 -0.2120  0.6637
 7060SOL    HW232814   2.730   0.715  11.481  0.1285  0.6821  1.2699
 7061SOL     OW32815   1.323   1.844   3.328  0.3800 -0.1165  0.2605
 7061SOL    HW132816   1.378   1.836   3.407  0.2792  1.8429  0.5442
 7061SOL    HW232817   1.338   1.939   3.329  2.7308 -0.4627 -2.7553
 7062SOL     OW32818   1.816   3.217   5.085 -0.3674  0.1196 -0.0521
 7062SOL    HW132819   1.723   3.199   5.095 -0.8102  0.5090 -3.3289
 7062SOL    HW232820   1.813   3.306   5.050  1.3178 -1.4288 -4.1568
 7063SOL     OW32821   2.612   4.224   1.437 -0.0783  0.3242  0.5733
 7063SOL    HW132822   2.670   4.240   1.511  1.1513  1.3790 -0.6124
 7063SOL    HW232823   2.526   4.234   1.478  0.2521 -1.8379  1.7898
 7064SOL     OW32824   1.135   2.008   6.436  0.2885  0.0172  0.0873
 7064SOL    HW132825   1.157   1.944   6.504  0.1269  0.9142  0.9876
 7064SOL    HW232826   1.157   2.090   6.482  2.4482 -0.9608  0.8001
 7065SOL     OW32827   4.455   0.035   8.652 -0.0549 -0.0016 -0.1073
 7065SOL    HW132828   4.541   0.074   8.637 -0.0804 -0.1464 -0.6443
 7065SOL    HW232829   4.438   0.066   8.740  1.5260 -0.1168  0.2235
 7066SOL     OW32830   0.113   0.732   3.033  0.4457  0.5402 -0.1230
 7066SOL    HW132831   0.208   0.722   3.022  0.2481 -1.6777  0.2248
 7066SOL    HW232832   0.091   0.689   2.950 -0.6844  0.4841  0.2008
 7067SOL     OW32833   1.022   3.816   0.668 -0.2434 -0.1846  0.0685
 7067SOL    HW132834   1.031   3.841   0.576 -2.1965  3.3270  0.8378
 7067SOL    HW232835   0.956   3.875   0.704 -0.1470 -1.5007  2.4109
 7068SOL     OW32836   1.629   0.646  17.033  0.2460 -0.5766  0.2936
 7068SOL    HW132837   1.552   0.660  16.978 -0.4942 -0.7414  1.3045
 7068SOL    HW232838   1.706   0.696  17.004  1.1914 -1.9190  0.4649
 7069SOL     OW32839   1.033   0.013   1.176 -0.0106 -0.4973 -0.2794
 7069SOL    HW132840   1.065   4.667   1.141  0.6782 -0.2588 -0.2155
 7069SOL    HW232841   0.958   0.028   1.119  0.9293 -1.5801 -1.8015
 7070SOL     OW32842   1.667   3.265  12.163 -0.3112  0.3321 -0.0760
 7070SOL    HW132843   1.760   3.242  12.168 -0.6130 -1.2141 -1.5413
 7070SOL    HW232844   1.639   3.197  12.102 -0.8384  2.4735 -2.2114
 7071SOL     OW32845   0.425   1.189   3.393  0.0430  0.2995  0.1234
 7071SOL    HW132846   0.509   1.146   3.410 -0.5054 -1.4814 -1.6989
 7071SOL    HW232847   0.389   1.226   3.474 -0.7226  0.3587 -0.2482
 7072SOL     OW32848   3.491   3.809   9.392  0.5297 -0.0025  0.0391
 7072SOL    HW132849   3.561   3.825   9.454 -0.2541  0.1424  0.8837
 7072SOL    HW232850   3.493   3.897   9.353  1.0559  0.0884  0.2806
 7073SOL     OW32851   1.080   2.959   7.690 -0.2090  0.0000 -0.1416
 7073SOL    HW132852   1.091   3.043   7.737  2.3642 -1.1828  1.4094
 7073SOL    HW232853   1.171   2.939   7.667  0.3851 -0.5094  2.5442
 7074SOL     OW32854   2.598   1.609   9.209  0.0586 -0.2344  0.0065
 7074SOL    HW132855   2.597   1.515   9.187 -0.2262  0.4955 -3.0326
 7074SOL    HW232856   2.593   1.636   9.118 -0.6237  0.7957  0.3584
 7075SOL     OW32857   3.698   2.423   8.459 -0.0678  0.1118 -0.2052
 7075SOL    HW132858   3.714   2.421   8.365 -0.1822 -0.9277 -0.2045
 7075SOL    HW232859   3.722   2.514   8.480  2.5437 -1.0552  1.8956
 7076SOL     OW32860   3.786   2.174   0.415  0.2332  0.2683 -0.3621
 7076SOL    HW132861   3.834   2.180   0.497  0.4814  1.6809 -0.6093
 7076SOL    HW232862   3.706   2.156   0.463  1.2993  1.5254  1.8684
 7077SOL     OW32863   1.880   0.004   3.393  0.0840 -1.0384  0.1904
 7077SOL    HW132864   1.907   0.087   3.354  0.0313 -1.5440 -0.9229
 7077SOL    HW232865   1.889   4.678   3.321 -2.8973 -1.8855  0.5616
 7078SOL     OW32866   2.995   3.442   4.564  0.2263 -0.6460  0.8630
 7078SOL    HW132867   2.981   3.519   4.620 -0.5568  0.0367 -0.2642
 7078SOL    HW232868   2.935   3.467   4.494 -0.6777 -1.4574  1.3589
 7079SOL     OW32869   2.008   0.075   5.178  0.2494  0.1152  0.4645
 7079SOL    HW132870   1.959   0.135   5.120  0.0769  0.5519  1.0575
 7079SOL    HW232871   2.013   0.126   5.259 -1.1646 -0.3542  0.8427
 7080SOL     OW32872   4.494   0.216   2.848 -0.5733  0.0673 -0.2362
 7080SOL    HW132873   4.510   0.286   2.912  0.4929 -0.5030  0.1152
 7080SOL    HW232874   4.517   0.137   2.896  1.3514  1.8170  1.7639
 7081SOL     OW32875   0.853   0.690   7.739  0.6402  0.3925  0.2845
 7081SOL    HW132876   0.836   0.730   7.825  0.6652 -0.0773  0.5048
 7081SOL    HW232877   0.796   0.613   7.746 -1.1566  1.5928 -0.9472
 7082SOL     OW32878   0.680   0.024   7.966 -0.0292  0.0552 -0.4331
 7082SOL    HW132879   0.602   4.724   8.007  1.0140 -0.7280  0.8432
 7082SOL    HW232880   0.696   0.110   8.007 -1.4929 -0.5005  1.3532
 7083SOL     OW32881   2.121   3.990   7.747  0.1106  0.3633  0.2054
 7083SOL    HW132882   2.026   3.990   7.748  0.1359  0.5748  2.0739
 7083SOL    HW232883   2.141   3.933   7.821  0.1056 -0.1517 -0.1892
 7084SOL     OW32884   0.144   2.002  10.142 -0.4680 -0.1822 -0.4515
 7084SOL    HW132885   0.094   2.072  10.100 -0.5894 -0.6135 -1.0277
 7084SOL    HW232886   0.079   1.948  10.188  0.7093 -1.2177  0.0113
 7085SOL     OW32887   1.612   4.636   9.577  0.1000  0.1180  0.0651
 7085SOL    HW132888   1.583   4.551   9.541  1.2181 -0.1136 -0.2811
 7085SOL    HW232889   1.708   4.635   9.576  0.1074  0.0621  0.8835
 7086SOL     OW32890   0.912   1.968   2.997  0.3900  0.6029 -0.2168
 7086SOL    HW132891   0.982   1.939   3.056  0.2921  0.3287 -0.2343
 7086SOL    HW232892   0.877   2.045   3.041  1.5438  1.1188 -0.2063
 7087SOL     OW32893   4.321   2.600   7.523  0.6214  0.3721  0.0487
 7087SOL    HW132894   4.365   2.668   7.574 -0.0460 -1.3448  2.9048
 7087SOL    HW232895   4.285   2.660   7.457  1.8135 -0.5017 -1.3741
 7088SOL     OW32896   1.197   0.215   3.975  0.0917 -0.4671 -0.1120
 7088SOL    HW132897   1.290   0.203   3.990  0.2636 -0.4611 -1.1364
 7088SOL    HW232898   1.187   0.309   3.990 -1.2445 -0.5715 -0.2803
 7089SOL     OW32899   2.881   4.110   3.566  0.2927  0.2336  0.0251
 7089SOL    HW132900   2.953   4.055   3.537 -0.9574 -0.2131 -2.1681
 7089SOL    HW232901   2.894   4.175   3.496  0.4078 -1.0127 -1.1013
 7090SOL     OW32902   3.327   3.026  12.188  0.6084  0.0832 -0.1567
 7090SOL    HW132903   3.343   2.960  12.121 -1.7119 -1.0724  0.4009
 7090SOL    HW232904   3.344   2.969  12.263  2.0029  0.2770 -0.3334
 7091SOL     OW32905   4.297   1.965  15.236  0.2285  0.1064 -0.4972
 7091SOL    HW132906   4.228   1.963  15.169  1.2887 -1.5736 -1.5622
 7091SOL    HW232907   4.346   1.887  15.211  0.9019  0.7953 -1.3021
 7092SOL     OW32908   2.281   0.301   2.846 -0.1350 -0.3427 -0.2621
 7092SOL    HW132909   2.215   0.271   2.784  0.7388  0.3676 -1.5217
 7092SOL    HW232910   2.224   0.341   2.912 -0.9966  3.1927 -3.1592
 7093SOL     OW32911   1.691   1.735   9.864 -0.4745 -0.5916  0.4994
 7093SOL    HW132912   1.597   1.727   9.850 -0.3065  0.6888 -1.2486
 7093SOL    HW232913   1.722   1.774   9.783 -0.9882 -3.5426 -1.1135
 7094SOL     OW32914   4.026   4.703  12.676 -0.2170  0.3865  0.2108
 7094SOL    HW132915   3.980   0.034  12.725 -1.2295 -2.0691  2.6037
 7094SOL    HW232916   3.958   4.638  12.685  0.3674 -0.0832  1.1505
 7095SOL     OW32917   0.310   0.151   3.322 -0.3352 -0.4383 -0.3313
 7095SOL    HW132918   0.347   0.125   3.407  0.6197  1.8469 -0.0350
 7095SOL    HW232919   0.384   0.197   3.282  0.0342 -1.3391 -0.6827
 7096SOL     OW32920   4.425   1.306   8.934 -0.2510  0.7628  0.8608
 7096SOL    HW132921   4.396   1.395   8.952 -0.4385  0.5950  1.3820
 7096SOL    HW232922   4.510   1.311   8.977  0.0772 -0.1101  0.3179
 7097SOL     OW32923   1.035   4.108   3.798 -0.2682  0.5823  0.2595
 7097SOL    HW132924   1.040   4.013   3.783  0.5025  0.4415  1.3532
 7097SOL    HW232925   1.016   4.108   3.892  0.4704 -1.8694  0.4355
 7098SOL     OW32926   4.456   4.290   3.257 -0.0591  0.3993  0.2421
 7098SOL    HW132927   4.494   4.249   3.179 -1.2644  1.3286 -0.8382
 7098SOL    HW232928   4.381   4.234   3.272 -0.7713  1.3919  0.3810
 7099SOL     OW32929   1.151   4.161  11.564  0.3602  0.5351  0.0187
 7099SOL    HW132930   1.155   4.113  11.481 -2.1261 -1.6875  1.1924
 7099SOL    HW232931   1.242   4.152  11.593  0.6201  0.5911 -0.7923
 7100SOL     OW32932   2.592   4.422   3.170 -0.3945 -0.4417  0.1857
 7100SOL    HW132933   2.585   4.494   3.108  1.0072 -1.3046 -0.9740
 7100SOL    HW232934   2.654   4.360   3.131 -1.4539 -0.8995 -0.7477
 7101SOL     OW32935   0.473   1.924   0.953 -0.4077  0.4130  0.3131
 7101SOL    HW132936   0.391   1.906   0.906 -0.1682  0.6964 -0.2141
 7101SOL    HW232937   0.536   1.907   0.882 -1.9522 -0.6132 -0.8207
 7102SOL     OW32938   3.580   2.628   2.939  0.1356  0.1601 -0.1466
 7102SOL    HW132939   3.568   2.546   2.890  2.3100 -1.9187  2.7715
 7102SOL    HW232940   3.505   2.685   2.920 -0.5024 -0.5296  0.2665
 7103SOL     OW32941   2.636   3.419   6.442 -0.1814 -0.2030 -0.3470
 7103SOL    HW132942   2.726   3.417   6.474  0.5260 -0.7186 -2.3841
 7103SOL    HW232943   2.644   3.456   6.354 -0.1901  3.6241  1.2747
 7104SOL     OW32944   2.705   2.495   4.176 -0.2316  0.4370 -0.0644
 7104SOL    HW132945   2.666   2.557   4.238  2.7526  0.5713  1.6622
 7104SOL    HW232946   2.628   2.473   4.124  0.4595 -0.3622 -0.7481
 7105SOL     OW32947   1.658   3.519   5.275  0.6524 -0.2228  0.0340
 7105SOL    HW132948   1.699   3.433   5.280  0.6232 -0.2581 -0.3674
 7105SOL    HW232949   1.662   3.543   5.368  2.4685 -3.2060  0.7152
 7106SOL     OW32950   0.353   0.154  17.459 -0.8074  0.2978  0.4236
 7106SOL    HW132951   0.353   0.220  17.390 -0.8191  1.4049  1.4581
 7106SOL    HW232952   0.346   0.208  17.538  2.6641  0.5719  0.5348
 7107SOL     OW32953   2.159   1.843   1.583 -0.1107  0.1759  0.0943
 7107SOL    HW132954   2.245   1.870   1.615  0.1451  0.0853 -0.5199
 7107SOL    HW232955   2.111   1.858   1.664  2.0580  1.9514  1.0505
 7108SOL     OW32956   4.425   2.719   9.100 -0.2252  0.7566 -0.2667
 7108SOL    HW132957   4.451   2.801   9.058 -2.7278  1.5991 -0.1451
 7108SOL    HW232958   4.475   2.733   9.181 -0.2004  0.6749 -0.2683
 7109SOL     OW32959   0.454   1.757   5.718 -0.0631 -0.1152  0.3035
 7109SOL    HW132960   0.464   1.833   5.660  0.5508 -2.5378 -2.7490
 7109SOL    HW232961   0.466   1.787   5.808 -2.0824 -0.1540  0.5919
 7110SOL     OW32962   0.389   1.406   0.878 -0.3749 -0.3263  0.0363
 7110SOL    HW132963   0.431   1.484   0.914 -0.6775  0.4943 -1.3537
 7110SOL    HW232964   0.318   1.385   0.939  0.0280  1.1750  1.0130
 7111SOL     OW32965   1.820   3.287   7.029  0.4527  0.1816  0.1504
 7111SOL    HW132966   1.847   3.232   6.955 -1.3637  1.5001 -1.4879
 7111SOL    HW232967   1.806   3.368   6.980  2.1679 -0.6107 -1.6557
 7112SOL     OW32968   4.604   3.809  15.002 -0.2084  0.1437 -0.2863
 7112SOL    HW132969   4.535   3.771  14.947 -0.2644  0.1603 -0.2285
 7112SOL    HW232970   4.600   3.749  15.077 -2.2400  1.3684  0.5965
 7113SOL     OW32971   3.444   1.772   6.558  0.4594  0.1216  0.2981
 7113SOL    HW132972   3.537   1.774   6.582  0.2987  1.0708  0.8493
 7113SOL    HW232973   3.444   1.746   6.466  0.8949 -0.7021  0.5357
 7114SOL     OW32974   0.954   2.569  12.935  0.1681  0.0073  0.4400
 7114SOL    HW132975   0.971   2.478  12.958 -0.1797  0.2188  1.5399
 7114SOL    HW232976   0.941   2.616  13.017  1.0048  1.1844 -0.0930
 7115SOL     OW32977   1.782   0.943   6.748  0.0312  0.2417 -0.2382
 7115SOL    HW132978   1.860   0.923   6.698 -0.4541 -0.3002 -0.7707
 7115SOL    HW232979   1.753   0.859   6.783 -0.0060  0.7144  0.9028
 7116SOL     OW32980   3.467   3.230  14.451 -0.4396  0.7512 -0.5872
 7116SOL    HW132981   3.419   3.201  14.529  1.3935 -3.1182 -0.9054
 7116SOL    HW232982   3.554   3.242  14.491 -0.8866 -1.0635  0.9232
 7117SOL     OW32983   2.180   3.563   5.492 -0.0391 -0.2365 -0.0597
 7117SOL    HW132984   2.142   3.476   5.505  3.3103 -1.4726  1.6290
 7117SOL    HW232985   2.226   3.573   5.575  2.2045  1.8067 -1.5485
 7118SOL     OW32986   3.162   2.370   8.700  0.3702 -0.0117  0.0815
 7118SOL    HW132987   3.184   2.309   8.771  0.6537  1.7661  1.5181
 7118SOL    HW232988   3.210   2.449   8.726 -0.2501 -0.1669  1.7223
 7119SOL     OW32989   3.199   2.135   6.449 -0.3329  0.2432  0.0685
 7119SOL    HW132990   3.200   2.053   6.499  2.1521  1.8373  2.6294
 7119SOL    HW232991   3.114   2.125   6.406 -0.0076  1.7767 -0.9163
 7120SOL     OW32992   2.919   2.502  13.727 -0.5902 -0.3149 -0.0890
 7120SOL    HW132993   2.874   2.515  13.810  1.4960 -0.6531  1.0913
 7120SOL    HW232994   2.857   2.535  13.661 -0.4584 -1.1241 -0.6198
 7121SOL     OW32995   0.549   2.162  14.506  0.2012  0.3383  0.4173
 7121SOL    HW132996   0.628   2.147  14.454 -0.1005 -2.8732  0.8510
 7121SOL    HW232997   0.585   2.179  14.593 -0.2073 -0.7942  0.8098
 7122SOL     OW32998   0.134   2.281   9.344  0.3577 -0.1194  0.2459
 7122SOL    HW132999   0.065   2.342   9.369 -0.9804 -1.0752 -1.0428
 7122SOL    HW233000   0.105   2.198   9.382 -0.8205  0.4492  0.5781
 7123SOL     OW33001   0.424   4.463   3.264  0.0264  0.5369 -0.1324
 7123SOL    HW133002   0.375   4.401   3.210 -1.0898 -0.1317  1.6455
 7123SOL    HW233003   0.396   4.549   3.232  2.8837  1.9701  1.2247
 7124SOL     OW33004   3.579   1.258   6.520 -0.3688 -0.0321 -0.0344
 7124SOL    HW133005   3.611   1.319   6.587  2.6508  2.8433 -4.1139
 7124SOL    HW233006   3.646   1.190   6.526  0.1274  0.5203  0.8863
 7125SOL     OW33007   1.008   0.459   6.896 -0.1390  0.1297  0.6010
 7125SOL    HW133008   1.017   0.554   6.904 -0.9260  0.3386 -1.0254
 7125SOL    HW233009   1.072   0.432   6.962 -0.3493  0.2301  0.8436
 7126SOL     OW33010   2.759   4.598   5.688  0.6299 -0.3590  0.2865
 7126SOL    HW133011   2.676   4.642   5.670  0.3603 -1.0458 -0.1517
 7126SOL    HW233012   2.797   4.587   5.601  2.2093  0.4632  0.8776
 7127SOL     OW33013   1.802   4.410   8.927  0.5714 -0.3248 -0.0541
 7127SOL    HW133014   1.881   4.400   8.875 -1.3259 -1.8811 -2.6119
 7127SOL    HW233015   1.833   4.481   8.984 -1.6806 -0.9056  1.8971
 7128SOL     OW33016   3.587   3.417   9.299  0.5609 -0.3069 -0.0876
 7128SOL    HW133017   3.577   3.353   9.229 -1.5084  0.3153 -0.3656
 7128SOL    HW233018   3.518   3.482   9.286  1.2433  0.3924 -0.2019
 7129SOL     OW33019   0.970   0.100   6.138  0.3499 -0.1652  0.2178
 7129SOL    HW133020   0.933   0.165   6.079 -2.1879 -1.0996  0.7972
 7129SOL    HW233021   0.921   0.127   6.215 -0.2837 -0.0890 -0.2114
 7130SOL     OW33022   0.626   4.734   6.368  0.8871  0.3113  0.0214
 7130SOL    HW133023   0.591   4.726   6.279 -3.3357  0.8427  1.6136
 7130SOL    HW233024   0.645   4.641   6.371 -1.3603 -0.1473  0.1967
 7131SOL     OW33025   1.247   1.876   1.628 -0.1101  0.2139  0.2692
 7131SOL    HW133026   1.169   1.924   1.655  0.1212 -1.0672  3.1944
 7131SOL    HW233027   1.305   1.896   1.701 -1.6099  1.5235  1.0968
 7132SOL     OW33028   3.301   0.525   8.055  0.0988 -0.2374  0.7127
 7132SOL    HW133029   3.306   0.436   8.089  2.7806 -0.1223  0.6050
 7132SOL    HW233030   3.214   0.557   8.080 -0.2241 -0.6563  0.1235
 7133SOL     OW33031   1.708   3.566  14.595  0.1342  0.0121  0.4127
 7133SOL    HW133032   1.791   3.538  14.558  0.2335  1.4063 -0.4083
 7133SOL    HW233033   1.682   3.647  14.551 -2.9838 -0.6465  1.0253
 7134SOL     OW33034   0.808   1.866  16.736  0.1851  0.6842  0.0966
 7134SOL    HW133035   0.816   1.950  16.781 -0.8971  0.9823 -0.2735
 7134SOL    HW233036   0.862   1.878  16.657 -0.4327  2.3050 -0.0909
 7135SOL     OW33037   2.618   3.378   0.548  0.2091  0.8262 -0.3368
 7135SOL    HW133038   2.671   3.363   0.469 -0.7076 -2.1921 -0.3879
 7135SOL    HW233039   2.574   3.293   0.549  1.7553  0.0254 -0.0612
 7136SOL     OW33040   3.855   2.395   7.547 -0.5468  0.1919  0.5172
 7136SOL    HW133041   3.764   2.370   7.530 -1.0197  1.8983  0.5946
 7136SOL    HW233042   3.889   2.361   7.464 -1.1525 -0.4370  0.5276
 7137SOL     OW33043   0.619   4.515   8.379 -0.1488 -0.0873 -0.3253
 7137SOL    HW133044   0.678   4.440   8.369 -0.1784 -0.3013  1.0459
 7137SOL    HW233045   0.575   4.497   8.296 -0.3575  3.0847 -0.8903
 7138SOL     OW33046   2.564   3.831   6.737 -0.4554 -0.0939  0.4641
 7138SOL    HW133047   2.522   3.767   6.794 -1.8327 -0.3522 -0.8546
 7138SOL    HW233048   2.571   3.910   6.792 -3.7242 -0.0261  0.7911
 7139SOL     OW33049   3.717   0.879   3.513  0.2383  0.0210  0.0020
 7139SOL    HW133050   3.724   0.913   3.603  3.2136  2.4060 -1.1427
 7139SOL    HW233051   3.797   0.826   3.511  0.6300  0.5486  1.4217
 7140SOL     OW33052   4.465   4.503   6.783 -0.2061 -0.1413  0.4473
 7140SOL    HW133053   4.381   4.535   6.750  0.3125 -0.9605 -1.6333
 7140SOL    HW233054   4.447   4.422   6.831  0.8785 -1.2071 -0.9536
 7141SOL     OW33055   0.038   3.373  10.678  0.4508 -0.1126  0.1707
 7141SOL    HW133056   0.041   3.286  10.718 -4.7696  0.9813  2.9771
 7141SOL    HW233057   4.693   3.405  10.717  0.4464 -3.1121  2.6662
 7142SOL     OW33058   2.452   0.673  13.411 -0.1570  0.2095 -0.4856
 7142SOL    HW133059   2.473   0.579  13.412 -0.0679  0.2235 -0.9191
 7142SOL    HW233060   2.513   0.714  13.472  0.1545 -1.3962  0.2979
 7143SOL     OW33061   4.081   1.225   7.620  0.6059 -0.4291  0.3406
 7143SOL    HW133062   4.015   1.182   7.567  0.4554 -0.8573  0.8784
 7143SOL    HW233063   4.141   1.266   7.557  0.0610  1.0201  0.7505
 7144SOL     OW33064   1.685   0.522   4.905 -0.5511  0.4594 -0.3815
 7144SOL    HW133065   1.704   0.539   4.813 -0.2166 -0.0863 -0.4131
 7144SOL    HW233066   1.713   0.431   4.916 -1.3355  0.3879  1.0529
 7145SOL     OW33067   1.031   2.425   5.890  0.1180 -0.0319 -0.1119
 7145SOL    HW133068   0.987   2.357   5.942  0.4428 -0.7380 -0.7762
 7145SOL    HW233069   1.023   2.495   5.955  2.8251  0.5832 -0.4542
 7146SOL     OW33070   2.375   4.476  13.914  0.5600  0.4553  0.2581
 7146SOL    HW133071   2.456   4.428  13.925 -1.0841 -2.9284 -2.3060
 7146SOL    HW233072   2.351   4.505  14.002 -0.0800 -0.9316  0.5362
 7147SOL     OW33073   4.184   1.803   1.099  0.4014 -0.1138  0.3255
 7147SOL    HW133074   4.204   1.768   1.186 -1.7115 -2.8605 -0.3062
 7147SOL    HW233075   4.161   1.718   1.061  0.1261  0.4499 -0.7631
 7148SOL     OW33076   1.751   3.086   9.795  0.2226 -0.7410 -0.8660
 7148SOL    HW133077   1.803   3.007   9.809  0.9316 -0.5371 -2.3543
 7148SOL    HW233078   1.796   3.152   9.847  1.4670 -1.3490 -1.1733
 7149SOL     OW33079   0.371   3.783   0.486  0.2563 -0.4110 -0.7127
 7149SOL    HW133080   0.309   3.714   0.510 -0.9196  1.4415  1.5693
 7149SOL    HW233081   0.449   3.732   0.465  1.5229  1.2865 -0.1567
 7150SOL     OW33082   3.111   3.533   8.726  0.0670 -0.1537  0.2230
 7150SOL    HW133083   3.069   3.456   8.763 -0.6656 -0.2532 -0.8026
 7150SOL    HW233084   3.199   3.529   8.762  0.7116 -0.6158 -1.3904
 7151SOL     OW33085   4.440   1.039   8.868  0.2056  0.1005 -0.6741
 7151SOL    HW133086   4.421   1.129   8.896 -2.1720 -0.1007 -1.6275
 7151SOL    HW233087   4.398   1.042   8.782 -2.3794  1.9627  0.6507
 7152SOL     OW33088   2.349   1.075   7.173 -0.4830 -0.0085  0.6353
 7152SOL    HW133089   2.284   1.005   7.180  0.1221 -0.5124  1.3005
 7152SOL    HW233090   2.333   1.091   7.080 -0.9230 -1.1588  0.5109
 7153SOL     OW33091   4.581   3.699   2.639  0.2665 -0.3365 -0.4963
 7153SOL    HW133092   4.608   3.755   2.712  1.6035  1.0826 -2.0758
 7153SOL    HW233093   4.496   3.743   2.632 -0.1620 -0.9596  0.7764
 7154SOL     OW33094   0.614   3.658   0.455  0.1248  0.1455 -0.9021
 7154SOL    HW133095   0.675   3.682   0.385  0.4036  1.5143 -0.1983
 7154SOL    HW233096   0.626   3.564   0.469 -0.5013  0.1379 -0.4049
 7155SOL     OW33097   3.684   0.448   3.022 -0.0400  0.5774  0.1497
 7155SOL    HW133098   3.692   0.527   3.075 -0.0832  0.3140  0.5485
 7155SOL    HW233099   3.776   0.422   3.022  0.1040  1.0414 -2.3916
 7156SOL     OW33100   1.180   4.535  15.959  0.1042  0.4571  0.4762
 7156SOL    HW133101   1.226   4.454  15.939 -0.9632 -0.3789  1.3345
 7156SOL    HW233102   1.235   4.580  16.022  0.7697 -2.3693  1.9473
 7157SOL     OW33103   0.893   4.310  10.732  0.0427 -0.1039 -0.4691
 7157SOL    HW133104   0.986   4.336  10.728  0.5396 -1.6726  0.9311
 7157SOL    HW233105   0.897   4.246  10.662 -2.8169 -0.5411 -0.2035
 7158SOL     OW33106   2.063   4.236  12.635  0.3360 -0.3479 -0.1657
 7158SOL    HW133107   2.031   4.240  12.545  0.2189 -0.9668 -0.1546
 7158SOL    HW233108   2.158   4.227  12.628  0.0848 -2.9542 -0.4287
 7159SOL     OW33109   0.022   3.056   3.627 -0.1669 -1.0087  0.2937
 7159SOL    HW133110   0.002   2.986   3.689  0.2784 -0.8832  0.5785
 7159SOL    HW233111   0.005   3.014   3.543 -0.8266 -1.0987  0.4709
 7160SOL     OW33112   2.225   4.533   7.884  0.4248 -0.0035  0.1015
 7160SOL    HW133113   2.319   4.545   7.896  0.4534 -0.6960  0.5899
 7160SOL    HW233114   2.207   4.445   7.918  0.5662  0.0931  0.4320
 7161SOL     OW33115   3.740   3.382   0.840 -0.4134  0.0384 -0.2761
 7161SOL    HW133116   3.670   3.319   0.825  0.7619 -1.3692  0.0994
 7161SOL    HW233117   3.819   3.333   0.817 -0.4204  0.6976 -1.6758
 7162SOL     OW33118   3.405   3.966   2.927 -0.5932 -0.3234 -0.0220
 7162SOL    HW133119   3.349   4.036   2.957 -0.1597  0.4277 -0.9538
 7162SOL    HW233120   3.479   4.018   2.896  0.6916 -2.3376 -0.4146
 7163SOL     OW33121   2.844   3.112  10.803 -0.2020  0.8434  0.2866
 7163SOL    HW133122   2.863   3.019  10.801 -0.8293  0.6812  1.5363
 7163SOL    HW233123   2.928   3.157  10.813  0.6243  0.1333 -3.6230
 7164SOL     OW33124   1.192   3.421   9.669 -0.2935  0.5634 -0.4414
 7164SOL    HW133125   1.114   3.413   9.615  1.0456 -1.3673 -2.1238
 7164SOL    HW233126   1.241   3.348   9.630  0.5421  1.3359 -0.8318
 7165SOL     OW33127   4.472   0.589   9.839  0.2060 -0.2237 -0.0429
 7165SOL    HW133128   4.563   0.619   9.837  0.4280 -0.7971  0.9961
 7165SOL    HW233129   4.441   0.648   9.909 -0.1719  1.9197 -2.0249
 7166SOL     OW33130   3.639   0.250  14.775  0.0640 -0.1303  0.1129
 7166SOL    HW133131   3.711   0.215  14.828  0.8114  1.4349  0.1238
 7166SOL    HW233132   3.637   0.338  14.812  0.3577 -0.4913  0.9996
 7167SOL     OW33133   3.635   0.032  13.773 -0.7617 -0.1624 -0.0984
 7167SOL    HW133134   3.593   0.051  13.689 -2.5988 -1.3888  0.5244
 7167SOL    HW233135   3.570   4.713  13.817  3.1404 -4.1544  0.5553
 7168SOL     OW33136   2.250   4.550  17.412 -0.2779  0.0637  0.3396
 7168SOL    HW133137   2.308   4.489  17.459 -1.3102 -1.1115  0.0913
 7168SOL    HW233138   2.168   4.511  17.441 -0.1172  0.0627  0.7981
 7169SOL     OW33139   3.815   0.407   2.408 -0.8139  0.0212  0.0087
 7169SOL    HW133140   3.881   0.444   2.349  2.0130 -2.1272  1.8480
 7169SOL    HW233141   3.774   0.491   2.428  1.3909  0.9738  0.5355
 7170SOL     OW33142   0.730   2.019  11.194 -0.3363 -0.0566  0.7159
 7170SOL    HW133143   0.648   1.991  11.155  0.0374 -1.1230  0.6880
 7170SOL    HW233144   0.718   2.106  11.157  1.6597 -0.8194 -1.7561
 7171SOL     OW33145   4.212   4.063   0.159 -0.4028  0.1788 -0.5697
 7171SOL    HW133146   4.229   4.095   0.070 -1.1098 -1.5654 -1.3351
 7171SOL    HW233147   4.262   3.981   0.152 -0.3526  0.2556 -1.1067
 7172SOL     OW33148   3.960   2.155  14.424 -0.9122  0.0802  0.4786
 7172SOL    HW133149   3.986   2.247  14.417 -1.2635  0.2733  1.7780
 7172SOL    HW233150   3.920   2.143  14.338 -0.4275 -0.1115  0.2809
 7173SOL     OW33151   1.675   3.819   0.170  0.0560 -0.0309  0.1779
 7173SOL    HW133152   1.708   3.902   0.203  0.5728 -0.0818 -0.2232
 7173SOL    HW233153   1.580   3.830   0.173  0.0050  0.2925 -2.7541
 7174SOL     OW33154   2.290   1.605   1.929  0.2729 -0.4451 -0.3032
 7174SOL    HW133155   2.376   1.566   1.944  0.5810 -0.3928 -2.0182
 7174SOL    HW233156   2.249   1.610   2.016  0.0057  0.3303 -0.4753
 7175SOL     OW33157   2.488   2.887   5.071  0.2377  1.3024  0.3157
 7175SOL    HW133158   2.442   2.875   5.154  0.8161  0.6068  0.5416
 7175SOL    HW233159   2.411   2.878   5.015 -0.6011  0.1248  1.6587
 7176SOL     OW33160   3.318   1.211   3.721 -0.1181  0.2523 -0.0480
 7176SOL    HW133161   3.350   1.269   3.651  0.0591 -1.1446 -1.1217
 7176SOL    HW233162   3.395   1.183   3.771  0.4348  1.4885 -0.2054
 7177SOL     OW33163   1.929   0.500   4.393  0.1621 -0.0245  0.3814
 7177SOL    HW133164   2.022   0.489   4.411  0.5054  2.1742  0.0091
 7177SOL    HW233165   1.904   0.428   4.336 -1.2901  0.3712  0.5225
 7178SOL     OW33166   0.231   4.310   3.154  0.2781  0.7196 -0.4783
 7178SOL    HW133167   0.196   4.221   3.165  0.6506  0.5987 -0.2565
 7178SOL    HW233168   0.149   4.358   3.168  0.0556  0.3173 -0.4035
 7179SOL     OW33169   0.204   2.692   2.448  0.3514 -0.3715  0.2280
 7179SOL    HW133170   0.218   2.632   2.522 -1.0507 -2.9145 -1.5791
 7179SOL    HW233171   0.285   2.743   2.449 -0.2098  0.5229 -0.1293
 7180SOL     OW33172   0.234   3.152   8.634 -0.4139  0.0896  0.0677
 7180SOL    HW133173   0.248   3.188   8.722 -1.6924  1.5206 -0.3096
 7180SOL    HW233174   0.328   3.145   8.617 -0.2943 -0.0146  0.7844
 7181SOL     OW33175   1.326   3.769   0.077  0.8611 -0.1053  0.0567
 7181SOL    HW133176   1.362   3.682   0.062 -0.1167 -0.3215 -0.9908
 7181SOL    HW233177   1.231   3.761   0.087  0.7254  0.1726 -1.0441
 7182SOL     OW33178   1.374   3.426   3.729  0.1113  0.3325  0.3108
 7182SOL    HW133179   1.453   3.476   3.705 -0.4984  0.8395 -0.6414
 7182SOL    HW233180   1.406   3.354   3.783  1.5960  0.9953  0.3363
 7183SOL     OW33181   0.445   4.669   8.088 -0.6858  0.3385 -0.1754
 7183SOL    HW133182   0.384   4.624   8.029  0.3762 -2.9081  1.2010
 7183SOL    HW233183   0.396   4.685   8.168  1.5146  0.2580  1.2031
 7184SOL     OW33184   0.073   2.663   2.774 -0.2550 -0.3853  0.2250
 7184SOL    HW133185   0.137   2.733   2.757 -0.9215  0.6741  2.1046
 7184SOL    HW233186   4.735   2.722   2.764 -0.2738 -0.5292 -0.5631
 7185SOL     OW33187   4.301   2.255   8.265  0.0549 -0.0711  0.0238
 7185SOL    HW133188   4.363   2.250   8.191 -0.8629 -1.7294 -0.6209
 7185SOL    HW233189   4.299   2.166   8.301 -0.9942 -0.1487 -0.2450
 7186SOL     OW33190   0.148   2.155   0.713  0.1983 -0.3477 -0.1440
 7186SOL    HW133191   0.193   2.087   0.762 -1.4215  0.1324  1.9951
 7186SOL    HW233192   0.151   2.103   0.633  1.4462 -1.9608  0.9609
 7187SOL     OW33193   4.448   1.092   9.706  0.6498  0.5151  0.4007
 7187SOL    HW133194   4.492   1.024   9.757 -1.9976 -0.3813  1.4948
 7187SOL    HW233195   4.414   1.148   9.776 -2.4914 -0.6384 -0.1673
 7188SOL     OW33196   1.813   1.103   2.548  0.1003 -0.0089  0.2134
 7188SOL    HW133197   1.782   1.167   2.612  1.1631  0.8142 -0.0980
 7188SOL    HW233198   1.774   1.025   2.588 -2.4539 -0.8847 -3.9594
 7189SOL     OW33199   4.310   2.289  17.646  0.1550 -0.4254 -0.6511
 7189SOL    HW133200   4.309   2.385  17.648 -0.2873 -0.4609  0.6058
 7189SOL    HW233201   4.227   2.278  17.692 -0.6309  1.4317 -1.6221
 7190SOL     OW33202   0.601   2.476  13.408 -0.0936  0.5256 -0.8204
 7190SOL    HW133203   0.567   2.552  13.454 -0.5484 -1.0072  1.4046
 7190SOL    HW233204   0.537   2.478  13.337 -0.2657  4.2005 -0.5306
 7191SOL     OW33205   0.701   1.290   7.696  0.3800 -0.4822 -0.1668
 7191SOL    HW133206   0.709   1.213   7.639 -2.0464 -1.4436  0.7905
 7191SOL    HW233207   0.731   1.357   7.635 -1.2405 -1.5380 -2.1318
 7192SOL     OW33208   4.713   0.902   6.452  0.0179  0.0116  0.2605
 7192SOL    HW133209   4.675   0.926   6.536 -1.6596  0.7879 -0.7143
 7192SOL    HW233210   0.063   0.879   6.484  0.6223  1.4412 -0.3358
 7193SOL     OW33211   2.366   3.029   3.573  0.5191  0.1095  0.2462
 7193SOL    HW133212   2.448   3.077   3.579  1.3406 -1.2099 -0.5245
 7193SOL    HW233213   2.329   3.089   3.509 -2.3034 -0.6386  1.1282
 7194SOL     OW33214   1.180   3.605   7.914 -0.7115 -0.5977 -0.2156
 7194SOL    HW133215   1.255   3.546   7.901  0.8460  0.8267  2.3312
 7194SOL    HW233216   1.135   3.583   7.995  0.9130  0.3793  0.9583
 7195SOL     OW33217   4.112   1.433   5.354 -0.3235  0.0261  0.1060
 7195SOL    HW133218   4.173   1.506   5.361 -1.2776  0.8643 -0.2943
 7195SOL    HW233219   4.035   1.470   5.398 -0.2143 -0.2375  0.5245
 7196SOL     OW33220   2.092   3.586   4.050 -0.0905 -0.4745 -0.3432
 7196SOL    HW133221   2.135   3.503   4.032  1.3946  0.2081  0.0626
 7196SOL    HW233222   2.111   3.625   3.965  1.1686  0.2779  0.2747
 7197SOL     OW33223   2.051   3.804   3.356  0.5183 -0.3443 -0.3788
 7197SOL    HW133224   2.127   3.792   3.413 -0.7599  0.7480  1.5751
 7197SOL    HW233225   1.986   3.806   3.426 -0.5943  1.5031 -1.4641
 7198SOL     OW33226   2.740   0.662   8.914 -0.4006 -0.2806  0.1970
 7198SOL    HW133227   2.798   0.671   8.838  0.5456  0.9768  1.0711
 7198SOL    HW233228   2.802   0.678   8.986  3.5697  1.2963 -3.6066
 7199SOL     OW33229   0.251   1.869   0.790  0.4045  0.7994  0.4653
 7199SOL    HW133230   0.300   1.800   0.748  0.7571  0.9931  0.5566
 7199SOL    HW233231   0.166   1.848   0.751  0.7668 -0.2621  0.2546
 7200SOL     OW33232   3.193   2.964  10.924 -0.1354 -0.8076  0.4722
 7200SOL    HW133233   3.163   2.980  11.013 -1.1105 -1.9462  0.3560
 7200SOL    HW233234   3.167   2.872  10.913  0.2311 -1.0698  1.8261
 7201SOL     OW33235   1.662   0.535   7.602 -0.3762  0.3301 -0.1907
 7201SOL    HW133236   1.572   0.538   7.570 -1.4321  0.7862  2.7945
 7201SOL    HW233237   1.672   0.441   7.584 -0.4815  0.2968 -0.0749
 7202SOL     OW33238   3.207   1.547   2.546 -0.3363  0.4486  0.0780
 7202SOL    HW133239   3.121   1.550   2.587  0.1991 -0.4693  1.2960
 7202SOL    HW233240   3.205   1.595   2.463 -0.0739  0.0444 -0.1645
 7203SOL     OW33241   1.838   2.920  12.490  0.4818 -0.1446 -0.3831
 7203SOL    HW133242   1.866   2.971  12.566  0.0349 -2.1020  1.1083
 7203SOL    HW233243   1.779   2.865  12.541 -0.5430  1.6594  0.3886
 7204SOL     OW33244   3.595   4.360  13.248  0.1827 -0.1189  0.3543
 7204SOL    HW133245   3.579   4.453  13.228  1.7006  0.3985  1.5618
 7204SOL    HW233246   3.685   4.351  13.217 -0.1417 -3.4006  0.3770
 7205SOL     OW33247   0.397   3.546   7.378 -0.3364 -0.2222 -0.3684
 7205SOL    HW133248   0.449   3.545   7.459 -0.2695 -1.4905 -0.4216
 7205SOL    HW233249   0.314   3.515   7.415 -0.8645 -0.0754 -1.4484
 7206SOL     OW33250   3.098   0.313   3.312  0.0912  0.3923 -0.1238
 7206SOL    HW133251   3.140   0.378   3.368 -0.7487 -0.2322  1.2396
 7206SOL    HW233252   3.085   0.355   3.227  1.8031 -2.5793 -1.8816
 7207SOL     OW33253   4.631   3.581   5.913  0.1277  0.0919 -0.1433
 7207SOL    HW133254   4.558   3.524   5.887 -0.0547  0.6985 -0.9640
 7207SOL    HW233255   4.592   3.623   5.990  1.9043 -0.5361  1.1031
 7208SOL     OW33256   3.503   0.763  11.079 -0.1327 -0.2624  0.2108
 7208SOL    HW133257   3.420   0.809  11.088  0.4351  0.5727  1.2045
 7208SOL    HW233258   3.563   0.837  11.087  2.0401 -2.0364  0.3831
 7209SOL     OW33259   3.340   1.787  15.984 -0.3624  0.6026 -0.0323
 7209SOL    HW133260   3.363   1.833  16.065 -0.4977  1.4345 -0.4553
 7209SOL    HW233261   3.337   1.858  15.919 -1.4607  3.2947  2.9339
 7210SOL     OW33262   0.751   3.294  13.144 -0.3286  0.3322 -0.7503
 7210SOL    HW133263   0.808   3.292  13.067 -0.5460  0.4467 -0.9156
 7210SOL    HW233264   0.662   3.300  13.109  0.4806  0.0971 -2.8533
 7211SOL     OW33265   4.276   2.609   4.132 -0.3072  0.5545 -0.0616
 7211SOL    HW133266   4.314   2.574   4.212  0.0754  1.2995  0.0743
 7211SOL    HW233267   4.314   2.695   4.120  0.9201 -0.1823 -1.3627
 7212SOL     OW33268   4.088   0.475   2.030 -0.2977  0.8331 -0.2428
 7212SOL    HW133269   4.093   0.506   1.940  2.5244 -2.1965 -1.1123
 7212SOL    HW233270   4.178   0.472   2.061 -0.8220 -0.5295  1.1839
 7213SOL     OW33271   1.266   3.171   0.412  0.0203 -0.2030 -0.5241
 7213SOL    HW133272   1.260   3.248   0.356 -1.7360  1.3124  1.7091
 7213SOL    HW233273   1.360   3.166   0.430  0.1082  1.2434 -0.5925
 7214SOL     OW33274   2.577   0.811   2.840  0.4112 -0.3078 -0.2608
 7214SOL    HW133275   2.574   0.717   2.860 -1.5876 -0.5667 -1.8163
 7214SOL    HW233276   2.649   0.835   2.899 -0.7017 -1.8911  1.7423
 7215SOL     OW33277   3.452   2.960   1.503 -0.0055 -0.4423 -0.8369
 7215SOL    HW133278   3.487   2.932   1.419  0.3824 -0.8237 -0.5477
 7215SOL    HW233279   3.469   3.054   1.495 -0.3213 -0.5099 -2.3174
 7216SOL     OW33280   2.961   0.076  11.562  0.2304 -0.0599 -0.1904
 7216SOL    HW133281   3.036   0.023  11.587 -1.0003 -1.4587  0.5656
 7216SOL    HW233282   2.904   0.011  11.520 -1.3910  0.8027  0.6503
 7217SOL     OW33283   4.276   1.260   0.322 -0.4679  0.3120  0.3091
 7217SOL    HW133284   4.263   1.196   0.252  1.9754 -0.4179  0.5138
 7217SOL    HW233285   4.189   1.257   0.362  0.1829 -0.4642  1.6828
 7218SOL     OW33286   0.221   3.509   3.917 -0.3484  0.2532  0.1241
 7218SOL    HW133287   0.290   3.504   3.850 -0.1746  0.0002  0.3213
 7218SOL    HW233288   0.144   3.496   3.862  0.4462 -0.8387 -0.7491
 7219SOL     OW33289   2.720   1.159   4.691 -0.1046  0.3286 -0.3223
 7219SOL    HW133290   2.809   1.186   4.667  0.0384  0.1484  0.0147
 7219SOL    HW233291   2.674   1.241   4.670 -3.3800 -1.1794  0.9889
 7220SOL     OW33292   3.453   0.629   1.448  0.0260 -0.1316 -0.7067
 7220SOL    HW133293   3.377   0.572   1.438  0.6433 -1.6704  3.2257
 7220SOL    HW233294   3.427   0.715   1.416  0.2435 -0.1328 -0.8892
 7221SOL     OW33295   0.725   1.445  15.631  0.3367 -0.0599  0.9110
 7221SOL    HW133296   0.714   1.422  15.724 -0.9086 -0.3927  0.6855
 7221SOL    HW233297   0.771   1.529  15.635 -0.5626  0.5363 -1.2124
 7222SOL     OW33298   0.381   4.464   1.268  0.3856 -0.5343 -0.3702
 7222SOL    HW133299   0.360   4.444   1.177  1.1798  0.3820 -0.7574
 7222SOL    HW233300   0.442   4.394   1.291  0.4066 -1.4387 -3.1875
 7223SOL     OW33301   4.617   0.010  13.089 -0.1548  0.3894 -0.8444
 7223SOL    HW133302   4.711   0.006  13.072 -0.1261 -0.4776 -0.4518
 7223SOL    HW233303   4.592   4.724  13.000 -1.6757 -0.9028 -0.0717
 7224SOL     OW33304   3.555   2.105   5.864  0.8732  0.7902  0.0590
 7224SOL    HW133305   3.579   2.017   5.893 -0.0245  0.5366  0.0225
 7224SOL    HW233306   3.634   2.156   5.881 -0.6636  1.4726  5.2998
 7225SOL     OW33307   3.355   3.737  10.890  0.4039 -0.1795 -0.1016
 7225SOL    HW133308   3.405   3.746  10.809 -0.7579 -0.2310 -0.8111
 7225SOL    HW233309   3.311   3.653  10.878  0.0049 -0.0585  0.5127
 7226SOL     OW33310   3.207   0.234  12.999  0.5040 -0.2180  0.1731
 7226SOL    HW133311   3.178   0.254  13.089 -2.1272  0.2053 -0.7512
 7226SOL    HW233312   3.250   0.319  12.991 -2.3173  1.0545 -1.7047
 7227SOL     OW33313   3.200   4.050   6.287 -0.1467  0.3126  0.0949
 7227SOL    HW133314   3.292   4.075   6.287 -0.2884  0.8261  0.1475
 7227SOL    HW233315   3.164   4.130   6.324 -1.6042  0.1367 -0.9356
 7228SOL     OW33316   3.841   0.146   5.396  0.2617  0.0756  0.3480
 7228SOL    HW133317   3.908   0.192   5.446 -0.2565 -0.9996  2.0102
 7228SOL    HW233318   3.833   0.209   5.324  0.0005 -0.8320 -0.4249
 7229SOL     OW33319   3.978   0.402   3.066  0.1252 -0.2292  0.2599
 7229SOL    HW133320   3.979   0.386   2.971  1.3971  2.9174 -0.2770
 7229SOL    HW233321   3.972   0.313   3.099 -1.8073  0.1225  0.8175
 7230SOL     OW33322   0.907   2.192   5.969 -0.1751 -0.2359 -0.6499
 7230SOL    HW133323   0.918   2.158   6.058 -0.3807 -0.4051 -0.6893
 7230SOL    HW233324   0.822   2.161   5.939 -0.4953 -1.5071  1.6080
 7231SOL     OW33325   2.932   3.641   6.021  0.2422  0.0566 -0.0955
 7231SOL    HW133326   2.910   3.722   6.069 -0.9231  0.3833 -1.1652
 7231SOL    HW233327   2.864   3.638   5.954  1.1039  1.0371 -1.0089
 7232SOL     OW33328   3.985   1.163   6.096 -0.4815  0.7114 -0.3692
 7232SOL    HW133329   4.078   1.164   6.121 -0.5725  1.1525 -0.0464
 7232SOL    HW233330   3.933   1.152   6.176  1.0490 -1.9670  0.2582
 7233SOL     OW33331   3.220   1.239  17.213 -0.7134 -0.3549  0.8384
 7233SOL    HW133332   3.207   1.334  17.207 -2.5261 -0.5937  0.8405
 7233SOL    HW233333   3.299   1.245  17.267  0.0839 -2.6873 -0.1117
 7234SOL     OW33334   3.390   2.447   7.307 -0.2511 -0.2237 -0.6647
 7234SOL    HW133335   3.447   2.402   7.244 -0.5248  0.4851 -1.4097
 7234SOL    HW233336   3.335   2.374   7.336 -2.6305  2.6680  1.9970
 7235SOL     OW33337   0.085   1.543   7.952  0.0280 -0.7227  0.0410
 7235SOL    HW133338   0.144   1.574   8.022  1.7819 -0.6339 -1.4921
 7235SOL    HW233339   0.024   1.615   7.938 -1.2199 -2.2576 -2.2146
 7236SOL     OW33340   4.480   4.274   6.954  0.7448  0.2411  0.3369
 7236SOL    HW133341   4.491   4.313   7.041 -0.6986 -1.3400  1.2319
 7236SOL    HW233342   4.396   4.229   6.962  0.3433  0.3911 -3.1753
 7237SOL     OW33343   1.579   0.634   1.915 -0.2412 -0.2333 -0.1764
 7237SOL    HW133344   1.556   0.689   1.989  1.3823 -2.0775  1.7164
 7237SOL    HW233345   1.551   0.548   1.947  1.3533 -0.6132  0.1731
 7238SOL     OW33346   2.860   4.595   4.508  0.4242  0.2340  0.0953
 7238SOL    HW133347   2.833   4.520   4.456 -0.5520  0.5452  0.1703
 7238SOL    HW233348   2.872   4.667   4.446 -2.6547 -1.2942 -2.2193
 7239SOL     OW33349   2.312   0.628  15.152  0.5521  0.0371 -0.1831
 7239SOL    HW133350   2.259   0.600  15.226 -0.3975 -0.1493 -0.9389
 7239SOL    HW233351   2.342   0.544  15.117 -2.1097  0.7978 -4.2384
 7240SOL     OW33352   3.137   3.892   8.710  0.3982 -0.7802 -0.0954
 7240SOL    HW133353   3.191   3.970   8.722 -0.2854 -0.2187 -0.7214
 7240SOL    HW233354   3.142   3.844   8.792  2.4539 -0.1764  0.1336
 7241SOL     OW33355   2.336   0.786   6.521 -0.0904 -0.1064  0.5996
 7241SOL    HW133356   2.241   0.781   6.527 -0.2757  1.5261 -0.8811
 7241SOL    HW233357   2.357   0.693   6.520 -0.2065 -0.1335  0.7251
 7242SOL     OW33358   4.341   0.579  10.812 -0.7296  0.2093 -0.0788
 7242SOL    HW133359   4.246   0.571  10.824 -1.0328  2.1909 -1.0534
 7242SOL    HW233360   4.381   0.531  10.884 -0.1273  0.6014 -0.1471
 7243SOL     OW33361   2.646   0.828   3.274  0.2513 -0.1386 -0.4717
 7243SOL    HW133362   2.596   0.908   3.257 -0.2545  0.0137  1.7847
 7243SOL    HW233363   2.610   0.764   3.212 -1.5082 -1.1532  1.5801
 7244SOL     OW33364   0.111   3.584  12.068 -0.3329  0.5440 -0.0642
 7244SOL    HW133365   0.042   3.588  12.134  0.8445 -0.1739  1.2164
 7244SOL    HW233366   0.129   3.678  12.058  0.8333  0.7071  3.6808
 7245SOL     OW33367   0.563   4.340   7.564 -1.5265  0.3926 -0.1647
 7245SOL    HW133368   0.502   4.276   7.526  0.1144  0.1180 -2.3263
 7245SOL    HW233369   0.641   4.300   7.526 -0.7628  1.0084  0.7533
 7246SOL     OW33370   3.110   3.157   2.371  0.6299 -0.2203  0.1493
 7246SOL    HW133371   3.160   3.090   2.417  0.5713 -0.4677 -0.1502
 7246SOL    HW233372   3.049   3.181   2.440 -0.9223  1.4044 -1.7652
 7247SOL     OW33373   0.589   0.003   4.321  0.0497 -0.6539  0.2213
 7247SOL    HW133374   0.657   4.689   4.365  0.6241 -1.2027 -1.2878
 7247SOL    HW233375   0.565   0.071   4.385 -2.5369  0.8682 -2.3597
 7248SOL     OW33376   4.468   0.367   8.884 -0.1120  0.3093 -0.1342
 7248SOL    HW133377   4.398   0.424   8.852  0.1071 -0.3250 -1.7552
 7248SOL    HW233378   4.426   0.281   8.887 -0.0479  0.2393 -1.1976
 7249SOL     OW33379   3.539   3.074  10.144  0.2750 -0.5327  0.2287
 7249SOL    HW133380   3.526   2.986  10.107 -0.4153 -0.7143  0.9062
 7249SOL    HW233381   3.517   3.060  10.236 -1.5344 -2.0742 -0.4213
 7250SOL     OW33382   2.037   0.869   9.465 -0.4248  0.4473  0.1873
 7250SOL    HW133383   1.973   0.800   9.450  0.9221 -0.1900 -2.6138
 7250SOL    HW233384   2.073   0.844   9.550 -2.7356  0.3516  1.1214
 7251SOL     OW33385   0.362   3.676   3.499 -0.3166 -0.1035 -0.0260
 7251SOL    HW133386   0.363   3.672   3.594  3.9294 -1.6496 -0.1416
 7251SOL    HW233387   0.326   3.589   3.477  1.3977 -0.5500 -1.0326
 7252SOL     OW33388   3.941   3.249   7.928 -0.5749  0.6787 -0.0316
 7252SOL    HW133389   3.971   3.173   7.878 -2.3494 -1.2037  1.7657
 7252SOL    HW233390   4.022   3.299   7.941 -0.2759 -0.0300  0.7796
 7253SOL     OW33391   1.250   3.857  16.863 -0.2744 -0.3706 -0.2757
 7253SOL    HW133392   1.171   3.906  16.841 -1.6012 -1.7732  1.3425
 7253SOL    HW233393   1.258   3.886  16.954  0.0274 -0.3963 -0.2934
 7254SOL     OW33394   3.884   2.837   6.984  0.1040  0.1315  0.2375
 7254SOL    HW133395   3.827   2.900   6.938 -0.8072 -1.2447 -0.4990
 7254SOL    HW233396   3.819   2.772   7.009 -0.1892 -0.3131 -1.6562
 7255SOL     OW33397   0.475   2.071   5.209 -0.0633  0.2726 -0.1745
 7255SOL    HW133398   0.423   2.148   5.234 -0.3743  0.0642 -0.1787
 7255SOL    HW233399   0.510   2.108   5.128  2.3733  0.2008  0.8307
 7256SOL     OW33400   1.940   0.013   9.260  0.5093 -0.3430  0.0978
 7256SOL    HW133401   1.901   0.073   9.325  1.3656 -1.5914  1.7789
 7256SOL    HW233402   1.988   4.681   9.307  0.1481 -0.5946  0.0927
 7257SOL     OW33403   3.579   4.683  16.638  0.2028 -0.2843  0.2591
 7257SOL    HW133404   3.503   4.726  16.678  0.2420 -1.1241  1.2257
 7257SOL    HW233405   3.593   4.732  16.557 -0.9433 -0.1090  0.1605
 7258SOL     OW33406   3.316   1.000  17.063  0.1853  0.2879  0.3400
 7258SOL    HW133407   3.279   0.980  17.149  1.1444 -0.1576  0.6446
 7258SOL    HW233408   3.297   1.093  17.068  0.5923  0.3367  0.9500
 7259SOL     OW33409   0.027   3.870   4.868  0.3950  0.6066  0.4627
 7259SOL    HW133410   0.065   3.945   4.821 -0.5606  0.0587 -1.1752
 7259SOL    HW233411   4.709   3.902   4.939 -1.8012 -1.3026 -0.3952
 7260SOL     OW33412   2.802   3.886  14.201  0.2198 -0.2816 -0.6000
 7260SOL    HW133413   2.718   3.854  14.167 -0.0195  0.7958 -0.9995
 7260SOL    HW233414   2.832   3.942  14.130  0.2617 -0.2939 -0.5922
 7261SOL     OW33415   0.935   4.275   2.552  0.2117 -0.2106  0.0307
 7261SOL    HW133416   0.844   4.244   2.553 -0.2300  1.1395  2.0054
 7261SOL    HW233417   0.944   4.311   2.464  0.6945  2.0283  1.0097
 7262SOL     OW33418   2.745   2.819   2.781 -0.0255  0.0084 -0.4214
 7262SOL    HW133419   2.752   2.870   2.700  1.0797  1.6947  0.7218
 7262SOL    HW233420   2.652   2.799   2.777 -0.3815  1.7095 -0.4325
 7263SOL     OW33421   2.525   4.576   7.306 -0.4200 -0.3104 -0.4648
 7263SOL    HW133422   2.490   4.521   7.377 -3.0711  2.2251  0.2063
 7263SOL    HW233423   2.580   4.636   7.355  1.8519 -2.8716  0.0825
 7264SOL     OW33424   0.495   3.260  12.716 -0.2064  0.9049 -0.2012
 7264SOL    HW133425   0.408   3.245  12.680  0.2784  1.9759 -1.7769
 7264SOL    HW233426   0.512   3.179  12.764 -1.4090  1.2214  0.7604
 7265SOL     OW33427   1.594   1.623   8.603 -0.7716 -0.1976 -0.3884
 7265SOL    HW133428   1.540   1.673   8.665 -2.2740 -1.0088 -1.0545
 7265SOL    HW233429   1.585   1.668   8.519  0.5747  0.7248 -0.0410
 7266SOL     OW33430   3.560   0.686  13.619 -0.2377  0.1501  0.1484
 7266SOL    HW133431   3.586   0.716  13.532 -0.4519 -1.5896 -0.5257
 7266SOL    HW233432   3.479   0.736  13.630  0.8187  2.3073 -1.7653
 7267SOL     OW33433   1.189   1.194   8.219 -0.1847  0.0480 -0.1977
 7267SOL    HW133434   1.262   1.208   8.159  1.5284 -1.7684  1.4234
 7267SOL    HW233435   1.245   1.175   8.295 -2.4415 -3.3472  0.6433
 7268SOL     OW33436   4.098   0.223   8.755  0.3006 -0.0075 -0.3888
 7268SOL    HW133437   4.164   0.223   8.824  1.2189 -3.3719 -1.2602
 7268SOL    HW233438   4.147   0.231   8.673  2.1265 -1.0422  0.6228
 7269SOL     OW33439   1.664   2.837  11.837 -0.0923  0.1993 -0.2934
 7269SOL    HW133440   1.661   2.773  11.907  2.4818 -1.6269 -1.8359
 7269SOL    HW233441   1.749   2.807  11.803  1.0504  0.0530  2.7453
 7270SOL     OW33442   4.047   4.008  15.936 -0.6447 -0.0061  0.8214
 7270SOL    HW133443   4.075   4.085  15.986 -1.9582  0.4905  0.7955
 7270SOL    HW233444   4.085   4.042  15.855  1.1067  0.3963  1.8071
 7271SOL     OW33445   0.758   0.294   4.108  0.1680  0.3556 -0.1244
 7271SOL    HW133446   0.729   0.375   4.150  1.4691 -0.7893  3.0197
 7271SOL    HW233447   0.675   0.248   4.098 -1.6771  3.5575  0.5173
 7272SOL     OW33448   0.318   1.690   7.249  0.0026  0.4644  0.2104
 7272SOL    HW133449   0.246   1.750   7.228 -1.8320 -1.6132  0.6439
 7272SOL    HW233450   0.286   1.607   7.285 -1.1465 -0.2321 -2.4202
 7273SOL     OW33451   2.508   1.414   8.577  0.4282 -0.3777  0.1250
 7273SOL    HW133452   2.510   1.384   8.668 -0.8260 -0.6064  0.0771
 7273SOL    HW233453   2.493   1.330   8.533 -2.7092  1.1443 -1.7362
 7274SOL     OW33454   0.652   4.734   4.687  0.2391 -0.0700 -0.1102
 7274SOL    HW133455   0.597   0.064   4.646 -0.3452 -0.6436 -0.2568
 7274SOL    HW233456   0.713   0.065   4.715 -0.6497  0.7386 -0.1310
 7275SOL     OW33457   0.930   4.235   4.044  0.0668 -0.1546 -0.5343
 7275SOL    HW133458   0.987   4.223   4.120 -1.0856 -1.9031  0.0620
 7275SOL    HW233459   0.955   4.323   4.015  0.5767 -0.5520 -1.3000
 7276SOL     OW33460   1.779   0.978   3.049 -0.1972  0.2423 -0.3604
 7276SOL    HW133461   1.705   1.035   3.072  1.5769  2.1383  0.6328
 7276SOL    HW233462   1.848   1.043   3.036 -1.0504  1.3421  0.6059
 7277SOL     OW33463   1.357   0.661   8.158 -0.4558  0.3893  0.1882
 7277SOL    HW133464   1.409   0.587   8.192 -1.3845 -0.6346 -0.6075
 7277SOL    HW233465   1.273   0.616   8.147 -0.5737  0.6266  0.1303
 7278SOL     OW33466   3.881   1.262   7.360 -0.3842 -0.0297  0.4085
 7278SOL    HW133467   3.906   1.354   7.356  1.1604 -0.4055  1.4030
 7278SOL    HW233468   3.785   1.264   7.352 -0.3262  0.9528 -0.0210
 7279SOL     OW33469   1.627   1.123   6.190 -0.0836  0.3400 -0.1104
 7279SOL    HW133470   1.537   1.093   6.178 -0.2000  0.5243  0.3277
 7279SOL    HW233471   1.622   1.112   6.284  3.0092  1.8074  0.2468
 7280SOL     OW33472   3.876   2.079   4.781 -0.4320  0.2991 -0.2586
 7280SOL    HW133473   3.942   2.114   4.721 -0.0570  0.4487  0.2399
 7280SOL    HW233474   3.792   2.103   4.740 -0.4629  1.1111  0.2691
 7281SOL     OW33475   0.031   0.512  14.290 -0.4425  0.2750 -0.2412
 7281SOL    HW133476   0.107   0.551  14.332  0.5037 -3.7942  1.8761
 7281SOL    HW233477   4.703   0.543  14.353  0.8929  3.1916 -0.3232
 7282SOL     OW33478   0.680   3.262   9.559 -0.1229 -0.3752 -0.9151
 7282SOL    HW133479   0.748   3.316   9.599 -0.0738 -0.2947 -1.1058
 7282SOL    HW233480   0.619   3.269   9.633  1.6566  1.3271  0.4040
 7283SOL     OW33481   3.961   4.390   2.130  0.0476 -0.3473  0.3696
 7283SOL    HW133482   3.976   4.382   2.224 -1.6705  2.9151  0.9124
 7283SOL    HW233483   3.962   4.297   2.104 -0.6862  0.6585 -3.3556
 7284SOL     OW33484   0.119   2.615   3.039 -0.0199 -0.2664  0.5253
 7284SOL    HW133485   0.093   2.523   3.047 -2.4949  0.4590  0.7408
 7284SOL    HW233486   0.078   2.625   2.953  0.8308  0.7866  0.2464
 7285SOL     OW33487   0.151   0.265   2.498 -0.8249  0.1342 -0.2502
 7285SOL    HW133488   0.088   0.280   2.428 -1.7542 -0.3306  0.4821
 7285SOL    HW233489   0.230   0.295   2.455 -1.4652  0.5142 -1.1672
 7286SOL     OW33490   1.729   2.877   7.147  0.3064 -0.8003 -0.0173
 7286SOL    HW133491   1.761   2.959   7.184  0.1246 -2.1008  3.0175
 7286SOL    HW233492   1.663   2.904   7.084  1.4372  0.7165 -0.5377
 7287SOL     OW33493   2.553   3.043   2.281 -0.0235 -0.3395  0.3279
 7287SOL    HW133494   2.606   3.117   2.250  1.2639 -0.2928  2.6461
 7287SOL    HW233495   2.614   2.977   2.249  0.7595  1.0819 -1.1387
 7288SOL     OW33496   1.004   3.357   8.947  0.0829  0.1940  0.4320
 7288SOL    HW133497   1.012   3.308   8.865 -3.3555 -0.4672  0.4897
 7288SOL    HW233498   0.929   3.317   8.990  0.0810 -2.4767 -2.0418
 7289SOL     OW33499   1.611   3.722   2.113 -0.2795 -0.0221 -0.0698
 7289SOL    HW133500   1.649   3.807   2.133 -1.9947  0.6328  0.4890
 7289SOL    HW233501   1.679   3.684   2.058 -0.3947  1.1098 -0.9827
 7290SOL     OW33502   2.855   0.844   5.179  0.3279  0.2263  0.1173
 7290SOL    HW133503   2.799   0.881   5.247  0.3535  0.8360 -0.1905
 7290SOL    HW233504   2.800   0.870   5.105  0.2414 -3.2413 -1.0454
 7291SOL     OW33505   1.281   0.646   7.738  0.6929  0.0874 -0.1569
 7291SOL    HW133506   1.220   0.681   7.803  0.6594 -2.4395  1.1496
 7291SOL    HW233507   1.319   0.731   7.714 -0.1383  0.6420  0.5113
 7292SOL     OW33508   0.977   0.054  11.457 -0.6311  0.2880  0.2250
 7292SOL    HW133509   0.968   0.009  11.541  2.8364 -2.0648 -0.6505
 7292SOL    HW233510   1.071   0.074  11.463 -0.6307  0.1972  0.5141
 7293SOL     OW33511   3.685   1.462  17.070  0.4556  0.0339  0.2181
 7293SOL    HW133512   3.745   1.394  17.039  1.4067  0.9662  0.0155
 7293SOL    HW233513   3.730   1.540  17.037 -0.1526 -0.2325 -1.2383
 7294SOL     OW33514   1.330   2.901   8.236 -0.1119  0.2628  0.4258
 7294SOL    HW133515   1.334   2.996   8.250  0.1792  0.7098 -2.5758
 7294SOL    HW233516   1.336   2.908   8.140  1.5386 -6.3308  0.0697
 7295SOL     OW33517   3.416   3.977   2.345  0.2050  0.0146  0.1424
 7295SOL    HW133518   3.354   4.018   2.405  1.3527 -0.1713  1.4669
 7295SOL    HW233519   3.370   3.902   2.308 -0.8457 -0.7167  2.9605
 7296SOL     OW33520   2.785   3.119   4.965  0.5832  0.5155 -0.0557
 7296SOL    HW133521   2.733   3.120   5.046  0.7572  0.7682  0.0513
 7296SOL    HW233522   2.814   3.028   4.964  0.3566  0.4722 -2.9185
 7297SOL     OW33523   3.383   3.116   4.876 -0.5402 -0.1393  0.2617
 7297SOL    HW133524   3.310   3.132   4.817  0.8835 -0.7914 -1.6804
 7297SOL    HW233525   3.412   3.205   4.897  1.3854 -0.4788 -0.9574
 7298SOL     OW33526   0.320   3.018  16.278  0.1031 -0.4082 -0.5935
 7298SOL    HW133527   0.371   3.076  16.335 -1.4209  0.7436 -0.3865
 7298SOL    HW233528   0.287   2.948  16.334  0.7103  2.4308  3.3632
 7299SOL     OW33529   3.587   0.621   0.231  0.1156 -0.4678  0.0961
 7299SOL    HW133530   3.548   0.706   0.212 -0.1829 -0.3173  1.4199
 7299SOL    HW233531   3.575   0.611   0.325 -0.2315 -0.0580  0.0914
 7300SOL     OW33532   2.996   3.550  15.991 -0.1406 -0.1100  0.6365
 7300SOL    HW133533   3.048   3.617  16.035  0.3024 -0.2978  0.3998
 7300SOL    HW233534   3.067   3.516  15.937  0.0120 -0.8361  1.2912
 7301SOL     OW33535   4.039   1.503   8.111  1.0688  0.1067  0.1229
 7301SOL    HW133536   4.082   1.469   8.189  0.9877 -2.5425 -1.0057
 7301SOL    HW233537   4.109   1.490   8.047  0.4546 -1.7050 -0.1796
 7302SOL     OW33538   0.312   4.050  13.381  0.5671  0.6400  0.2973
 7302SOL    HW133539   0.268   4.128  13.346 -0.7333 -0.1058  0.2346
 7302SOL    HW233540   0.259   4.038  13.460 -0.2391 -0.2982 -0.3691
 7303SOL     OW33541   1.287   3.010   0.127  0.1575 -0.1488  0.3103
 7303SOL    HW133542   1.306   2.972   0.042 -1.1839  0.2993 -0.1850
 7303SOL    HW233543   1.370   3.034   0.169  0.2481  0.6101 -0.2968
 7304SOL     OW33544   1.053   2.332  11.421 -0.1794 -0.5542 -0.7017
 7304SOL    HW133545   1.033   2.396  11.353  0.1542 -0.5827 -0.8284
 7304SOL    HW233546   0.971   2.283  11.425 -0.5940  0.2428  0.4284
 7305SOL     OW33547   2.423   4.679  17.663  0.3976  0.6145  0.0280
 7305SOL    HW133548   2.380   4.618  17.603  0.8613 -0.0277  0.3514
 7305SOL    HW233549   2.439   4.623  17.739 -0.9280  0.9832  0.5817
 7306SOL     OW33550   1.300   2.273   4.848 -1.0570  0.4413 -0.2382
 7306SOL    HW133551   1.373   2.315   4.893  0.1611 -2.0207  0.0756
 7306SOL    HW233552   1.341   2.194   4.814 -1.9894  0.3554 -1.1621
 7307SOL     OW33553   3.913   1.440  13.881  0.2366 -0.3119  0.6075
 7307SOL    HW133554   3.977   1.509  13.861  0.0608 -0.7828 -1.6203
 7307SOL    HW233555   3.829   1.485  13.891  0.6456  0.1253  2.1132
 7308SOL     OW33556   2.753   4.054   2.322 -0.5483 -0.2371  0.2140
 7308SOL    HW133557   2.680   4.080   2.378  0.4541  1.4912  0.6940
 7308SOL    HW233558   2.763   4.122   2.255  0.0001  1.2499  1.8167
 7309SOL     OW33559   3.923   4.691   8.902 -0.3867  0.6738  0.6045
 7309SOL    HW133560   3.987   0.016   8.939  0.7159  1.0253 -1.8630
 7309SOL    HW233561   3.982   4.618   8.883 -1.3230 -0.8995  3.7967
 7310SOL     OW33562   2.452   3.277   2.657 -0.1503  0.1107  0.1557
 7310SOL    HW133563   2.490   3.314   2.578 -0.7477  1.6907  0.6110
 7310SOL    HW233564   2.531   3.276   2.711 -0.1230 -0.8624  0.0890
 7311SOL     OW33565   2.511   4.378   8.813  0.2890  0.2325  0.2370
 7311SOL    HW133566   2.575   4.377   8.884  0.4032  0.7995  0.1403
 7311SOL    HW233567   2.552   4.320   8.749 -3.0151 -0.7753 -0.9795
 7312SOL     OW33568   4.662   3.932   0.195  0.2490 -0.4998  0.0866
 7312SOL    HW133569   4.638   3.994   0.126 -0.9202  0.5784  1.4699
 7312SOL    HW233570   0.009   3.892   0.173  0.4191 -0.5797  0.9039
 7313SOL     OW33571   2.793   1.458   7.277  0.3421 -0.3525  0.7340
 7313SOL    HW133572   2.833   1.480   7.362 -0.0364 -0.5124  0.9516
 7313SOL    HW233573   2.847   1.385   7.246  0.1305 -0.4383  0.5663
 7314SOL     OW33574   0.519   1.996   3.662 -0.3010 -0.2491 -0.6527
 7314SOL    HW133575   0.574   2.032   3.592 -2.0003  1.8987 -0.8916
 7314SOL    HW233576   0.439   1.974   3.614  0.6212 -1.7655 -1.4709
 7315SOL     OW33577   3.463   1.946   1.622  0.5674  0.5878 -0.1221
 7315SOL    HW133578   3.488   1.867   1.574  2.8026  1.4353 -0.3236
 7315SOL    HW233579   3.410   1.900   1.688 -0.6649 -0.1607 -1.6427
 7316SOL     OW33580   1.735   4.696   6.807  0.0996 -0.3432 -0.0415
 7316SOL    HW133581   1.791   4.731   6.737 -0.0083 -1.0420 -0.4827
 7316SOL    HW233582   1.663   4.674   6.747 -0.0041 -1.6364  0.5725
 7317SOL     OW33583   2.882   3.475   2.229 -0.1734  0.3278  0.3106
 7317SOL    HW133584   2.846   3.390   2.256  0.1011  0.6600  1.7620
 7317SOL    HW233585   2.821   3.493   2.158  1.0688 -1.6145 -1.2586
 7318SOL     OW33586   0.788   3.078  12.947  0.0915  0.1702 -0.5779
 7318SOL    HW133587   0.727   3.044  13.012  0.7605  0.0311 -0.0291
 7318SOL    HW233588   0.732   3.105  12.874 -0.7874  1.1587  0.4598
 7319SOL     OW33589   2.721   2.021  12.026 -0.7759  0.3242  0.3797
 7319SOL    HW133590   2.658   2.060  11.965  0.8701  0.6125 -1.1318
 7319SOL    HW233591   2.747   2.095  12.080  0.8797  1.3795 -1.8628
 7320SOL     OW33592   0.778   0.859  15.794 -0.5974  0.7443  0.5624
 7320SOL    HW133593   0.833   0.813  15.857 -0.8964  0.0384  0.3141
 7320SOL    HW233594   0.736   0.781  15.757 -1.5838  0.6779  1.8361
 7321SOL     OW33595   3.601   2.022   8.309  0.8027  0.0416 -0.0095
 7321SOL    HW133596   3.624   1.990   8.222 -1.4179 -1.6570  0.0393
 7321SOL    HW233597   3.680   2.010   8.361  0.1771 -1.0806  0.6769
 7322SOL     OW33598   0.523   2.762   6.660 -0.1897 -0.2645  0.1061
 7322SOL    HW133599   0.511   2.849   6.698  1.1634  0.9911 -2.3218
 7322SOL    HW233600   0.442   2.717   6.688  0.4899 -1.1487  0.6490
 7323SOL     OW33601   1.796   4.159   7.535 -0.2794 -0.5074  0.2017
 7323SOL    HW133602   1.749   4.241   7.543  3.5292  1.6484  0.7998
 7323SOL    HW233603   1.863   4.157   7.604  0.1415 -0.6582 -0.2080
 7324SOL     OW33604   0.263   3.215   4.980  0.0288 -0.3766  0.0845
 7324SOL    HW133605   0.279   3.216   5.074 -1.1379 -0.0911  0.2780
 7324SOL    HW233606   0.350   3.195   4.945 -0.4029 -1.0157 -0.6357
 7325SOL     OW33607   3.561   2.882   7.209  0.2832 -0.0144 -0.0138
 7325SOL    HW133608   3.567   2.901   7.303  0.1374  0.3283 -0.0701
 7325SOL    HW233609   3.517   2.959   7.171 -1.7369 -1.2504 -0.1810
 7326SOL     OW33610   2.315   0.058   8.829  0.1811  0.2786 -0.3872
 7326SOL    HW133611   2.241   0.056   8.890  1.2843  0.4309  0.9495
 7326SOL    HW233612   2.287   0.136   8.779 -0.0184 -0.2015 -1.0214
 7327SOL     OW33613   3.964   2.116   2.702 -0.9415  0.1556  0.0161
 7327SOL    HW133614   4.012   2.170   2.639  0.5121 -0.0869  0.9235
 7327SOL    HW233615   4.030   2.055   2.736 -0.2635 -0.9448 -3.2812
 7328SOL     OW33616   1.952   4.232   7.250 -0.3702 -0.1249  0.4669
 7328SOL    HW133617   1.946   4.156   7.309  1.7391 -0.0229  0.8161
 7328SOL    HW233618   1.871   4.277   7.274 -0.0887 -0.2443  1.6343
 7329SOL     OW33619   2.813   2.841   4.107  0.1531 -0.0484 -0.0457
 7329SOL    HW133620   2.779   2.824   4.195 -0.6580 -2.2506 -0.7624
 7329SOL    HW233621   2.813   2.935   4.090 -2.5322 -0.1447 -0.5862
 7330SOL     OW33622   2.464   0.450   9.137 -0.2584 -0.8388 -0.7418
 7330SOL    HW133623   2.535   0.418   9.081  1.8574 -0.3044  1.6147
 7330SOL    HW233624   2.411   0.370   9.147 -0.9037 -0.0482  2.2737
 7331SOL     OW33625   2.476   2.302   6.993 -0.2948  0.3536  0.4764
 7331SOL    HW133626   2.495   2.390   7.027 -2.0209  1.0401 -0.3758
 7331SOL    HW233627   2.467   2.246   7.070  0.3008  0.3426  0.5345
 7332SOL     OW33628   1.658   1.121   1.881 -0.7262 -0.1713 -0.8585
 7332SOL    HW133629   1.602   1.068   1.825  0.1708 -2.3011  0.2533
 7332SOL    HW233630   1.586   1.166   1.925 -0.5924  0.3803 -1.2029
 7333SOL     OW33631   0.172   0.188   4.018  0.1174  0.7915  0.2488
 7333SOL    HW133632   0.197   0.110   4.067  2.8095  1.6088  0.1738
 7333SOL    HW233633   0.149   0.148   3.934 -0.7821 -0.0580  0.9203
 7334SOL     OW33634   1.619   2.126   6.084 -0.3180 -0.2501 -0.1406
 7334SOL    HW133635   1.560   2.096   6.015  1.1681  1.3451 -2.0833
 7334SOL    HW233636   1.605   2.220   6.094  0.7571 -0.2391  1.2676
 7335SOL     OW33637   0.853   1.198   4.947  0.1357  0.6757  0.2820
 7335SOL    HW133638   0.848   1.214   4.853  0.6729  0.4081  0.2062
 7335SOL    HW233639   0.816   1.110   4.956 -0.9706  1.4541  3.1273
 7336SOL     OW33640   3.626   3.882   9.995 -0.0905  0.3337  0.3505
 7336SOL    HW133641   3.569   3.877   9.918 -0.7264  1.1715  0.7591
 7336SOL    HW233642   3.561   3.921  10.054 -0.0933 -1.7548  1.6974
 7337SOL     OW33643   3.501   3.062  10.426  0.3049 -0.0754  0.1899
 7337SOL    HW133644   3.564   3.000  10.463 -0.8397 -0.4666  1.5048
 7337SOL    HW233645   3.425   3.023  10.469  0.0743  0.5884  0.3814
 7338SOL     OW33646   0.204   4.657   8.552  0.2091 -0.6665 -0.3188
 7338SOL    HW133647   0.139   4.721   8.583  2.9969  1.4935  1.0219
 7338SOL    HW233648   0.225   4.623   8.639  2.2832 -0.0627 -0.5764
 7339SOL     OW33649   4.449   0.111  16.464  0.3124  0.3936 -0.5254
 7339SOL    HW133650   4.476   0.111  16.556  1.5268 -1.5528 -0.8684
 7339SOL    HW233651   4.529   0.130  16.415  0.2850  0.2620 -0.6221
 7340SOL     OW33652   2.412   2.651  15.692  0.0658 -0.3158 -0.0287
 7340SOL    HW133653   2.506   2.664  15.681 -0.1128  1.1796  0.2034
 7340SOL    HW233654   2.386   2.737  15.726  1.3267  0.3071 -0.6357
 7341SOL     OW33655   2.766   4.386   8.083  0.0428 -0.7074  0.3109
 7341SOL    HW133656   2.794   4.329   8.155  2.2497 -0.1531 -0.1081
 7341SOL    HW233657   2.670   4.381   8.083  0.0486 -0.8827  1.1998
 7342SOL     OW33658   2.067   3.639   5.816 -0.4174  0.0035  0.1063
 7342SOL    HW133659   2.124   3.574   5.775  0.2168  0.8995 -0.4332
 7342SOL    HW233660   1.982   3.594   5.810 -1.0913  1.5172 -1.7373
 7343SOL     OW33661   4.592   1.857  14.421  0.3243  0.7803  0.5425
 7343SOL    HW133662   4.667   1.876  14.477  1.4948  1.6607 -1.3240
 7343SOL    HW233663   4.534   1.924  14.458 -0.5506  1.1984 -1.6181
 7344SOL     OW33664   3.089   3.773   5.131 -0.2400 -0.2742 -0.2470
 7344SOL    HW133665   3.127   3.819   5.206 -0.6919 -0.5730  0.1607
 7344SOL    HW233666   3.139   3.695   5.107  0.1736 -0.2580  0.5636
 7345SOL     OW33667   4.391   4.265   6.150 -0.2327  0.8114  0.2200
 7345SOL    HW133668   4.331   4.235   6.219 -1.1325  1.8192 -0.1181
 7345SOL    HW233669   4.339   4.253   6.070  0.8319  2.2921 -0.6675
 7346SOL     OW33670   1.268   4.063  16.228  0.1628  0.4444 -0.1063
 7346SOL    HW133671   1.327   3.999  16.267  2.0549  0.2431 -3.3414
 7346SOL    HW233672   1.204   4.069  16.300  2.5641  0.5195  2.0189
 7347SOL     OW33673   0.297   2.270   2.279 -0.0905 -0.2682  0.2037
 7347SOL    HW133674   0.323   2.362   2.275  0.2571 -0.4669 -1.8818
 7347SOL    HW233675   0.380   2.227   2.261 -0.3402  0.6600 -3.1122
 7348SOL     OW33676   2.711   3.558   1.976 -0.3841 -1.0511 -0.4259
 7348SOL    HW133677   2.698   3.630   2.038  0.2245 -3.3130  2.3174
 7348SOL    HW233678   2.676   3.600   1.898  1.2145 -0.5012 -0.8353
 7349SOL     OW33679   1.158   1.886   0.538  0.9668  0.4779  0.1951
 7349SOL    HW133680   1.225   1.927   0.593  0.2942  2.7170 -0.6242
 7349SOL    HW233681   1.161   1.792   0.555  0.8222  0.4371  0.0009
 7350SOL     OW33682   2.844   1.345   3.878 -1.0660 -0.1647 -0.3479
 7350SOL    HW133683   2.771   1.305   3.830 -2.1606 -1.3062  2.2782
 7350SOL    HW233684   2.867   1.398   3.802  0.0070  0.5373  0.4700
 7351SOL     OW33685   3.087   3.224  10.861 -0.3377 -0.8483 -0.0633
 7351SOL    HW133686   3.167   3.174  10.846 -0.0451 -0.6374  0.8280
 7351SOL    HW233687   3.081   3.215  10.956  1.1909 -0.7555  0.0371
 7352SOL     OW33688   0.437   2.119   8.538  0.5505  0.2244  0.0354
 7352SOL    HW133689   0.519   2.072   8.529  0.4347 -0.2967  1.7765
 7352SOL    HW233690   0.469   2.186   8.477 -0.3033  0.4274 -0.1984
 7353SOL     OW33691   3.306   0.467  13.618 -0.4392 -0.2597 -0.4969
 7353SOL    HW133692   3.314   0.386  13.567  1.5021 -1.2380  1.3391
 7353SOL    HW233693   3.340   0.433  13.701 -0.2784 -0.1322 -0.5097
 7354SOL     OW33694   4.662   3.783  13.249 -0.5809  0.4851  0.1787
 7354SOL    HW133695   4.704   3.867  13.230 -0.0537 -0.1414 -1.4644
 7354SOL    HW233696   4.585   3.817  13.295 -1.1127 -0.6917  0.1434
 7355SOL     OW33697   1.945   0.394   2.093  0.0116  0.2966 -0.4197
 7355SOL    HW133698   1.878   0.438   2.145 -0.1592 -1.0616  0.5148
 7355SOL    HW233699   1.931   0.300   2.106  1.0481  0.2384  0.2381
 7356SOL     OW33700   4.634   0.311   4.035 -0.0915 -0.1181  0.1459
 7356SOL    HW133701   4.692   0.347   3.969 -1.8332 -0.2795 -1.4798
 7356SOL    HW233702   4.689   0.312   4.113  0.2621  1.2714 -0.1229
 7357SOL     OW33703   4.251   4.666   6.691  0.2781  0.2467  0.1304
 7357SOL    HW133704   4.176   4.614   6.662 -0.2529  2.1291 -1.8600
 7357SOL    HW233705   4.304   4.647   6.613  3.8283  3.7893  1.6445
 7358SOL     OW33706   3.216   0.074  17.109 -0.2081  0.3542  0.2989
 7358SOL    HW133707   3.152   0.137  17.077  0.7919  0.2484 -1.8507
 7358SOL    HW233708   3.296   0.097  17.062  0.1786 -2.3003 -0.3179
 7359SOL     OW33709   3.094   1.464   6.579 -0.0835 -0.2765  0.0939
 7359SOL    HW133710   3.064   1.380   6.545 -1.8606 -0.4741  2.1488
 7359SOL    HW233711   3.187   1.469   6.556 -0.5068 -1.4720 -1.8314
 7360SOL     OW33712   1.639   2.254   2.300 -0.4121  0.3382  0.2622
 7360SOL    HW133713   1.570   2.227   2.361 -0.7366  0.8187  0.1061
 7360SOL    HW233714   1.609   2.221   2.216  0.3606  3.7335 -1.3511
 7361SOL     OW33715   1.240   0.108   3.199 -0.3182 -0.1150 -0.2073
 7361SOL    HW133716   1.203   0.031   3.155 -1.4634 -0.6328  1.6742
 7361SOL    HW233717   1.240   0.086   3.292 -1.0004  0.1801 -0.1396
 7362SOL     OW33718   3.812   1.206   2.053 -0.2484  0.3466 -0.6445
 7362SOL    HW133719   3.775   1.219   2.140 -0.7710 -1.2317 -0.6338
 7362SOL    HW233720   3.889   1.151   2.067  0.9120  2.0632 -0.2057
 7363SOL     OW33721   1.348   1.556   7.376 -0.8528  0.5809  0.8711
 7363SOL    HW133722   1.354   1.501   7.454 -1.3305 -0.8345 -0.0897
 7363SOL    HW233723   1.421   1.615   7.393 -0.9076  0.8470  0.1983
 7364SOL     OW33724   1.102   2.764   4.514  1.0816 -0.5289  0.1381
 7364SOL    HW133725   1.056   2.829   4.566  1.3112  0.3414 -0.7414
 7364SOL    HW233726   1.043   2.748   4.441 -0.6685  0.4773  1.3417
 7365SOL     OW33727   0.417   1.949  14.078 -0.5251 -0.0647  0.3545
 7365SOL    HW133728   0.382   1.908  14.158  0.3501 -1.1142  0.2085
 7365SOL    HW233729   0.466   1.873  14.047  0.0711  0.9153 -1.0982
 7366SOL     OW33730   3.160   2.415   5.247  0.4691  0.2069  0.3898
 7366SOL    HW133731   3.192   2.379   5.164  1.1645 -0.0910  0.7895
 7366SOL    HW233732   3.072   2.377   5.250  0.4434  0.2218 -0.1525
 7367SOL     OW33733   3.548   3.262   3.024  0.0262  0.2629  0.7509
 7367SOL    HW133734   3.543   3.355   3.047 -0.4299 -0.3786  3.1412
 7367SOL    HW233735   3.459   3.232   3.038 -0.5131  1.3163 -0.3732
 7368SOL     OW33736   2.381   1.332   4.438  0.2528  0.5676  0.0730
 7368SOL    HW133737   2.406   1.417   4.404  0.6836  1.4417  2.5844
 7368SOL    HW233738   2.351   1.291   4.356  0.8962  1.2783 -0.5143
 7369SOL     OW33739   0.654   2.031   1.941  0.0913 -0.2233 -0.2892
 7369SOL    HW133740   0.589   2.099   1.919  0.6150 -0.3533 -2.2630
 7369SOL    HW233741   0.717   2.089   1.983 -1.7266  1.9568 -0.5313
 7370SOL     OW33742   4.235   1.417   8.361  0.0286  0.5929 -0.2444
 7370SOL    HW133743   4.220   1.506   8.329  1.2291  1.7321  2.3333
 7370SOL    HW233744   4.294   1.432   8.435 -0.4788 -1.1022  0.5229
 7371SOL     OW33745   2.624   0.888   8.808  0.1194 -0.4858 -0.3028
 7371SOL    HW133746   2.642   0.932   8.891 -0.4757  0.2807 -0.5742
 7371SOL    HW233747   2.645   0.797   8.827 -0.5353 -1.0962 -2.4458
 7372SOL     OW33748   2.997   4.443   1.170  0.3999  0.2253  0.3559
 7372SOL    HW133749   2.944   4.481   1.100  1.8060 -1.8784 -1.8769
 7372SOL    HW233750   3.087   4.439   1.137  0.7362  0.0531  1.2758
 7373SOL     OW33751   1.134   2.397   5.451  0.0505 -0.3363 -0.0820
 7373SOL    HW133752   1.151   2.458   5.522 -0.2764 -0.1349 -0.1779
 7373SOL    HW233753   1.081   2.452   5.395  2.3384  1.1208 -0.8046
 7374SOL     OW33754   3.574   3.135   0.837  0.7118  0.4752  0.7295
 7374SOL    HW133755   3.565   3.129   0.933  1.3810 -1.4558  0.6745
 7374SOL    HW233756   3.602   3.045   0.818  0.6793  0.2841  1.5678
 7375SOL     OW33757   2.778   0.922   6.796  0.1489 -0.2245  0.1079
 7375SOL    HW133758   2.749   0.932   6.887 -1.2838 -2.4681 -0.0992
 7375SOL    HW233759   2.699   0.902   6.747 -0.2225 -1.8192  1.3431
 7376SOL     OW33760   3.699   3.125   5.621 -0.0089 -0.4568 -0.2441
 7376SOL    HW133761   3.692   3.162   5.533 -1.6589 -1.6038 -0.5937
 7376SOL    HW233762   3.674   3.036   5.596 -1.2352  0.0053 -0.6475
 7377SOL     OW33763   2.794   4.492   2.530 -0.0828  0.3483  0.0124
 7377SOL    HW133764   2.737   4.428   2.572  1.5994 -1.6886 -0.8446
 7377SOL    HW233765   2.776   4.477   2.437  0.2563  1.1374 -0.1868
 7378SOL     OW33766   0.486   1.430   5.980 -0.5017 -0.3787  0.5959
 7378SOL    HW133767   0.473   1.438   6.074  0.8433 -0.9694  0.8194
 7378SOL    HW233768   0.559   1.491   5.970 -1.0274  0.2180  0.4073
 7379SOL     OW33769   0.234   2.268   4.185 -0.3123 -0.3050  0.2985
 7379SOL    HW133770   0.316   2.218   4.180  0.3932  0.8424  0.5142
 7379SOL    HW233771   0.260   2.339   4.127 -1.1387  0.9503  1.4899
 7380SOL     OW33772   2.289   3.251   2.358  0.2293  0.7054  0.6270
 7380SOL    HW133773   2.262   3.215   2.443  0.5268 -1.0767 -0.0531
 7380SOL    HW233774   2.378   3.279   2.381  0.8748 -1.8501  1.2361
 7381SOL     OW33775   2.276   4.589   4.289 -0.4846  0.1192  0.8244
 7381SOL    HW133776   2.271   4.493   4.290 -1.7012  0.1738  0.6679
 7381SOL    HW233777   2.250   4.606   4.198 -0.7528  1.0809  1.0852
 7382SOL     OW33778   4.035   3.214  13.011  0.4766  0.2835 -0.1820
 7382SOL    HW133779   4.022   3.120  12.997 -0.5955  0.3458  0.3884
 7382SOL    HW233780   4.020   3.216  13.105 -2.6306  1.1689 -0.6875
 7383SOL     OW33781   4.424   2.513   8.803  0.0265  0.2397 -0.2148
 7383SOL    HW133782   4.479   2.587   8.828 -0.6837  0.0376  1.9314
 7383SOL    HW233783   4.491   2.454   8.769 -0.8841 -0.3786 -0.9447
 7384SOL     OW33784   1.208   4.565  16.335  0.3441 -0.2809  0.3702
 7384SOL    HW133785   1.288   4.611  16.359 -1.0800  2.2257  0.2950
 7384SOL    HW233786   1.247   4.485  16.302 -0.3153 -0.3428 -0.2702
 7385SOL     OW33787   0.656   0.016  15.550 -0.3415 -0.2495 -0.0597
 7385SOL    HW133788   0.613   4.668  15.560 -0.3569  0.1279  2.9565
 7385SOL    HW233789   0.707   0.024  15.630  0.1590 -1.5695 -0.2585
 7386SOL     OW33790   3.821   1.578  15.904 -0.1503 -0.0435 -0.4373
 7386SOL    HW133791   3.807   1.539  15.990  0.3640  0.1093 -0.2881
 7386SOL    HW233792   3.915   1.587  15.894 -0.0449  0.0283  0.6046
 7387SOL     OW33793   0.416   3.659  10.119  0.1351 -0.5671  0.5870
 7387SOL    HW133794   0.391   3.725  10.184  3.1536 -0.4221  1.6018
 7387SOL    HW233795   0.466   3.711  10.056 -2.3442  1.1657  0.0857
 7388SOL     OW33796   4.365   1.674   9.237  0.1251 -0.0216 -0.6855
 7388SOL    HW133797   4.364   1.613   9.311 -0.4766 -2.6409 -2.8821
 7388SOL    HW233798   4.270   1.679   9.224  0.1306 -0.7631 -1.0099
 7389SOL     OW33799   0.360   2.256   1.399 -0.7157  0.2640  0.1775
 7389SOL    HW133800   0.401   2.174   1.372 -0.6049 -0.6183  3.0157
 7389SOL    HW233801   0.369   2.315   1.324  0.1023 -0.4216 -0.2670
 7390SOL     OW33802   0.925   1.093  15.315 -0.4106  0.0873 -0.1402
 7390SOL    HW133803   0.860   1.158  15.341  0.2869  0.5917  0.3324
 7390SOL    HW233804   1.006   1.122  15.356 -0.1227 -2.6118  1.1756
 7391SOL     OW33805   3.713   0.710  16.854  0.6010  0.0839 -0.0360
 7391SOL    HW133806   3.638   0.766  16.869  1.5402  1.7035 -1.3866
 7391SOL    HW233807   3.713   0.694  16.760 -1.7656  3.6025 -0.6227
 7392SOL     OW33808   0.793   1.486  10.016  0.8039  0.0361 -0.7844
 7392SOL    HW133809   0.883   1.477  10.045  0.0603 -0.1604  1.4545
 7392SOL    HW233810   0.757   1.431  10.085  2.2563  1.4270  1.0849
 7393SOL     OW33811   3.812   3.260  12.187 -0.3927  0.0561  0.0502
 7393SOL    HW133812   3.862   3.339  12.163  3.9332 -2.3822  1.0910
 7393SOL    HW233813   3.752   3.306  12.246 -0.8826 -1.1338  0.4629
 7394SOL     OW33814   0.547   4.723   8.534  0.3969 -0.0803  0.0693
 7394SOL    HW133815   0.458   4.712   8.567  0.5793 -3.9275 -0.6701
 7394SOL    HW233816   0.563   4.651   8.473 -2.6352 -0.5113 -0.2284
 7395SOL     OW33817   4.451   1.737   1.628 -0.0917  0.1524 -0.2330
 7395SOL    HW133818   4.486   1.733   1.539  1.5784  1.3626  0.3665
 7395SOL    HW233819   4.394   1.811   1.609 -0.1555  0.0452 -0.4505
 7396SOL     OW33820   1.525   0.881   5.469  0.1523  0.0363 -0.0933
 7396SOL    HW133821   1.526   0.973   5.495 -2.6406  0.3573 -1.1103
 7396SOL    HW233822   1.507   0.888   5.375  1.0089 -1.5265 -0.3688
 7397SOL     OW33823   0.310   3.317   1.306  0.7004  0.1472  0.1898
 7397SOL    HW133824   0.252   3.356   1.240  0.3049 -1.6472 -0.5054
 7397SOL    HW233825   0.264   3.353   1.383 -2.5743 -0.2886 -1.5663
 7398SOL     OW33826   3.212   4.372   5.666  0.5540 -0.4863 -0.1930
 7398SOL    HW133827   3.126   4.391   5.705  0.6863 -2.4405  1.0672
 7398SOL    HW233828   3.217   4.446   5.606 -0.4415 -0.5588 -0.3728
 7399SOL     OW33829   2.345   1.295  17.181 -0.0849 -0.3406  0.2790
 7399SOL    HW133830   2.420   1.235  17.178 -0.1497 -0.4316  0.5100
 7399SOL    HW233831   2.321   1.288  17.088 -0.0024  1.2208  0.1370
 7400SOL     OW33832   3.672   3.101  15.694 -1.0618 -0.2366 -0.2468
 7400SOL    HW133833   3.730   3.028  15.671 -1.2703 -1.2599  2.5199
 7400SOL    HW233834   3.740   3.167  15.711 -1.7552 -0.0893  1.9030
 7401SOL     OW33835   4.131   3.520   9.015 -0.1113 -0.5684  0.5551
 7401SOL    HW133836   4.171   3.492   8.932 -1.0002  1.8371 -0.7051
 7401SOL    HW233837   4.063   3.454   9.008 -1.2638  0.6188  0.6096
 7402SOL     OW33838   0.282   3.432   3.402 -0.1455  0.6051 -0.5250
 7402SOL    HW133839   0.339   3.356   3.391 -1.2321 -0.2822 -0.0234
 7402SOL    HW233840   0.228   3.405   3.477 -1.7147 -1.3300 -2.3761
 7403SOL     OW33841   1.023   0.050  16.370 -0.0896  0.3142 -0.1225
 7403SOL    HW133842   1.079   0.127  16.367  3.0303 -1.9716 -0.4828
 7403SOL    HW233843   1.083   4.717  16.344 -0.4206  0.5646 -1.5297
 7404SOL     OW33844   1.478   4.681  13.098  0.1511  0.0057 -0.4677
 7404SOL    HW133845   1.483   0.031  13.139 -2.4953 -0.4453  0.8030
 7404SOL    HW233846   1.394   4.684  13.053 -0.6973  1.2661  1.1709
 7405SOL     OW33847   0.459   2.448   6.961  0.4980  0.2061 -0.2729
 7405SOL    HW133848   0.410   2.529   6.951  1.6819  0.9806  0.2092
 7405SOL    HW233849   0.447   2.397   6.880  1.3481 -0.3813 -0.0304
 7406SOL     OW33850   3.386   1.750   8.181 -0.1649 -0.0445 -0.3851
 7406SOL    HW133851   3.449   1.822   8.176 -0.9832  0.6418 -0.7854
 7406SOL    HW233852   3.371   1.740   8.275 -0.5776  1.0490 -0.3358
 7407SOL     OW33853   2.097   0.413   3.035 -0.0050  0.2118  0.1867
 7407SOL    HW133854   2.111   0.487   3.094 -0.0587  1.0470 -0.8675
 7407SOL    HW233855   2.006   0.432   3.013  0.3619 -1.0556 -2.4065
 7408SOL     OW33856   3.948   2.642   3.678  0.3825  0.4931  0.1968
 7408SOL    HW133857   4.006   2.590   3.622  1.4763  1.7256  0.1917
 7408SOL    HW233858   3.990   2.727   3.668  0.1094  0.6043 -0.0122
 7409SOL     OW33859   1.846   2.556   7.801  0.7461  0.1206  0.9838
 7409SOL    HW133860   1.887   2.633   7.761 -0.5321  0.4677  0.3424
 7409SOL    HW233861   1.761   2.596   7.820  0.6216 -0.4294  1.5847
 7410SOL     OW33862   0.793   0.390   8.171  0.1492 -1.0314 -0.6200
 7410SOL    HW133863   0.732   0.425   8.106 -1.4839 -0.8670  0.9631
 7410SOL    HW233864   0.858   0.346   8.117  3.3747  1.7446  1.0170
 7411SOL     OW33865   0.537   2.987   6.481  0.6440  0.2424 -0.6996
 7411SOL    HW133866   0.489   3.036   6.548  2.4899  0.4561  0.4554
 7411SOL    HW233867   0.492   3.026   6.407 -0.6601 -0.8738 -0.5130
 7412SOL     OW33868   4.612   0.086   7.956 -0.0763 -0.2865  0.3902
 7412SOL    HW133869   4.531   0.058   7.915 -0.1811  2.7364 -1.4889
 7412SOL    HW233870   4.665   0.042   7.889 -0.0057  1.4662 -0.6999
 7413SOL     OW33871   0.522   0.513   6.495  0.4341 -0.1429  0.3598
 7413SOL    HW133872   0.536   0.590   6.440 -0.3498  0.6758  1.3156
 7413SOL    HW233873   0.561   0.443   6.442 -0.6026 -0.4836  0.0516
 7414SOL     OW33874   4.323   4.533   6.107 -0.6068  0.2013  0.2925
 7414SOL    HW133875   4.333   4.618   6.064 -1.5422  0.2602  0.2099
 7414SOL    HW233876   4.403   4.487   6.081  0.5802  2.0799  0.6595
 7415SOL     OW33877   1.376   2.820   1.247  0.2687  0.0408  0.4450
 7415SOL    HW133878   1.414   2.745   1.200  0.1376 -0.2470  0.8000
 7415SOL    HW233879   1.304   2.840   1.187 -0.3185 -1.9100  0.4978
 7416SOL     OW33880   4.571   1.019  10.123 -0.6172  0.1644  0.4941
 7416SOL    HW133881   4.565   1.080  10.196  2.2055  1.1154 -0.0801
 7416SOL    HW233882   4.666   1.022  10.111 -0.6935 -0.2506 -0.2143
 7417SOL     OW33883   2.335   3.386   4.095  0.5290 -0.2567 -0.0562
 7417SOL    HW133884   2.292   3.454   4.147 -0.6133  1.0194 -2.6737
 7417SOL    HW233885   2.413   3.366   4.149  0.2285 -0.4420  0.3132
 7418SOL     OW33886   4.443   1.796  11.444 -0.7757 -0.3826  0.0591
 7418SOL    HW133887   4.489   1.857  11.502 -1.8706  0.1508  0.3743
 7418SOL    HW233888   4.504   1.723  11.453 -0.9319 -0.5897 -0.5182
 7419SOL     OW33889   0.403   2.428  11.606 -0.4239 -0.4649  0.0156
 7419SOL    HW133890   0.477   2.480  11.637 -1.8610  0.0148  2.6706
 7419SOL    HW233891   0.330   2.476  11.645 -0.4937 -2.7448  2.7293
 7420SOL     OW33892   1.842   3.226   7.888  0.7322 -0.1039  0.0678
 7420SOL    HW133893   1.793   3.256   7.811  3.2971 -0.0955 -1.5942
 7420SOL    HW233894   1.906   3.296   7.903  0.1877  0.7541 -1.5984
 7421SOL     OW33895   3.116   1.038   7.947  0.4143 -0.9404 -0.2254
 7421SOL    HW133896   3.065   1.024   7.867 -0.4887 -0.5091  0.2665
 7421SOL    HW233897   3.064   0.983   8.006  1.9617  0.2447  2.2150
 7422SOL     OW33898   2.808   1.611  15.483 -0.2735 -0.3922  0.2056
 7422SOL    HW133899   2.859   1.587  15.406 -0.1809  3.5989 -0.9880
 7422SOL    HW233900   2.733   1.555  15.467 -0.8923  0.7427 -0.8778
 7423SOL     OW33901   2.412   2.777   3.594  0.1460 -0.0250 -0.3347
 7423SOL    HW133902   2.504   2.788   3.617 -0.1833  0.1594  0.8834
 7423SOL    HW233903   2.400   2.869   3.573 -1.0276 -0.1431 -0.1658
 7424SOL     OW33904   2.360   3.666  16.880  0.1595 -0.2011  0.2142
 7424SOL    HW133905   2.385   3.717  16.802  2.4674 -1.8830 -0.1376
 7424SOL    HW233906   2.269   3.694  16.888  0.1126 -0.9950  2.2935
 7425SOL     OW33907   1.649   4.051   1.144 -0.1723 -0.1833  1.0701
 7425SOL    HW133908   1.611   4.031   1.230  1.1807 -0.1064  1.6965
 7425SOL    HW233909   1.736   4.012   1.150 -0.7349 -1.6939 -0.6901
 7426SOL     OW33910   3.330   1.519   1.766 -0.3147  0.7374 -0.1542
 7426SOL    HW133911   3.302   1.479   1.684  0.5884  0.7254 -0.4560
 7426SOL    HW233912   3.422   1.539   1.749 -0.0453  0.6489  1.2017
 7427SOL     OW33913   1.792   4.574   8.082 -0.4380 -0.1960  0.2864
 7427SOL    HW133914   1.863   4.517   8.112 -0.6238  0.3256  1.6703
 7427SOL    HW233915   1.848   4.648   8.061  0.6314 -1.4844 -1.4854
 7428SOL     OW33916   1.969   0.618   9.226 -0.2233 -0.5381  0.5997
 7428SOL    HW133917   1.931   0.546   9.176  1.8666  0.1537 -1.9625
 7428SOL    HW233918   2.014   0.573   9.299 -0.6391  0.8995  1.7443
 7429SOL     OW33919   0.647   0.031   3.421 -0.0083 -0.0845 -0.2131
 7429SOL    HW133920   0.710   0.045   3.351  0.4365  2.5236  0.7145
 7429SOL    HW233921   0.699   0.078   3.486 -1.3520 -0.7715  1.3723
 7430SOL     OW33922   1.987   0.473  10.621 -0.3544 -0.2122 -0.1192
 7430SOL    HW133923   1.905   0.460  10.573 -0.4267  1.8312 -0.5836
 7430SOL    HW233924   2.005   0.391  10.667 -0.8015 -1.4694 -2.1777
 7431SOL     OW33925   4.726   4.268   5.418  0.0538  0.6393 -0.2815
 7431SOL    HW133926   4.723   4.186   5.467  0.1856  1.1386  0.5526
 7431SOL    HW233927   0.074   4.255   5.374  0.6997  0.4018  1.0370
 7432SOL     OW33928   0.809   0.679  14.646  0.0035  0.5079  0.3813
 7432SOL    HW133929   0.774   0.719  14.725  0.6948  2.7234 -0.4562
 7432SOL    HW233930   0.738   0.621  14.618 -0.5114  0.7659  1.1584
 7433SOL     OW33931   1.934   1.324   4.007  0.0017  0.0623 -0.3179
 7433SOL    HW133932   1.912   1.414   4.032 -1.2743 -0.5913  0.9143
 7433SOL    HW233933   1.849   1.283   4.021  0.4169 -0.6056  0.2158
 7434SOL     OW33934   0.277   2.901   5.235 -0.0072  0.2740  0.6083
 7434SOL    HW133935   0.339   2.971   5.214  0.7470 -0.8973 -1.1181
 7434SOL    HW233936   0.200   2.945   5.270 -0.1487 -0.1616  0.8456
 7435SOL     OW33937   3.838   4.434   3.239 -0.2574 -0.1384  0.9857
 7435SOL    HW133938   3.748   4.453   3.213 -0.6238 -0.5878  1.9406
 7435SOL    HW233939   3.871   4.509   3.288 -0.6026  0.3258  0.5037
 7436SOL     OW33940   0.307   1.709  14.249  0.4535 -0.7082 -0.2837
 7436SOL    HW133941   0.299   1.663  14.166  0.2801 -2.1328  0.5152
 7436SOL    HW233942   0.301   1.638  14.314  1.1449 -0.2928  0.2312
 7437SOL     OW33943   1.073   4.576  16.827 -0.1424  0.0634  0.3023
 7437SOL    HW133944   1.159   4.617  16.839  0.2675 -1.5595  2.8488
 7437SOL    HW233945   1.018   4.601  16.901 -1.9086  1.9401 -1.6538
 7438SOL     OW33946   0.926   1.093   3.632 -0.0212  0.5342 -0.5825
 7438SOL    HW133947   0.903   1.001   3.618  0.5439  0.6880 -2.5170
 7438SOL    HW233948   1.007   1.084   3.582 -0.6246 -0.7825 -1.3242
 7439SOL     OW33949   0.636   0.828  11.303 -0.5859 -0.3198  0.1394
 7439SOL    HW133950   0.657   0.736  11.318  1.5492  0.3248  1.0645
 7439SOL    HW233951   0.649   0.826  11.208 -3.2835 -1.0300 -0.2119
 7440SOL     OW33952   3.095   2.001  13.210  0.4644  0.2784  0.4868
 7440SOL    HW133953   3.084   1.908  13.189  0.9103  0.1554  0.7967
 7440SOL    HW233954   3.146   2.045  13.142  1.2739 -1.2808  0.0813
 7441SOL     OW33955   1.442   3.493   8.099  0.3647 -0.9009  0.5551
 7441SOL    HW133956   1.508   3.425   8.111 -0.1385 -1.5353 -0.2482
 7441SOL    HW233957   1.433   3.489   8.004 -0.9468 -2.1351  0.7395
 7442SOL     OW33958   3.169   0.545   5.306 -0.2681  0.2272  0.4898
 7442SOL    HW133959   3.110   0.615   5.335 -2.5325 -1.6569  0.4403
 7442SOL    HW233960   3.253   0.590   5.316 -0.4007  0.3673  0.9596
 7443SOL     OW33961   3.940   1.799   8.805  0.9141 -0.2848 -0.2269
 7443SOL    HW133962   3.913   1.733   8.741  0.2526  1.2005 -1.4587
 7443SOL    HW233963   3.903   1.759   8.885 -1.1651  0.0475 -1.0274
 7444SOL     OW33964   4.479   2.470  12.958  0.0934 -0.4764 -0.5614
 7444SOL    HW133965   4.436   2.385  12.974 -1.5116  0.9423  2.7245
 7444SOL    HW233966   4.408   2.534  12.961 -0.5701 -1.1252 -2.9958
 7445SOL     OW33967   1.665   1.279   4.903  0.3030  0.5259 -0.4664
 7445SOL    HW133968   1.734   1.265   4.838  0.1525  1.3415 -0.8064
 7445SOL    HW233969   1.711   1.339   4.961  0.2501 -0.3883  0.5275
 7446SOL     OW33970   2.354   1.999   1.690 -0.4995  0.2287  0.2837
 7446SOL    HW133971   2.293   1.996   1.764 -2.8833  1.4187 -1.6252
 7446SOL    HW233972   2.404   2.074   1.723 -0.5714  0.3676  0.0797
 7447SOL     OW33973   1.973   3.713   6.439  0.2852 -0.5217 -0.2452
 7447SOL    HW133974   2.046   3.775   6.449 -0.5492  0.3858  0.1611
 7447SOL    HW233975   1.900   3.765   6.472 -0.7281 -0.8839 -1.8785
 7448SOL     OW33976   2.455   0.925  15.570 -0.8820  0.0385  0.0643
 7448SOL    HW133977   2.452   1.009  15.523  2.8830  0.5554  0.6825
 7448SOL    HW233978   2.469   0.860  15.502  0.2310  0.2117  0.1116
 7449SOL     OW33979   2.849   3.172  13.050 -0.6517 -0.7893  0.3833
 7449SOL    HW133980   2.807   3.251  13.016 -0.1705  0.0818  1.8270
 7449SOL    HW233981   2.780   3.107  13.033  0.3439 -1.2707 -1.9151
 7450SOL     OW33982   2.269   3.267   1.775  0.3948 -0.1015  0.3174
 7450SOL    HW133983   2.295   3.249   1.866  1.0723 -0.0228  0.1458
 7450SOL    HW233984   2.300   3.189   1.730  1.6009 -0.0750  1.1023
 7451SOL     OW33985   2.986   1.772   3.406 -0.2519  0.1476 -0.6699
 7451SOL    HW133986   3.077   1.743   3.412 -0.6314 -1.4375 -2.4555
 7451SOL    HW233987   3.004   1.857   3.447 -0.6827 -0.2616  0.3557
 7452SOL     OW33988   3.210   1.875   9.069  0.2453  1.0859 -0.4591
 7452SOL    HW133989   3.181   1.919   9.150  1.2005  2.5361 -0.9024
 7452SOL    HW233990   3.133   1.875   9.012  0.0878 -0.0112 -0.2481
 7453SOL     OW33991   2.800   1.856   1.883  0.0248  0.5606  0.4689
 7453SOL    HW133992   2.889   1.823   1.892  0.0133 -0.4954 -3.3405
 7453SOL    HW233993   2.815   1.942   1.842 -0.4817 -0.5239 -2.0221
 7454SOL     OW33994   0.373   2.825   1.311  0.0234 -0.9670 -0.1744
 7454SOL    HW133995   0.291   2.816   1.263 -0.7188 -0.5509  1.0092
 7454SOL    HW233996   0.350   2.810   1.403  3.1370 -1.4461  0.5508
 7455SOL     OW33997   1.517   3.857   9.474 -0.6690  0.0504 -0.1608
 7455SOL    HW133998   1.601   3.820   9.449 -0.5089 -1.1715  2.2298
 7455SOL    HW233999   1.463   3.781   9.453 -1.7051  1.0087 -1.0072
 7456SOL     OW34000   0.113   0.520   6.540 -0.2421  0.5409 -0.2421
 7456SOL    HW134001   0.169   0.447   6.567 -2.1376 -0.2244  1.6155
 7456SOL    HW234002   0.031   0.486   6.577  1.2009 -0.2271  2.2592
 7457SOL     OW34003   4.145   2.789  11.210 -0.2461  0.5850  0.5262
 7457SOL    HW134004   4.232   2.753  11.226 -1.8814 -2.3391  2.8449
 7457SOL    HW234005   4.101   2.724  11.155 -0.6581  2.0019 -0.8214
 7458SOL     OW34006   3.667   0.360   0.180 -0.5762 -0.1613 -0.3082
 7458SOL    HW134007   3.583   0.326   0.148 -0.1493 -0.7004 -0.8775
 7458SOL    HW234008   3.638   0.447   0.206 -0.7357 -0.5748  0.9068
 7459SOL     OW34009   1.228   1.987   4.497 -0.5377 -0.2604 -0.3012
 7459SOL    HW134010   1.222   2.074   4.457  1.0097 -0.3700 -0.7830
 7459SOL    HW234011   1.298   1.949   4.444  0.7357 -0.4650  1.5335
 7460SOL     OW34012   4.581   0.011   4.256  0.1259  0.2849  0.2214
 7460SOL    HW134013   4.513   4.691   4.219 -0.9551 -0.5760  3.4790
 7460SOL    HW234014   4.594   0.068   4.181 -2.0653 -0.7317 -0.9475
 7461SOL     OW34015   3.252   1.704   8.814  0.4963 -0.3279 -0.2122
 7461SOL    HW134016   3.254   1.748   8.899 -2.2485  0.8092 -0.7483
 7461SOL    HW234017   3.342   1.672   8.804  0.7366 -0.0558  1.0836
 7462SOL     OW34018   0.427   3.580   4.826 -0.2570 -0.6721 -0.2254
 7462SOL    HW134019   0.415   3.582   4.921 -0.1785 -0.5959 -0.2173
 7462SOL    HW234020   0.337   3.555   4.806 -0.4741 -0.2880  0.2946
 7463SOL     OW34021   0.131   1.799   7.797  0.0159 -0.1333 -0.4149
 7463SOL    HW134022   0.219   1.763   7.810 -0.4641 -0.5808  1.5936
 7463SOL    HW234023   0.085   1.733   7.747 -0.3662 -0.3311  0.2007
 7464SOL     OW34024   0.896   0.223   2.049 -0.6472 -0.3658 -0.4590
 7464SOL    HW134025   0.981   0.224   2.093 -0.8031  2.1080 -0.1922
 7464SOL    HW234026   0.856   0.139   2.072 -2.5197  0.6212 -0.1346
 7465SOL     OW34027   2.609   2.760  14.802  0.0103  1.1687  0.3233
 7465SOL    HW134028   2.595   2.670  14.772  0.0696  1.5384 -0.8174
 7465SOL    HW234029   2.704   2.764  14.810 -0.1038  1.9059  1.3511
 7466SOL     OW34030   3.073   1.729   1.579 -0.0164  0.1375 -0.5071
 7466SOL    HW134031   3.022   1.674   1.639  1.9987  0.5040  1.5607
 7466SOL    HW234032   3.027   1.726   1.495  0.2079 -0.4590 -0.6101
 7467SOL     OW34033   2.440   3.600   4.470  0.1584 -0.4162 -0.1212
 7467SOL    HW134034   2.361   3.633   4.427 -2.5533 -2.1536  3.5284
 7467SOL    HW234035   2.467   3.553   4.391 -0.6585  0.8199 -1.1592
 7468SOL     OW34036   3.762   2.359  11.533  0.0097  0.6959  0.7718
 7468SOL    HW134037   3.745   2.376  11.625 -0.5523  0.0108  0.7936
 7468SOL    HW234038   3.720   2.433  11.490 -2.0893 -0.6181  0.5818
 7469SOL     OW34039   2.392   3.250   6.429 -0.4358  0.2631 -0.4982
 7469SOL    HW134040   2.390   3.300   6.347 -0.0875  0.1843 -0.5543
 7469SOL    HW234041   2.472   3.289   6.464  0.3565 -1.0506 -0.8699
 7470SOL     OW34042   2.611   3.408   9.401 -0.1381 -0.2185 -0.1013
 7470SOL    HW134043   2.557   3.399   9.480 -0.4778  0.9207 -0.2092
 7470SOL    HW234044   2.689   3.428   9.453 -0.4101  2.0121 -0.5540
 7471SOL     OW34045   4.185   0.014   2.055 -0.0294  0.1007  0.8630
 7471SOL    HW134046   4.183   4.655   2.067  3.3331 -0.1562 -0.5761
 7471SOL    HW234047   4.231   0.027   1.972 -2.2072  0.9093 -0.2123
 7472SOL     OW34048   3.351   0.312   8.283 -0.1374 -0.5412  0.0227
 7472SOL    HW134049   3.408   0.378   8.324 -1.3324  0.4885  0.0386
 7472SOL    HW234050   3.281   0.299   8.347  1.0889 -0.9679  1.2783
 7473SOL     OW34051   4.676   2.942   9.874  0.6390  0.1976 -0.1964
 7473SOL    HW134052   4.636   3.026   9.894 -1.3868 -0.7191 -0.3759
 7473SOL    HW234053   4.608   2.910   9.814  1.0989  0.3954 -0.8140
 7474SOL     OW34054   1.742   2.691   6.566  0.6111 -0.0579 -0.2692
 7474SOL    HW134055   1.700   2.606   6.578  0.3442 -0.0184 -0.9238
 7474SOL    HW234056   1.833   2.663   6.563  1.2353  2.2461 -2.8323
 7475SOL     OW34057   3.463   3.757   1.638 -0.2246 -0.1872 -0.2255
 7475SOL    HW134058   3.379   3.719   1.665 -1.4237  1.3210 -1.8759
 7475SOL    HW234059   3.510   3.674   1.635  1.1603  0.6182 -0.6401
 7476SOL     OW34060   3.550   1.425   2.253  0.3293  0.3292 -0.1369
 7476SOL    HW134061   3.593   1.501   2.214 -2.4170  0.5393 -2.7965
 7476SOL    HW234062   3.486   1.396   2.187  0.7205  0.1331 -0.4289
 7477SOL     OW34063   1.648   2.886   0.707 -0.3178 -0.3056 -0.1340
 7477SOL    HW134064   1.694   2.817   0.754  1.7613  0.2068 -1.4106
 7477SOL    HW234065   1.560   2.849   0.713 -0.2410 -0.3187  0.8081
 7478SOL     OW34066   2.160   1.635  16.037 -0.1642  0.4984  0.1491
 7478SOL    HW134067   2.229   1.700  16.025  0.2783 -0.2591 -1.4737
 7478SOL    HW234068   2.204   1.577  16.100  1.6491  0.5104 -1.1003
 7479SOL     OW34069   3.852   3.206  16.753  0.6232  0.2413  0.1276
 7479SOL    HW134070   3.839   3.134  16.691  4.1352  0.2040 -0.5652
 7479SOL    HW234071   3.838   3.161  16.837 -1.2985  0.8674  0.1317
 7480SOL     OW34072   2.536   4.681   4.344 -0.7260  0.2133 -0.3302
 7480SOL    HW134073   2.453   4.645   4.313 -0.3991  0.7803 -1.8659
 7480SOL    HW234074   2.512   4.712   4.432  0.7164 -0.8295  0.4374
 7481SOL     OW34075   2.782   1.761  12.094 -0.8476  0.2153  0.2883
 7481SOL    HW134076   2.877   1.775  12.096 -1.4494  4.0827  2.7286
 7481SOL    HW234077   2.752   1.846  12.063  1.4440  0.1970 -1.9512
 7482SOL     OW34078   4.432   0.857   2.501 -0.2454  0.5606  0.4507
 7482SOL    HW134079   4.438   0.810   2.417  1.5715  3.1109 -0.8566
 7482SOL    HW234080   4.340   0.839   2.517 -0.4545 -0.8219 -2.1789
 7483SOL     OW34081   1.419   0.490   3.868  0.5226  0.1448 -0.6103
 7483SOL    HW134082   1.480   0.429   3.827  1.4240 -1.7516  3.4880
 7483SOL    HW234083   1.426   0.478   3.963 -0.2081  0.1006 -0.5587
 7484SOL     OW34084   1.771   3.270  14.994 -0.4553  0.5141  0.7915
 7484SOL    HW134085   1.848   3.224  14.959  0.0399  1.9512 -0.0272
 7484SOL    HW234086   1.821   3.350  15.011  0.4473  0.0168  0.4985
 7485SOL     OW34087   2.833   4.174   5.044  0.2644  0.1468  0.1146
 7485SOL    HW134088   2.786   4.177   4.961 -0.6590  1.5007  0.7047
 7485SOL    HW234089   2.843   4.080   5.064 -1.3757 -0.2280 -0.8525
 7486SOL     OW34090   0.074   2.201   4.781  0.3904 -0.2421  0.3606
 7486SOL    HW134091   0.072   2.246   4.697 -0.8794  0.1700  0.6103
 7486SOL    HW234092   0.161   2.226   4.813  0.3374  0.6430 -0.1959
 7487SOL     OW34093   0.490   2.719  11.899  0.6694  0.1681 -0.0072
 7487SOL    HW134094   0.537   2.689  11.821  2.2610  0.7994  0.7023
 7487SOL    HW234095   0.402   2.724  11.862  0.1875 -1.9347  0.8386
 7488SOL     OW34096   2.487   0.184  14.597  0.5392  0.2478 -0.2695
 7488SOL    HW134097   2.426   0.115  14.623  1.8936 -1.6510 -2.1976
 7488SOL    HW234098   2.564   0.135  14.568  0.2626  0.4505 -1.3590
 7489SOL     OW34099   1.782   2.383   6.267 -0.1473  0.4659 -0.0550
 7489SOL    HW134100   1.816   2.473   6.267 -1.7468  1.0630  3.2167
 7489SOL    HW234101   1.837   2.350   6.338 -0.9978  1.4422  1.0372
 7490SOL     OW34102   4.174   4.429   6.875 -0.0180  0.0673  0.7273
 7490SOL    HW134103   4.192   4.422   6.782 -1.3851  0.2829  0.4446
 7490SOL    HW234104   4.100   4.369   6.884 -0.3671 -0.0325 -3.0413
 7491SOL     OW34105   4.284   2.229   7.202 -0.1069  0.3756  0.4551
 7491SOL    HW134106   4.288   2.254   7.110  1.1603 -0.7147  0.2153
 7491SOL    HW234107   4.193   2.202   7.194 -0.0886 -0.3227  2.4612
 7492SOL     OW34108   3.671   0.771   4.339 -0.1575 -0.8755  0.1598
 7492SOL    HW134109   3.601   0.819   4.384 -0.2155 -0.5364 -0.2983
 7492SOL    HW234110   3.641   0.684   4.366 -0.7130  0.3575  3.5027
 7493SOL     OW34111   0.648   0.875  12.057  0.3897 -0.2888  0.1515
 7493SOL    HW134112   0.707   0.950  12.064  0.8446 -0.6341  0.0241
 7493SOL    HW234113   0.568   0.920  12.082  2.9488  3.6379  1.3457
 7494SOL     OW34114   2.074   3.185  10.389 -0.0539 -0.3033  0.3967
 7494SOL    HW134115   2.066   3.134  10.469 -0.9368  0.4968  0.8237
 7494SOL    HW234116   2.110   3.269  10.418 -1.7503  1.1764 -1.7315
 7495SOL     OW34117   2.472   1.434  10.071  0.1063 -0.7238 -0.0871
 7495SOL    HW134118   2.429   1.385  10.001  0.4867 -0.4660 -0.5004
 7495SOL    HW234119   2.387   1.456  10.110  0.3126  2.3831 -1.3992
 7496SOL     OW34120   0.183   4.550   9.140 -0.2945  0.0690  0.3060
 7496SOL    HW134121   0.208   4.634   9.179  1.2786 -0.9799  1.5328
 7496SOL    HW234122   0.091   4.573   9.123  0.0841  1.5254  0.1990
 7497SOL     OW34123   0.904   1.724  16.249 -0.0500 -0.4000 -0.0630
 7497SOL    HW134124   0.939   1.651  16.300  2.1423  0.8488  0.2274
 7497SOL    HW234125   0.862   1.779  16.315  2.5196  1.0969  0.3221
 7498SOL     OW34126   3.951   1.383   2.443  0.0119 -0.2134 -0.6051
 7498SOL    HW134127   3.979   1.427   2.362  0.8385  1.2680  0.4800
 7498SOL    HW234128   4.029   1.392   2.498 -0.2394 -1.9039  0.0456
 7499SOL     OW34129   1.093   1.874   3.709 -0.3852  0.2700 -0.0199
 7499SOL    HW134130   1.105   1.880   3.614  3.0863 -0.0263  0.4254
 7499SOL    HW234131   1.058   1.786   3.723  2.1183 -0.6336  0.5550
 7500SOL     OW34132   2.099   3.486   4.391  0.0580 -0.4414 -0.3427
 7500SOL    HW134133   2.037   3.514   4.459  0.7374  0.5176 -0.1101
 7500SOL    HW234134   2.072   3.395   4.379 -1.1048 -0.0449 -0.7220
 7501SOL     OW34135   4.564   4.421  13.209 -0.8135 -0.2468  0.3883
 7501SOL    HW134136   4.585   4.472  13.287 -0.2523  3.0227 -1.8843
 7501SOL    HW234137   4.642   4.415  13.153 -1.1422  0.2520 -0.1184
 7502SOL     OW34138   3.354   0.151  16.712  0.0252 -0.0670 -0.1096
 7502SOL    HW134139   3.288   0.091  16.678  0.6921 -1.6959  1.4500
 7502SOL    HW234140   3.346   0.142  16.807 -1.6086  1.3171 -0.0986
 7503SOL     OW34141   4.486   0.914   2.094  0.1817  0.0150  0.7747
 7503SOL    HW134142   4.577   0.944   2.098  0.6663 -1.2222 -0.9736
 7503SOL    HW234143   4.454   0.979   2.031  0.0096  0.8008  1.6795
 7504SOL     OW34144   1.151   0.490   1.268 -0.4554  0.4796  0.2951
 7504SOL    HW134145   1.246   0.495   1.282 -0.5083 -0.0224  0.8485
 7504SOL    HW234146   1.132   0.397   1.272 -1.7407  0.6536 -2.0303
 7505SOL     OW34147   2.140   0.560   4.663 -0.3747  0.1344 -0.0327
 7505SOL    HW134148   2.143   0.476   4.617 -0.5271  1.7733 -3.0492
 7505SOL    HW234149   2.225   0.584   4.626  0.7460 -1.8825  1.2192
 7506SOL     OW34150   4.616   0.121   7.460  0.2026  0.3165  0.5601
 7506SOL    HW134151   4.677   0.064   7.411  0.3049 -0.5586  1.7065
 7506SOL    HW234152   4.533   0.105   7.416 -0.0355  0.0050  1.1273
 7507SOL     OW34153   1.272   3.699  12.242  0.2560 -0.1261 -0.3820
 7507SOL    HW134154   1.367   3.696  12.234  0.2423  0.2110 -0.7199
 7507SOL    HW234155   1.244   3.689  12.151 -0.6602  1.1650 -0.2521
 7508SOL     OW34156   2.198   1.331  17.572 -0.2041  0.2700 -0.1938
 7508SOL    HW134157   2.124   1.391  17.566  0.8211  1.6196  0.3589
 7508SOL    HW234158   2.272   1.393  17.578 -1.7337  2.0202  0.7085
 7509SOL     OW34159   3.699   0.539   9.149  0.3338  0.0940  0.0030
 7509SOL    HW134160   3.749   0.620   9.135 -1.4123  1.5893  2.3331
 7509SOL    HW234161   3.632   0.592   9.192  0.0312 -1.7070  1.7341
 7510SOL     OW34162   1.440   2.710   2.115  0.2255 -0.5209  1.2465
 7510SOL    HW134163   1.507   2.662   2.065  1.6311  0.7259  1.9176
 7510SOL    HW234164   1.402   2.775   2.056  1.6886  1.2762  2.3049
 7511SOL     OW34165   4.459   1.348   6.446 -0.6536  0.6885 -0.2198
 7511SOL    HW134166   4.546   1.356   6.483 -0.3816 -0.6723 -0.5588
 7511SOL    HW234167   4.421   1.412   6.505 -0.0040 -0.4514  1.4261
 7512SOL     OW34168   2.128   1.789  16.850 -0.5103 -0.1686  0.0544
 7512SOL    HW134169   2.182   1.845  16.906 -0.7344  0.1870 -0.0862
 7512SOL    HW234170   2.151   1.709  16.897  2.7999 -0.7849 -2.5903
 7513SOL     OW34171   2.894   0.024  14.349  0.0156  0.2368  0.6830
 7513SOL    HW134172   2.958   0.082  14.307 -0.5978  0.7022  0.3846
 7513SOL    HW234173   2.947   4.686  14.378  0.0163 -0.1288 -0.2615
 7514SOL     OW34174   1.685   0.197  16.050  0.3230  0.0816  0.0288
 7514SOL    HW134175   1.594   0.227  16.061 -0.1744 -1.0059 -1.0338
 7514SOL    HW234176   1.691   0.142  15.971 -1.4092  1.5067 -1.1063
 7515SOL     OW34177   0.059   0.527   5.049  0.0197  0.4742 -0.3138
 7515SOL    HW134178   0.024   0.565   4.968 -1.3203  0.0595  0.0792
 7515SOL    HW234179   0.126   0.586   5.084  0.5290  1.3472 -2.7183
 7516SOL     OW34180   1.995   2.417   8.520 -0.5480  0.3660  0.2054
 7516SOL    HW134181   2.020   2.473   8.446 -2.7716 -0.3657 -1.1136
 7516SOL    HW234182   1.930   2.357   8.483  0.7013 -0.3013 -0.9135
 7517SOL     OW34183   4.003   4.139  11.941 -0.2049  0.3172  0.2841
 7517SOL    HW134184   4.084   4.163  11.986 -1.9561  0.3044  3.4136
 7517SOL    HW234185   3.939   4.155  12.010 -0.2650 -0.6387  0.4512
 7518SOL     OW34186   0.361   1.105   8.504 -0.1892  0.2100 -0.3790
 7518SOL    HW134187   0.430   1.170   8.516 -1.0242  1.3204 -1.6212
 7518SOL    HW234188   0.337   1.086   8.595 -3.4570 -0.8057 -1.4450
 7519SOL     OW34189   3.071   4.681  15.465  0.0529 -0.3204 -0.6442
 7519SOL    HW134190   3.162   4.670  15.491 -0.1873 -0.4247  0.1828
 7519SOL    HW234191   3.033   4.616  15.525  1.1046  0.7980  1.2046
 7520SOL     OW34192   0.185   1.189  14.970  0.7033 -0.0410 -0.3904
 7520SOL    HW134193   0.165   1.188  15.063  0.7256 -0.9960 -0.3949
 7520SOL    HW234194   0.134   1.268  14.954  1.9545  1.1424  1.4971
 7521SOL     OW34195   2.313   1.688   8.046 -0.2160  0.7088  0.2516
 7521SOL    HW134196   2.408   1.685   8.061 -0.2354  0.5033  0.3396
 7521SOL    HW234197   2.312   1.607   7.994 -1.9209  2.5471 -2.6235
 7522SOL     OW34198   4.131   0.669   7.326  0.4499 -0.4283  0.5817
 7522SOL    HW134199   4.102   0.683   7.236  0.4975  1.6430  0.8730
 7522SOL    HW234200   4.154   0.759   7.350 -0.2151  0.0032 -0.4127
 7523SOL     OW34201   1.759   0.740   5.527  0.9408  0.6558 -0.2101
 7523SOL    HW134202   1.700   0.786   5.467 -0.0326 -1.2305 -0.7068
 7523SOL    HW234203   1.823   0.719   5.459  1.1767 -2.4629  0.9719
 7524SOL     OW34204   2.737   2.839   4.676  0.7771  0.3194  0.8409
 7524SOL    HW134205   2.693   2.886   4.604  1.7796 -0.2831 -0.1623
 7524SOL    HW234206   2.667   2.798   4.727  0.6802 -1.1649 -0.4965
 7525SOL     OW34207   2.723   3.694   4.532  0.3566 -0.3312 -0.0681
 7525SOL    HW134208   2.733   3.624   4.597  0.2616  1.5244  1.9088
 7525SOL    HW234209   2.628   3.686   4.523  0.1257  3.3657 -1.0674
 7526SOL     OW34210   3.298   0.225   7.864 -0.4181 -0.5932  0.3089
 7526SOL    HW134211   3.387   0.242   7.896  0.0259 -2.0356 -0.1543
 7526SOL    HW234212   3.293   0.231   7.769  0.4941  0.0286  0.3013
 7527SOL     OW34213   2.850   2.330   6.448  0.4562  0.3695  0.2976
 7527SOL    HW134214   2.856   2.359   6.539 -1.2481  2.0296 -0.1044
 7527SOL    HW234215   2.868   2.410   6.399 -0.0083  2.4013  3.4738
 7528SOL     OW34216   2.467   4.518   6.530  0.4944  0.4712  0.2228
 7528SOL    HW134217   2.396   4.559   6.481  0.6322  0.6899  0.2034
 7528SOL    HW234218   2.452   4.554   6.617 -2.2351  1.0332 -0.4823
 7529SOL     OW34219   2.450   0.790  15.312  0.3030  0.6367 -0.3901
 7529SOL    HW134220   2.492   0.716  15.356  0.0550  0.1179 -1.0274
 7529SOL    HW234221   2.387   0.747  15.254 -0.2013  1.8504 -0.7373
 7530SOL     OW34222   3.077   1.587   0.040 -0.4345  0.7827  0.0709
 7530SOL    HW134223   3.025   1.664   0.063  0.3268  1.2822  0.1376
 7530SOL    HW234224   3.110   1.597  17.696 -1.0365 -1.1691 -0.3664
 7531SOL     OW34225   3.807   3.087  16.988 -0.2689  0.0105 -0.1065
 7531SOL    HW134226   3.871   3.148  17.024 -0.0011 -0.5555  0.3622
 7531SOL    HW234227   3.837   3.003  17.023 -1.4840  0.0512  0.9970
 7532SOL     OW34228   2.500   4.271   5.209 -0.3509 -0.1293  0.9238
 7532SOL    HW134229   2.501   4.176   5.223 -1.7343  0.1918  3.2423
 7532SOL    HW234230   2.408   4.291   5.225  0.0300  0.1812  2.6756
 7533SOL     OW34231   0.954   2.837   5.255 -0.4525 -0.1916 -0.0216
 7533SOL    HW134232   0.900   2.856   5.178 -1.5950 -1.3609  0.4814
 7533SOL    HW234233   1.035   2.884   5.235  0.1082 -2.5083 -3.2683
 7534SOL     OW34234   3.793   4.714   7.515 -0.7616 -0.0243 -0.6044
 7534SOL    HW134235   3.783   0.072   7.502 -2.5582 -0.1642 -0.2693
 7534SOL    HW234236   3.798   4.693   7.422  2.1207  0.6946 -0.6146
 7535SOL     OW34237   0.131   4.091  16.535 -0.1698 -0.1399  0.4015
 7535SOL    HW134238   0.055   4.146  16.553 -0.6972 -0.8688  0.3758
 7535SOL    HW234239   0.144   4.128  16.447 -1.2065  1.9852  1.1346
 7536SOL     OW34240   3.092   2.513   4.118 -0.1433 -0.1499 -0.3822
 7536SOL    HW134241   3.136   2.564   4.050 -3.0594  0.7153 -1.5979
 7536SOL    HW234242   3.085   2.570   4.195 -2.3041 -0.2048 -0.5444
 7537SOL     OW34243   2.512   0.733  15.004  0.2122  0.2587 -0.5172
 7537SOL    HW134244   2.472   0.802  14.951 -2.5652  0.6819  2.1096
 7537SOL    HW234245   2.436   0.691  15.044  0.0580  0.1810 -0.8980
 7538SOL     OW34246   1.039   1.463   9.684  0.7415  0.0926 -0.2013
 7538SOL    HW134247   1.082   1.393   9.733 -1.9766 -1.9715 -0.7967
 7538SOL    HW234248   1.016   1.519   9.758  0.2712  0.7340 -0.8277
 7539SOL     OW34249   4.266   1.613   6.916 -0.2501 -0.0692 -0.0440
 7539SOL    HW134250   4.200   1.560   6.961 -0.5483 -0.8457 -1.4074
 7539SOL    HW234251   4.268   1.699   6.958 -0.3875  0.4648 -1.1192
 7540SOL     OW34252   2.762   2.333   3.761  0.3042  0.3096 -0.8689
 7540SOL    HW134253   2.797   2.348   3.849 -1.0055  2.5835 -0.7347
 7540SOL    HW234254   2.842   2.329   3.708  0.7333 -0.1654 -0.1962
 7541SOL     OW34255   0.459   0.513   5.838  0.2359 -0.3491  0.2318
 7541SOL    HW134256   0.416   0.428   5.843  2.4421 -1.3640  1.7130
 7541SOL    HW234257   0.383   0.571   5.846  0.7710 -0.2158  4.5898
 7542SOL     OW34258   0.270   4.486  14.400  0.1616  0.1710 -0.0420
 7542SOL    HW134259   0.324   4.532  14.336 -2.0078  0.3816 -1.7411
 7542SOL    HW234260   0.269   4.540  14.479 -0.7189  1.2114 -0.7579
 7543SOL     OW34261   2.719   3.496  15.974 -0.1145 -0.4619  0.1679
 7543SOL    HW134262   2.811   3.520  15.979 -0.6198  1.7211 -1.0889
 7543SOL    HW234263   2.729   3.411  15.933 -0.6371  0.8040 -2.5738
 7544SOL     OW34264   1.253   0.052   2.804  0.2082 -0.3794 -0.4004
 7544SOL    HW134265   1.282   0.000   2.729  0.1507  0.1298 -0.7741
 7544SOL    HW234266   1.315   0.024   2.871  0.0441 -0.2415 -0.1900
 7545SOL     OW34267   1.637   3.172   1.791 -0.6340 -0.2618  0.2788
 7545SOL    HW134268   1.641   3.225   1.711  0.0686  0.5402  0.8532
 7545SOL    HW234269   1.708   3.110   1.776  0.9127  1.6713 -0.4393
 7546SOL     OW34270   0.275   2.805   1.600  0.2242  0.3646 -0.5691
 7546SOL    HW134271   0.265   2.796   1.695 -1.8085  0.9970 -0.7281
 7546SOL    HW234272   0.341   2.874   1.609  0.4137  0.5369 -3.2521
 7547SOL     OW34273   1.480   2.540   5.367 -0.5107 -0.4589  0.0651
 7547SOL    HW134274   1.518   2.452   5.376 -1.6317 -1.0816 -1.2838
 7547SOL    HW234275   1.393   2.531   5.407  0.1498 -0.5721  1.4932
 7548SOL     OW34276   4.260   2.033   5.648 -0.0019  0.7322 -0.5713
 7548SOL    HW134277   4.172   2.062   5.622 -0.3940  0.4304  0.4168
 7548SOL    HW234278   4.251   1.938   5.649  1.0193  0.6859  1.6988
 7549SOL     OW34279   1.635   0.037   8.365  0.3263  0.0179  0.2503
 7549SOL    HW134280   1.602   4.734   8.285 -0.9949 -0.0321  0.8078
 7549SOL    HW234281   1.669   4.699   8.414  0.6148 -0.4651 -0.6902
 7550SOL     OW34282   4.599   4.373   4.918  0.5669 -0.4311 -0.6459
 7550SOL    HW134283   4.679   4.421   4.899  0.4566 -0.5840 -1.5288
 7550SOL    HW234284   4.604   4.292   4.867 -0.5307 -1.8909  1.5825
 7551SOL     OW34285   4.659   0.972   8.632  0.2616 -0.2042 -0.8720
 7551SOL    HW134286   4.604   1.022   8.571 -0.8782 -0.2769  0.0999
 7551SOL    HW234287   4.713   0.923   8.570 -0.7829 -0.2981 -1.7000
 7552SOL     OW34288   1.734   4.187  14.525  0.3975  0.6004  0.5555
 7552SOL    HW134289   1.790   4.110  14.519 -1.1745 -0.4634 -0.3483
 7552SOL    HW234290   1.714   4.205  14.433  2.4629 -1.3520 -0.2702
 7553SOL     OW34291   0.952   3.505   5.291  0.3617 -0.3137  0.2186
 7553SOL    HW134292   0.993   3.591   5.293 -2.0990  0.8688 -0.5371
 7553SOL    HW234293   0.920   3.495   5.381  0.9912 -1.6156  0.3060
 7554SOL     OW34294   4.423   2.893   5.265  0.1194 -0.3253  0.0036
 7554SOL    HW134295   4.399   2.904   5.357  0.6793  0.2787  0.0768
 7554SOL    HW234296   4.478   2.970   5.249 -1.6601  0.7030 -1.1265
 7555SOL     OW34297   0.526   2.921   7.811 -0.5396  0.1114 -0.1160
 7555SOL    HW134298   0.586   2.852   7.839 -1.5569 -0.1868  1.3115
 7555SOL    HW234299   0.519   2.913   7.716  0.6191  0.6211 -0.2525
 7556SOL     OW34300   4.703   1.357  11.862 -0.5820  0.4058  0.0215
 7556SOL    HW134301   0.027   1.383  11.793  0.2821 -2.4049 -0.2900
 7556SOL    HW234302   0.014   1.293  11.916 -0.6065  2.3474  2.3686
 7557SOL     OW34303   2.387   1.142   8.914 -0.0297  0.1728  0.1232
 7557SOL    HW134304   2.439   1.205   8.864 -0.0384  0.2096  0.1607
 7557SOL    HW234305   2.453   1.081   8.946 -1.1155 -1.8378 -1.4902
 7558SOL     OW34306   0.475   1.069   7.024 -0.0249  0.5874  0.5914
 7558SOL    HW134307   0.519   1.016   6.958 -0.5450 -1.0913  1.5911
 7558SOL    HW234308   0.552   1.126   7.035 -0.4026  0.9669  1.3146
 7559SOL     OW34309   0.823   1.163  14.845 -0.6312  0.1193  0.3170
 7559SOL    HW134310   0.848   1.119  14.764  2.6515  1.8201  0.4177
 7559SOL    HW234311   0.888   1.139  14.912 -1.3102 -1.8095  0.3094
 7560SOL     OW34312   0.516   3.066   0.887 -0.1228  0.2692 -0.2448
 7560SOL    HW134313   0.515   3.084   0.981 -1.0521  1.2537 -0.4442
 7560SOL    HW234314   0.463   2.987   0.884 -0.5611  0.5058  1.3899
 7561SOL     OW34315   3.033   0.486  17.001  0.3827  0.5641 -0.7193
 7561SOL    HW134316   2.999   0.555  16.943 -0.2963 -0.7115 -1.8267
 7561SOL    HW234317   3.008   0.521  17.087  0.3638 -2.3724  0.4497
 7562SOL     OW34318   3.393   0.557   2.346 -0.2158  0.4704  0.1854
 7562SOL    HW134319   3.444   0.631   2.314  2.2076 -1.0435  0.4720
 7562SOL    HW234320   3.449   0.487   2.312 -1.4003  0.2969 -1.3896
 7563SOL     OW34321   3.547   2.211   3.452  0.0633  0.0789 -0.6142
 7563SOL    HW134322   3.606   2.173   3.517  0.9205  0.4768 -1.1558
 7563SOL    HW234323   3.461   2.170   3.458 -0.2969  0.8563 -0.3924
 7564SOL     OW34324   2.503   3.869   4.362 -0.0064 -0.5787 -0.3010
 7564SOL    HW134325   2.575   3.923   4.395 -0.3340  0.5652 -1.4525
 7564SOL    HW234326   2.426   3.921   4.384  0.1232  0.2977 -1.8390
 7565SOL     OW34327   0.375   0.154   9.533 -0.4715 -0.3468 -0.1400
 7565SOL    HW134328   0.372   0.139   9.627  1.0560 -3.2292 -0.5615
 7565SOL    HW234329   0.318   0.085   9.499 -1.2499 -0.0742  0.6152
 7566SOL     OW34330   2.109   2.259   5.443  0.0357 -1.1015  0.5451
 7566SOL    HW134331   2.130   2.347   5.473 -0.1225 -0.8388 -0.1066
 7566SOL    HW234332   2.188   2.215   5.473 -0.3229 -2.3928 -0.3873
 7567SOL     OW34333   4.405   0.302   4.960 -0.1048  0.0711  0.0123
 7567SOL    HW134334   4.407   0.246   4.883 -2.3206 -0.9378  0.6927
 7567SOL    HW234335   4.424   0.387   4.920 -0.0464 -0.3691 -0.9017
 7568SOL     OW34336   3.091   3.111  15.330 -0.1066 -0.0408 -0.1648
 7568SOL    HW134337   3.064   3.184  15.385 -2.7288 -1.9634  1.0787
 7568SOL    HW234338   3.156   3.159  15.278 -0.3444 -1.3139 -1.6460
 7569SOL     OW34339   0.895   4.693  16.643 -0.2328 -0.4079  0.6820
 7569SOL    HW134340   0.932   0.006  16.570 -1.2045  1.8228  1.7111
 7569SOL    HW234341   0.971   4.650  16.682 -0.1504  0.0306  1.0046
 7570SOL     OW34342   2.589   4.192   6.843 -0.0520  0.0877  0.1801
 7570SOL    HW134343   2.587   4.117   6.902 -1.9942 -0.6490 -0.8548
 7570SOL    HW234344   2.497   4.205   6.822  0.3367  0.2947 -1.4084
 7571SOL     OW34345   0.960   3.188   7.548 -0.2455 -0.7106  0.8729
 7571SOL    HW134346   0.879   3.163   7.504 -0.0174  3.3188 -1.8954
 7571SOL    HW234347   1.024   3.130   7.507 -0.6304 -0.8840  0.5242
 7572SOL     OW34348   3.073   1.307  17.523  0.3142 -0.2507  0.3963
 7572SOL    HW134349   3.165   1.314  17.548  0.3904  0.5089 -0.1234
 7572SOL    HW234350   3.030   1.310  17.609 -1.5869 -0.1329 -0.5488
 7573SOL     OW34351   3.068   4.556  14.437  0.3397  0.4943 -0.4428
 7573SOL    HW134352   3.075   4.511  14.352 -0.9988  3.7358 -2.2806
 7573SOL    HW234353   3.161   4.565  14.457  0.1688 -1.6833  1.2698
 7574SOL     OW34354   0.752   0.802   9.090 -0.2173  0.2844 -0.0315
 7574SOL    HW134355   0.806   0.830   9.163 -0.5561  1.5445 -0.2631
 7574SOL    HW234356   0.802   0.830   9.013  2.1422 -1.0149  1.0338
 7575SOL     OW34357   2.925   4.656   3.073  0.3757  0.7127  0.0173
 7575SOL    HW134358   2.963   4.588   3.129 -0.0801 -0.8419 -1.5601
 7575SOL    HW234359   2.970   4.635   2.991  1.7346  0.3987  0.8388
 7576SOL     OW34360   1.630   0.601   1.453  0.4948 -1.2400 -0.1644
 7576SOL    HW134361   1.689   0.588   1.528 -0.4723  0.6535  0.9176
 7576SOL    HW234362   1.621   0.507   1.434 -1.0068 -1.3423  1.0264
 7577SOL     OW34363   1.690   0.710   3.265 -0.2740 -0.0498 -0.0276
 7577SOL    HW134364   1.759   0.700   3.199  2.4296  2.0609  2.5146
 7577SOL    HW234365   1.734   0.685   3.346 -0.6944  0.0913  0.2414
 7578SOL     OW34366   0.346   3.325   6.121  0.3332  0.0267  0.4503
 7578SOL    HW134367   0.291   3.374   6.182  0.6554  1.9491 -0.7763
 7578SOL    HW234368   0.294   3.336   6.041  2.0352  1.3688 -0.5002
 7579SOL     OW34369   0.415   2.236  17.369 -0.7251  0.2602 -0.2029
 7579SOL    HW134370   0.383   2.264  17.283  2.7928 -0.8488 -1.8946
 7579SOL    HW234371   0.377   2.149  17.387  0.4844 -0.5035 -1.3574
 7580SOL     OW34372   1.208   4.275   7.280 -0.7125 -0.3929  0.1058
 7580SOL    HW134373   1.233   4.202   7.223  1.4216  0.0514  0.4879
 7580SOL    HW234374   1.230   4.230   7.361 -4.3311 -2.6586 -0.1251
 7581SOL     OW34375   2.939   0.536  11.348  0.1113  0.4169  0.5011
 7581SOL    HW134376   2.995   0.520  11.425  1.1564  0.2576 -0.2942
 7581SOL    HW234377   2.891   0.612  11.383 -1.8171 -1.6311  2.3115
 7582SOL     OW34378   2.906   1.877   5.353  0.1578  0.5974 -0.6585
 7582SOL    HW134379   2.865   1.857   5.269  0.5813  0.0857 -0.7450
 7582SOL    HW234380   2.957   1.952   5.324  2.5574 -0.8553 -0.2412
 7583SOL     OW34381   2.775   0.608   5.880  0.1068  0.2610 -0.6654
 7583SOL    HW134382   2.861   0.620   5.840  0.5229 -1.7760 -0.3820
 7583SOL    HW234383   2.780   0.515   5.899  0.3871  1.2397  4.1317
 7584SOL     OW34384   4.344   2.078   6.539 -0.0724  0.2233  0.6592
 7584SOL    HW134385   4.351   2.057   6.632 -0.3863  1.8796  1.0641
 7584SOL    HW234386   4.365   2.172   6.534  1.0244 -0.0645 -0.2563
 7585SOL     OW34387   0.993   1.228   4.639  0.6557  0.5035 -0.2647
 7585SOL    HW134388   1.058   1.227   4.709  0.7451  0.4942 -0.3487
 7585SOL    HW234389   0.959   1.139   4.634  2.1609 -0.0960  0.0801
 7586SOL     OW34390   1.877   4.592  17.420 -0.8797  0.5236  0.2747
 7586SOL    HW134391   1.901   4.660  17.483  2.6042 -0.9018  0.4793
 7586SOL    HW234392   1.931   4.519  17.452 -0.0913  0.3122 -1.5172
 7587SOL     OW34393   0.552   3.896  17.004  0.1600 -0.1531 -0.1175
 7587SOL    HW134394   0.615   3.861  16.940 -0.0636 -0.0628 -0.3828
 7587SOL    HW234395   0.593   3.873  17.088 -0.8629  0.6074  0.5719
 7588SOL     OW34396   0.435   0.070   5.666 -0.3063 -0.9388 -0.0429
 7588SOL    HW134397   0.506   0.117   5.622 -0.2452 -0.8182  0.1893
 7588SOL    HW234398   0.479   0.018   5.732  1.1223  0.8237  0.4150
 7589SOL     OW34399   0.523   3.919   3.394 -0.2369 -0.8261  0.4980
 7589SOL    HW134400   0.514   3.833   3.434 -2.0115 -0.7211  0.3428
 7589SOL    HW234401   0.499   3.964   3.475 -1.0022  1.9210 -1.2346
 7590SOL     OW34402   1.068   3.321   1.029 -0.1339  0.0721  0.6135
 7590SOL    HW134403   1.095   3.362   0.947  0.1867 -1.5621 -0.1041
 7590SOL    HW234404   1.145   3.264   1.036 -0.1647 -0.0743 -0.2504
 7591SOL     OW34405   4.164   1.940   3.001  0.6209 -0.3300  0.1530
 7591SOL    HW134406   4.231   1.878   3.028  0.5383  0.0557  1.2690
 7591SOL    HW234407   4.088   1.882   2.995 -0.5631  0.9858  2.2961
 7592SOL     OW34408   2.536   3.182   1.414 -0.0056  0.2809 -0.3088
 7592SOL    HW134409   2.593   3.187   1.337  0.9832 -0.9742  0.3322
 7592SOL    HW234410   2.597   3.146   1.479 -0.8171 -0.8544 -0.1939
 7593SOL     OW34411   0.078   4.151   8.612  0.4561 -0.2650  0.1403
 7593SOL    HW134412   0.059   4.207   8.688  2.0342  0.6088 -0.0964
 7593SOL    HW234413   0.097   4.219   8.548  1.7164 -0.6159  0.1265
 7594SOL     OW34414   2.947   0.577  11.644  1.0389 -0.0891  0.3454
 7594SOL    HW134415   2.942   0.664  11.684 -1.5530  0.3542 -0.9054
 7594SOL    HW234416   2.937   0.524  11.723 -0.3366 -0.0167  0.2126
 7595SOL     OW34417   4.445   4.212   1.832 -0.0366 -0.2624 -0.2971
 7595SOL    HW134418   4.491   4.273   1.775 -0.5540  0.2587 -0.1560
 7595SOL    HW234419   4.480   4.246   1.914 -1.8629  1.9798 -0.4591
 7596SOL     OW34420   4.618   2.849   6.505 -0.0871  0.2008 -0.0356
 7596SOL    HW134421   4.569   2.830   6.425 -0.0401  3.9452 -0.9463
 7596SOL    HW234422   4.555   2.866   6.575 -2.3793  0.5802 -2.1767
 7597SOL     OW34423   3.623   1.304   7.314  0.8756 -0.0563 -0.1384
 7597SOL    HW134424   3.540   1.350   7.329  1.1553 -0.0205  1.3135
 7597SOL    HW234425   3.630   1.290   7.220  0.2481  0.2090 -0.2214
 7598SOL     OW34426   0.041   4.707   7.011  0.2491 -0.1446 -0.3842
 7598SOL    HW134427   0.132   4.736   7.016  0.1887 -0.5018  2.4521
 7598SOL    HW234428   0.044   4.639   7.078  0.7961  1.1675  0.9188
 7599SOL     OW34429   0.457   1.608   8.149 -0.0526  0.3450  0.3958
 7599SOL    HW134430   0.374   1.561   8.148  0.4090 -0.4858  1.0081
 7599SOL    HW234431   0.449   1.655   8.232  0.4910 -1.2424  1.3524
 7600SOL     OW34432   1.715   0.486   9.007 -0.5100 -0.1736  0.1944
 7600SOL    HW134433   1.626   0.518   9.021 -0.0197 -0.0948  3.1721
 7600SOL    HW234434   1.761   0.549   8.951  0.6539 -0.5252  0.7569
 7601SOL     OW34435   0.763   2.724   5.056  0.1683 -0.3101  0.2093
 7601SOL    HW134436   0.830   2.758   4.996 -1.3989 -1.7612 -2.3514
 7601SOL    HW234437   0.684   2.774   5.034  1.0063  0.5992 -0.7105
 7602SOL     OW34438   1.534   1.389   8.428 -0.0904  0.9794 -0.5167
 7602SOL    HW134439   1.515   1.443   8.505 -1.5754 -2.3677  1.4676
 7602SOL    HW234440   1.596   1.437   8.373 -1.0926  1.4681 -1.2087
 7603SOL     OW34441   1.426   1.329   6.495  0.0423 -0.2487  0.1436
 7603SOL    HW134442   1.436   1.403   6.436 -2.5236  1.6852  2.1137
 7603SOL    HW234443   1.521   1.321   6.505  0.2218  2.5497  0.6584
 7604SOL     OW34444   1.004   2.005   1.654 -0.3519 -0.3666 -0.4063
 7604SOL    HW134445   0.969   2.057   1.582 -1.7819 -1.0154 -0.1767
 7604SOL    HW234446   0.934   1.942   1.669 -2.1875  1.4876 -1.1309
 7605SOL     OW34447   0.715   4.204   1.103  0.2117  0.0306  0.0934
 7605SOL    HW134448   0.701   4.232   1.013  1.1222  0.2276  0.0188
 7605SOL    HW234449   0.772   4.273   1.137 -0.1616  0.2620  0.2536
 7606SOL     OW34450   1.048   3.361   7.737 -0.1263 -0.4303  0.9819
 7606SOL    HW134451   1.113   3.300   7.774 -0.6026 -0.5750  1.5752
 7606SOL    HW234452   1.018   3.305   7.665  1.6499  1.4406 -1.2024
 7607SOL     OW34453   1.090   1.808  13.886 -0.2191  0.0288  0.2445
 7607SOL    HW134454   1.130   1.875  13.831 -0.1743  0.6352  1.0240
 7607SOL    HW234455   1.008   1.847  13.915 -1.6056 -2.2891 -0.4707
 7608SOL     OW34456   1.984   2.490   4.101 -0.3031 -0.3133 -0.4356
 7608SOL    HW134457   1.986   2.577   4.062  0.2588 -0.4162 -0.6310
 7608SOL    HW234458   1.901   2.502   4.147  0.5499 -0.2006  1.0672
 7609SOL     OW34459   2.394   4.421   9.191 -0.1025 -0.8908  0.4828
 7609SOL    HW134460   2.480   4.464   9.187 -0.3643 -0.4434 -0.2760
 7609SOL    HW234461   2.385   4.409   9.286  1.1712 -1.7270  0.5104
 7610SOL     OW34462   3.279   2.787   1.605 -0.6993 -1.1063 -0.0303
 7610SOL    HW134463   3.362   2.744   1.627 -0.3722 -0.3820  0.1545
 7610SOL    HW234464   3.310   2.873   1.578  0.0623 -1.6583 -0.9328
 7611SOL     OW34465   1.168   2.474   3.084  0.1468  0.5003  0.1248
 7611SOL    HW134466   1.213   2.390   3.086 -2.7178 -1.1553 -3.6854
 7611SOL    HW234467   1.167   2.493   3.178 -0.0424  0.1461  0.1940
 7612SOL     OW34468   2.760   1.968   3.862  0.2982  0.3317 -0.1017
 7612SOL    HW134469   2.699   2.038   3.887 -0.6367 -0.7512  0.6793
 7612SOL    HW234470   2.773   1.989   3.770 -0.9798  3.5988  0.4603
 7613SOL     OW34471   0.987   1.781  13.348 -0.4593 -0.0192  0.4680
 7613SOL    HW134472   1.008   1.701  13.395  0.4728 -1.1164 -1.8227
 7613SOL    HW234473   0.905   1.803  13.392 -1.9527 -0.6650 -2.0075
 7614SOL     OW34474   3.542   4.280   3.904  0.4114 -0.2948  0.2130
 7614SOL    HW134475   3.524   4.332   3.826  0.9433 -2.6891 -1.4998
 7614SOL    HW234476   3.503   4.197   3.876 -1.1047  0.8697 -1.1360
 7615SOL     OW34477   0.106   2.361   7.958 -0.0870  0.0226 -0.1849
 7615SOL    HW134478   0.122   2.268   7.975 -0.7244  0.2447  1.6091
 7615SOL    HW234479   0.119   2.362   7.863  0.2888  0.1997 -0.1322
 7616SOL     OW34480   1.724   0.336  10.373  0.1064  0.5573  0.4346
 7616SOL    HW134481   1.634   0.362  10.395 -0.7765  0.1182 -2.6871
 7616SOL    HW234482   1.772   0.419  10.367 -0.7098  0.9773 -0.2320
 7617SOL     OW34483   1.905   1.604   6.031 -0.0965  0.3782 -0.1058
 7617SOL    HW134484   1.959   1.683   6.031  0.0608  0.2726 -0.3504
 7617SOL    HW234485   1.918   1.573   6.120  0.7997  1.2812  0.0843
 7618SOL     OW34486   0.418   0.272   7.945  0.1431 -0.7459 -0.2243
 7618SOL    HW134487   0.363   0.194   7.947 -1.5591  0.4637  0.7643
 7618SOL    HW234488   0.411   0.284   8.040  1.0570 -1.2183 -0.0940
 7619SOL     OW34489   2.829   0.177   5.746 -0.1978 -0.5851  0.0811
 7619SOL    HW134490   2.763   0.214   5.687  1.6972  0.0767 -1.6339
 7619SOL    HW234491   2.847   0.095   5.699 -0.2865 -0.0046 -0.9595
 7620SOL     OW34492   0.209   3.717  15.140  0.1642 -0.8262 -0.1826
 7620SOL    HW134493   0.295   3.676  15.132  0.1970 -0.2832 -2.7452
 7620SOL    HW234494   0.179   3.686  15.225 -0.3179  3.2888  1.1691
 7621SOL     OW34495   1.979   4.372   7.000  0.8471 -0.0258  0.2193
 7621SOL    HW134496   1.988   4.414   7.085  0.3762  0.8409 -0.1520
 7621SOL    HW234497   1.883   4.382   6.999  0.7780 -0.8904 -1.6340
 7622SOL     OW34498   1.979   1.331   9.342  0.1099  0.2243 -0.0152
 7622SOL    HW134499   2.051   1.394   9.336 -0.5383  1.2167  2.4589
 7622SOL    HW234500   1.940   1.355   9.258  0.9685  0.3610 -0.3765
 7623SOL     OW34501   1.684   4.303   5.704  0.1253  0.5094 -0.1517
 7623SOL    HW134502   1.675   4.268   5.616  1.0431  1.6883 -0.7182
 7623SOL    HW234503   1.598   4.335   5.731 -0.5937 -0.2120 -1.6377
 7624SOL     OW34504   0.566   0.039  12.560 -0.0393 -0.0425 -0.1818
 7624SOL    HW134505   0.556   4.687  12.595 -0.5622  0.4341  0.8921
 7624SOL    HW234506   0.506   0.046  12.487 -0.7068 -2.8451  0.1048
 7625SOL     OW34507   4.416   3.339   9.587 -0.4985  0.3009  0.3660
 7625SOL    HW134508   4.375   3.396   9.651 -0.1564  0.1751  0.6983
 7625SOL    HW234509   4.503   3.378   9.584 -0.1935 -0.4146 -0.3842
 7626SOL     OW34510   1.499   4.626   2.113  0.4396  0.0719  0.1008
 7626SOL    HW134511   1.518   4.586   2.199 -1.2817  3.7977  2.1940
 7626SOL    HW234512   1.540   4.566   2.051  2.2102 -0.1597  1.4803
 7627SOL     OW34513   3.961   2.883   9.623 -0.2678  0.2245  0.5884
 7627SOL    HW134514   3.889   2.881   9.686 -0.3075 -0.6741  0.5121
 7627SOL    HW234515   3.929   2.957   9.571  1.2059  0.5014  0.0712
 7628SOL     OW34516   1.013   4.001   4.225  0.2787  0.1560  0.3115
 7628SOL    HW134517   0.932   4.039   4.258 -0.3659 -2.2875  1.5198
 7628SOL    HW234518   0.979   3.946   4.155 -1.7752  2.3896 -0.4474
 7629SOL     OW34519   2.289   4.285  11.756  0.7128 -0.0982  0.7116
 7629SOL    HW134520   2.288   4.378  11.780 -0.8215  0.1796 -0.4060
 7629SOL    HW234521   2.331   4.295  11.670 -2.1198  3.1192 -0.2988
 7630SOL     OW34522   2.698   3.235   1.952 -0.4621 -0.6622  0.5291
 7630SOL    HW134523   2.781   3.216   1.995  0.3144  1.9403  0.2064
 7630SOL    HW234524   2.705   3.330   1.937  0.0973 -1.0289 -1.5759
 7631SOL     OW34525   4.555   4.408   7.762  0.1596 -0.5782 -0.0271
 7631SOL    HW134526   4.564   4.313   7.775 -0.2768 -0.6168  0.0089
 7631SOL    HW234527   4.462   4.421   7.779  0.2214  1.9935 -1.6826
 7632SOL     OW34528   3.071   1.945   0.215 -0.1910 -0.1288 -0.1510
 7632SOL    HW134529   2.978   1.968   0.211 -0.2736 -0.2796  1.0528
 7632SOL    HW234530   3.086   1.949   0.309 -0.7879 -1.7329  0.0156
 7633SOL     OW34531   4.600   3.734   7.756  0.0763  0.2503 -0.0117
 7633SOL    HW134532   4.511   3.766   7.741 -0.5837 -1.5786  0.0132
 7633SOL    HW234533   4.639   3.716   7.671  2.8137  2.3118  0.7928
 7634SOL     OW34534   1.460   4.595  16.633  0.2355 -0.3971  0.2590
 7634SOL    HW134535   1.398   4.607  16.705  1.5236 -1.1999  1.4879
 7634SOL    HW234536   1.526   4.535  16.667  0.8143  0.9019  1.4256
 7635SOL     OW34537   1.000   3.565   0.793 -0.5101 -0.3760  0.2286
 7635SOL    HW134538   1.089   3.545   0.824 -1.2707 -1.5361  1.6775
 7635SOL    HW234539   1.015   3.641   0.737  0.2672 -0.4457  0.3355
 7636SOL     OW34540   3.594   1.875  16.670  0.2461 -0.6932 -0.3070
 7636SOL    HW134541   3.597   1.818  16.594 -3.7086 -0.4269 -0.6477
 7636SOL    HW234542   3.503   1.901  16.657  0.7807  1.9148  1.1870
 7637SOL     OW34543   3.802   1.494   6.997  0.0194  0.5614 -0.2969
 7637SOL    HW134544   3.770   1.582   7.021  0.6366  1.0175 -1.1793
 7637SOL    HW234545   3.744   1.446   7.056  2.1896  0.6219  1.8707
 7638SOL     OW34546   2.254   0.189   3.865  0.4133 -0.2531 -0.0719
 7638SOL    HW134547   2.295   0.103   3.851  0.8642 -0.0332 -0.1033
 7638SOL    HW234548   2.332   0.245   3.867 -0.2278  0.5157  3.2728
 7639SOL     OW34549   0.730   0.851   0.156 -0.2214 -0.4512 -0.0590
 7639SOL    HW134550   0.754   0.763   0.126  1.0597 -0.6591  1.5251
 7639SOL    HW234551   0.636   0.842   0.147 -0.2840 -0.4024  0.4985
 7640SOL     OW34552   1.723   1.009   7.480  0.6937 -0.6829  0.2190
 7640SOL    HW134553   1.817   1.006   7.466  0.9072  0.8217  1.3242
 7640SOL    HW234554   1.699   0.988   7.390 -0.5773 -1.0406  0.6325
 7641SOL     OW34555   3.539   1.853   3.487  0.3849  0.7254 -0.3907
 7641SOL    HW134556   3.595   1.777   3.502  0.2078  0.5493 -0.6160
 7641SOL    HW234557   3.599   1.920   3.520 -1.6500  1.3234  2.1046
 7642SOL     OW34558   2.518   0.633   4.786 -0.5964 -0.1816 -0.1652
 7642SOL    HW134559   2.472   0.626   4.703 -1.8037 -0.0157  0.4857
 7642SOL    HW234560   2.518   0.729   4.787 -0.0484 -0.1789 -0.2231
 7643SOL     OW34561   3.201   2.604  14.330 -0.8705  0.3354 -0.0590
 7643SOL    HW134562   3.207   2.620  14.236  3.7899  0.8113  0.2788
 7643SOL    HW234563   3.108   2.619  14.345 -1.4596 -1.3938 -2.1349
 7644SOL     OW34564   2.989   3.734   6.493  0.1276 -0.4809 -0.2110
 7644SOL    HW134565   3.053   3.701   6.430 -0.8743 -2.7782 -0.0295
 7644SOL    HW234566   2.950   3.810   6.451 -0.0203 -2.2354 -3.2854
 7645SOL     OW34567   0.255   1.860  16.619  0.2285  0.2470  0.2118
 7645SOL    HW134568   0.344   1.828  16.632  0.6080  1.8495  1.6350
 7645SOL    HW234569   0.213   1.855  16.705 -1.0282 -0.3880 -0.4320
 7646SOL     OW34570   4.728   0.618   1.290 -0.6011 -0.0548 -0.2003
 7646SOL    HW134571   0.061   0.593   1.351 -1.3377  0.1703  0.7231
 7646SOL    HW234572   4.698   0.705   1.317 -1.1662 -0.1870 -0.3989
 7647SOL     OW34573   1.998   2.749  15.812  0.6080 -0.0822 -0.2515
 7647SOL    HW134574   2.011   2.664  15.852  2.7311 -0.0849 -0.9771
 7647SOL    HW234575   2.051   2.729  15.735 -0.0299  1.9413 -1.2453
 7648SOL     OW34576   3.484   0.736   6.880 -0.2173  0.1169 -0.4960
 7648SOL    HW134577   3.526   0.698   6.803  0.4025  0.1926 -0.1907
 7648SOL    HW234578   3.559   0.741   6.938 -1.1649 -0.1182  0.7551
 7649SOL     OW34579   1.861   0.256   8.964 -0.0205  0.3160  0.4364
 7649SOL    HW134580   1.909   0.305   8.896  0.3255 -0.6834 -0.0368
 7649SOL    HW234581   1.806   0.328   8.994 -0.8631 -0.3229  0.4216
 7650SOL     OW34582   0.419   1.241  12.329 -0.3554 -0.2054 -0.2244
 7650SOL    HW134583   0.441   1.326  12.367  1.1751  0.1616 -1.9334
 7650SOL    HW234584   0.390   1.189  12.404  0.5492  1.3029  1.1785
 7651SOL     OW34585   3.153   4.347   2.130 -0.4676  0.7688 -0.6047
 7651SOL    HW134586   3.112   4.320   2.049 -1.9494  2.1299 -0.3128
 7651SOL    HW234587   3.224   4.284   2.139 -0.6661  0.7228  0.7524
 7652SOL     OW34588   1.951   0.782   5.024  0.6574  0.7211 -0.3548
 7652SOL    HW134589   1.997   0.815   5.101 -0.8145 -2.2620  1.7951
 7652SOL    HW234590   2.024   0.737   4.979  1.0664  0.0201  1.0151
 7653SOL     OW34591   1.899   1.601   4.025 -0.4832 -0.1353 -0.0842
 7653SOL    HW134592   1.943   1.598   3.940  2.2677 -2.6766  1.4454
 7653SOL    HW234593   1.808   1.586   3.999 -0.0320 -2.6803 -0.2173
 7654SOL     OW34594   1.161   1.248   4.833 -0.1311  0.0594 -0.1276
 7654SOL    HW134595   1.204   1.244   4.918  0.7253 -2.6346 -0.6882
 7654SOL    HW234596   1.225   1.307   4.792 -1.1191  1.0124 -0.2775
 7655SOL     OW34597   1.219   2.729   6.822 -0.2563  0.6985 -0.2305
 7655SOL    HW134598   1.247   2.733   6.913 -1.9104 -0.3934  0.3114
 7655SOL    HW234599   1.134   2.685   6.827 -1.1412  2.3318 -0.7159
 7656SOL     OW34600   2.793   2.423   2.539  0.4998  0.0089 -0.3345
 7656SOL    HW134601   2.740   2.423   2.618  1.9860  2.5236  0.6336
 7656SOL    HW234602   2.790   2.516   2.517  0.6191 -0.1284 -0.9239
 7657SOL     OW34603   1.726   1.959   3.580 -0.2344  0.4193  0.1225
 7657SOL    HW134604   1.725   1.981   3.673  0.8691 -0.5964  0.3738
 7657SOL    HW234605   1.761   2.037   3.536  2.3626 -0.3711  0.8281
 7658SOL     OW34606   3.970   0.713   5.888  0.2179  0.4984 -0.1882
 7658SOL    HW134607   4.043   0.680   5.940  0.2315 -0.1135 -0.5937
 7658SOL    HW234608   3.964   0.802   5.923 -0.4358 -0.1897  1.4484
 7659SOL     OW34609   4.593   1.652  14.911  0.1342 -0.5272 -0.5346
 7659SOL    HW134610   4.577   1.611  14.826  1.4764 -1.6156 -0.2642
 7659SOL    HW234611   4.616   1.741  14.884  3.3575 -1.3395 -0.3967
 7660SOL     OW34612   0.724   4.528   6.048  0.0043  0.1024  0.3424
 7660SOL    HW134613   0.817   4.504   6.039 -0.0486 -0.5333  1.5737
 7660SOL    HW234614   0.677   4.444   6.049 -0.2313  0.1828 -3.0068
 7661SOL     OW34615   2.941   4.208  15.112 -0.1809 -0.1817  0.3886
 7661SOL    HW134616   2.855   4.229  15.148  1.0540  0.1786  3.1739
 7661SOL    HW234617   2.921   4.126  15.067  1.7206 -0.6333  0.3512
 7662SOL     OW34618   2.937   1.812  14.116 -0.3640  0.7217  0.1605
 7662SOL    HW134619   3.026   1.845  14.107 -0.3193  0.8611  1.1373
 7662SOL    HW234620   2.915   1.793  14.025 -0.4162 -0.4968  0.4232
 7663SOL     OW34621   4.671   4.282   6.099  0.6643  0.1462 -0.0372
 7663SOL    HW134622   4.664   4.187   6.089 -0.5638  0.3892 -1.5891
 7663SOL    HW234623   4.580   4.298   6.073  1.0839 -0.5961 -2.0087
 7664SOL     OW34624   0.148   4.371   6.237  0.7017  0.0937  0.2702
 7664SOL    HW134625   0.127   4.298   6.295 -1.8521 -1.9629 -3.2036
 7664SOL    HW234626   0.067   4.372   6.185  0.4955 -0.3239  0.5863
 7665SOL     OW34627   4.273   0.314   5.643 -0.5787 -0.0552  0.3705
 7665SOL    HW134628   4.362   0.279   5.646 -1.0860 -1.3825  0.0944
 7665SOL    HW234629   4.281   0.372   5.567  0.6129 -2.3025 -1.2295
 7666SOL     OW34630   1.594   2.596   1.931 -0.4933  0.1914 -0.2995
 7666SOL    HW134631   1.673   2.542   1.936 -0.6933  0.0384  1.1054
 7666SOL    HW234632   1.617   2.661   1.864  0.6384 -0.3686 -0.4573
 7667SOL     OW34633   4.097   3.659   3.842 -0.5908 -0.1160  0.0333
 7667SOL    HW134634   4.170   3.710   3.876 -0.5157  0.7929 -1.4900
 7667SOL    HW234635   4.128   3.617   3.762 -0.6581  0.1416 -0.1310
 7668SOL     OW34636   4.383   1.943   4.250 -0.4398 -0.0961  0.0827
 7668SOL    HW134637   4.402   2.024   4.205  0.0994 -1.8505 -2.8249
 7668SOL    HW234638   4.466   1.908   4.281 -0.2302  0.4021  0.0754
 7669SOL     OW34639   0.726   1.702   8.453  0.6845 -0.8629 -1.1127
 7669SOL    HW134640   0.779   1.733   8.379  0.0943  0.7270 -0.8808
 7669SOL    HW234641   0.788   1.675   8.520 -1.8426  0.6777  1.8592
 7670SOL     OW34642   1.424   1.958   8.559  0.2331 -0.0521 -0.0077
 7670SOL    HW134643   1.463   2.045   8.551  0.7484 -0.6646 -4.0958
 7670SOL    HW234644   1.427   1.927   8.468  1.9340  1.5575 -0.4897
 7671SOL     OW34645   3.011   1.161   4.056 -0.2083  0.3074  0.1367
 7671SOL    HW134646   3.080   1.220   4.086  1.3227 -1.1734 -0.4655
 7671SOL    HW234647   2.958   1.220   4.002  0.0162  0.4414  0.0643
 7672SOL     OW34648   2.945   3.242   3.491 -0.6004 -0.0670 -0.0527
 7672SOL    HW134649   2.976   3.159   3.456 -1.9147 -0.9091  0.7754
 7672SOL    HW234650   3.031   3.281   3.506  0.6942 -2.7827 -0.4732
 7673SOL     OW34651   4.160   3.152   2.634 -0.4750  0.1366  0.2220
 7673SOL    HW134652   4.139   3.070   2.678  0.0510  1.0858  2.2450
 7673SOL    HW234653   4.207   3.123   2.556  0.0844  0.6270  0.3791
 7674SOL     OW34654   0.132   2.313   3.468 -0.1123  0.4214 -0.1022
 7674SOL    HW134655   0.161   2.365   3.393  0.1088  4.2529  2.6417
 7674SOL    HW234656   0.070   2.367   3.517  0.0573  1.8509 -1.4685
 7675SOL     OW34657   3.061   4.245   4.610 -0.2336  0.4341  0.3906
 7675SOL    HW134658   3.127   4.273   4.674 -1.1693  0.7323  1.2272
 7675SOL    HW234659   2.989   4.221   4.667  0.2934 -0.3786  0.7115
 7676SOL     OW34660   0.904   4.402   2.807 -0.1151 -0.1163 -0.0678
 7676SOL    HW134661   0.918   4.403   2.712 -2.3752  0.1592 -0.4079
 7676SOL    HW234662   0.821   4.449   2.818  1.0767  1.9478  0.1835
 7677SOL     OW34663   4.702   1.290  17.715  0.1711 -0.6859 -0.2768
 7677SOL    HW134664   0.028   1.361  17.726  0.2082 -0.6200 -0.8992
 7677SOL    HW234665   4.622   1.330   0.003  0.4299 -1.2760  1.0491
 7678SOL     OW34666   0.572   0.535   4.191  0.8872  0.0615  0.8093
 7678SOL    HW134667   0.549   0.617   4.233 -0.1927  0.1500  0.0460
 7678SOL    HW234668   0.494   0.525   4.137  0.5515 -0.0200  1.3136
 7679SOL     OW34669   3.619   4.157   8.478 -0.2588 -0.2462  0.1117
 7679SOL    HW134670   3.701   4.204   8.465  0.1274 -1.0823 -0.4665
 7679SOL    HW234671   3.616   4.148   8.573  0.4413 -3.5726 -0.1835
 7680SOL     OW34672   3.489   1.499  12.134  0.3982 -0.3266 -0.0361
 7680SOL    HW134673   3.579   1.527  12.153 -0.3291  2.1581 -0.2504
 7680SOL    HW234674   3.499   1.405  12.144 -2.4854 -0.3732  2.2878
 7681SOL     OW34675   2.442   2.209   7.964 -0.0424 -0.3803 -0.0985
 7681SOL    HW134676   2.358   2.186   8.005 -0.7429  3.5245  0.6442
 7681SOL    HW234677   2.485   2.134   8.005 -0.6770  0.0065  1.2705
 7682SOL     OW34678   2.484   1.460   3.978  0.8086  0.4455  0.0981
 7682SOL    HW134679   2.525   1.544   3.961 -1.9143  1.5244 -1.1634
 7682SOL    HW234680   2.392   1.479   3.959  0.5689 -1.5797 -0.8012
 7683SOL     OW34681   0.343   4.367   7.020  0.6161 -0.1555  0.3074
 7683SOL    HW134682   0.270   4.355   7.080  2.4687 -0.6157  2.4848
 7683SOL    HW234683   0.333   4.295   6.957 -3.2144  1.2500 -0.6859
 7684SOL     OW34684   4.561   1.425   7.603 -0.6559 -0.4943 -0.2288
 7684SOL    HW134685   4.530   1.386   7.685  0.1454  0.0916  0.3582
 7684SOL    HW234686   4.560   1.519   7.621  2.3930 -0.7297  1.2133
 7685SOL     OW34687   0.524   0.801  10.188 -0.5936  0.0625  0.1966
 7685SOL    HW134688   0.517   0.786  10.283  0.8733 -0.2450  0.2537
 7685SOL    HW234689   0.469   0.730  10.153 -0.2991  0.4080 -0.9569
 7686SOL     OW34690   3.036   1.327  14.214  0.1021 -0.0753 -0.6049
 7686SOL    HW134691   3.106   1.341  14.150  1.8965 -1.9393  0.9334
 7686SOL    HW234692   2.958   1.359  14.169  2.0013  2.7789 -1.8504
 7687SOL     OW34693   1.864   0.064   2.432 -0.0383  0.1738  0.3787
 7687SOL    HW134694   1.782   0.086   2.387  2.0890  1.5598 -2.8358
 7687SOL    HW234695   1.839   0.055   2.524 -0.0323  1.8439  0.5315
 7688SOL     OW34696   2.711   2.875  12.069 -0.2054 -0.4375 -0.8091
 7688SOL    HW134697   2.745   2.959  12.042  1.3178 -1.0253 -0.6987
 7688SOL    HW234698   2.671   2.903  12.152  0.5671 -0.5993 -0.3825
 7689SOL     OW34699   3.037   4.606   5.199  0.4889  0.1234  0.0900
 7689SOL    HW134700   3.022   4.674   5.133 -0.2481 -0.0697  0.0601
 7689SOL    HW234701   3.080   4.536   5.151  0.8465  0.6008 -0.2948
 7690SOL     OW34702   2.426   1.595   9.611 -0.1167 -0.5855  0.0467
 7690SOL    HW134703   2.428   1.501   9.594  0.6554 -0.8153  1.3745
 7690SOL    HW234704   2.395   1.644   9.535  0.9379  0.8332  0.5372
 7691SOL     OW34705   0.617   2.582  11.676 -0.1539 -0.2069  0.0391
 7691SOL    HW134706   0.669   2.645  11.625 -1.6235 -0.1372 -1.3514
 7691SOL    HW234707   0.684   2.513  11.683  0.9355  0.6618 -1.7073
 7692SOL     OW34708   1.188   4.103   4.881  0.1602 -0.0407 -0.5401
 7692SOL    HW134709   1.237   4.172   4.925 -1.6326  1.2498 -0.6167
 7692SOL    HW234710   1.223   4.111   4.792  2.9913 -2.6802  0.3181
 7693SOL     OW34711   3.374   3.123   5.149 -0.3974 -0.3013  0.1860
 7693SOL    HW134712   3.398   3.041   5.192  0.1783 -0.2899 -0.1131
 7693SOL    HW234713   3.405   3.113   5.059 -2.0712  0.2865 -0.4558
 7694SOL     OW34714   0.975   2.642   4.266  0.2355 -0.1232  0.1190
 7694SOL    HW134715   1.055   2.596   4.240 -1.5439 -3.2396  0.1078
 7694SOL    HW234716   0.932   2.667   4.184  0.1110  0.2156  0.2875
 7695SOL     OW34717   1.114   0.335   7.185 -0.0000 -0.0876  0.5644
 7695SOL    HW134718   1.169   0.316   7.262  2.7251 -1.0505 -1.6073
 7695SOL    HW234719   1.162   0.404   7.139  0.1402  1.8545  3.6026
 7696SOL     OW34720   3.903   1.778  16.544  0.3897  0.3021  0.1492
 7696SOL    HW134721   3.923   1.865  16.578  1.5275  0.1361 -0.0637
 7696SOL    HW234722   3.817   1.789  16.504  0.2693 -1.1724 -0.0191
 7697SOL     OW34723   2.564   1.408   8.034  0.2460  0.2099 -0.7435
 7697SOL    HW134724   2.568   1.499   8.005  2.0237  0.8657  1.6049
 7697SOL    HW234725   2.485   1.382   7.986  0.5447 -0.0969 -1.0714
 7698SOL     OW34726   3.654   1.346   7.584 -0.0959 -0.1740 -0.7570
 7698SOL    HW134727   3.650   1.366   7.490  0.1068  0.2373 -0.6812
 7698SOL    HW234728   3.645   1.252   7.595 -2.0711  0.6830  4.5920
 7699SOL     OW34729   1.679   2.030   5.456  0.0580 -0.1596 -0.1022
 7699SOL    HW134730   1.670   2.036   5.552 -1.8819  0.6897 -0.3301
 7699SOL    HW234731   1.771   2.049   5.440 -0.2453  2.0056  0.6629
 7700SOL     OW34732   0.399   1.417   8.501  0.0650  0.2344 -0.0920
 7700SOL    HW134733   0.423   1.509   8.501 -1.3552  0.6056 -0.6247
 7700SOL    HW234734   0.310   1.419   8.466  0.6099 -0.3263 -1.4954
 7701SOL     OW34735   1.056   2.945   5.868  0.7972  0.3879  0.2897
 7701SOL    HW134736   1.076   2.880   5.800  0.5673  0.4487  0.1634
 7701SOL    HW234737   0.989   2.900   5.918 -1.3695  2.0516 -1.1142
 7702SOL     OW34738   3.802   1.609  17.426  0.2290  0.4607  0.2740
 7702SOL    HW134739   3.826   1.702  17.425  0.7946  0.3193  0.4457
 7702SOL    HW234740   3.834   1.583  17.339 -0.1178 -0.5844  0.4670
 7703SOL     OW34741   0.050   4.006  13.176  0.1858  0.6334 -0.0498
 7703SOL    HW134742   0.106   3.982  13.102 -1.1530  1.0499 -1.1796
 7703SOL    HW234743   0.085   4.094  13.191  0.8501  0.4241 -0.3490
 7704SOL     OW34744   4.700   3.284   3.877  0.0378  0.0696 -0.3872
 7704SOL    HW134745   4.661   3.224   3.941 -1.6236  0.1232 -1.3479
 7704SOL    HW234746   4.634   3.353   3.890  0.0803 -0.3498  2.1327
 7705SOL     OW34747   0.861   0.450   7.139  0.1792 -0.7438  0.6554
 7705SOL    HW134748   0.913   0.376   7.110  1.4771 -0.0589  1.2461
 7705SOL    HW234749   0.772   0.416   7.149  0.3855 -1.5084 -0.0995
 7706SOL     OW34750   0.983   0.431   2.757 -0.3502  0.3462  0.3544
 7706SOL    HW134751   1.058   0.371   2.755 -1.6823 -1.2705 -1.1275
 7706SOL    HW234752   0.944   0.395   2.836 -2.6505 -0.0569 -0.9856
 7707SOL     OW34753   4.719   2.814   7.849 -0.3415 -0.1598  0.0878
 7707SOL    HW134754   0.071   2.811   7.883  0.7905 -1.6078 -2.9531
 7707SOL    HW234755   4.735   2.846   7.760 -1.4490  0.6220  0.1726
 7708SOL     OW34756   1.289   4.100  11.309 -0.1805 -0.1464  0.1741
 7708SOL    HW134757   1.241   4.040  11.251 -1.3433 -2.0964  3.1355
 7708SOL    HW234758   1.355   4.136  11.250 -1.9908  1.2906 -0.9755
 7709SOL     OW34759   4.217   3.518  11.671 -0.4526  0.0272  0.4621
 7709SOL    HW134760   4.253   3.605  11.688  2.1932 -1.0195  0.1221
 7709SOL    HW234761   4.124   3.540  11.659 -0.0524  1.7681  0.6221
 7710SOL     OW34762   2.804   0.226   6.758  0.3319 -0.9002 -0.3817
 7710SOL    HW134763   2.852   0.155   6.801  1.5852  0.0058 -0.2743
 7710SOL    HW234764   2.711   0.207   6.765  0.0746 -0.1242 -1.6773
 7711SOL     OW34765   2.408   2.703  15.984  0.0244  0.5489 -0.4263
 7711SOL    HW134766   2.376   2.659  15.906 -1.7982  2.7822 -0.9080
 7711SOL    HW234767   2.502   2.682  15.987  0.3463  1.9290 -1.0201
 7712SOL     OW34768   1.961   1.176   6.782 -0.5321  0.4719  0.3120
 7712SOL    HW134769   1.891   1.118   6.751 -0.8110  1.8716 -1.7294
 7712SOL    HW234770   1.950   1.167   6.876  1.9297  1.3273  0.6777
 7713SOL     OW34771   1.943   1.373   0.474 -0.2408  0.2204  0.0526
 7713SOL    HW134772   1.894   1.455   0.477 -1.8689 -0.7416 -0.5064
 7713SOL    HW234773   1.898   1.311   0.531  3.2756 -1.1857  1.2971
 7714SOL     OW34774   0.143   1.861   5.089 -0.6671  0.1647 -0.1808
 7714SOL    HW134775   0.222   1.820   5.125  0.2817 -0.2954 -2.8243
 7714SOL    HW234776   0.112   1.903   5.170  1.6893 -0.1081  0.8636
 7715SOL     OW34777   1.959   2.853   0.332 -0.4371  0.1135  0.6941
 7715SOL    HW134778   1.936   2.923   0.270 -0.9791 -0.2013  0.5371
 7715SOL    HW234779   1.871   2.837   0.366 -0.4472 -0.5890  0.3511
 7716SOL     OW34780   1.044   0.818   6.208 -0.5792  0.3741  0.1283
 7716SOL    HW134781   1.021   0.851   6.121 -1.2235 -1.1522 -0.2907
 7716SOL    HW234782   1.131   0.856   6.220 -0.0801 -0.8621  0.4754
 7717SOL     OW34783   4.016   3.156   2.349 -0.2415 -0.3956 -0.4304
 7717SOL    HW134784   3.996   3.203   2.269 -1.4381 -0.0736  0.0487
 7717SOL    HW234785   4.106   3.181   2.372 -0.9189  2.7690 -1.2283
 7718SOL     OW34786   0.438   3.258   9.291  0.3435  0.6671  0.3812
 7718SOL    HW134787   0.360   3.281   9.341 -0.2404  1.2784 -0.8146
 7718SOL    HW234788   0.470   3.176   9.330  0.9258  0.1423 -1.2085
 7719SOL     OW34789   2.304   1.893   5.773  0.0233 -0.2486 -0.1242
 7719SOL    HW134790   2.397   1.913   5.771  0.5551 -2.7029  0.0374
 7719SOL    HW234791   2.273   1.968   5.823 -0.2544 -1.2406  1.1803
 7720SOL     OW34792   1.120   2.662   1.518 -0.4787  0.1392  0.4897
 7720SOL    HW134793   1.083   2.725   1.580 -1.0286  0.8750 -0.5815
 7720SOL    HW234794   1.125   2.716   1.440 -1.2039 -1.5515 -0.7167
 7721SOL     OW34795   4.313   1.578   2.533 -0.7208 -0.0937  0.1677
 7721SOL    HW134796   4.383   1.622   2.581  0.8886 -2.2611 -0.2405
 7721SOL    HW234797   4.352   1.566   2.446 -0.4620  0.7847  0.1581
 7722SOL     OW34798   2.068   2.182   1.758 -0.1111  0.4935  0.0590
 7722SOL    HW134799   2.128   2.229   1.817  0.3388  0.6530 -0.5195
 7722SOL    HW234800   2.080   2.237   1.681  0.0738 -1.1806 -1.0953
 7723SOL     OW34801   4.353   2.184   7.709 -0.0803  0.5976  0.8091
 7723SOL    HW134802   4.367   2.194   7.615  2.7541 -0.0351  1.1702
 7723SOL    HW234803   4.308   2.266   7.734 -1.0432  0.2810  0.1097
 7724SOL     OW34804   2.317   4.471   6.175 -0.3565 -0.4155 -0.3794
 7724SOL    HW134805   2.247   4.435   6.229  1.9061 -0.8360  2.2993
 7724SOL    HW234806   2.398   4.421   6.192 -0.5380 -0.3882  0.5900
 7725SOL     OW34807   2.289   1.081   5.102  0.0855  1.0434  0.1163
 7725SOL    HW134808   2.326   1.062   5.016  1.0000  0.5100  0.6406
 7725SOL    HW234809   2.275   1.175   5.093 -1.8334  0.7208 -0.4552
 7726SOL     OW34810   0.463   0.661   6.775 -0.0067  0.0548 -0.2707
 7726SOL    HW134811   0.535   0.605   6.805  1.5168  2.3373  0.3084
 7726SOL    HW234812   0.440   0.624   6.689 -0.8937  0.6291 -0.2759
 7727SOL     OW34813   3.414   2.485   4.292 -0.0373 -0.3044  0.0352
 7727SOL    HW134814   3.440   2.412   4.235  1.1279  0.6561 -0.6627
 7727SOL    HW234815   3.457   2.468   4.376  0.5796 -3.5820 -0.9356
 7728SOL     OW34816   0.939   3.137   7.921 -0.1097 -0.4118 -0.5672
 7728SOL    HW134817   0.867   3.191   7.952  0.3624 -0.3850  0.4627
 7728SOL    HW234818   0.900   3.053   7.946 -0.5797 -0.0396 -0.0651
 7729SOL     OW34819   3.322   1.733  14.638 -0.3339  0.0318  0.9821
 7729SOL    HW134820   3.291   1.790  14.567  1.8079 -1.8287 -1.4674
 7729SOL    HW234821   3.375   1.800  14.680 -0.6196  1.4342 -0.8720
 7730SOL     OW34822   0.842   3.776  16.097  0.5125  0.2979 -0.3075
 7730SOL    HW134823   0.936   3.779  16.077  0.5633 -0.9636 -0.2208
 7730SOL    HW234824   0.826   3.843  16.164 -1.6256 -0.2101 -0.2953
 7731SOL     OW34825   3.924   3.137  10.909 -0.0580  0.0872 -0.5649
 7731SOL    HW134826   3.999   3.094  10.950  0.5593  1.1370 -0.6122
 7731SOL    HW234827   3.961   3.185  10.835 -0.1841  0.1644 -0.5762
 7732SOL     OW34828   4.225   1.934  13.021  0.4002  0.0629 -0.0122
 7732SOL    HW134829   4.152   1.992  13.001  0.9619  0.4241 -1.0404
 7732SOL    HW234830   4.205   1.902  13.109  1.4063  1.1713  0.6203
 7733SOL     OW34831   3.618   0.105   8.977 -0.2776  0.7907  0.3759
 7733SOL    HW134832   3.588   0.185   8.934  0.7180 -0.1193 -2.0337
 7733SOL    HW234833   3.656   0.136   9.058  0.0567 -2.6739  1.5491
 7734SOL     OW34834   3.496   1.710   7.374  0.3735  0.3514 -0.0214
 7734SOL    HW134835   3.426   1.773   7.388 -0.6247 -0.1578 -2.7689
 7734SOL    HW234836   3.444   1.630   7.372 -0.1835  0.7225 -0.5232
 7735SOL     OW34837   1.559   4.704   8.089 -0.0830  0.2400 -0.1861
 7735SOL    HW134838   1.538   4.708   7.995  0.5486  1.8638 -0.2520
 7735SOL    HW234839   1.637   4.648   8.085 -0.1408  0.2233 -1.2918
 7736SOL     OW34840   0.840   0.678   1.862  0.4402  0.0917 -0.1553
 7736SOL    HW134841   0.835   0.708   1.772 -2.0744 -1.7080 -0.6013
 7736SOL    HW234842   0.863   0.586   1.855  2.7062  0.7425 -1.0117
 7737SOL     OW34843   0.023   3.551   7.873  0.3289  0.0367  0.4235
 7737SOL    HW134844   4.698   3.611   7.830 -0.5890  0.2412  2.0287
 7737SOL    HW234845   0.001   3.463   7.843  2.8597 -0.5640  0.2970
 7738SOL     OW34846   3.487   3.779   7.742  0.1286 -0.1423  0.0473
 7738SOL    HW134847   3.536   3.734   7.810  2.4033  2.1642 -0.0561
 7738SOL    HW234848   3.516   3.869   7.757 -1.3093  0.1856  0.9180
 7739SOL     OW34849   3.049   0.558   2.090 -0.4178 -0.4137 -0.4996
 7739SOL    HW134850   3.033   0.576   1.998 -2.3594  1.1342  0.1714
 7739SOL    HW234851   2.993   0.626   2.125  1.6278  1.0127  0.0140
 7740SOL     OW34852   2.853   4.048   3.276  1.0635 -0.2052 -0.0771
 7740SOL    HW134853   2.819   4.058   3.187 -1.7565 -0.2319  0.9762
 7740SOL    HW234854   2.943   4.079   3.271  0.9317  0.1583 -0.1757
 7741SOL     OW34855   2.317   0.797  12.927 -0.4156 -0.0505  0.3406
 7741SOL    HW134856   2.336   0.812  13.019 -0.2124  0.5602  0.1972
 7741SOL    HW234857   2.274   0.876  12.895 -1.4064 -0.5083  0.5308
 7742SOL     OW34858   3.627   2.173   8.820 -0.4265 -0.5246  0.1286
 7742SOL    HW134859   3.624   2.258   8.778 -0.6891  0.7286  2.6949
 7742SOL    HW234860   3.717   2.140   8.815 -0.4705 -0.7801  0.9458
 7743SOL     OW34861   3.073   3.902   7.846  0.1202  0.1889 -0.4190
 7743SOL    HW134862   3.058   3.972   7.782  0.3445  0.1670 -0.4982
 7743SOL    HW234863   2.992   3.851   7.846  0.8150 -0.9030  1.8684
 7744SOL     OW34864   2.141   1.406   6.830 -0.7337  0.1318 -0.0319
 7744SOL    HW134865   2.070   1.343   6.839 -0.4943 -0.4865 -2.6116
 7744SOL    HW234866   2.091   1.488   6.821  0.9924  1.0650 -1.2358
 7745SOL     OW34867   1.630   1.830   4.700 -0.9033  0.4299 -0.5973
 7745SOL    HW134868   1.723   1.819   4.721 -1.2111 -1.6196 -0.3067
 7745SOL    HW234869   1.625   1.770   4.625  0.3033 -0.5996  0.1444
 7746SOL     OW34870   0.103   0.684   6.083 -0.3117  0.1905  0.2187
 7746SOL    HW134871   0.060   0.684   6.168 -2.5624  0.0728 -0.9144
 7746SOL    HW234872   0.170   0.751   6.094  0.5085 -0.4042 -1.1590
 7747SOL     OW34873   3.256   3.514   4.017  0.1983 -0.2198  0.1715
 7747SOL    HW134874   3.292   3.577   4.079  1.5642 -1.7485  0.9676
 7747SOL    HW234875   3.334   3.478   3.975 -0.8383 -0.8074 -1.2600
 7748SOL     OW34876   0.097   0.043   3.805 -0.2465 -0.0229  0.6718
 7748SOL    HW134877   0.162   0.018   3.740 -1.3513  0.9278 -0.8110
 7748SOL    HW234878   0.044   4.702   3.822  0.2341 -0.0873  1.8964
 7749SOL     OW34879   1.793   3.364  16.026 -0.0127 -0.3500  0.2014
 7749SOL    HW134880   1.860   3.312  15.980 -0.2795 -0.2528 -0.2975
 7749SOL    HW234881   1.727   3.364  15.957  1.8502 -1.6850 -1.5964
 7750SOL     OW34882   2.388   0.591   4.552  0.2610 -0.1896 -0.0250
 7750SOL    HW134883   2.387   0.681   4.518 -0.4563 -0.0277  0.4203
 7750SOL    HW234884   2.394   0.540   4.472 -1.8571  0.5671 -0.6686
 7751SOL     OW34885   3.350   4.124   8.746  0.6977 -0.1758 -0.5639
 7751SOL    HW134886   3.346   4.076   8.829  0.6732 -0.4591 -0.7300
 7751SOL    HW234887   3.317   4.210   8.770 -0.1683 -0.6753  0.0259
 7752SOL     OW34888   2.467   2.520   6.384 -0.0139 -0.2231 -0.0573
 7752SOL    HW134889   2.485   2.427   6.401 -1.8060 -0.9405 -2.0885
 7752SOL    HW234890   2.372   2.526   6.388  0.0089  0.3386 -0.4039
 7753SOL     OW34891   2.989   1.746   3.996  0.2841 -0.4707 -0.5671
 7753SOL    HW134892   2.932   1.803   3.943  0.9837  0.6309 -0.1128
 7753SOL    HW234893   2.945   1.661   4.008 -4.8262  2.0540 -1.2223
 7754SOL     OW34894   4.076   3.733   5.316  0.2797 -0.1052 -0.2656
 7754SOL    HW134895   4.028   3.816   5.311  1.1514  0.4226 -0.1344
 7754SOL    HW234896   4.129   3.746   5.237  0.3873 -1.0612 -0.3471
 7755SOL     OW34897   3.505   2.295   2.364 -0.2847  0.2567  0.3408
 7755SOL    HW134898   3.414   2.304   2.335  0.1520  1.8822 -0.5241
 7755SOL    HW234899   3.506   2.231   2.435 -1.5498  0.6197  0.6738
 7756SOL     OW34900   2.837   4.499  15.317 -0.3054  0.0191 -0.4835
 7756SOL    HW134901   2.803   4.409  15.314 -1.5567  0.3887  2.4238
 7756SOL    HW234902   2.861   4.518  15.408  1.7366  0.9669 -1.2246
 7757SOL     OW34903   4.719   2.585  11.893  0.2451 -0.5292  0.0148
 7757SOL    HW134904   4.653   2.654  11.884  0.7110 -0.1912 -0.7625
 7757SOL    HW234905   4.699   2.556  11.982  1.5753 -0.1814  0.4300
 7758SOL     OW34906   3.058   2.696   3.585 -0.0192  0.5126 -0.4976
 7758SOL    HW134907   2.994   2.745   3.636  1.6372  0.4249  1.6686
 7758SOL    HW234908   3.069   2.616   3.637  2.0828  0.2320 -1.3525
 7759SOL     OW34909   4.045   3.471  14.340 -0.0510  0.6333 -0.3311
 7759SOL    HW134910   3.951   3.476  14.321 -0.2255 -1.2840  0.0083
 7759SOL    HW234911   4.047   3.402  14.405 -1.0875  1.6499  0.7959
 7760SOL     OW34912   3.533   4.357   5.063 -0.0283  0.0441 -0.1369
 7760SOL    HW134913   3.506   4.365   5.155  0.3033 -2.1790  0.1523
 7760SOL    HW234914   3.485   4.428   5.020  0.9007  0.2068 -0.9024
 7761SOL     OW34915   1.738   3.791  10.600  0.1251  0.1614 -0.2253
 7761SOL    HW134916   1.649   3.761  10.617  1.2286 -1.8058  2.2134
 7761SOL    HW234917   1.782   3.706  10.591 -1.1102 -0.3985 -0.9529
 7762SOL     OW34918   0.108   1.870  14.558  0.5712  0.1349 -0.0093
 7762SOL    HW134919   0.148   1.819  14.628 -0.2424 -0.3218  0.1314
 7762SOL    HW234920   0.148   1.953  14.581 -1.4180  0.6809  1.5045
 7763SOL     OW34921   3.967   0.877   6.430 -0.0655  0.0570 -0.1121
 7763SOL    HW134922   3.984   0.832   6.347 -4.5756 -3.2308  0.7165
 7763SOL    HW234923   4.052   0.892   6.470  0.0686 -0.1386 -0.3277
 7764SOL     OW34924   1.411   2.529   3.622 -0.2715  0.6459  0.2640
 7764SOL    HW134925   1.492   2.565   3.657  1.1530 -2.7594  0.4767
 7764SOL    HW234926   1.422   2.551   3.529 -0.6670  0.1576  0.1029
 7765SOL     OW34927   2.146   1.850   5.559 -0.1286  0.4990 -0.2045
 7765SOL    HW134928   2.199   1.863   5.638 -0.7329  2.9620 -0.2011
 7765SOL    HW234929   2.062   1.814   5.589 -0.0427  0.9168  0.5241
 7766SOL     OW34930   1.274   2.068   2.207 -0.3248  0.3053  0.1513
 7766SOL    HW134931   1.263   2.161   2.227 -1.8243 -0.3789  2.5355
 7766SOL    HW234932   1.367   2.075   2.186 -0.7717  0.8763 -1.6538
 7767SOL     OW34933   0.465   3.152   4.748 -0.2630  0.0868 -0.1817
 7767SOL    HW134934   0.432   3.063   4.739 -0.4202  0.0419  0.8752
 7767SOL    HW234935   0.424   3.208   4.682 -0.9767 -0.0333  0.1598
 7768SOL     OW34936   0.650   2.750   1.242 -0.0649 -0.7265 -0.3685
 7768SOL    HW134937   0.558   2.777   1.241 -0.0981 -0.7867  0.8985
 7768SOL    HW234938   0.673   2.769   1.333 -0.8262  0.0231 -0.3336
 7769SOL     OW34939   3.479   0.454   2.846 -0.1317 -0.0107 -0.1644
 7769SOL    HW134940   3.427   0.393   2.899  0.8105 -0.8138 -0.1852
 7769SOL    HW234941   3.551   0.468   2.907 -0.9473  0.0307  0.7998
 7770SOL     OW34942   0.635   1.534  17.454 -0.0024  0.0318  0.4908
 7770SOL    HW134943   0.719   1.499  17.483  1.0789  1.7100 -0.6394
 7770SOL    HW234944   0.588   1.561  17.532  0.1023  0.9107  0.2444
 7771SOL     OW34945   3.266   4.680   1.178  0.4660  0.3295  0.1953
 7771SOL    HW134946   3.338   0.004   1.163  0.6586  0.4290  1.4927
 7771SOL    HW234947   3.252   4.693   1.272 -0.7189 -0.9337  0.1930
 7772SOL     OW34948   3.298   2.786  15.310 -0.2859 -0.5855 -0.6983
 7772SOL    HW134949   3.371   2.788  15.372 -0.7183 -1.1098 -0.1701
 7772SOL    HW234950   3.306   2.698  15.274  1.9013 -0.4592 -0.5262
 7773SOL     OW34951   4.087   3.202  12.250  0.1367 -0.3779 -0.1469
 7773SOL    HW134952   4.124   3.192  12.162 -2.3256 -0.0194 -1.1989
 7773SOL    HW234953   3.994   3.202  12.231  0.0793 -1.1705  0.1061
 7774SOL     OW34954   0.051   4.304   8.847  0.5751  0.4923 -0.1333
 7774SOL    HW134955   0.106   4.286   8.923 -1.5453 -1.5074  0.9571
 7774SOL    HW234956   0.107   4.367   8.802  2.5193 -1.6283 -0.7202
 7775SOL     OW34957   0.506   2.817  16.616  0.1880  0.0275 -0.3067
 7775SOL    HW134958   0.424   2.824  16.566  0.2066  0.8847 -0.2177
 7775SOL    HW234959   0.572   2.857  16.559  0.7511 -2.0238 -1.0875
 7776SOL     OW34960   1.145   0.441   3.747 -0.0199  0.0108  0.5726
 7776SOL    HW134961   1.072   0.464   3.804 -1.0058  0.2344 -0.7602
 7776SOL    HW234962   1.226   0.441   3.796  0.2415  0.5720  0.1349
 7777SOL     OW34963   4.654   0.171   8.482  0.2679  0.0774 -1.1273
 7777SOL    HW134964   4.615   0.258   8.470 -0.4541 -0.5211 -3.0986
 7777SOL    HW234965   4.635   0.133   8.396  3.8321 -1.1670 -1.3637
 7778SOL     OW34966   1.245   3.662  11.974 -0.3439  0.0149 -0.8638
 7778SOL    HW134967   1.330   3.656  11.931  0.6361  1.1479  0.9183
 7778SOL    HW234968   1.192   3.603  11.921 -1.5014 -1.2432  1.7279
 7779SOL     OW34969   0.306   3.786   1.571 -0.3760 -0.0549 -0.1817
 7779SOL    HW134970   0.249   3.746   1.506 -3.2756  1.5695  1.3678
 7779SOL    HW234971   0.383   3.809   1.519 -0.0402 -1.6832 -0.3898
 7780SOL     OW34972   0.312   2.381  17.142  0.5294 -0.1807  0.1324
 7780SOL    HW134973   0.335   2.468  17.111 -0.1632 -0.3202 -0.7757
 7780SOL    HW234974   0.344   2.327  17.069  1.1841  1.6681 -0.9372
 7781SOL     OW34975   0.548   2.744   9.507 -0.2016  0.0314  0.4778
 7781SOL    HW134976   0.631   2.717   9.468 -0.0157 -0.1253  0.9814
 7781SOL    HW234977   0.582   2.799   9.577  0.8021  1.5842 -1.1975
 7782SOL     OW34978   4.395   3.681   8.728 -0.2507  0.1358 -0.0529
 7782SOL    HW134979   4.330   3.719   8.669 -2.3877 -0.6053  1.8215
 7782SOL    HW234980   4.343   3.687   8.808  0.8408  0.9391  0.5860
 7783SOL     OW34981   0.248   2.239   5.765  0.1463  0.1196 -0.4237
 7783SOL    HW134982   0.335   2.272   5.789  0.0575 -0.5239  0.7897
 7783SOL    HW234983   0.227   2.190   5.844  1.0420  1.6850  0.7769
 7784SOL     OW34984   2.404   3.053   4.500 -0.2677 -0.4565 -0.1569
 7784SOL    HW134985   2.394   3.010   4.585  2.4595 -1.1385 -0.1977
 7784SOL    HW234986   2.317   3.093   4.499  0.2411  0.6516 -0.4602
 7785SOL     OW34987   1.936   2.892   4.584  0.5069  0.1082  0.3481
 7785SOL    HW134988   1.950   2.825   4.518 -1.1470  0.5290 -0.4224
 7785SOL    HW234989   2.026   2.922   4.597  0.2198  1.3380 -0.5872
 7786SOL     OW34990   4.211   4.352  15.503  0.0959  0.1473  0.5113
 7786SOL    HW134991   4.276   4.307  15.449  1.5100  1.2356  1.3422
 7786SOL    HW234992   4.135   4.295  15.495  0.5580 -0.1577 -1.7561
 7787SOL     OW34993   0.198   3.342   0.468 -0.0303  0.4666 -0.8565
 7787SOL    HW134994   0.171   3.250   0.462 -1.5307  0.8227  0.4182
 7787SOL    HW234995   0.289   3.327   0.496  0.3999  1.9593 -1.4581
 7788SOL     OW34996   1.243   3.223   8.930 -0.2160 -0.0430  0.2498
 7788SOL    HW134997   1.222   3.288   8.863  1.9718  1.2589  0.8336
 7788SOL    HW234998   1.198   3.145   8.899  0.6903  0.0663 -1.3178
 7789SOL     OW34999   3.584   0.015   1.689 -0.1172 -0.0773  0.1928
 7789SOL    HW135000   3.555   4.712   1.771  3.1191 -0.4609  1.1416
 7789SOL    HW235001   3.676   0.039   1.701 -0.4352  1.1892  0.0744
 7790SOL     OW35002   0.863   3.469   4.891 -0.2354  0.1132  0.0639
 7790SOL    HW135003   0.795   3.504   4.833  0.3824 -1.2901 -1.5300
 7790SOL    HW235004   0.916   3.548   4.891  1.3051 -0.9336  2.1656
 7791SOL     OW35005   1.644   3.309   8.089  0.6922  0.2817  0.0500
 7791SOL    HW135006   1.720   3.279   8.039 -0.8563 -0.4686 -1.8911
 7791SOL    HW235007   1.668   3.300   8.181  1.3248  0.0370 -0.1417
 7792SOL     OW35008   0.003   2.434   3.712 -0.1085  0.5459  0.2612
 7792SOL    HW135009   0.086   2.482   3.709  0.5264 -0.5253  0.6459
 7792SOL    HW235010   0.006   2.405   3.803  0.6271 -3.0431 -0.8887
 7793SOL     OW35011   4.540   4.047   1.429 -0.2960  0.4639  0.1995
 7793SOL    HW135012   4.506   4.137   1.430 -0.0109  0.5654  1.0595
 7793SOL    HW235013   4.629   4.048   1.394 -0.2245 -2.8688  0.3260
 7794SOL     OW35014   0.785   0.297   4.579 -0.6346  0.2066  0.0378
 7794SOL    HW135015   0.789   0.275   4.671 -0.7520 -2.0062 -0.4969
 7794SOL    HW235016   0.693   0.275   4.560 -0.7808  1.6381 -0.9186
 7795SOL     OW35017   4.473   1.408   5.904 -0.5024 -0.9579 -0.1987
 7795SOL    HW135018   4.538   1.363   5.959 -1.0905  0.0114  1.3065
 7795SOL    HW235019   4.400   1.346   5.906 -0.2502 -1.2624 -0.6235
 7796SOL     OW35020   2.562   0.619   7.376 -0.1397 -0.0633  0.1528
 7796SOL    HW135021   2.471   0.589   7.387 -0.8168  1.9877  0.1110
 7796SOL    HW235022   2.548   0.707   7.343 -1.1819 -0.6338 -0.9258
 7797SOL     OW35023   1.404   3.584   5.182 -0.0105 -0.6528 -0.4514
 7797SOL    HW135024   1.486   3.538   5.200  0.3007  0.7395  1.7341
 7797SOL    HW235025   1.363   3.530   5.115 -2.0432  1.5456 -0.9795
 7798SOL     OW35026   1.390   4.390  13.011 -0.0254 -0.1405 -0.5829
 7798SOL    HW135027   1.479   4.359  12.997  0.4383  0.7679  0.3918
 7798SOL    HW235028   1.352   4.353  12.931 -1.8292  2.1605 -0.7787
 7799SOL     OW35029   0.501   3.041   1.146  0.0796  0.3219 -0.0424
 7799SOL    HW135030   0.428   2.980   1.162  1.2250 -0.8863  0.5907
 7799SOL    HW235031   0.499   3.082   1.232 -0.0578 -0.4372  0.3184
 7800SOL     OW35032   1.940   2.853   1.916  0.0401 -0.5166 -0.6898
 7800SOL    HW135033   1.890   2.882   1.839 -1.4945 -2.0998 -0.2865
 7800SOL    HW235034   1.927   2.921   1.982  2.2720  1.5248 -2.3381
 7801SOL     OW35035   1.946   0.433   6.185  0.4981  0.2112 -0.0473
 7801SOL    HW135036   1.997   0.421   6.265  0.7130  1.2766 -0.0281
 7801SOL    HW235037   2.017   0.447   6.123  0.2286 -1.3200 -0.7178
 7802SOL     OW35038   4.561   4.136   6.373  0.1021  0.8163  0.2661
 7802SOL    HW135039   4.578   4.203   6.439 -2.3633  1.9744 -0.2722
 7802SOL    HW235040   4.564   4.181   6.288 -1.2206  1.7987  0.7402
 7803SOL     OW35041   4.688   0.813  14.653  0.3008 -0.0111  0.0988
 7803SOL    HW135042   4.654   0.771  14.574  1.9722  0.2208 -0.7362
 7803SOL    HW235043   4.636   0.762  14.716  0.1398 -1.5445 -1.2509
 7804SOL     OW35044   3.327   0.796   2.504 -0.1625  0.7107  0.3760
 7804SOL    HW135045   3.315   0.719   2.448 -2.3898  1.3475 -0.0197
 7804SOL    HW235046   3.237   0.817   2.528 -1.0261 -2.1740 -0.3193
 7805SOL     OW35047   0.607   3.180   2.309  0.3051 -0.4745  0.2263
 7805SOL    HW135048   0.644   3.092   2.317 -0.7882 -1.0785 -1.5525
 7805SOL    HW235049   0.672   3.221   2.366 -0.5503 -0.1631  0.9799
 7806SOL     OW35050   1.903   1.712   4.265 -0.3556  0.3660 -0.5291
 7806SOL    HW135051   1.983   1.685   4.310 -1.3811  1.2860  1.8918
 7806SOL    HW235052   1.927   1.680   4.178  0.7552 -0.4523  0.0757
 7807SOL     OW35053   4.168   2.318  15.630 -0.3966 -0.0551  0.8083
 7807SOL    HW135054   4.247   2.342  15.582  0.2940  1.7602  2.8587
 7807SOL    HW235055   4.173   2.223  15.635 -1.9587 -0.2056 -0.5724
 7808SOL     OW35056   3.372   4.688   5.360  0.4189 -0.0078 -0.5885
 7808SOL    HW135057   3.361   0.023   5.297  1.0138  0.3363 -0.3029
 7808SOL    HW235058   3.462   4.700   5.391  0.2605 -0.1698 -0.0719
 7809SOL     OW35059   1.476   0.865   3.455 -0.1195  0.3391 -0.1108
 7809SOL    HW135060   1.467   0.796   3.521  0.8442 -0.4752 -0.8401
 7809SOL    HW235061   1.425   0.823   3.386 -1.3182  0.7624  0.5094
 7810SOL     OW35062   0.788   3.645  10.030  0.3815 -0.7551 -0.4655
 7810SOL    HW135063   0.783   3.568  10.087  0.3789  1.5537  2.6217
 7810SOL    HW235064   0.824   3.608   9.949 -0.4091  1.3624 -1.7809
 7811SOL     OW35065   1.347   2.259   4.414  0.1352  0.0286 -0.1577
 7811SOL    HW135066   1.401   2.334   4.389 -0.4652  0.0444 -1.4132
 7811SOL    HW235067   1.406   2.185   4.401  0.7886  0.6095 -0.5109
 7812SOL     OW35068   0.258   1.639  15.021 -0.7014  0.3412  0.2620
 7812SOL    HW135069   0.196   1.676  15.084 -0.4114  1.2460  0.0080
 7812SOL    HW235070   0.329   1.606  15.077 -0.6330  0.2707  0.1336
 7813SOL     OW35071   1.978   0.246   5.385  0.0632  0.5384  0.4884
 7813SOL    HW135072   1.958   0.187   5.458  0.5088 -0.4095 -0.1617
 7813SOL    HW235073   2.030   0.312   5.431 -0.3190  0.6166  0.8059
 7814SOL     OW35074   1.188   2.935   5.439 -0.3153  0.0837  0.1696
 7814SOL    HW135075   1.188   2.965   5.349  1.5080  0.0471  0.1584
 7814SOL    HW235076   1.099   2.912   5.466 -0.0814  0.5002  1.3067
 7815SOL     OW35077   1.027   2.440   0.646  0.0674  0.4650 -0.4869
 7815SOL    HW135078   0.982   2.426   0.564 -0.1563 -2.5411  0.1775
 7815SOL    HW235079   0.946   2.457   0.695  1.0869  4.3337 -0.1330
 7816SOL     OW35080   1.781   3.538   4.377  0.1428 -0.0528 -0.6766
 7816SOL    HW135081   1.752   3.534   4.469  1.9942 -1.5526 -0.1620
 7816SOL    HW235082   1.829   3.455   4.369 -1.8794 -1.0724 -2.2130
 7817SOL     OW35083   1.750   4.597  13.119 -0.3970  0.4365  0.2976
 7817SOL    HW135084   1.658   4.608  13.097 -0.1433 -0.9471 -1.4986
 7817SOL    HW235085   1.731   4.540  13.193 -1.6563  0.9519  0.3683
 7818SOL     OW35086   2.297   4.034   5.943 -0.6419  0.0821 -0.6263
 7818SOL    HW135087   2.264   3.948   5.917 -0.4280 -0.3409  0.4720
 7818SOL    HW235088   2.378   4.027   5.892 -0.0181  0.8487  0.2468
 7819SOL     OW35089   0.727   2.904   3.976  0.2399  0.5197  0.5415
 7819SOL    HW135090   0.668   2.866   4.042 -0.7422  1.0755 -0.0050
 7819SOL    HW235091   0.797   2.844   3.999 -0.1942  0.0676  0.6921
 7820SOL     OW35092   2.129   4.607   2.584  0.2680  0.5488  0.3962
 7820SOL    HW135093   2.206   4.611   2.639  0.6231  2.3995 -0.2503
 7820SOL    HW235094   2.153   4.667   2.514  0.4957  1.1560  1.0052
 7821SOL     OW35095   0.284   1.128  11.855  0.4432  0.1721 -0.5442
 7821SOL    HW135096   0.353   1.135  11.921 -2.0956 -1.7470  2.3360
 7821SOL    HW235097   0.320   1.075  11.783  1.6176 -0.9663  0.8732
 7822SOL     OW35098   0.040   1.332   2.884  0.0598 -0.3943  0.0991
 7822SOL    HW135099   0.017   1.370   2.800 -1.5162 -0.2869  0.5753
 7822SOL    HW235100   0.070   1.243   2.864  1.2901  0.0896 -0.2123
 7823SOL     OW35101   3.249   2.305   2.296  0.2158 -0.4050 -0.3217
 7823SOL    HW135102   3.244   2.289   2.202 -0.4844 -1.0196 -0.1797
 7823SOL    HW235103   3.231   2.399   2.301  1.0500 -0.3484  1.6586
 7824SOL     OW35104   1.961   1.689   2.185 -0.5327  0.7142 -0.3132
 7824SOL    HW135105   1.933   1.776   2.158 -0.9674  0.2123 -1.4547
 7824SOL    HW235106   1.909   1.636   2.124 -1.3262 -1.0175  1.8637
 7825SOL     OW35107   2.436   0.755  11.365 -0.2798 -0.1432 -0.0473
 7825SOL    HW135108   2.412   0.841  11.400 -2.8068 -0.3662 -1.2504
 7825SOL    HW235109   2.523   0.748  11.405 -0.2295  1.8138  0.1808
 7826SOL     OW35110   0.624   0.549   9.130 -0.2431 -0.5406 -0.4827
 7826SOL    HW135111   0.672   0.632   9.127 -3.7252  1.5864  2.7282
 7826SOL    HW235112   0.658   0.519   9.215 -2.8507  0.4898  0.9171
 7827SOL     OW35113   4.026   4.314   1.235 -0.3695 -0.2479 -0.6264
 7827SOL    HW135114   4.033   4.299   1.141  1.1292  0.4519 -0.6270
 7827SOL    HW235115   4.053   4.226   1.260 -0.8261  0.0067  0.7695
 7828SOL     OW35116   1.226   2.035   5.065 -0.1781 -0.2472  0.0942
 7828SOL    HW135117   1.223   2.084   5.147  0.0846 -1.7797  1.0253
 7828SOL    HW235118   1.242   2.103   5.000  1.9456 -0.3285  0.5466
 7829SOL     OW35119   2.773   3.077   9.382  0.1878  0.0984  0.2555
 7829SOL    HW135120   2.772   3.115   9.295  0.0304 -0.2232  0.1184
 7829SOL    HW235121   2.835   3.007   9.366 -1.2180 -0.5099 -2.4481
 7830SOL     OW35122   0.092   0.609  13.987  0.1143  0.2327  0.3459
 7830SOL    HW135123   0.059   0.526  14.020  1.2456 -1.1657 -2.0293
 7830SOL    HW235124   0.007   0.644  13.962  0.2739  0.7956  0.5852
 7831SOL     OW35125   4.122   3.561   6.899  0.6011 -0.1659 -0.1670
 7831SOL    HW135126   4.048   3.508   6.868 -0.0838  0.9182 -0.3930
 7831SOL    HW235127   4.096   3.555   6.991 -3.7165  2.6964 -1.1891
 7832SOL     OW35128   4.659   3.711  10.784 -0.8055  0.1966 -0.1038
 7832SOL    HW135129   4.657   3.750  10.697  0.9656  1.3793  0.3934
 7832SOL    HW235130   0.017   3.699  10.795 -0.4784  1.4742 -1.5393
 7833SOL     OW35131   1.754   4.133  13.159  0.1722 -0.0282  0.2426
 7833SOL    HW135132   1.847   4.120  13.141 -0.0419 -1.5864  0.2069
 7833SOL    HW235133   1.731   4.052  13.205 -2.1400  1.4311  1.6048
 7834SOL     OW35134   3.767   4.272   3.532 -0.1805 -0.0276 -0.3189
 7834SOL    HW135135   3.751   4.366   3.536 -1.5958 -0.2668 -0.4459
 7834SOL    HW235136   3.801   4.256   3.444 -0.7935  0.7251 -0.6902
 7835SOL     OW35137   3.158   4.708   3.676 -0.4135 -0.3740 -0.1583
 7835SOL    HW135138   3.159   0.021   3.758 -1.4519  1.0545 -1.0141
 7835SOL    HW235139   3.065   4.684   3.677 -1.0087  1.9746  1.0046
 7836SOL     OW35140   0.585   1.689  12.150  0.0875 -0.2175  0.1402
 7836SOL    HW135141   0.512   1.713  12.207  1.1365 -0.6104  1.6455
 7836SOL    HW235142   0.647   1.750  12.189 -1.9416 -0.2129  3.3175
 7837SOL     OW35143   0.134   2.958  10.556  0.5910 -0.1136 -0.3150
 7837SOL    HW135144   0.119   3.012  10.634 -2.0212 -0.3098 -0.6758
 7837SOL    HW235145   0.203   3.005  10.508  0.9492  1.8525  2.1299
 7838SOL     OW35146   0.075   1.980   1.440 -0.4021 -0.3842  0.1273
 7838SOL    HW135147   0.073   1.993   1.346  0.4608  0.8007  0.2770
 7838SOL    HW235148   0.169   1.967   1.458  0.0589  3.2332  0.2453
 7839SOL     OW35149   1.202   3.162   7.881  0.5019 -0.4231  0.2545
 7839SOL    HW135150   1.249   3.170   7.965  1.7788 -0.5475 -0.4372
 7839SOL    HW235151   1.117   3.136   7.916  0.2117  1.6551  1.0882
 7840SOL     OW35152   1.416   3.014   8.988 -0.4456 -0.3438 -0.1025
 7840SOL    HW135153   1.451   3.065   8.914  1.5225 -0.6075  0.6274
 7840SOL    HW235154   1.377   3.089   9.033  2.0529  0.3709  0.8736
 7841SOL     OW35155   0.951   2.685   3.280 -0.0787  0.4402  0.2210
 7841SOL    HW135156   1.031   2.638   3.302  1.0145  1.4614 -1.5347
 7841SOL    HW235157   0.997   2.769   3.280 -0.4573  0.6499 -0.2843
 7842SOL     OW35158   2.081   0.479   4.005  0.3552 -0.1331  0.1494
 7842SOL    HW135159   2.019   0.516   3.942  0.8118 -0.9121 -0.7387
 7842SOL    HW235160   2.148   0.546   3.994  0.0009  0.2289  0.1718
 7843SOL     OW35161   2.927   4.531   4.762 -0.4321  0.4132  0.6826
 7843SOL    HW135162   2.917   4.534   4.667  0.3770  1.3057  0.6243
 7843SOL    HW235163   3.005   4.476   4.764 -1.2647 -0.7505  0.9856
 7844SOL     OW35164   3.737   2.700   4.325  0.0370  0.1805  0.0085
 7844SOL    HW135165   3.820   2.709   4.277 -0.0865 -1.4695 -0.5098
 7844SOL    HW235166   3.675   2.704   4.252 -2.0293  1.0342  1.8132
 7845SOL     OW35167   2.033   2.327   0.075  0.1925 -0.0329  0.3897
 7845SOL    HW135168   2.127   2.345   0.080  0.2388 -0.4448  0.9895
 7845SOL    HW235169   1.996   2.405   0.115 -0.5227  0.6646 -1.6154
 7846SOL     OW35170   3.369   4.542  14.538 -0.0261 -0.6495 -0.7700
 7846SOL    HW135171   3.353   4.449  14.526  0.4587 -0.3352 -3.8026
 7846SOL    HW235172   3.388   4.541  14.632 -1.1336 -0.9102 -0.5471
 7847SOL     OW35173   2.540   3.164   9.589 -0.2660  0.4897  0.0505
 7847SOL    HW135174   2.453   3.181   9.625  0.9491  1.7793  2.3759
 7847SOL    HW235175   2.590   3.190   9.666 -1.0859 -0.0527  0.7592
 7848SOL     OW35176   3.607   2.339   4.989 -0.2272 -0.2241  0.8556
 7848SOL    HW135177   3.571   2.252   4.969  2.6730 -1.1948 -0.0654
 7848SOL    HW235178   3.545   2.401   4.951  0.8869  1.0063  1.0378
 7849SOL     OW35179   0.495   3.859   2.445 -0.4375  0.1707  0.3572
 7849SOL    HW135180   0.431   3.929   2.429  2.9103  2.6852 -1.9047
 7849SOL    HW235181   0.485   3.793   2.377 -0.2289 -0.8129  1.2838
 7850SOL     OW35182   4.631   3.846   1.218  0.3763  0.0637  0.2745
 7850SOL    HW135183   4.582   3.881   1.292  1.0152  0.7927  0.3552
 7850SOL    HW235184   4.560   3.813   1.162 -0.3850  2.1812 -0.0003
 7851SOL     OW35185   0.307   0.840   8.698 -0.1145  0.3207 -0.5702
 7851SOL    HW135186   0.333   0.750   8.721  0.3841  0.1392 -1.8783
 7851SOL    HW235187   0.363   0.896   8.752  0.5694  1.3354 -2.3461
 7852SOL     OW35188   1.031   1.378   6.774 -0.3914  0.4789 -0.2933
 7852SOL    HW135189   1.048   1.451   6.834 -2.6992  1.5045 -0.8738
 7852SOL    HW235190   0.943   1.349   6.800 -0.1248 -1.1135 -1.1979
 7853SOL     OW35191   0.778   3.090   1.434 -0.6448  0.0990 -0.2609
 7853SOL    HW135192   0.690   3.121   1.455 -1.3571 -0.8915 -1.8146
 7853SOL    HW235193   0.831   3.164   1.464  0.5595 -1.1045  0.6325
 7854SOL     OW35194   1.299   0.918   3.723  0.0736 -0.0406  0.3520
 7854SOL    HW135195   1.299   0.942   3.816 -1.8789 -0.7532  0.5354
 7854SOL    HW235196   1.235   0.847   3.729  0.0905 -0.0701  0.1888
 7855SOL     OW35197   1.759   1.373   6.968 -0.2563  0.3058  0.3801
 7855SOL    HW135198   1.722   1.459   6.944  3.2977  1.8344  0.4638
 7855SOL    HW235199   1.698   1.319   6.918  0.2960 -1.9969  2.2159
 7856SOL     OW35200   2.383   1.502   2.976  0.2304  0.2293 -0.3129
 7856SOL    HW135201   2.296   1.472   2.948  0.1842 -2.3659  2.5438
 7856SOL    HW235202   2.423   1.495   2.890  1.2702  1.1229  0.1097
 7857SOL     OW35203   3.031   1.600   5.401 -0.3200  0.4335  0.1407
 7857SOL    HW135204   3.101   1.663   5.382 -0.8767  1.2548  0.8324
 7857SOL    HW235205   2.999   1.636   5.483  3.2321  2.8546  0.4702
 7858SOL     OW35206   0.748   1.965   5.814  0.5883  0.4420  0.2519
 7858SOL    HW135207   0.753   1.877   5.777 -1.3731  0.8052 -0.8980
 7858SOL    HW235208   0.779   2.015   5.739 -1.3097 -0.9693 -1.4704
 7859SOL     OW35209   0.978   4.091   1.035 -1.3793  0.2112 -0.9858
 7859SOL    HW135210   0.972   3.995   1.035  1.7639  0.0298  1.4627
 7859SOL    HW235211   0.998   4.106   1.127 -1.7656  0.4992 -0.9513
 7860SOL     OW35212   2.581   1.358   9.134  0.2653  0.0596  0.3369
 7860SOL    HW135213   2.596   1.308   9.214  0.7173  1.0008  0.8409
 7860SOL    HW235214   2.644   1.328   9.068  0.6519  1.5797  0.0012
 7861SOL     OW35215   2.075   1.409   8.811 -0.6578 -0.0754 -0.7218
 7861SOL    HW135216   2.123   1.430   8.892  0.8491 -0.0925 -1.6161
 7861SOL    HW235217   1.993   1.378   8.850  0.1739 -1.6738 -0.2373
 7862SOL     OW35218   2.170   1.020   3.179 -0.5874 -0.0628 -0.7619
 7862SOL    HW135219   2.216   0.950   3.131  0.0653  0.3378 -0.7127
 7862SOL    HW235220   2.105   0.971   3.230 -0.2397  0.2484 -0.0253
 7863SOL     OW35221   1.218   3.424   1.549 -0.6093 -0.4331 -0.3114
 7863SOL    HW135222   1.247   3.478   1.476 -1.4332 -0.5267 -0.7144
 7863SOL    HW235223   1.201   3.496   1.610  0.1928 -1.0904  0.6918
 7864SOL     OW35224   3.124   2.592   4.769  0.2838  0.2071 -0.4295
 7864SOL    HW135225   3.154   2.622   4.855  1.7908 -0.5636 -0.6737
 7864SOL    HW235226   3.162   2.505   4.755  3.5661  1.0501  3.0061
 7865SOL     OW35227   1.944   4.517   5.380  0.2624 -0.1519  0.3989
 7865SOL    HW135228   1.931   4.461   5.456  0.3872 -1.2632 -0.3895
 7865SOL    HW235229   1.858   4.510   5.338  0.1819  0.6560  0.4292
 7866SOL     OW35230   1.661   2.135   6.389 -0.4160  0.1382  1.0686
 7866SOL    HW135231   1.688   2.168   6.303 -1.5840 -1.4193  0.0869
 7866SOL    HW235232   1.642   2.215   6.437  2.7621 -0.0876  2.6658
 7867SOL     OW35233   0.214   3.373   7.038  0.0017  0.4040 -0.3009
 7867SOL    HW135234   0.150   3.330   7.093  0.5330 -0.8489 -0.6746
 7867SOL    HW235235   0.160   3.381   6.959 -2.1889  2.9262  1.4273
 7868SOL     OW35236   0.441   1.545   9.867 -0.0685  0.6818  0.8463
 7868SOL    HW135237   0.358   1.526   9.822  1.7025 -1.4243 -1.5646
 7868SOL    HW235238   0.430   1.623   9.921 -0.3240  2.2909 -1.5185
 7869SOL     OW35239   2.811   4.649   8.424  0.0623  0.8573  0.1858
 7869SOL    HW135240   2.737   4.675   8.369 -2.1336 -0.9133  2.3098
 7869SOL    HW235241   2.797   4.555   8.421  0.8678  0.7045  0.9537
 7870SOL     OW35242   3.504   4.612  13.198  0.9692  0.4309  0.3517
 7870SOL    HW135243   3.495   4.677  13.267  2.1561 -0.4951  1.3685
 7870SOL    HW235244   3.440   4.642  13.133  0.1715 -0.5026  0.7120
 7871SOL     OW35245   4.626   4.669   1.462  0.0562  0.0959 -0.2581
 7871SOL    HW135246   4.688   4.601   1.438  1.5612  1.4450 -0.1638
 7871SOL    HW235247   4.600   4.704   1.377 -1.5950  0.7611  0.5204
 7872SOL     OW35248   0.982   3.195  11.037 -0.5166  0.1640 -0.6398
 7872SOL    HW135249   0.942   3.195  10.950 -0.9179  0.9913 -0.4508
 7872SOL    HW235250   0.909   3.221  11.093 -0.5902 -0.5793 -0.3880
 7873SOL     OW35251   3.274   0.334  14.047  0.2896  0.5127 -0.1393
 7873SOL    HW135252   3.343   0.346  14.112 -0.2397 -0.2845  0.5666
 7873SOL    HW235253   3.328   0.319  13.969 -1.0515 -1.1362 -0.7373
 7874SOL     OW35254   3.564   2.955  11.918 -0.6124 -0.3058  0.1205
 7874SOL    HW135255   3.646   2.964  11.869 -1.1696 -1.1178 -0.9784
 7874SOL    HW235256   3.553   3.040  11.960  3.1242  0.5747 -0.7192
 7875SOL     OW35257   3.499   2.352  14.476  0.0383  0.0523  0.2856
 7875SOL    HW135258   3.442   2.394  14.540  2.8395 -0.0042  2.8044
 7875SOL    HW235259   3.575   2.329  14.531  1.1402  1.1073 -0.8022
 7876SOL     OW35260   2.300   3.491   7.808  0.3000 -0.3082  0.1131
 7876SOL    HW135261   2.286   3.398   7.788  0.0326  0.6997 -4.2281
 7876SOL    HW235262   2.354   3.480   7.886 -0.0221  2.3244  0.7048
 7877SOL     OW35263   0.942   4.471   6.385 -0.0071 -0.5289 -0.4161
 7877SOL    HW135264   0.950   4.541   6.449 -2.7265 -0.3425 -0.2786
 7877SOL    HW235265   0.867   4.420   6.417  1.3840 -1.4490  1.3314
 7878SOL     OW35266   4.464   3.742   7.072  0.2497 -0.4010  0.6279
 7878SOL    HW135267   4.431   3.803   7.138  1.8172  0.8930  0.2027
 7878SOL    HW235268   4.447   3.789   6.990  1.5358  2.8252  2.2091
 7879SOL     OW35269   0.890   1.852  16.012 -0.2054  0.5694 -0.1156
 7879SOL    HW135270   0.913   1.787  15.945  0.7151 -1.2091  1.9253
 7879SOL    HW235271   0.895   1.789  16.083  1.6991  2.2539  1.2559
 7880SOL     OW35272   0.721   3.109   9.825 -0.1186 -0.5700 -0.4372
 7880SOL    HW135273   0.781   3.161   9.878 -0.4993 -0.3541 -0.2183
 7880SOL    HW235274   0.658   3.176   9.800 -0.3240 -0.0374  1.5495
 7881SOL     OW35275   2.677   4.736   7.512 -0.6479  0.2061  0.3366
 7881SOL    HW135276   2.651   0.091   7.510 -1.5618 -0.0365  1.3434
 7881SOL    HW235277   2.771   0.012   7.529 -1.3508  1.3506  3.3807
 7882SOL     OW35278   4.635   1.906   1.858  0.1022 -0.1118  0.8819
 7882SOL    HW135279   4.543   1.912   1.885 -0.2144 -1.0272 -0.0077
 7882SOL    HW235280   4.641   1.993   1.818  0.5290 -1.4311 -1.9204
 7883SOL     OW35281   1.982   3.832   4.569 -0.6277 -0.3921  0.0601
 7883SOL    HW135282   1.904   3.781   4.591 -1.0155 -0.9441 -2.6707
 7883SOL    HW235283   2.056   3.776   4.588  0.5451  0.3346 -2.4056
 7884SOL     OW35284   1.668   0.059   8.944  0.3436 -0.1233 -0.2097
 7884SOL    HW135285   1.726   0.135   8.939 -1.2419  1.0998 -0.2038
 7884SOL    HW235286   1.603   0.093   8.883  0.8270  0.8262 -0.1935
 7885SOL     OW35287   2.810   2.396   8.286 -0.4030  0.5872 -0.0739
 7885SOL    HW135288   2.845   2.346   8.359 -1.8875 -1.7522 -0.9619
 7885SOL    HW235289   2.737   2.444   8.325 -2.0145 -1.7231 -0.2483
 7886SOL     OW35290   3.190   4.146   5.788 -0.1993 -0.2956 -0.1787
 7886SOL    HW135291   3.122   4.116   5.727 -0.2426 -0.6592  0.0539
 7886SOL    HW235292   3.234   4.219   5.744  0.5203 -1.0616 -0.7346
 7887SOL     OW35293   0.015   1.767  12.727  0.4055  0.0845 -0.0628
 7887SOL    HW135294   4.668   1.723  12.715 -0.2015  0.8139  1.4323
 7887SOL    HW235295   4.727   1.807  12.811  2.6733 -1.1710  1.2034
 7888SOL     OW35296   1.442   1.499   3.578 -0.5506  0.0361 -0.3107
 7888SOL    HW135297   1.452   1.475   3.486 -1.6211 -1.7506  0.0487
 7888SOL    HW235298   1.474   1.590   3.576 -0.8939  0.1442 -0.8918
 7889SOL     OW35299   0.107   0.783   7.115  0.3100 -0.5193  0.1044
 7889SOL    HW135300   0.126   0.707   7.170 -0.7432 -0.8989 -0.0446
 7889SOL    HW235301   0.188   0.801   7.068  0.3506 -3.5157 -0.9572
 7890SOL     OW35302   4.037   2.773  12.903 -0.7271  0.2455 -0.7246
 7890SOL    HW135303   3.972   2.794  12.836 -1.6685  1.0735  0.4467
 7890SOL    HW235304   4.042   2.851  12.958  0.8780  0.4256 -1.1309
 7891SOL     OW35305   1.244   0.787   8.958  0.6298  0.5469 -0.4454
 7891SOL    HW135306   1.295   0.862   8.990 -2.4605  1.3496  2.6552
 7891SOL    HW235307   1.230   0.809   8.865  0.3038 -1.1804 -0.7961
 7892SOL     OW35308   4.357   2.878   4.414  0.5249 -0.3164  0.8847
 7892SOL    HW135309   4.350   2.839   4.501 -1.5247  0.4168  1.0503
 7892SOL    HW235310   4.283   2.939   4.422 -0.6272 -1.6622  0.6675
 7893SOL     OW35311   0.672   2.414   4.048 -0.1332  0.2131 -0.2427
 7893SOL    HW135312   0.724   2.354   3.996 -2.0563 -2.5728  1.0670
 7893SOL    HW235313   0.587   2.371   4.057 -0.4232  0.7582 -0.3723
 7894SOL     OW35314   3.264   2.977   2.506  0.2041 -0.1253  0.1353
 7894SOL    HW135315   3.315   2.898   2.525 -2.0206 -1.8905 -1.3138
 7894SOL    HW235316   3.220   2.993   2.589 -0.9565  0.4165 -0.5878
 7895SOL     OW35317   2.885   2.823  16.736  0.1186 -0.1578 -0.3976
 7895SOL    HW135318   2.900   2.803  16.828 -1.8126 -0.3147 -0.1262
 7895SOL    HW235319   2.973   2.821  16.699  0.6367  0.1768  0.8202
 7896SOL     OW35320   1.161   3.613   1.746  0.1476 -0.0996 -0.2608
 7896SOL    HW135321   1.180   3.691   1.693 -2.6744 -0.2472 -1.5161
 7896SOL    HW235322   1.212   3.623   1.826 -0.2012  1.4561 -0.2206
 7897SOL     OW35323   0.735   2.415   1.643  0.1463 -0.1437  0.2667
 7897SOL    HW135324   0.798   2.434   1.712 -0.9284 -0.6128  1.3662
 7897SOL    HW235325   0.796   2.414   1.569  0.3279 -1.2118  0.4295
 7898SOL     OW35326   4.061   0.267  11.698  0.5407 -0.4593 -0.5209
 7898SOL    HW135327   4.023   0.183  11.725 -0.5559  1.5711  4.1915
 7898SOL    HW235328   4.156   0.252  11.701  0.4688 -1.2853 -2.1654
 7899SOL     OW35329   0.676   0.478   7.717  0.4551  0.0198  0.1185
 7899SOL    HW135330   0.705   0.400   7.765  3.4618 -0.1274 -1.8840
 7899SOL    HW235331   0.583   0.467   7.734  0.5988  0.9668  1.4940
 7900SOL     OW35332   1.755   4.098   6.395  0.1276 -0.0663 -0.2309
 7900SOL    HW135333   1.781   4.093   6.303 -0.0494  0.5687 -0.3144
 7900SOL    HW235334   1.808   4.177   6.408 -1.7973  0.9722  1.1920
 7901SOL     OW35335   3.565   2.702   0.311  0.1495  0.3830  0.3152
 7901SOL    HW135336   3.551   2.746   0.395 -1.4963 -0.5601  0.5308
 7901SOL    HW235337   3.606   2.616   0.320  0.9992  0.6276 -1.2972
 7902SOL     OW35338   3.958   3.444   0.382 -0.9221 -0.2669 -0.8551
 7902SOL    HW135339   3.949   3.467   0.289  0.1489 -1.4450 -1.2499
 7902SOL    HW235340   3.896   3.374   0.400  0.2776 -1.0328  0.2616
 7903SOL     OW35341   2.444   0.596   2.357  0.4512 -0.0004 -0.4585
 7903SOL    HW135342   2.441   0.681   2.313  0.1851 -0.6339 -1.6634
 7903SOL    HW235343   2.450   0.624   2.448 -4.9510  2.5113 -0.8519
 7904SOL     OW35344   0.132   1.458   6.244 -0.0360  0.2136  0.7242
 7904SOL    HW135345   0.152   1.432   6.154  0.8419 -0.7686  1.2080
 7904SOL    HW235346   0.171   1.386   6.294 -1.3416 -1.3355 -0.4807
 7905SOL     OW35347   3.947   3.075   4.099 -0.1301 -0.5583 -0.0989
 7905SOL    HW135348   4.021   3.074   4.159  0.1533 -0.9035 -0.4557
 7905SOL    HW235349   3.941   3.167   4.077  0.6560 -1.3795 -3.6372
 7906SOL     OW35350   1.693   1.600   2.856 -0.3703 -0.3592  0.1846
 7906SOL    HW135351   1.715   1.522   2.907  0.0062  0.4565  1.2812
 7906SOL    HW235352   1.696   1.570   2.765 -0.6484  1.0057 -0.2675
 7907SOL     OW35353   2.252   3.932  13.912  0.3549  0.5651  0.1310
 7907SOL    HW135354   2.251   3.876  13.834 -0.0611  0.7891 -0.0250
 7907SOL    HW235355   2.211   4.011  13.878 -0.4224  0.7256  1.4478
 7908SOL     OW35356   0.354   2.544   7.937 -0.0726  0.2387 -0.3876
 7908SOL    HW135357   0.308   2.626   7.917  2.0597  1.2507 -1.0644
 7908SOL    HW235358   0.351   2.548   8.033  0.3043  0.4752 -0.3861
 7909SOL     OW35359   4.169   2.415   3.335 -0.4039 -0.1133 -0.2202
 7909SOL    HW135360   4.175   2.341   3.274 -1.3216  1.0082 -1.6701
 7909SOL    HW235361   4.121   2.476   3.278 -0.8404  0.2156  0.5021
 7910SOL     OW35362   1.013   4.264  13.704  0.1353 -0.1135  0.0326
 7910SOL    HW135363   1.079   4.199  13.726 -0.5018 -0.4851  0.8730
 7910SOL    HW235364   1.048   4.307  13.626 -1.2897 -0.6338 -0.8961
 7911SOL     OW35365   1.919   1.456  14.389 -0.1944  0.1772  0.3442
 7911SOL    HW135366   1.958   1.380  14.432  0.6245  0.9652  0.9931
 7911SOL    HW235367   1.847   1.427  14.334  0.6544  1.8013 -1.6238
 7912SOL     OW35368   2.026   0.815   6.642 -0.0291  0.6608  0.3923
 7912SOL    HW135369   2.006   0.744   6.703  0.3244  1.5820  1.5750
 7912SOL    HW235370   2.114   0.833   6.674  0.9187  1.1268 -2.3977
 7913SOL     OW35371   2.258   2.839   4.939  0.1481 -0.3505 -0.2868
 7913SOL    HW135372   2.218   2.753   4.955  2.7586 -1.9861 -2.6590
 7913SOL    HW235373   2.185   2.897   4.960 -0.3676 -0.3145 -2.2526
 7914SOL     OW35374   0.298   4.444   8.761 -0.2394 -0.0167 -0.0951
 7914SOL    HW135375   0.288   4.516   8.823 -2.8624 -0.6423  0.1834
 7914SOL    HW235376   0.390   4.431   8.739 -0.5590 -0.0618 -1.4227
 7915SOL     OW35377   0.217   1.505   3.932 -0.2483  0.0138 -0.3214
 7915SOL    HW135378   0.234   1.430   3.988  2.4185  0.8378  0.0049
 7915SOL    HW235379   0.155   1.461   3.874 -0.4929 -0.7156  0.5079
 7916SOL     OW35380   1.954   2.192   6.534  0.0572 -0.4393 -0.2131
 7916SOL    HW135381   2.041   2.163   6.559  0.2810 -0.8403 -1.4627
 7916SOL    HW235382   1.918   2.103   6.529 -2.0933  0.4112 -0.0745
 7917SOL     OW35383   2.620   3.556   6.990 -0.0469 -0.1738 -0.3133
 7917SOL    HW135384   2.612   3.536   6.896 -1.8944  1.7894 -0.5547
 7917SOL    HW235385   2.531   3.582   7.012  0.6189  2.0282 -0.2524
 7918SOL     OW35386   4.073   0.812   6.162  0.1079 -0.4950  0.9117
 7918SOL    HW135387   4.121   0.886   6.124  2.3163 -1.7612  1.2403
 7918SOL    HW235388   4.135   0.740   6.154  0.1050 -0.5836  1.7165
 7919SOL     OW35389   0.740   0.570   5.202  0.5999  0.0185  0.1258
 7919SOL    HW135390   0.744   0.568   5.106  0.8216 -0.0421  0.1362
 7919SOL    HW235391   0.826   0.542   5.234  0.9775  0.4200 -0.5406
 7920SOL     OW35392   2.937   2.045  10.495 -0.0842 -0.1931  0.1504
 7920SOL    HW135393   2.905   1.961  10.461  0.4680  0.2947 -1.5819
 7920SOL    HW235394   3.028   2.017  10.506 -0.0836 -0.4182 -0.4177
 7921SOL     OW35395   4.145   0.529   1.768 -0.6190  0.4422 -0.4760
 7921SOL    HW135396   4.222   0.473   1.755 -1.2771 -0.0615 -2.1776
 7921SOL    HW235397   4.096   0.493   1.694  2.8049 -2.3701 -1.3705
 7922SOL     OW35398   0.824   2.199  17.380  0.0084 -0.1734  0.1194
 7922SOL    HW135399   0.765   2.273  17.399 -0.7258 -0.6824 -0.1660
 7922SOL    HW235400   0.785   2.132  17.436  0.4356  0.9673  1.7873
 7923SOL     OW35401   0.125   3.261   8.070 -0.4976 -0.4101  0.0805
 7923SOL    HW135402   0.206   3.270   8.020  1.1394 -2.0817  2.4500
 7923SOL    HW235403   0.134   3.336   8.129 -2.8548  0.0604 -0.1388
 7924SOL     OW35404   3.501   3.938  12.482  0.4245 -0.3113  0.2382
 7924SOL    HW135405   3.415   3.907  12.509 -0.6990  2.4332 -0.1929
 7924SOL    HW235406   3.530   3.856  12.440  0.3056 -0.2561  0.0496
 7925SOL     OW35407   4.673   3.540   7.082  0.5951 -0.1246  0.4635
 7925SOL    HW135408   4.725   3.567   7.157 -1.2268 -0.2886  1.7980
 7925SOL    HW235409   4.600   3.603   7.083  0.4925 -0.2816  2.2762
 7926SOL     OW35410   3.342   0.002   6.713 -0.0938 -0.1879 -0.1744
 7926SOL    HW135411   3.318   0.006   6.620 -0.3872  0.5195 -0.0703
 7926SOL    HW235412   3.433   0.030   6.718 -0.7160  1.6670  0.8347
 7927SOL     OW35413   2.359   0.395   5.053 -0.0307 -0.3761  0.4939
 7927SOL    HW135414   2.378   0.304   5.028  0.8248  0.4197 -1.7548
 7927SOL    HW235415   2.404   0.404   5.137  1.8436  0.1855 -0.5608
 7928SOL     OW35416   3.556   0.894   1.421  0.1361 -0.0175  0.5726
 7928SOL    HW135417   3.573   0.905   1.514 -0.5669 -2.3771  0.9654
 7928SOL    HW235418   3.630   0.949   1.395  0.1767 -0.8874 -1.1945
 7929SOL     OW35419   0.418   3.286   3.080 -0.1968 -0.2847  0.1144
 7929SOL    HW135420   0.476   3.257   3.149  1.8038  1.6067 -0.7696
 7929SOL    HW235421   0.335   3.239   3.091 -1.3309  1.4021 -1.1591
 7930SOL     OW35422   1.543   3.279   1.556 -0.1199  0.3061 -0.2141
 7930SOL    HW135423   1.511   3.366   1.580 -0.6230  0.3143 -0.9074
 7930SOL    HW235424   1.460   3.234   1.544  0.2522 -0.2425 -0.7669
 7931SOL     OW35425   1.997   3.209   3.597 -0.1724  0.1751 -0.0363
 7931SOL    HW135426   2.036   3.294   3.617  1.2431 -0.4586 -0.0831
 7931SOL    HW235427   2.052   3.152   3.650 -1.8397  0.1627  1.6812
 7932SOL     OW35428   1.871   4.175   7.791 -0.0189  0.1525 -0.1063
 7932SOL    HW135429   1.941   4.210   7.846 -1.5545 -0.2660  2.1071
 7932SOL    HW235430   1.800   4.215   7.842 -1.4258 -0.9167 -1.2160
 7933SOL     OW35431   3.906   4.679   3.357 -0.6364  0.2763 -0.0931
 7933SOL    HW135432   3.873   0.030   3.341  0.9100  0.9462  0.3625
 7933SOL    HW235433   3.962   4.694   3.433 -1.7864  2.2397  0.3450
 7934SOL     OW35434   1.743   2.227  10.362 -0.5664  0.7811 -0.0964
 7934SOL    HW135435   1.720   2.269  10.444  0.5159 -0.6624  0.9466
 7934SOL    HW235436   1.832   2.208  10.390 -1.3939 -2.0952  0.6477
 7935SOL     OW35437   2.007   2.764   0.626 -0.0939 -0.5337 -0.0352
 7935SOL    HW135438   1.986   2.673   0.647 -0.1714 -0.6041 -0.4170
 7935SOL    HW235439   1.982   2.775   0.534 -2.0037  3.7535  0.9646
 7936SOL     OW35440   1.852   2.369   9.136 -0.0148 -0.0764 -0.7160
 7936SOL    HW135441   1.882   2.330   9.054  2.9553 -0.6952  0.6765
 7936SOL    HW235442   1.758   2.365   9.119 -0.4346  0.3331  1.5544
 7937SOL     OW35443   3.684   3.147   8.901 -0.3274 -0.4230  0.2485
 7937SOL    HW135444   3.739   3.082   8.945  1.4716 -0.0127 -1.3808
 7937SOL    HW235445   3.694   3.119   8.810  0.6930  2.4069 -0.4860
 7938SOL     OW35446   2.996   3.738   4.716  0.6740 -0.4098  0.1405
 7938SOL    HW135447   3.031   3.779   4.795  1.2248  1.7393 -1.2389
 7938SOL    HW235448   2.915   3.782   4.690  0.7352 -0.0308  0.5935
 7939SOL     OW35449   3.714   1.540   4.897  0.4056  0.4175  0.6744
 7939SOL    HW135450   3.749   1.557   4.985 -2.5637  0.4219  1.8688
 7939SOL    HW235451   3.792   1.553   4.843 -1.1655  0.5671 -1.5272
 7940SOL     OW35452   0.366   4.052   5.498 -0.2264 -0.4261 -0.1609
 7940SOL    HW135453   0.409   3.997   5.562  1.8987  0.0428 -1.1945
 7940SOL    HW235454   0.441   4.062   5.439 -1.8667  2.0498 -1.8317
 7941SOL     OW35455   1.634   3.901  10.253 -0.3777  0.6400  0.2099
 7941SOL    HW135456   1.542   3.893  10.278 -0.7453  0.6224 -1.1106
 7941SOL    HW235457   1.658   3.993  10.257 -0.3399  0.6006  0.7846
 7942SOL     OW35458   3.176   0.816  13.340 -0.6778  0.2954 -0.0670
 7942SOL    HW135459   3.170   0.793  13.433  0.5827  2.1652  0.4678
 7942SOL    HW235460   3.122   0.894  13.345 -2.9986 -1.4510  2.1120
 7943SOL     OW35461   1.625   1.257  15.204  0.4972  0.1527 -0.0326
 7943SOL    HW135462   1.710   1.215  15.191  0.6026  0.2221  0.4038
 7943SOL    HW235463   1.631   1.265  15.300 -1.6890 -1.0567  0.2033
 7944SOL     OW35464   4.679   4.679   9.658 -0.0064 -0.3508  0.1741
 7944SOL    HW135465   4.643   4.655   9.744  0.7917  0.6977  0.8013
 7944SOL    HW235466   4.627   0.014   9.622  0.5793 -0.0807 -0.1304
 7945SOL     OW35467   0.382   2.721  17.587  0.1798  0.2363 -0.2304
 7945SOL    HW135468   0.386   2.807  17.630 -0.2085  0.0970  0.0844
 7945SOL    HW235469   0.473   2.699  17.569  0.3893  0.9243 -0.0193
 7946SOL     OW35470   3.059   0.393   3.031 -0.0730 -0.4841  0.5026
 7946SOL    HW135471   3.060   0.483   2.998 -2.0401 -0.4485  0.5536
 7946SOL    HW235472   3.152   0.369   3.024 -0.9069 -3.1600 -1.1508
 7947SOL     OW35473   1.851   3.177   2.926 -0.2094  0.4854  0.2664
 7947SOL    HW135474   1.883   3.121   2.855 -0.0671  1.5121 -0.4795
 7947SOL    HW235475   1.762   3.143   2.934  0.2544 -1.0984 -1.1452
 7948SOL     OW35476   2.608   2.991   1.916  0.5207  0.1695 -0.1207
 7948SOL    HW135477   2.613   3.014   1.823 -0.5490  1.6479  0.1798
 7948SOL    HW235478   2.643   3.075   1.948 -0.0465  0.1218  0.6194
 7949SOL     OW35479   0.610   0.317   7.156 -0.3830 -0.0312  0.0701
 7949SOL    HW135480   0.544   0.383   7.177  1.0334  1.3501  0.1885
 7949SOL    HW235481   0.587   0.233   7.196 -4.0724 -0.1746 -2.2602
 7950SOL     OW35482   3.537   4.247   8.226  0.2559 -0.0206 -0.0310
 7950SOL    HW135483   3.500   4.335   8.224  2.6531  0.9388 -1.5436
 7950SOL    HW235484   3.560   4.233   8.319 -0.9437 -0.2712  0.2305
 7951SOL     OW35485   1.951   3.892  14.225  0.3515  0.7637  0.0786
 7951SOL    HW135486   1.982   3.811  14.184  2.6592  1.8223 -0.2481
 7951SOL    HW235487   1.916   3.944  14.152 -1.2420  0.4793  0.6386
 7952SOL     OW35488   1.792   1.502   8.352 -0.1991  0.1137  0.4639
 7952SOL    HW135489   1.807   1.592   8.323  0.5393  0.4674  1.9493
 7952SOL    HW235490   1.807   1.448   8.275 -1.2174 -0.4452  0.6581
 7953SOL     OW35491   2.267   4.244   3.346 -0.1868 -0.2059 -0.0106
 7953SOL    HW135492   2.225   4.312   3.400 -2.1729 -0.6948 -0.9427
 7953SOL    HW235493   2.188   4.192   3.331 -0.3281  0.9369 -3.2007
 7954SOL     OW35494   3.284   3.473  10.568  0.2113  0.1127  0.1506
 7954SOL    HW135495   3.342   3.400  10.587  2.1894  1.1928 -1.8753
 7954SOL    HW235496   3.203   3.424  10.582  1.2949 -1.2094  1.8135
 7955SOL     OW35497   1.983   4.542   5.068  0.1361 -0.7839 -0.9686
 7955SOL    HW135498   1.975   4.637   5.071 -1.5052 -1.0354  2.3087
 7955SOL    HW235499   2.008   4.526   5.159 -3.1764 -0.2589  0.0576
 7956SOL     OW35500   2.539   2.096   6.071 -0.1491  0.3748 -0.5209
 7956SOL    HW135501   2.630   2.091   6.099 -0.8269 -0.2400  1.5550
 7956SOL    HW235502   2.506   2.008   6.087 -0.5480  0.7292  0.6078
 7957SOL     OW35503   3.345   2.179   1.625  0.4687 -0.5228  0.1024
 7957SOL    HW135504   3.253   2.157   1.640  0.0504  0.4004 -1.0453
 7957SOL    HW235505   3.379   2.094   1.598  0.4327 -0.4631 -0.1346
 7958SOL     OW35506   3.198   2.304   5.003 -0.2100  0.0895  0.1834
 7958SOL    HW135507   3.205   2.209   4.989 -1.6530 -0.1631  1.1728
 7958SOL    HW235508   3.220   2.331   4.914  0.1934  1.1507  0.6011
 7959SOL     OW35509   2.737   1.058   2.002  0.5037 -0.2135 -0.3556
 7959SOL    HW135510   2.728   1.138   2.054  1.1560 -1.2654  1.3554
 7959SOL    HW235511   2.700   0.995   2.064  0.1412 -0.4422 -0.8024
 7960SOL     OW35512   1.597   3.334   2.146 -0.6001 -0.7271  0.3977
 7960SOL    HW135513   1.680   3.327   2.099  0.1576  0.9981  1.4575
 7960SOL    HW235514   1.580   3.429   2.144 -1.2419 -0.8256  0.9458
 7961SOL     OW35515   4.432   2.586   5.307 -0.4075  0.0373 -0.1119
 7961SOL    HW135516   4.340   2.575   5.282 -0.3556 -2.6206  0.8574
 7961SOL    HW235517   4.439   2.682   5.309  1.3856 -0.1072  0.0082
 7962SOL     OW35518   0.695   3.051   4.890  0.1485  0.1515 -0.2876
 7962SOL    HW135519   0.692   2.969   4.840 -1.6754 -1.0865  1.8168
 7962SOL    HW235520   0.611   3.086   4.859  0.0576 -1.8289 -2.2645
 7963SOL     OW35521   0.708   3.129   1.938 -0.3565  0.1813  0.1106
 7963SOL    HW135522   0.650   3.077   1.993  1.5170 -1.7480  0.2249
 7963SOL    HW235523   0.699   3.212   1.985 -0.2077 -0.4052  1.1540
 7964SOL     OW35524   1.590   4.615   1.354 -0.4658 -0.0326  0.0020
 7964SOL    HW135525   1.662   4.677   1.346 -0.5259 -0.1667 -1.6543
 7964SOL    HW235526   1.559   4.618   1.263  2.4184  0.0854 -0.9696
 7965SOL     OW35527   1.929   4.466  10.853  0.6373 -0.1247 -0.5555
 7965SOL    HW135528   1.976   4.383  10.842  0.7871 -0.1531  0.3217
 7965SOL    HW235529   1.893   4.454  10.941  2.5909  0.0078  0.2533
 7966SOL     OW35530   0.330   2.810  12.204 -0.1118 -0.5028 -0.9092
 7966SOL    HW135531   0.285   2.874  12.150 -4.1616 -0.9526  1.9145
 7966SOL    HW235532   0.322   2.849  12.291 -0.4945 -0.3765 -1.0007
 7967SOL     OW35533   4.040   1.295  15.955 -0.3838 -0.1531 -0.4258
 7967SOL    HW135534   4.109   1.255  15.901  1.1223  1.9311 -0.0197
 7967SOL    HW235535   4.020   1.214  16.002  1.3571 -1.2252 -1.5336
 7968SOL     OW35536   1.339   2.118   3.369 -0.3415  0.4869 -0.0144
 7968SOL    HW135537   1.429   2.150   3.366 -0.2336  0.0406 -1.6188
 7968SOL    HW235538   1.320   2.156   3.454  0.3358 -1.3010  0.9397
 7969SOL     OW35539   1.277   3.070   9.296 -0.2258 -0.2763  0.4217
 7969SOL    HW135540   1.188   3.104   9.281 -0.2847 -1.1008 -1.0644
 7969SOL    HW235541   1.324   3.143   9.336 -2.1649  0.6659  1.0100
 7970SOL     OW35542   3.072   1.791   4.246 -0.3159 -0.2198 -0.1861
 7970SOL    HW135543   3.134   1.719   4.233  1.4545  1.1006  0.9744
 7970SOL    HW235544   3.046   1.800   4.154 -0.9557 -0.5877 -0.0402
 7971SOL     OW35545   2.842   4.164   4.731 -0.0996 -0.3922  0.8799
 7971SOL    HW135546   2.780   4.092   4.724 -2.4081  1.6715  0.2623
 7971SOL    HW235547   2.790   4.234   4.769 -1.5427 -1.2353  0.4610
 7972SOL     OW35548   1.147   4.101   5.221  0.3394  0.2960  0.4620
 7972SOL    HW135549   1.215   4.157   5.260  0.2982 -0.0304  1.0087
 7972SOL    HW235550   1.196   4.034   5.174 -0.7709 -1.3849  1.6821
 7973SOL     OW35551   3.723   1.186   8.210 -0.4304  0.6573 -0.2774
 7973SOL    HW135552   3.704   1.199   8.303  0.5187  0.2398 -0.0289
 7973SOL    HW235553   3.643   1.214   8.165 -0.4224  0.1702 -0.5924
 7974SOL     OW35554   0.111   2.059   2.232  0.1246  0.0026 -0.3702
 7974SOL    HW135555   0.118   2.154   2.228  0.9836 -0.0696 -0.4794
 7974SOL    HW235556   0.198   2.030   2.257 -0.5871 -3.6171 -2.0618
 7975SOL     OW35557   2.120   1.845   8.395  0.7211 -0.0904 -0.3846
 7975SOL    HW135558   2.035   1.807   8.417  1.2203 -0.4417  0.9248
 7975SOL    HW235559   2.122   1.921   8.453  0.0028 -0.7328  0.4729
 7976SOL     OW35560   2.081   3.647   6.193  0.5059 -0.3792  0.4390
 7976SOL    HW135561   2.054   3.615   6.279  2.4533 -1.3012  0.7181
 7976SOL    HW235562   2.173   3.672   6.208 -0.1369  1.4047  1.4428
 7977SOL     OW35563   1.893   3.752   7.686 -0.1724  0.8086 -0.0942
 7977SOL    HW135564   1.969   3.701   7.656 -0.5207  0.4068 -0.2946
 7977SOL    HW235565   1.922   3.775   7.775  0.2602  2.1289 -0.5921
 7978SOL     OW35566   3.515   3.875  11.104 -0.4268  0.0641 -0.7215
 7978SOL    HW135567   3.444   3.823  11.065 -0.4935 -1.0795  0.9056
 7978SOL    HW235568   3.502   3.853  11.196 -1.2573  1.3390 -0.5291
 7979SOL     OW35569   0.667   0.452  12.407 -0.1534 -0.0707  0.4460
 7979SOL    HW135570   0.703   0.396  12.337 -2.5612 -1.7123  0.5229
 7979SOL    HW235571   0.748   0.485  12.446  0.0900  0.6597 -0.6679
 7980SOL     OW35572   4.273   4.412  17.515 -0.0258  0.3018  0.0843
 7980SOL    HW135573   4.223   4.351  17.460  1.6181 -1.3846  0.4600
 7980SOL    HW235574   4.318   4.466  17.450 -0.7898  1.8495  0.8438
 7981SOL     OW35575   2.601   1.845   5.144  0.1836  0.1524 -0.1392
 7981SOL    HW135576   2.695   1.826   5.139 -0.0103 -0.2624 -2.1876
 7981SOL    HW235577   2.612   1.917   5.206  2.2704  2.4153 -3.1409
 7982SOL     OW35578   3.714   2.478   0.353  0.3333  0.4879  0.6873
 7982SOL    HW135579   3.796   2.517   0.324  0.3172  0.1114  0.1452
 7982SOL    HW235580   3.736   2.385   0.361  0.1388  0.2993 -1.1717
 7983SOL     OW35581   2.540   1.360   8.847 -0.4471  0.7309  0.0188
 7983SOL    HW135582   2.544   1.451   8.879 -1.5767  0.6829  0.2862
 7983SOL    HW235583   2.632   1.344   8.829 -0.6400 -0.4084  0.0656
 7984SOL     OW35584   2.385   0.124   1.967 -0.4771 -0.6264  0.1815
 7984SOL    HW135585   2.348   0.129   1.879  2.2331  1.1302 -0.8693
 7984SOL    HW235586   2.375   0.029   1.976 -1.8719 -0.5582 -0.5649
 7985SOL     OW35587   4.523   1.221  11.572  0.3928  0.1804  0.3381
 7985SOL    HW135588   4.596   1.185  11.622  1.0976  1.4625  0.2397
 7985SOL    HW235589   4.480   1.268  11.643 -1.3419 -1.6109  0.4664
 7986SOL     OW35590   3.811   3.373   9.444  0.0382 -0.0782 -0.2470
 7986SOL    HW135591   3.728   3.380   9.396 -1.4205 -0.7304  2.2059
 7986SOL    HW235592   3.869   3.409   9.377  0.4262  1.7394  1.0529
 7987SOL     OW35593   2.394   1.980  12.132 -0.5117  0.4217  0.6023
 7987SOL    HW135594   2.307   1.967  12.095 -0.2313  0.3947 -0.0431
 7987SOL    HW235595   2.443   1.902  12.106 -0.9070 -0.5730  2.8372
 7988SOL     OW35596   3.110   0.701   1.517 -0.1731  0.6396  0.1393
 7988SOL    HW135597   3.161   0.643   1.574 -0.3594  0.0550 -0.3000
 7988SOL    HW235598   3.019   0.675   1.531  0.0266 -0.2813 -0.2828
 7989SOL     OW35599   2.341   1.207   6.888 -0.0941  0.4572  0.1156
 7989SOL    HW135600   2.420   1.257   6.909  0.2778  0.6387 -1.7980
 7989SOL    HW235601   2.275   1.275   6.876  0.2002  0.7366  0.0810
 7990SOL     OW35602   1.930   3.710   4.224 -0.3297 -0.1573 -0.0844
 7990SOL    HW135603   1.897   3.650   4.291 -0.0881  1.2400  1.2872
 7990SOL    HW235604   1.980   3.656   4.163  0.5823 -0.7766  1.2258
 7991SOL     OW35605   0.756   2.184   6.215 -0.5572 -0.1438 -0.7696
 7991SOL    HW135606   0.777   2.276   6.199 -0.3425 -0.0223  0.2429
 7991SOL    HW235607   0.670   2.177   6.174 -1.0312  1.3315 -0.0382
 7992SOL     OW35608   2.224   1.482   5.676 -0.1963 -0.5490  0.5483
 7992SOL    HW135609   2.133   1.506   5.658  0.3895  0.6106 -0.8771
 7992SOL    HW235610   2.245   1.529   5.757 -0.9710  3.8164 -1.7665
 7993SOL     OW35611   4.224   1.466   6.680  0.4271 -0.6690 -0.9099
 7993SOL    HW135612   4.232   1.529   6.752 -0.8713  0.3944 -1.6876
 7993SOL    HW235613   4.183   1.389   6.718  0.9210 -0.2245  0.5233
 7994SOL     OW35614   3.150   2.334  12.829 -0.0840 -0.3421  0.4051
 7994SOL    HW135615   3.157   2.409  12.888 -0.0916  0.9119 -1.1845
 7994SOL    HW235616   3.087   2.357  12.760  0.1963 -1.9934 -0.4085
 7995SOL     OW35617   1.397   1.130   3.420 -0.0899  0.0418 -0.5942
 7995SOL    HW135618   1.430   1.168   3.501 -2.5213 -1.6901  1.1869
 7995SOL    HW235619   1.423   1.038   3.424  0.6890  0.2388 -1.0194
 7996SOL     OW35620   3.284   1.955   4.289 -0.1543  0.7901 -0.7266
 7996SOL    HW135621   3.203   1.910   4.264 -1.1338  1.2696  1.6022
 7996SOL    HW235622   3.280   1.939   4.383  0.0217 -1.5022 -1.1111
 7997SOL     OW35623   0.389   3.278  10.031 -0.0574  0.5224  0.2668
 7997SOL    HW135624   0.360   3.187  10.023 -4.8103  2.0476 -0.0011
 7997SOL    HW235625   0.445   3.278  10.109  0.6356  2.0416 -0.2217
 7998SOL     OW35626   3.064   4.291  10.554  0.0081  0.0018  0.6459
 7998SOL    HW135627   3.075   4.269  10.646 -2.4261 -0.9561  0.6979
 7998SOL    HW235628   3.146   4.333  10.528 -0.4034 -0.9250 -2.1765
 7999SOL     OW35629   0.769   3.137   0.470  0.5323 -0.7606  0.1763
 7999SOL    HW135630   0.771   3.063   0.410  0.0561  1.3587 -2.4552
 7999SOL    HW235631   0.729   3.085   0.539  0.8714 -0.6379  0.4645
 8000SOL     OW35632   1.583   1.934  10.588 -0.2971 -0.5876  0.4418
 8000SOL    HW135633   1.659   1.941  10.531 -1.5146 -0.3838 -1.1496
 8000SOL    HW235634   1.507   1.945  10.531  0.3378  1.0690 -0.0641
 8001SOL     OW35635   1.909   3.840  10.356  0.5524 -0.0955  0.1142
 8001SOL    HW135636   1.851   3.869  10.285  0.5359  1.4216  0.7539
 8001SOL    HW235637   1.854   3.841  10.434  0.7897  0.7178  0.2734
 8002SOL     OW35638   2.970   0.164   7.597  0.6576 -0.0833 -0.4814
 8002SOL    HW135639   2.947   0.131   7.683 -1.1240  1.4887 -0.3507
 8002SOL    HW235640   2.961   0.083   7.547 -0.6064 -0.2444  0.0047
 8003SOL     OW35641   3.737   3.922   4.836  0.7659 -0.5522  0.0101
 8003SOL    HW135642   3.749   3.939   4.742  2.0652  0.4930  0.3691
 8003SOL    HW235643   3.717   4.005   4.879  0.5039 -0.1830 -0.8102
 8004SOL     OW35644   2.422   0.476   6.776 -0.2692 -0.3607 -0.6089
 8004SOL    HW135645   2.471   0.394   6.779  0.8230  0.3500  0.9380
 8004SOL    HW235646   2.382   0.472   6.863 -0.5587 -0.3792 -0.7423
 8005SOL     OW35647   3.079   2.570  17.399 -0.2376 -0.0924 -0.6784
 8005SOL    HW135648   3.059   2.657  17.366  1.2804  1.2894  2.0392
 8005SOL    HW235649   3.027   2.521  17.335  1.3114 -0.1555 -1.8691
 8006SOL     OW35650   1.109   0.945   6.702 -0.1978  0.3228  0.2166
 8006SOL    HW135651   1.146   0.972   6.786 -1.6495 -0.1261  0.9926
 8006SOL    HW235652   1.133   1.022   6.651 -1.8427  1.1014  0.6103
 8007SOL     OW35653   1.902   4.132   8.187 -0.1242  0.2464  0.1854
 8007SOL    HW135654   1.892   4.123   8.282 -0.4759 -0.3482  0.0903
 8007SOL    HW235655   1.834   4.082   8.141 -0.7173  0.5946  0.6742
 8008SOL     OW35656   2.488   1.710  12.142  0.1987 -0.2169  0.1427
 8008SOL    HW135657   2.463   1.698  12.051  0.0964  3.6298 -0.3034
 8008SOL    HW235658   2.583   1.705  12.131  0.5700  4.7445  1.1856
 8009SOL     OW35659   1.818   0.029   7.098 -0.3687 -0.1041  0.8115
 8009SOL    HW135660   1.758   4.723   7.037 -1.4259  2.2711  0.1934
 8009SOL    HW235661   1.805   0.122   7.083 -3.7221 -0.9969 -1.8226
 8010SOL     OW35662   0.427   1.007   2.566  0.4587  0.5791  0.7486
 8010SOL    HW135663   0.453   0.926   2.521 -1.0493 -0.0766  1.0393
 8010SOL    HW235664   0.332   1.013   2.578  0.1933 -0.0784 -0.9480
 8011SOL     OW35665   2.431   2.906   4.264  0.0779  0.0447 -0.2363
 8011SOL    HW135666   2.503   2.842   4.263  0.1064  0.0758 -0.0145
 8011SOL    HW235667   2.434   2.924   4.358 -0.9011  1.7607 -0.5308
 8012SOL     OW35668   0.452   0.535  15.740 -0.0277  0.4786  1.0046
 8012SOL    HW135669   0.382   0.482  15.778 -1.8393  2.4564  0.4590
 8012SOL    HW235670   0.416   0.543  15.652  0.1790  1.0114  0.9656
 8013SOL     OW35671   2.120   1.072   4.221  0.5052  0.6033 -0.1831
 8013SOL    HW135672   2.182   1.006   4.188  0.3742  0.8021 -0.8358
 8013SOL    HW235673   2.038   1.053   4.176 -0.1664  2.0124  0.4547
 8014SOL     OW35674   1.928   1.841   4.585  0.2565  0.0723  0.9978
 8014SOL    HW135675   1.946   1.760   4.632  1.9579  0.1284  0.4566
 8014SOL    HW235676   1.971   1.906   4.641 -1.2444  0.3966  1.7763
 8015SOL     OW35677   1.120   3.133   6.034  0.5289  0.7936  0.1113
 8015SOL    HW135678   1.117   3.059   5.973 -0.3328  0.6841  0.2763
 8015SOL    HW235679   1.197   3.177   5.999 -1.1417  4.0775  0.6164
 8016SOL     OW35680   2.421   0.778   9.962  0.2480  0.7222  0.3428
 8016SOL    HW135681   2.514   0.764   9.944 -0.3578  0.3053 -2.4553
 8016SOL    HW235682   2.420   0.869   9.991 -0.6592  0.9620 -0.4506
 8017SOL     OW35683   0.499   3.836   4.828 -0.0224  0.4010 -0.0559
 8017SOL    HW135684   0.569   3.850   4.764  0.9333 -1.0498  0.6797
 8017SOL    HW235685   0.482   3.742   4.829 -1.3107  0.6071 -1.6411
 8018SOL     OW35686   4.451   0.151  11.990  0.8231 -0.1171  0.1415
 8018SOL    HW135687   4.476   0.225  11.935 -0.0284  0.1904  0.1753
 8018SOL    HW235688   4.369   0.185  12.023  0.8632 -0.2172  0.3448
 8019SOL     OW35689   0.882   4.445  13.005 -0.3769  0.3986 -0.0379
 8019SOL    HW135690   0.887   4.408  13.093  0.5536  1.6139  0.4358
 8019SOL    HW235691   0.788   4.444  12.991 -0.5505 -0.2261  1.1485
 8020SOL     OW35692   4.294   0.798  10.640 -0.2962  0.0648  0.1314
 8020SOL    HW135693   4.285   0.771  10.548 -0.7269 -1.7957  0.7142
 8020SOL    HW235694   4.297   0.716  10.689  4.5010  1.0896  1.6046
 8021SOL     OW35695   3.411   1.303   8.796  0.6907  0.4233 -0.3553
 8021SOL    HW135696   3.440   1.390   8.822  0.3827  0.8922 -1.6131
 8021SOL    HW235697   3.423   1.301   8.701 -1.2954 -0.4471 -0.5801
 8022SOL     OW35698   3.805   3.039   2.763 -0.0725  0.3042 -0.1180
 8022SOL    HW135699   3.780   2.991   2.842 -2.0404  0.8543 -0.4119
 8022SOL    HW235700   3.726   3.093   2.761 -0.1372  0.1559 -1.2855
 8023SOL     OW35701   4.051   0.479  15.807  0.1236 -0.5490  0.0632
 8023SOL    HW135702   4.077   0.387  15.811  2.7492  0.0939 -2.1076
 8023SOL    HW235703   4.128   0.508  15.758  1.3181 -0.8313  1.7524
 8024SOL     OW35704   0.490   0.251   2.054 -0.2924 -0.4694 -0.6509
 8024SOL    HW135705   0.516   0.249   1.962 -1.0648 -0.0755 -0.8790
 8024SOL    HW235706   0.536   0.333   2.072 -0.3619 -0.3101 -1.2076
 8025SOL     OW35707   2.664   3.347   2.826  0.2683 -0.2381  0.9668
 8025SOL    HW135708   2.652   3.348   2.921 -1.3295 -3.9558  0.8306
 8025SOL    HW235709   2.667   3.441   2.809 -0.3012  0.0672  2.6186
 8026SOL     OW35710   1.965   3.623  17.521  0.0917 -0.6442 -0.2256
 8026SOL    HW135711   2.040   3.615  17.462  1.6258  0.0814  1.5962
 8026SOL    HW235712   1.898   3.612  17.454  0.1402  0.5717 -0.4839
 8027SOL     OW35713   4.248   4.149  13.127 -0.5273 -0.3403 -0.7435
 8027SOL    HW135714   4.333   4.107  13.134 -1.1679 -1.7499 -1.4665
 8027SOL    HW235715   4.258   4.199  13.046  1.5815  0.9639  0.3230
 8028SOL     OW35716   3.794   3.850   7.045 -0.0093  0.3742  0.7438
 8028SOL    HW135717   3.773   3.761   7.072 -4.8223  1.4202  0.4415
 8028SOL    HW235718   3.717   3.865   6.990  0.3314 -3.0361 -0.6451
 8029SOL     OW35719   2.539   3.750  12.769  0.4193 -0.2333  0.1313
 8029SOL    HW135720   2.586   3.702  12.837 -0.8767  1.3544  2.1501
 8029SOL    HW235721   2.605   3.762  12.701  1.0734 -3.2139  0.2545
 8030SOL     OW35722   0.326   2.237   2.687  0.5567 -0.1925  0.1171
 8030SOL    HW135723   0.370   2.153   2.684  0.7056 -0.0441 -1.8411
 8030SOL    HW235724   0.357   2.255   2.776  0.3141 -0.6401  0.2907
 8031SOL     OW35725   3.057   4.449   1.449 -0.4864  0.1560 -0.3105
 8031SOL    HW135726   3.059   4.358   1.477  1.5869 -0.4887 -2.6164
 8031SOL    HW235727   3.052   4.448   1.354  1.1316 -0.9276 -0.3737
 8032SOL     OW35728   2.568   1.369   3.528  0.3216  0.3838 -0.7083
 8032SOL    HW135729   2.606   1.345   3.443 -0.2421 -3.6999  0.1770
 8032SOL    HW235730   2.589   1.459   3.549 -1.6605  0.7666 -0.3048
 8033SOL     OW35731   0.793   1.870   1.767 -0.0210 -0.0382 -0.2959
 8033SOL    HW135732   0.730   1.920   1.818 -1.3603 -0.1707 -1.8534
 8033SOL    HW235733   0.838   1.825   1.839  0.1290 -3.2546 -2.3810
 8034SOL     OW35734   0.339   0.660   2.221  0.1491  0.1335  0.9626
 8034SOL    HW135735   0.343   0.665   2.126  1.4823 -0.8127  0.9638
 8034SOL    HW235736   0.415   0.603   2.233  1.1471  1.6076  1.7274
 8035SOL     OW35737   3.301   3.813   5.793 -0.2918  0.7499 -0.3193
 8035SOL    HW135738   3.307   3.794   5.699  0.0927  2.0735 -0.5680
 8035SOL    HW235739   3.243   3.889   5.805 -0.7665  0.6930 -2.1975
 8036SOL     OW35740   2.700   1.451   8.277  0.0051  0.1405 -0.0256
 8036SOL    HW135741   2.744   1.374   8.241  0.4859  1.0814 -1.4608
 8036SOL    HW235742   2.639   1.459   8.204  1.8907  3.6332 -1.2305
 8037SOL     OW35743   4.573   0.539   2.073  0.0097 -0.1919  0.3168
 8037SOL    HW135744   4.537   0.450   2.064 -1.4040  0.4439 -0.3346
 8037SOL    HW235745   4.647   0.540   2.013 -0.8642 -0.7648 -0.7878
 8038SOL     OW35746   0.580   1.194  11.569  0.5095  0.1452  0.9094
 8038SOL    HW135747   0.597   1.281  11.606  3.1722  0.4946 -1.1188
 8038SOL    HW235748   0.579   1.221  11.477 -0.7371  2.5599  1.6110
 8039SOL     OW35749   2.612   4.223   7.720 -0.4479  0.3994 -0.6006
 8039SOL    HW135750   2.700   4.258   7.709 -0.4921  0.7185  0.0094
 8039SOL    HW235751   2.622   4.128   7.717  0.1901  0.4883 -1.2452
 8040SOL     OW35752   2.260   1.583  14.290  0.6450 -0.4042 -0.3707
 8040SOL    HW135753   2.256   1.544  14.378 -1.2526  0.9097  0.1229
 8040SOL    HW235754   2.187   1.644  14.297  0.0534 -1.0633 -0.7921
 8041SOL     OW35755   3.759   3.444   8.829 -0.7075  0.1868  0.2953
 8041SOL    HW135756   3.756   3.372   8.766 -0.3181  0.8924 -0.5323
 8041SOL    HW235757   3.818   3.403   8.892 -2.2021 -0.1688  1.4501
 8042SOL     OW35758   1.163   1.094   6.331 -0.0720  0.1930  0.2260
 8042SOL    HW135759   1.068   1.106   6.335 -0.2545 -1.0019 -0.5293
 8042SOL    HW235760   1.188   1.122   6.420  2.5839  0.8315 -0.6988
 8043SOL     OW35761   1.744   3.505  12.334  0.3417 -0.3926 -0.0268
 8043SOL    HW135762   1.726   3.458  12.252 -0.3555 -0.0240 -0.0890
 8043SOL    HW235763   1.762   3.588  12.291 -0.6415  0.2905  0.8812
 8044SOL     OW35764   2.181   1.497   9.391 -0.1675 -0.1334  0.1127
 8044SOL    HW135765   2.223   1.472   9.309  0.6279  1.9805 -0.1154
 8044SOL    HW235766   2.248   1.471   9.454 -0.3869  0.7664  0.7172
 8045SOL     OW35767   1.091   1.116   5.517 -0.1415  0.4213 -0.0931
 8045SOL    HW135768   1.003   1.150   5.502 -0.1341  1.0726  1.3169
 8045SOL    HW235769   1.129   1.174   5.583  0.4218  1.7032 -1.5386
 8046SOL     OW35770   2.021   0.738   2.320 -0.9466 -0.3118  0.3269
 8046SOL    HW135771   2.030   0.737   2.415 -2.0072 -2.9830  0.3995
 8046SOL    HW235772   1.935   0.779   2.308 -1.1321 -1.2937 -1.6858
 8047SOL     OW35773   4.243   3.359  10.231 -0.0855  0.0169  0.1452
 8047SOL    HW135774   4.303   3.418  10.186  0.9844 -1.1174  0.0925
 8047SOL    HW235775   4.285   3.274  10.224 -1.1260 -0.4162 -0.9498
 8048SOL     OW35776   2.009   1.465   1.526  0.3487 -0.3713  0.6703
 8048SOL    HW135777   2.055   1.436   1.605 -1.7311 -0.0354  2.0072
 8048SOL    HW235778   2.078   1.518   1.487 -0.4573  0.3199  0.1675
 8049SOL     OW35779   4.427   3.442   8.567  0.5246  0.0103 -0.4125
 8049SOL    HW135780   4.449   3.516   8.511  0.6849  0.1629 -0.1531
 8049SOL    HW235781   4.364   3.475   8.631  2.8459  1.2432  1.2775
 8050SOL     OW35782   1.586   0.353  16.321  0.0372 -0.3122 -0.0980
 8050SOL    HW135783   1.655   0.418  16.312 -0.6141  0.5772  1.2723
 8050SOL    HW235784   1.623   0.281  16.269 -1.4823 -0.4456 -0.9882
 8051SOL     OW35785   4.392   0.820  15.608 -0.4243  0.0245  0.6852
 8051SOL    HW135786   4.352   0.890  15.555 -1.9559  0.5855  2.5955
 8051SOL    HW235787   4.462   0.786  15.551 -1.3116 -0.3883 -0.1508
 8052SOL     OW35788   1.602   1.828   2.246 -0.4040  0.7637  0.4830
 8052SOL    HW135789   1.631   1.898   2.305  2.0324  1.2338 -1.2538
 8052SOL    HW235790   1.665   1.848   2.177 -2.1877  2.0040 -0.7741
 8053SOL     OW35791   3.359   0.074   4.764 -0.1817 -0.4529 -0.3033
 8053SOL    HW135792   3.360   0.162   4.726  1.2386 -0.2482  0.2041
 8053SOL    HW235793   3.291   0.082   4.831  1.3717 -0.4663  1.2918
 8054SOL     OW35794   1.865   0.872   5.753 -0.2373  0.6262 -0.2329
 8054SOL    HW135795   1.822   0.893   5.835  0.4415 -2.1544  0.8447
 8054SOL    HW235796   1.797   0.834   5.697  0.0512  0.4006 -0.4362
 8055SOL     OW35797   1.030   0.224   9.216  0.5241 -0.0024  0.3487
 8055SOL    HW135798   1.079   0.166   9.273  0.5544 -1.5147 -1.2267
 8055SOL    HW235799   1.041   0.315   9.246 -1.1171 -0.4542  2.3044
 8056SOL     OW35800   1.337   0.047   6.527  0.0477  0.2820 -0.1200
 8056SOL    HW135801   1.345   0.141   6.544 -1.1350  0.0614  1.7070
 8056SOL    HW235802   1.331   0.052   6.432 -0.4075 -2.3507 -0.2370
 8057SOL     OW35803   1.473   0.010   7.351 -1.1271 -0.0169 -0.6181
 8057SOL    HW135804   1.565   0.037   7.345 -1.4566  0.5969 -3.0392
 8057SOL    HW235805   1.437   0.070   7.286 -1.4305  1.2776  0.7676
 8058SOL     OW35806   0.496   1.907   3.037  0.0934 -0.2744  0.0115
 8058SOL    HW135807   0.547   1.843   2.987 -1.5474 -0.5455 -1.3423
 8058SOL    HW235808   0.464   1.969   2.971 -2.5235  0.0977  1.6441
 8059SOL     OW35809   2.520   4.175   1.831 -0.1357 -0.3526 -0.4942
 8059SOL    HW135810   2.444   4.119   1.816 -0.4617 -0.6142  2.0477
 8059SOL    HW235811   2.482   4.260   1.811  1.2864  0.6135  0.8805
 8060SOL     OW35812   3.770   1.689   3.529 -0.1133 -0.4418 -0.3055
 8060SOL    HW135813   3.776   1.611   3.474 -1.1118 -0.5527 -0.2695
 8060SOL    HW235814   3.833   1.744   3.482  0.0481 -0.3624  0.0061
 8061SOL     OW35815   1.440   2.181   2.501  0.1801 -0.8305  0.7646
 8061SOL    HW135816   1.393   2.257   2.535 -0.2291 -0.9689  0.5115
 8061SOL    HW235817   1.408   2.112   2.559  0.4364 -1.0946  0.5919
 8062SOL     OW35818   1.065   2.598  15.855  0.4616  1.0381 -0.1759
 8062SOL    HW135819   1.156   2.604  15.824  0.1419 -1.0894 -1.5087
 8062SOL    HW235820   1.057   2.693  15.866 -0.2996  0.8400  1.0433
 8063SOL     OW35821   1.636   3.814  14.511 -0.2762 -0.2710  0.5231
 8063SOL    HW135822   1.582   3.871  14.566  2.8474  2.4964  0.6991
 8063SOL    HW235823   1.708   3.867  14.478  0.3530 -0.6686  1.2481
 8064SOL     OW35824   2.226   0.276   8.296  0.4295 -0.1589 -0.3189
 8064SOL    HW135825   2.202   0.365   8.272 -0.8428  0.2768  2.5110
 8064SOL    HW235826   2.322   0.282   8.301  0.4060 -0.4007  0.5486
 8065SOL     OW35827   4.667   0.348  15.785 -0.4487 -0.6046 -0.0780
 8065SOL    HW135828   0.015   0.331  15.743  0.2292 -0.1240  1.1020
 8065SOL    HW235829   4.644   0.256  15.800 -4.2484  0.1248 -1.4931
 8066SOL     OW35830   2.679   3.117   3.859  0.1066 -0.3250 -0.2200
 8066SOL    HW135831   2.766   3.158   3.863  0.0386 -0.0963 -0.9408
 8066SOL    HW235832   2.656   3.118   3.951  2.9749  1.3775  0.4923
 8067SOL     OW35833   0.791   3.656  16.950  0.7831 -0.1205 -0.0429
 8067SOL    HW135834   0.814   3.748  16.939  0.2921 -0.2270 -2.0065
 8067SOL    HW235835   0.877   3.629  16.982  0.6012 -2.2487 -1.3094
 8068SOL     OW35836   3.977   4.456   4.438  0.2045 -0.6703  0.3398
 8068SOL    HW135837   3.890   4.424   4.411  0.7651 -0.2877 -1.8864
 8068SOL    HW235838   3.969   4.549   4.419 -1.5002 -1.1615 -1.4151
 8069SOL     OW35839   0.640   3.643  10.364  0.2951 -0.1476  0.4264
 8069SOL    HW135840   0.593   3.725  10.352 -1.1756 -1.2767 -1.5354
 8069SOL    HW235841   0.727   3.665  10.333  0.8289 -2.8887 -0.0174
 8070SOL     OW35842   1.461   3.294  17.416 -0.0899 -0.8913  0.0805
 8070SOL    HW135843   1.450   3.264  17.506  2.2056  0.7434  0.9296
 8070SOL    HW235844   1.444   3.387  17.427  0.9253 -0.7139  0.1504
 8071SOL     OW35845   0.740   4.682   2.415 -0.1179 -0.2401  0.1469
 8071SOL    HW135846   0.687   0.016   2.379 -1.2282 -0.4488  1.3969
 8071SOL    HW235847   0.679   4.640   2.475 -1.4295 -0.6638 -1.4679
 8072SOL     OW35848   1.169   1.817   7.262 -0.2001 -0.2813  0.6177
 8072SOL    HW135849   1.147   1.822   7.355 -0.0410 -0.1112  0.6463
 8072SOL    HW235850   1.228   1.743   7.247  1.5285  0.8137  1.9768
 8073SOL     OW35851   1.032   2.887   0.570 -0.1881 -0.1065  0.1659
 8073SOL    HW135852   1.000   2.969   0.607  1.2421  0.7492 -0.5090
 8073SOL    HW235853   0.950   2.843   0.547 -0.6735  0.4456  0.8554
 8074SOL     OW35854   3.438   4.700   3.855 -0.0874 -0.5519 -0.0912
 8074SOL    HW135855   3.534   4.703   3.856 -0.2013  2.2374  0.6569
 8074SOL    HW235856   3.411   0.048   3.821 -2.3264 -0.2435  2.4567
 8075SOL     OW35857   3.766   3.434   8.405 -0.8399 -0.1688 -0.0020
 8075SOL    HW135858   3.716   3.380   8.466  1.3491 -1.0223  1.0286
 8075SOL    HW235859   3.706   3.507   8.421 -1.4252 -0.8420  0.8917
 8076SOL     OW35860   4.417   2.699   6.875  0.6892 -0.2484 -0.3075
 8076SOL    HW135861   4.441   2.623   6.822  1.1820 -0.0504 -0.3734
 8076SOL    HW235862   4.373   2.653   6.946  1.3378 -3.1638 -1.8054
 8077SOL     OW35863   0.421   2.879  13.132 -0.9923 -0.5201  0.2506
 8077SOL    HW135864   0.491   2.821  13.102  0.5162 -0.1251  2.9183
 8077SOL    HW235865   0.463   2.960  13.164 -0.9552 -1.7698  3.4003
 8078SOL     OW35866   3.193   1.177  13.879  0.7361  0.9125  0.0352
 8078SOL    HW135867   3.154   1.096  13.910  1.1372  0.3661 -0.9052
 8078SOL    HW235868   3.148   1.242  13.932  1.1926  0.6110  0.7884
 8079SOL     OW35869   4.320   3.545  15.153  0.1562 -0.0529  0.0920
 8079SOL    HW135870   4.405   3.582  15.175 -0.0508  0.4532  0.0434
 8079SOL    HW235871   4.267   3.623  15.138  0.5030  0.0052 -0.8104
 8080SOL     OW35872   4.215   0.257   9.005 -0.1609 -0.2566  0.2726
 8080SOL    HW135873   4.170   0.340   9.021 -0.5863 -0.2001 -1.2764
 8080SOL    HW235874   4.259   0.257   9.090  1.4490  0.6147 -0.5521
 8081SOL     OW35875   1.278   4.047  17.696  0.4814  0.0774  0.1857
 8081SOL    HW135876   1.213   4.008  17.638  2.7223  1.4441 -3.2370
 8081SOL    HW235877   1.307   3.971   0.000  0.0775  2.3049  3.8327
 8082SOL     OW35878   3.809   2.337   6.980  1.7655 -0.3724  0.1934
 8082SOL    HW135879   3.797   2.251   6.940  1.1113  0.4836 -1.4387
 8082SOL    HW235880   3.823   2.388   6.901 -0.5144 -1.0340 -0.6177
 8083SOL     OW35881   1.003   0.498   4.781  0.1804 -0.0200  0.4768
 8083SOL    HW135882   1.095   0.523   4.779 -0.2586  1.5503  0.3415
 8083SOL    HW235883   1.001   0.420   4.837 -2.2437 -0.5807 -0.4041
 8084SOL     OW35884   3.073   1.422   7.842  0.3079 -0.7312 -0.2199
 8084SOL    HW135885   3.022   1.465   7.911  0.5452 -1.4235  0.3924
 8084SOL    HW235886   3.001   1.369   7.807  0.2841  0.0741 -1.3899
 8085SOL     OW35887   1.403   4.499   8.605  0.4729 -0.3541 -0.7033
 8085SOL    HW135888   1.462   4.467   8.673  0.1625  1.2493  0.3211
 8085SOL    HW235889   1.356   4.417   8.592 -2.8429  1.0856  2.3926
 8086SOL     OW35890   3.520   3.336   9.045  0.1433  0.0396  0.4721
 8086SOL    HW135891   3.448   3.287   9.085 -0.9176  0.2141 -1.2051
 8086SOL    HW235892   3.572   3.276   8.992  2.0892  0.8503  1.4882
 8087SOL     OW35893   1.110   3.882  16.118  0.3276  0.1008 -0.2910
 8087SOL    HW135894   1.146   3.952  16.173 -0.6359  0.6801 -0.4097
 8087SOL    HW235895   1.121   3.917  16.030  0.8620 -0.1297 -0.3183
 8088SOL     OW35896   2.721   2.737   8.394 -0.1695  0.2211 -0.7503
 8088SOL    HW135897   2.670   2.815   8.416 -1.6641 -1.1221  0.5037
 8088SOL    HW235898   2.647   2.677   8.386 -0.3844  0.7403 -2.6175
 8089SOL     OW35899   3.135   3.731   8.947 -0.1322 -0.2405 -0.0193
 8089SOL    HW135900   3.164   3.676   9.021 -0.3559 -0.7823 -0.3324
 8089SOL    HW235901   3.099   3.664   8.889 -0.1264  0.8678 -1.2988
 8090SOL     OW35902   3.914   4.001   4.603 -0.1530 -1.0681  0.4144
 8090SOL    HW135903   3.880   4.026   4.518 -1.0056  0.6989  1.2892
 8090SOL    HW235904   3.909   4.084   4.650 -0.0427 -0.7216 -0.1915
 8091SOL     OW35905   4.666   0.005  11.641  0.1121  0.1375  0.2420
 8091SOL    HW135906   4.621   4.722  11.723  0.8199 -0.5620  0.4559
 8091SOL    HW235907   4.729   0.069  11.674  0.9890 -2.1722  3.0462
 8092SOL     OW35908   3.603   3.328  14.055 -0.1958 -0.2312 -0.2270
 8092SOL    HW135909   3.509   3.349  14.052 -0.0139  0.5654 -0.1437
 8092SOL    HW235910   3.600   3.263  14.125  0.7185 -0.4103 -0.3589
 8093SOL     OW35911   2.335   3.386   1.484 -0.3255  0.0070 -0.7439
 8093SOL    HW135912   2.288   3.307   1.457  0.3367 -0.9811  0.9951
 8093SOL    HW235913   2.425   3.353   1.491  0.5012  2.1551 -1.0099
 8094SOL     OW35914   0.766   4.000  10.686  0.2770  0.6139 -0.7919
 8094SOL    HW135915   0.850   3.961  10.707  1.1690  3.1897  0.5024
 8094SOL    HW235916   0.798   4.056  10.615  1.1992 -0.1942 -1.0016
 8095SOL     OW35917   4.243   4.133  17.129 -0.1191  0.2935 -0.1444
 8095SOL    HW135918   4.248   4.050  17.083  0.5721 -0.5657  1.4803
 8095SOL    HW235919   4.241   4.203  17.064 -0.1726  0.0643 -0.3865
 8096SOL     OW35920   1.658   2.266   7.068 -0.3502 -0.0704 -0.3101
 8096SOL    HW135921   1.660   2.302   7.157 -2.0907  2.0626 -1.1330
 8096SOL    HW235922   1.748   2.281   7.039  0.0591  0.2924  1.1319
 8097SOL     OW35923   3.733   4.638   6.433  0.6507 -0.0168 -0.1293
 8097SOL    HW135924   3.706   4.728   6.450  1.0412  0.4265 -1.7691
 8097SOL    HW235925   3.668   4.598   6.375  0.9521 -1.0616  0.2592
 8098SOL     OW35926   3.330   3.144   4.526 -0.0898 -0.3373  0.0063
 8098SOL    HW135927   3.336   3.215   4.461  0.0888 -0.0389  0.3515
 8098SOL    HW235928   3.268   3.193   4.580 -0.5754 -0.7544 -0.1675
 8099SOL     OW35929   3.264   1.622   4.134 -0.4298  0.0064 -0.0858
 8099SOL    HW135930   3.353   1.588   4.133 -0.2500  0.5641 -1.8852
 8099SOL    HW235931   3.210   1.562   4.082 -0.4557  1.1808 -1.4079
 8100SOL     OW35932   3.560   2.231  15.521 -0.3702 -0.2339  0.2000
 8100SOL    HW135933   3.644   2.191  15.497 -0.7900  0.7580 -2.9855
 8100SOL    HW235934   3.584   2.308  15.572 -1.5657 -0.6836  1.4371
 8101SOL     OW35935   4.388   3.497  13.751 -0.1833 -0.0756 -0.7519
 8101SOL    HW135936   4.427   3.475  13.666  0.2720  1.6428 -0.9913
 8101SOL    HW235937   4.322   3.560  13.724 -0.3754  0.2156  0.3850
 8102SOL     OW35938   3.213   3.766  10.541 -0.0951  0.2863  0.2268
 8102SOL    HW135939   3.261   3.810  10.611  0.9673  2.1959 -1.7089
 8102SOL    HW235940   3.279   3.707  10.505 -1.2362 -1.3563  0.8294
 8103SOL     OW35941   3.526   3.491  13.510 -0.0316  0.2420 -0.1324
 8103SOL    HW135942   3.477   3.572  13.527 -0.5582 -0.4804  1.7223
 8103SOL    HW235943   3.486   3.440  13.580  0.7530  1.5597  1.2735
 8104SOL     OW35944   1.227   1.357   7.815 -0.2049 -0.2786 -0.1839
 8104SOL    HW135945   1.162   1.426   7.801 -0.7096 -0.1446  2.9378
 8104SOL    HW235946   1.270   1.411   7.881  1.5997  0.1469 -1.6890
 8105SOL     OW35947   0.159   2.080   5.555 -0.5460 -0.8705  0.5702
 8105SOL    HW135948   0.107   2.022   5.610 -2.9814  1.2519  0.4700
 8105SOL    HW235949   0.182   2.153   5.611 -0.2167  0.2725 -1.0504
 8106SOL     OW35950   4.516   3.963   7.530  0.5580 -0.3139  0.3840
 8106SOL    HW135951   4.463   3.918   7.595 -1.1174 -1.0406 -1.4838
 8106SOL    HW235952   4.495   4.054   7.553 -0.4460 -0.8599  1.5579
 8107SOL     OW35953   2.092   3.554   7.667  0.0270 -0.4164 -0.0978
 8107SOL    HW135954   2.182   3.543   7.697  0.2748  0.0814 -0.6624
 8107SOL    HW235955   2.111   3.544   7.573  0.2522  0.8496 -0.1759
 8108SOL     OW35956   3.156   4.580  12.807  0.3963  0.1710 -0.0618
 8108SOL    HW135957   3.179   4.577  12.900  0.5861  0.3753 -0.1028
 8108SOL    HW235958   3.210   4.658  12.795  0.1909 -0.1889 -3.2831
 8109SOL     OW35959   3.225   4.359   4.802 -0.0717  0.8261 -0.2925
 8109SOL    HW135960   3.261   4.423   4.863  0.2629 -0.1364  0.5242
 8109SOL    HW235961   3.302   4.357   4.744  0.2943  1.5329  0.1679
 8110SOL     OW35962   4.233   1.688   8.274 -0.3614  0.9442  0.2001
 8110SOL    HW135963   4.313   1.739   8.285  0.6626 -0.9341  1.4082
 8110SOL    HW235964   4.176   1.740   8.218  0.0874  0.2557 -0.8903
 8111SOL     OW35965   3.982   3.507   9.266  0.0597 -0.2323 -0.2880
 8111SOL    HW135966   4.050   3.543   9.323 -0.5108  1.4308 -0.6531
 8111SOL    HW235967   4.042   3.509   9.191  1.4894 -1.6378  0.8157
 8112SOL     OW35968   2.347   3.348  10.196 -0.1487 -0.7673  0.1779
 8112SOL    HW135969   2.315   3.314  10.280  0.5541  1.8952  1.5333
 8112SOL    HW235970   2.395   3.424  10.229  0.0460  0.1748 -2.2655
 8113SOL     OW35971   3.571   3.719   9.791 -0.5780  0.3970  0.2586
 8113SOL    HW135972   3.557   3.637   9.838  1.6694 -0.5654 -0.7696
 8113SOL    HW235973   3.611   3.683   9.712 -2.0249 -2.1042  0.6732
 8114SOL     OW35974   4.322   4.483   7.530 -0.6192 -0.3470 -0.2742
 8114SOL    HW135975   4.261   4.412   7.510 -0.6171  0.0560 -1.7003
 8114SOL    HW235976   4.261   4.556   7.540  2.2776  2.4953 -3.3616
 8115SOL     OW35977   1.104   0.373   1.709  0.8821 -0.3775  0.2906
 8115SOL    HW135978   1.174   0.437   1.719  0.4159  0.1053  0.4794
 8115SOL    HW235979   1.045   0.395   1.781  2.1899 -1.9507  1.8475
 8116SOL     OW35980   0.715   1.283   3.480 -0.2387  0.1580 -0.3661
 8116SOL    HW135981   0.741   1.233   3.557  2.7925  2.3688  0.0293
 8116SOL    HW235982   0.724   1.375   3.505  1.2525  0.5082 -2.2097
 8117SOL     OW35983   1.221   3.900   1.330 -0.1292  0.0156  0.2358
 8117SOL    HW135984   1.154   3.836   1.306 -0.8187  0.5763  0.6765
 8117SOL    HW235985   1.254   3.933   1.246 -0.6890  0.0721  0.0438
 8118SOL     OW35986   2.190   2.734   1.945  0.1274  0.5492 -0.5840
 8118SOL    HW135987   2.118   2.778   1.899 -2.3360 -1.2690  1.5328
 8118SOL    HW235988   2.237   2.809   1.980 -1.3540  1.6122 -0.8343
 8119SOL     OW35989   3.923   0.083   2.101 -0.8355 -0.1739  0.1693
 8119SOL    HW135990   4.016   0.062   2.087 -0.8506 -0.5258  0.6058
 8119SOL    HW235991   3.917   0.166   2.054  0.3007  0.2710  0.8035
 8120SOL     OW35992   1.761   3.703   4.732  0.5314 -0.2195  0.6115
 8120SOL    HW135993   1.732   3.614   4.712  0.0422 -0.5803  2.8957
 8120SOL    HW235994   1.699   3.728   4.801 -0.3277  0.7558 -0.5076
 8121SOL     OW35995   2.458   3.214   9.301  0.0434  0.2014  0.1284
 8121SOL    HW135996   2.508   3.290   9.330  3.9445 -2.7409  1.1551
 8121SOL    HW235997   2.374   3.253   9.322 -0.7613 -0.8040 -1.1998
 8122SOL     OW35998   2.566   3.105   8.682  0.5420  0.2834 -0.2681
 8122SOL    HW135999   2.511   3.029   8.701 -0.9971  1.9619  2.0055
 8122SOL    HW236000   2.597   3.080   8.595  1.3878  0.4764 -0.0186
 8123SOL     OW36001   0.999   3.150   6.264  0.1530  0.3762 -0.1523
 8123SOL    HW136002   1.058   3.137   6.190 -0.2746  2.2761 -0.8155
 8123SOL    HW236003   0.921   3.104   6.231 -0.1490  0.0859  0.9440
 8124SOL     OW36004   0.394   3.618   3.221 -0.1025 -0.3051  0.6057
 8124SOL    HW136005   0.369   3.672   3.295  2.0100  1.2257  0.2178
 8124SOL    HW236006   0.341   3.545   3.253 -0.1015 -0.5250  0.1130
 8125SOL     OW36007   4.059   2.109   2.077  0.1056 -0.4519 -0.1877
 8125SOL    HW136008   4.006   2.171   2.127 -1.1426 -0.7679 -1.1038
 8125SOL    HW236009   4.051   2.023   2.117  1.0523  0.2626  1.5367
 8126SOL     OW36010   2.909   0.096   6.222  0.2157 -0.5855 -0.0266
 8126SOL    HW136011   3.001   0.089   6.196  0.4106  0.2689  0.4426
 8126SOL    HW236012   2.861   0.144   6.154 -1.9275  0.1568  2.0189
 8127SOL     OW36013   1.674   0.158   4.970  0.5146 -0.0570  0.1615
 8127SOL    HW136014   1.696   0.198   4.885 -0.0664  0.7419  0.3863
 8127SOL    HW236015   1.717   0.217   5.031  0.9585  1.6127 -1.7394
 8128SOL     OW36016   1.255   0.261  10.181  0.1907 -0.4853 -0.0867
 8128SOL    HW136017   1.223   0.343  10.220 -1.7284 -1.3075  0.0830
 8128SOL    HW236018   1.173   0.218  10.157  0.9388 -1.2906 -1.2147
 8129SOL     OW36019   0.292   1.908   8.444 -0.1389  0.3329 -0.5934
 8129SOL    HW136020   0.294   1.992   8.490  3.1865  0.5197 -1.1029
 8129SOL    HW236021   0.295   1.928   8.351  0.4826 -1.1810 -0.8989
 8130SOL     OW36022   2.622   0.035   8.286  0.2231  0.8151 -0.0603
 8130SOL    HW136023   2.651   0.126   8.287 -0.7347  1.1319 -0.6749
 8130SOL    HW236024   2.534   0.042   8.323 -0.1356  2.6452 -1.2400
 8131SOL     OW36025   0.959   0.055  13.048  0.0892 -0.0891  0.2521
 8131SOL    HW136026   0.922   0.057  12.960 -1.3458 -2.3195  0.7788
 8131SOL    HW236027   0.898   4.730  13.090 -0.6342 -1.1984 -2.4343
 8132SOL     OW36028   0.728   1.327   6.242  0.4507 -0.6545 -0.1769
 8132SOL    HW136029   0.657   1.392   6.240  0.9239 -0.1175  0.3525
 8132SOL    HW236030   0.805   1.379   6.264  0.5615 -1.7217  1.9951
 8133SOL     OW36031   4.009   3.746   7.416  0.2306 -0.6085 -0.2624
 8133SOL    HW136032   4.046   3.831   7.393  1.7976 -1.0306  0.6898
 8133SOL    HW236033   3.941   3.771   7.478  0.2080 -0.1632 -0.4638
 8134SOL     OW36034   3.827   2.504   2.393 -0.6440 -0.3668  0.4591
 8134SOL    HW136035   3.877   2.424   2.375  0.6422  0.3385  0.9143
 8134SOL    HW236036   3.842   2.515   2.487  0.1447  1.2510  0.1340
 8135SOL     OW36037   4.079   3.324   3.653 -0.3685  0.0478  0.1519
 8135SOL    HW136038   4.144   3.386   3.687 -0.4854 -0.3615  1.1237
 8135SOL    HW236039   4.112   3.307   3.565  0.6605  0.6810  0.4145
 8136SOL     OW36040   1.566   3.415   8.778  0.4311 -0.1798  0.0409
 8136SOL    HW136041   1.605   3.461   8.703 -1.5242  1.0050 -0.2321
 8136SOL    HW236042   1.530   3.347   8.722 -0.6091  0.8939 -0.5813
 8137SOL     OW36043   4.542   3.316   1.997  0.2274  0.1271 -0.4077
 8137SOL    HW136044   4.521   3.233   1.954  1.8167 -0.0290 -0.8671
 8137SOL    HW236045   4.637   3.321   2.008  0.0213  0.0579  1.4547
 8138SOL     OW36046   0.216   1.817  16.889  0.9641  0.4702  0.5616
 8138SOL    HW136047   0.222   1.722  16.892 -3.1509  0.1715  0.3642
 8138SOL    HW236048   0.141   1.833  16.947 -0.5486  0.0377 -1.2675
 8139SOL     OW36049   0.117   1.805  17.472  0.4258 -0.5218  0.5433
 8139SOL    HW136050   0.066   1.791  17.552  1.0013  1.1503  1.1953
 8139SOL    HW236051   0.056   1.842  17.408  1.0200  2.5093  1.7344
 8140SOL     OW36052   4.494   1.138   1.383 -0.1998 -0.0020 -0.2033
 8140SOL    HW136053   4.430   1.073   1.353  1.0647 -1.2861 -0.0942
 8140SOL    HW236054   4.440   1.217   1.377 -2.3397 -1.3020  1.8015
 8141SOL     OW36055   1.201   0.912   7.579  0.6460  0.4259 -0.1989
 8141SOL    HW136056   1.113   0.879   7.564  1.2934 -1.3251 -0.0797
 8141SOL    HW236057   1.189   0.982   7.643 -1.5227  0.8377 -1.0607
 8142SOL     OW36058   4.184   1.322   4.482  0.1707  0.3836 -0.0837
 8142SOL    HW136059   4.216   1.364   4.562 -1.9036  0.9700  0.4663
 8142SOL    HW236060   4.187   1.394   4.419 -1.3598  0.1467 -0.4430
 8143SOL     OW36061   0.697   0.922   8.204 -0.2008 -0.8655 -0.7286
 8143SOL    HW136062   0.690   0.917   8.299  1.0494 -0.3843 -0.6094
 8143SOL    HW236063   0.778   0.973   8.197 -0.4915 -0.1864  0.8833
 8144SOL     OW36064   4.028   3.999   6.264 -0.9787 -0.3800 -0.2316
 8144SOL    HW136065   3.954   4.009   6.325 -0.3017 -0.3779  0.5827
 8144SOL    HW236066   3.970   3.970   6.193 -0.2054  1.6781 -1.6683
 8145SOL     OW36067   0.639   3.032   8.178 -0.0473 -0.0840 -0.2694
 8145SOL    HW136068   0.653   3.099   8.245 -0.9837 -0.6245  0.4884
 8145SOL    HW236069   0.604   3.086   8.107 -2.5533 -0.2758  0.7977
 8146SOL     OW36070   2.874   1.024   0.289 -0.2164  0.7741 -0.4233
 8146SOL    HW136071   2.859   0.996   0.198  2.0277  0.2988 -0.6302
 8146SOL    HW236072   2.789   1.008   0.331 -0.6725 -0.3079 -1.7544
 8147SOL     OW36073   0.337   2.437   9.223  0.5168  0.2526  0.0972
 8147SOL    HW136074   0.270   2.478   9.169  0.3014  0.1601  0.2952
 8147SOL    HW236075   0.288   2.372   9.274  0.8756 -0.0281  0.0862
 8148SOL     OW36076   3.589   4.458   3.130 -0.0741 -0.3770  0.5151
 8148SOL    HW136077   3.525   4.390   3.152 -0.3104 -0.6409 -1.0045
 8148SOL    HW236078   3.530   4.510   3.075 -0.7167 -1.9159 -0.2566
 8149SOL     OW36079   4.032   1.508   5.065 -0.0041  0.0089 -0.1010
 8149SOL    HW136080   3.943   1.529   5.091  0.4165 -0.5158  1.8466
 8149SOL    HW236081   4.076   1.468   5.141 -1.7454  0.4616  1.1578
 8150SOL     OW36082   0.375   3.695   8.902  0.0039 -0.0219 -0.2755
 8150SOL    HW136083   0.295   3.744   8.884  0.6057  0.9135 -0.4399
 8150SOL    HW236084   0.374   3.640   8.824  0.4887 -1.1941  0.5542
 8151SOL     OW36085   0.312   2.926  11.247 -0.2328  0.5290 -0.1796
 8151SOL    HW136086   0.289   2.833  11.255  2.3598 -0.0559  0.3952
 8151SOL    HW236087   0.405   2.926  11.268  0.0371 -0.4462 -1.3475
 8152SOL     OW36088   4.280   1.443   4.692  0.4826 -0.1383  0.2012
 8152SOL    HW136089   4.234   1.512   4.740 -2.9733 -1.9366 -0.5030
 8152SOL    HW236090   4.363   1.489   4.678  0.5596 -0.5850 -0.7617
 8153SOL     OW36091   1.750   0.660   6.743 -0.3857  0.0429 -0.2140
 8153SOL    HW136092   1.719   0.569   6.742 -0.9310  0.2174  0.6151
 8153SOL    HW236093   1.755   0.681   6.650 -1.2454  3.2550  0.4907
 8154SOL     OW36094   0.335   3.613   9.358 -0.0941  0.1178  0.3542
 8154SOL    HW136095   0.366   3.595   9.270 -0.0403 -1.3013  0.6601
 8154SOL    HW236096   0.301   3.526   9.379 -0.5945  0.7194  2.0967
 8155SOL     OW36097   3.364   1.770   5.104  0.0357 -0.1522 -0.1070
 8155SOL    HW136098   3.448   1.815   5.114 -0.7592  1.3212 -0.0155
 8155SOL    HW236099   3.384   1.703   5.039  0.5064  0.1762 -0.2971
 8156SOL     OW36100   4.310   2.156   1.987  0.3612 -0.8482  0.5832
 8156SOL    HW136101   4.219   2.138   2.010 -0.3452  0.9366 -0.8322
 8156SOL    HW236102   4.305   2.167   1.892  1.2861 -0.8917  0.5299
 8157SOL     OW36103   1.766   3.842  11.910 -0.2370 -1.0411 -0.3904
 8157SOL    HW136104   1.753   3.834  11.815  0.4480 -0.6582 -0.5135
 8157SOL    HW236105   1.845   3.894  11.921  0.5425 -2.6357  1.4216
 8158SOL     OW36106   4.284   2.940   7.826  0.4515  0.5234 -0.1161
 8158SOL    HW136107   4.340   2.949   7.903 -0.5953 -0.2375  0.7372
 8158SOL    HW236108   4.325   2.882   7.761 -0.3716  0.3315 -0.4683
 8159SOL     OW36109   1.713   4.250  13.901  0.4689 -0.1877 -0.0628
 8159SOL    HW136110   1.677   4.320  13.955 -1.7865 -0.4056 -1.2891
 8159SOL    HW236111   1.635   4.196  13.886 -0.8407  1.2475  1.6328
 8160SOL     OW36112   4.536   1.674   6.225 -0.0714  0.1501 -0.6479
 8160SOL    HW136113   4.582   1.690   6.308  2.7551  0.1155 -2.2224
 8160SOL    HW236114   4.606   1.723   6.182  0.3527  0.6281  0.5747
 8161SOL     OW36115   3.015   0.860   7.243  0.0528 -0.2444  0.1419
 8161SOL    HW136116   3.049   0.922   7.178 -1.0653  1.2593  0.9922
 8161SOL    HW236117   3.087   0.834   7.300  0.6422  1.1664  0.0530
 8162SOL     OW36118   1.697   3.961   7.343 -0.6255 -0.0513 -0.8231
 8162SOL    HW136119   1.695   4.023   7.270 -2.2460  0.4972 -0.3106
 8162SOL    HW236120   1.739   4.016   7.409 -0.7618 -1.2240  0.2527
 8163SOL     OW36121   1.908   3.039   2.111 -0.3622  0.0656 -0.5508
 8163SOL    HW136122   1.993   3.008   2.142 -0.3089  0.5757 -0.1855
 8163SOL    HW236123   1.849   3.059   2.184 -1.5125  2.1695 -2.0323
 8164SOL     OW36124   2.387   2.649   2.298 -0.6451  0.0843  0.0191
 8164SOL    HW136125   2.295   2.662   2.277 -0.3736 -1.6884 -2.3706
 8164SOL    HW236126   2.430   2.670   2.215 -2.7107 -0.8838 -1.2922
 8165SOL     OW36127   1.388   1.047   0.861  0.5964 -0.5121 -0.2857
 8165SOL    HW136128   1.334   0.996   0.801 -0.5814  1.0417 -0.5377
 8165SOL    HW236129   1.441   0.977   0.900 -0.7102 -1.7401 -0.6962
 8166SOL     OW36130   1.894   4.029  10.664 -0.1105 -0.0742  0.0380
 8166SOL    HW136131   1.974   3.983  10.639  0.3215  0.4426  0.4770
 8166SOL    HW236132   1.826   3.962  10.657  1.0699 -1.1631 -1.0092
 8167SOL     OW36133   3.490   2.990   2.086 -0.3968  0.1639 -0.2263
 8167SOL    HW136134   3.479   2.979   2.181 -3.0653 -0.9233 -0.6854
 8167SOL    HW236135   3.513   3.082   2.072  2.7237 -0.8736 -1.9977
 8168SOL     OW36136   4.243   4.173  17.655  0.1876  0.3528 -0.3380
 8168SOL    HW136137   4.250   4.112  17.582 -0.7274  1.2370 -1.1567
 8168SOL    HW236138   4.262   4.257  17.614 -0.2381 -0.2644 -1.7792
 8169SOL     OW36139   4.734   3.811   2.336  0.3586 -0.3583  0.4507
 8169SOL    HW136140   4.716   3.720   2.313  1.2357 -0.5753  0.6287
 8169SOL    HW236141   0.039   3.811   2.421 -0.5366 -0.7652  0.8913
 8170SOL     OW36142   4.691   0.381   9.056 -0.4762  0.5670  0.0160
 8170SOL    HW136143   4.611   0.367   9.005 -1.1655 -0.2895  1.3181
 8170SOL    HW236144   4.716   0.470   9.031 -2.2335  1.3843  1.1420
 8171SOL     OW36145   2.976   2.626   8.431 -0.2470 -0.1503  0.2443
 8171SOL    HW136146   2.899   2.659   8.385  0.5548  0.3514 -0.7393
 8171SOL    HW236147   2.935   2.588   8.508 -0.1639 -2.5102 -0.8688
 8172SOL     OW36148   0.426   2.414   8.839  0.3663 -0.2134  0.2863
 8172SOL    HW136149   0.412   2.451   8.752  0.7767 -1.0839 -0.1519
 8172SOL    HW236150   0.335   2.402   8.866  0.9993 -0.4640  2.3082
 8173SOL     OW36151   4.031   1.971   7.639  0.4012  0.1552 -0.2698
 8173SOL    HW136152   4.057   1.886   7.674  1.3670  1.8562  3.0907
 8173SOL    HW236153   4.103   1.998   7.582 -0.0033  0.1872 -0.7710
 8174SOL     OW36154   2.164   0.808  12.071 -0.4659  0.2430  0.2660
 8174SOL    HW136155   2.209   0.883  12.109 -0.0402  0.2360 -0.2256
 8174SOL    HW236156   2.175   0.822  11.977  2.8423 -0.1127  0.5885
 8175SOL     OW36157   1.888   4.039  14.006  0.6208  0.1229  0.1947
 8175SOL    HW136158   1.817   4.102  14.014 -0.6128 -1.0816 -1.2724
 8175SOL    HW236159   1.959   4.094  14.038  0.5245 -0.9239  2.1846
 8176SOL     OW36160   1.916   1.278   4.778  0.1890 -0.5713 -0.2991
 8176SOL    HW136161   1.975   1.326   4.836 -0.0695  0.2304 -0.7031
 8176SOL    HW236162   1.972   1.252   4.705  1.4752 -0.3987  0.6411
 8177SOL     OW36163   2.999   1.945   8.832 -0.0492 -0.7338 -0.3467
 8177SOL    HW136164   3.040   1.908   8.754  0.3090  1.6322 -1.2641
 8177SOL    HW236165   2.928   1.991   8.787  0.6422  0.6919  0.0102
 8178SOL     OW36166   2.604   0.247   5.114 -0.5115  0.5876 -0.1583
 8178SOL    HW136167   2.621   0.159   5.082 -0.1134  1.0862 -1.3111
 8178SOL    HW236168   2.548   0.234   5.191 -1.9163  0.6692 -1.1590
 8179SOL     OW36169   0.977   2.166   5.407  0.0534 -0.0232  0.0171
 8179SOL    HW136170   0.957   2.181   5.315  1.0522 -0.7140 -0.3179
 8179SOL    HW236171   1.027   2.245   5.424 -0.6564  0.5895 -0.7820
 8180SOL     OW36172   2.007   2.237   5.096 -0.2022  0.5251 -0.5914
 8180SOL    HW136173   1.957   2.166   5.057  0.9498 -0.8901  0.5270
 8180SOL    HW236174   2.012   2.290   5.016 -1.6164 -0.2264 -1.1657
 8181SOL     OW36175   0.009   3.593   8.432  0.0214  0.0167  0.7838
 8181SOL    HW136176   0.026   3.687   8.447 -0.1365  0.1237  0.2734
 8181SOL    HW236177   4.652   3.588   8.415  0.1711  2.0046 -0.6183
 8182SOL     OW36178   0.158   1.459   5.622  0.3982 -0.0333 -0.2917
 8182SOL    HW136179   0.248   1.486   5.604 -0.0578  0.7487 -1.3800
 8182SOL    HW236180   0.109   1.538   5.600 -1.5059 -1.6552 -1.8875
 8183SOL     OW36181   3.610   4.341   9.140 -0.0577  0.7301  0.8306
 8183SOL    HW136182   3.691   4.306   9.176  0.4120  0.3517 -0.5695
 8183SOL    HW236183   3.633   4.431   9.115 -1.0347  1.1221  1.3360
 8184SOL     OW36184   4.005   1.485   2.190 -0.2831  0.0092  0.2255
 8184SOL    HW136185   4.054   1.437   2.124 -0.2269  1.6444 -0.9439
 8184SOL    HW236186   3.976   1.553   2.129  1.0911  1.1264  0.8269
 8185SOL     OW36187   4.078   3.594   7.191  0.1375 -0.3458 -0.0953
 8185SOL    HW136188   4.151   3.539   7.218 -0.6987 -1.7243 -0.6306
 8185SOL    HW236189   4.071   3.645   7.272  2.3007 -0.6488  0.2679
 8186SOL     OW36190   3.426   0.255   8.806  0.3276 -0.3810 -0.4889
 8186SOL    HW136191   3.332   0.259   8.789  0.0781 -0.6052  0.7716
 8186SOL    HW236192   3.423   0.279   8.899 -0.2830 -0.4355 -0.4975
 8187SOL     OW36193   0.263   2.861   2.779 -0.0053 -0.5235  0.4800
 8187SOL    HW136194   0.329   2.930   2.776 -1.1723  0.5418 -0.2379
 8187SOL    HW236195   0.269   2.845   2.873  0.3091  2.5972  0.9907
 8188SOL     OW36196   2.131   0.930  11.121 -0.2007  0.4094 -0.5139
 8188SOL    HW136197   2.216   0.896  11.095  1.1758  1.6664  2.2682
 8188SOL    HW236198   2.073   0.926  11.045  0.8190 -1.4640 -1.1815
 8189SOL     OW36199   4.057   3.193  14.421 -0.2934 -0.0025  0.0401
 8189SOL    HW136200   4.067   3.115  14.475  0.1718 -1.4754 -2.2024
 8189SOL    HW236201   3.982   3.168  14.367 -0.3888 -0.6023  0.4439
 8190SOL     OW36202   0.741   4.101   4.276 -0.1153  0.9295  0.4301
 8190SOL    HW136203   0.742   4.191   4.243  2.1609  1.2236  1.3312
 8190SOL    HW236204   0.740   4.118   4.370 -1.4079  0.1954  0.5550
 8191SOL     OW36205   1.252   4.022   3.621 -0.8221 -0.0736  0.1847
 8191SOL    HW136206   1.187   4.067   3.566  1.5120  3.1422  0.0526
 8191SOL    HW236207   1.307   4.097   3.645  1.3940 -1.6797  0.0979
 8192SOL     OW36208   1.754   3.973   2.560  0.1325 -0.1998 -0.0555
 8192SOL    HW136209   1.800   4.018   2.489  1.4545 -2.8697 -0.9030
 8192SOL    HW236210   1.827   3.973   2.622 -0.4216  2.2325  0.5783
 8193SOL     OW36211   1.224   3.303  13.083 -0.1503  0.1873  0.0010
 8193SOL    HW136212   1.153   3.273  13.027 -0.7363  1.8259 -0.1419
 8193SOL    HW236213   1.229   3.398  13.075 -1.4355  0.2735  0.2813
 8194SOL     OW36214   2.976   2.278   2.651 -0.1362  0.5860 -0.3192
 8194SOL    HW136215   2.919   2.206   2.678 -1.0493  2.1490  1.9179
 8194SOL    HW236216   2.925   2.334   2.593 -1.3161  0.1223  0.2667
 8195SOL     OW36217   4.270   4.175  15.075 -0.6135 -0.0128 -0.1917
 8195SOL    HW136218   4.257   4.093  15.027  0.5003  0.5616 -1.4810
 8195SOL    HW236219   4.358   4.190  15.041  0.1529 -0.1799  1.7702
 8196SOL     OW36220   4.055   2.992   4.963 -0.4379 -0.3353 -0.0634
 8196SOL    HW136221   4.031   2.914   5.013 -0.6250  1.0308  1.9866
 8196SOL    HW236222   4.131   3.023   5.013  0.6692 -0.2045 -1.8159
 8197SOL     OW36223   1.246   0.606   4.769  0.3128  0.1059 -0.6757
 8197SOL    HW136224   1.275   0.682   4.718  0.5288  1.1259  0.9744
 8197SOL    HW236225   1.328   0.558   4.770  1.3549  1.8594 -1.2943
 8198SOL     OW36226   0.078   4.658   2.457 -0.5425 -0.0015  0.4531
 8198SOL    HW136227   0.112   4.590   2.515 -1.3379  0.0913  1.0172
 8198SOL    HW236228   0.096   0.007   2.494 -1.0273 -1.0671  3.1367
 8199SOL     OW36229   1.975   3.578   2.477  0.4840  0.5429 -0.1845
 8199SOL    HW136230   2.064   3.590   2.446  0.7177  1.1134  0.7019
 8199SOL    HW236231   1.958   3.484   2.470 -1.3603  1.0095 -1.8276
 8200SOL     OW36232   2.383   3.985   4.955  0.4423 -0.3908  0.9992
 8200SOL    HW136233   2.410   3.893   4.965 -2.3709 -1.2716  0.5928
 8200SOL    HW236234   2.311   3.996   5.017  0.3088  0.6731  0.6420
 8201SOL     OW36235   1.062   3.653   3.460 -0.2204 -0.4812  0.0822
 8201SOL    HW136236   1.082   3.583   3.522 -2.7287 -2.0173 -0.8533
 8201SOL    HW236237   0.967   3.650   3.467 -0.0696 -0.9910  1.7998
 8202SOL     OW36238   0.234   0.722  10.067  0.1531  0.2376 -0.2581
 8202SOL    HW136239   0.169   0.669  10.112  2.1933 -2.1926 -0.1494
 8202SOL    HW236240   0.218   0.809  10.102 -0.4056 -0.8281  2.1113
 8203SOL     OW36241   2.105   0.950  17.255  0.9254  0.0789  0.9638
 8203SOL    HW136242   2.137   1.034  17.289  1.4422 -0.4670  1.8382
 8203SOL    HW236243   2.036   0.967  17.191 -1.1164 -0.9199  2.8824
 8204SOL     OW36244   1.469   0.482  16.650  0.7260 -0.5457 -1.1779
 8204SOL    HW136245   1.560   0.451  16.656  1.0738  0.6835 -0.1316
 8204SOL    HW236246   1.466   0.553  16.715 -1.1990 -0.9755 -0.8029
 8205SOL     OW36247   1.290   2.941   4.585  0.3442 -0.1348 -0.5262
 8205SOL    HW136248   1.275   2.885   4.661 -2.7359  0.3247 -0.8105
 8205SOL    HW236249   1.223   2.913   4.522  2.2272 -0.7243 -2.2553
 8206SOL     OW36250   2.631   1.917  10.298 -0.0213  0.1726  0.3151
 8206SOL    HW136251   2.543   1.948  10.319 -0.4343  0.8898 -2.4652
 8206SOL    HW236252   2.613   1.830  10.262 -1.6882 -0.0085  1.5770
 8207SOL     OW36253   1.528   1.418   3.305 -0.1746  0.1759 -0.8525
 8207SOL    HW136254   1.539   1.396   3.212  0.0285 -1.7471 -0.3622
 8207SOL    HW236255   1.521   1.514   3.304  0.3764  0.2165 -0.9358
 8208SOL     OW36256   1.828   4.585   2.093 -0.5165 -0.4475  0.0841
 8208SOL    HW136257   1.833   4.671   2.134 -0.0129 -0.0335 -0.8693
 8208SOL    HW236258   1.815   4.527   2.168  4.8867 -0.3302  1.0800
 8209SOL     OW36259   0.617   0.709   2.002 -0.9849 -0.1071  0.6739
 8209SOL    HW136260   0.656   0.664   2.077  1.9748  0.7461 -0.3563
 8209SOL    HW236261   0.690   0.716   1.940 -3.4499 -2.6945 -2.5021
 8210SOL     OW36262   3.002   0.653   3.556  0.0469 -0.3691 -0.0282
 8210SOL    HW136263   3.078   0.606   3.521 -0.3446 -0.1493 -1.1920
 8210SOL    HW236264   2.957   0.702   3.487  1.8784  1.2317 -0.0748
 8211SOL     OW36265   4.613   1.925  10.198 -0.6346  0.2893  0.4558
 8211SOL    HW136266   4.587   1.973  10.120  1.3337 -0.8889 -0.9191
 8211SOL    HW236267   4.576   1.840  10.175 -1.7871  0.6937  0.8383
 8212SOL     OW36268   4.503   0.862   7.426 -0.2393 -0.3369  0.1691
 8212SOL    HW136269   4.528   0.940   7.475 -3.1649  1.0673 -0.6011
 8212SOL    HW236270   4.412   0.882   7.406 -1.7144 -2.9823  4.1908
 8213SOL     OW36271   1.060   0.582  12.953 -0.2764 -0.5945 -0.2783
 8213SOL    HW136272   0.996   0.626  12.897 -1.8534  0.9917  2.7831
 8213SOL    HW236273   1.074   0.498  12.910  0.7771 -0.1620 -0.7910
 8214SOL     OW36274   2.264   1.198   3.338  0.3357 -0.3637 -0.0439
 8214SOL    HW136275   2.231   1.140   3.269 -1.5418  1.6170 -0.8210
 8214SOL    HW236276   2.336   1.234   3.285  0.2928  1.1918  0.9335
 8215SOL     OW36277   0.435   1.851   7.625 -0.3354  0.3937 -0.6232
 8215SOL    HW136278   0.527   1.870   7.607 -0.5898  0.0384 -2.2423
 8215SOL    HW236279   0.451   1.774   7.680 -3.4335 -0.9497 -1.5648
 8216SOL     OW36280   3.681   4.269   6.866  0.0695 -0.0632 -0.2316
 8216SOL    HW136281   3.591   4.261   6.897  0.1942 -0.0525  0.1302
 8216SOL    HW236282   3.676   4.276   6.771  1.5627 -0.9611 -0.3804
 8217SOL     OW36283   0.073   0.367   1.735 -0.1709  0.4041  0.0044
 8217SOL    HW136284   0.047   0.445   1.784  1.2339  1.0586 -0.2861
 8217SOL    HW236285   0.031   0.297   1.785  1.7855 -1.5557 -1.1030
 8218SOL     OW36286   2.681   1.008   6.469 -0.1112 -0.1896  0.5268
 8218SOL    HW136287   2.591   1.005   6.436 -0.4709 -0.5119  1.5432
 8218SOL    HW236288   2.711   0.918   6.452 -0.7940 -0.2200 -0.5844
 8219SOL     OW36289   3.509   1.235   8.006 -0.1334 -0.0710 -0.2009
 8219SOL    HW136290   3.495   1.147   7.971  0.0849 -1.3473  2.9049
 8219SOL    HW236291   3.527   1.277   7.922 -0.0634  0.9938  0.3494
 8220SOL     OW36292   3.945   2.939  12.320 -0.0945  0.1270  0.6656
 8220SOL    HW136293   4.024   2.994  12.325 -1.0892  1.5339  0.6963
 8220SOL    HW236294   3.942   2.936  12.225 -0.4610  1.8104  0.6313
 8221SOL     OW36295   4.276   4.108   4.960 -0.2538 -0.1666 -0.2849
 8221SOL    HW136296   4.320   4.057   4.892  1.5243  0.7664  0.1612
 8221SOL    HW236297   4.267   4.191   4.913 -2.0279  0.2708  0.8467
 8222SOL     OW36298   2.066   4.452   8.781  0.1854  0.3987 -0.7815
 8222SOL    HW136299   2.131   4.476   8.847  0.2752 -0.5548 -0.5236
 8222SOL    HW236300   2.066   4.536   8.734 -1.5411  0.6046 -0.4065
 8223SOL     OW36301   2.913   0.601   4.441  0.0586 -0.3411  0.1010
 8223SOL    HW136302   2.877   0.687   4.462  0.7144  0.3875 -1.7781
 8223SOL    HW236303   2.859   0.547   4.499  0.7170  0.7336  1.7226
 8224SOL     OW36304   3.365   4.039  16.811  0.2169  0.0207 -0.4176
 8224SOL    HW136305   3.432   4.040  16.743  0.2354  0.7915 -0.3882
 8224SOL    HW236306   3.366   3.951  16.849  0.2820  0.7533  1.3085
 8225SOL     OW36307   2.368   3.559   1.668  0.3366  0.3101  0.9418
 8225SOL    HW136308   2.361   3.507   1.749 -0.3829  0.8488  1.2222
 8225SOL    HW236309   2.363   3.491   1.600 -0.7944  0.8576  0.4908
 8226SOL     OW36310   4.044   2.744   6.657  0.1828  0.3379 -0.5306
 8226SOL    HW136311   4.102   2.744   6.581 -0.2998  2.2959 -0.9118
 8226SOL    HW236312   4.029   2.839   6.665  2.0036  0.5797  0.1537
 8227SOL     OW36313   4.097   0.761   1.904 -0.4929  0.3038  0.0084
 8227SOL    HW136314   4.163   0.820   1.866 -0.8612 -0.5858 -1.9809
 8227SOL    HW236315   4.112   0.684   1.849 -0.6817  2.1024 -2.5617
 8228SOL     OW36316   0.844   4.237   6.083 -0.2211 -0.1582 -0.1331
 8228SOL    HW136317   0.888   4.181   6.019  2.6750  1.3819  0.4751
 8228SOL    HW236318   0.873   4.201   6.167 -0.5183 -0.7919 -0.3041
 8229SOL     OW36319   3.568   0.758   2.728  0.7770  0.0815 -0.2356
 8229SOL    HW136320   3.588   0.666   2.739 -0.0550 -0.1140 -0.3416
 8229SOL    HW236321   3.487   0.748   2.678  1.0493 -1.1070 -0.4304
 8230SOL     OW36322   3.924   2.073  16.613 -0.5978 -0.1252 -0.0396
 8230SOL    HW136323   3.997   2.040  16.561  0.5483 -1.8658  2.6700
 8230SOL    HW236324   3.864   2.112  16.549 -1.1716 -1.6839 -0.4480
 8231SOL     OW36325   1.107   0.325  12.820  0.0107  0.1717  0.2443
 8231SOL    HW136326   1.140   0.276  12.744  0.6489  0.5181  0.3050
 8231SOL    HW236327   1.029   0.273  12.844  0.9993 -0.2995  2.4140
 8232SOL     OW36328   0.748   3.789   9.698  0.6380  0.0467 -0.6379
 8232SOL    HW136329   0.701   3.771   9.617  0.8293 -0.3181 -0.6703
 8232SOL    HW236330   0.840   3.764   9.685  0.8268  1.1165 -1.3829
 8233SOL     OW36331   4.731   0.546   5.666  0.2879 -0.1503 -0.0347
 8233SOL    HW136332   0.047   0.471   5.639 -1.4606 -1.2963 -0.2585
 8233SOL    HW236333   0.049   0.608   5.714  2.1865 -0.8128 -1.3673
 8234SOL     OW36334   1.243   4.731  12.955 -0.1466 -0.0005  0.8029
 8234SOL    HW136335   1.183   4.665  12.923 -0.7700 -0.2952  2.5479
 8234SOL    HW236336   1.180   0.057  12.991 -0.1596  0.5560 -0.1916
 8235SOL     OW36337   2.306   1.211  14.970 -0.3200  0.2062  0.1878
 8235SOL    HW136338   2.396   1.236  14.991  0.1081 -1.9645  0.9309
 8235SOL    HW236339   2.319   1.116  14.968 -0.8081  0.1128  1.4889
 8236SOL     OW36340   1.362   1.293  15.224 -0.0216 -0.2413  0.6209
 8236SOL    HW136341   1.453   1.273  15.203 -0.9793 -3.7122 -0.2511
 8236SOL    HW236342   1.360   1.387  15.206 -3.2547 -0.2624  0.8004
 8237SOL     OW36343   2.929   2.066   6.780 -0.0142 -0.4359  0.2403
 8237SOL    HW136344   2.985   2.142   6.794  0.9487 -1.2767  0.9323
 8237SOL    HW236345   2.853   2.079   6.837 -0.2249  1.1648 -0.3926
 8238SOL     OW36346   4.510   1.486   3.375  0.3356  0.0501 -0.2550
 8238SOL    HW136347   4.465   1.570   3.367  1.7356  0.6499 -1.8439
 8238SOL    HW236348   4.462   1.426   3.318 -1.7564  1.8707 -0.4274
 8239SOL     OW36349   3.299   4.235   7.464 -0.4688 -0.6568 -0.0600
 8239SOL    HW136350   3.393   4.229   7.447 -0.9337 -3.5190 -1.5486
 8239SOL    HW236351   3.306   4.239   7.559  2.1279 -1.4024 -0.2424
 8240SOL     OW36352   2.879   3.118   2.544  0.1199 -0.0650 -0.6398
 8240SOL    HW136353   2.895   3.128   2.638  1.0471 -0.0585 -0.8016
 8240SOL    HW236354   2.805   3.058   2.552 -0.1216  0.5206  1.6319
 8241SOL     OW36355   0.685   4.185   2.561  0.0043  0.0416  0.5548
 8241SOL    HW136356   0.634   4.112   2.527 -0.6677  0.5425  0.4931
 8241SOL    HW236357   0.643   4.263   2.525 -1.5124  0.1741  2.6270
 8242SOL     OW36358   0.103   4.684   6.689  0.5364 -0.0195  0.0884
 8242SOL    HW136359   0.108   0.022   6.628  1.1550 -0.0329  0.1220
 8242SOL    HW236360   0.181   4.691   6.745 -1.2097 -0.1080  2.5093
 8243SOL     OW36361   3.981   3.250   5.216  0.4676  0.9228  0.3287
 8243SOL    HW136362   3.971   3.281   5.126  1.0386  0.7663  0.2142
 8243SOL    HW236363   4.055   3.190   5.212 -0.2909  0.0479 -0.5393
 8244SOL     OW36364   1.531   3.058   2.015 -0.4601 -0.2242 -0.5084
 8244SOL    HW136365   1.590   3.010   2.072 -0.1164  0.9871  0.1694
 8244SOL    HW236366   1.589   3.108   1.958 -0.3811 -1.2159 -1.2930
 8245SOL     OW36367   3.653   0.253   8.533  0.6917  0.7839 -0.7099
 8245SOL    HW136368   3.721   0.231   8.597 -1.4610  0.8599  1.6194
 8245SOL    HW236369   3.646   0.345   8.556  1.0295  0.7799 -0.5856
 8246SOL     OW36370   1.655   3.898   7.782  0.6979  0.2293 -0.7269
 8246SOL    HW136371   1.698   3.925   7.701 -0.1752  2.5545 -0.4102
 8246SOL    HW236372   1.699   3.815   7.802  0.3577  0.0475 -0.7363
 8247SOL     OW36373   2.774   3.915   6.429 -0.0424  0.6365  0.4242
 8247SOL    HW136374   2.681   3.913   6.449 -0.2479  0.7036 -0.5095
 8247SOL    HW236375   2.791   3.985   6.493 -0.1097  1.0303  0.0141
 8248SOL     OW36376   0.954   0.627   3.890  0.2409  0.0827  0.1007
 8248SOL    HW136377   0.936   0.720   3.898  1.0536  0.1258  1.3253
 8248SOL    HW236378   0.873   0.592   3.926  1.0458 -1.1079  0.7834
 8249SOL     OW36379   3.919   0.485   6.839  0.7604  0.1407  0.1427
 8249SOL    HW136380   3.993   0.433   6.807 -1.5201 -2.3943 -1.0050
 8249SOL    HW236381   3.846   0.432   6.807 -0.8002  0.8137  2.6456
 8250SOL     OW36382   2.268   0.285   8.605  0.2100  0.4540 -0.0480
 8250SOL    HW136383   2.182   0.242   8.609  0.5276 -0.0988  0.7775
 8250SOL    HW236384   2.260   0.380   8.618  0.9278  0.4023  0.7735
 8251SOL     OW36385   0.074   2.541   4.918 -0.5393  0.6121  0.2742
 8251SOL    HW136386   0.072   2.452   4.884 -0.5509  0.4149  0.7910
 8251SOL    HW236387   0.107   2.599   4.849  1.7742  0.1079  0.9416
 8252SOL     OW36388   4.245   3.038  13.375  0.2664 -0.1282  0.3055
 8252SOL    HW136389   4.291   2.973  13.428 -0.3141  0.4751  1.5603
 8252SOL    HW236390   4.262   3.119  13.423  0.1211 -1.5383  2.7550
 8253SOL     OW36391   3.756   0.561  10.299  0.0563  0.3911  0.0734
 8253SOL    HW136392   3.830   0.592  10.247 -1.0668  1.3812 -0.9347
 8253SOL    HW236393   3.742   0.474  10.262  0.2258  0.0563  0.8130
 8254SOL     OW36394   2.009   0.029   5.630  0.3934 -0.1499  0.0614
 8254SOL    HW136395   2.088   4.736   5.675  0.0082 -1.5965 -0.2256
 8254SOL    HW236396   1.988   4.676   5.604 -1.9710  0.9236 -1.8358
 8255SOL     OW36397   0.852   3.919  16.889 -0.1276 -0.0460  0.5461
 8255SOL    HW136398   0.827   3.992  16.945 -0.0726  0.4663 -0.0967
 8255SOL    HW236399   0.920   3.969  16.844  1.0033 -2.2612 -0.2227
 8256SOL     OW36400   1.783   3.639   6.139  0.2718  0.2756  0.8725
 8256SOL    HW136401   1.786   3.583   6.217  1.0237 -0.6175  0.1991
 8256SOL    HW236402   1.874   3.668   6.133  0.2296  0.8398  2.7692
 8257SOL     OW36403   2.316   2.274   2.452  0.2939  0.4404  0.1418
 8257SOL    HW136404   2.302   2.211   2.523  1.1819  1.0515  0.8493
 8257SOL    HW236405   2.228   2.310   2.441  0.4928  0.5981 -0.8665
 8258SOL     OW36406   2.228   3.847   7.054  0.3851 -0.4394 -0.3127
 8258SOL    HW136407   2.139   3.835   7.020  0.0839 -0.7777  0.6117
 8258SOL    HW236408   2.249   3.940   7.057 -0.4672 -0.2096 -1.4378
 8259SOL     OW36409   0.110   1.490  10.765 -0.1629 -0.0825  0.2515
 8259SOL    HW136410   0.111   1.414  10.824  1.8748 -1.0022 -1.0028
 8259SOL    HW236411   0.202   1.509  10.749  0.9486 -1.9159  4.4425
 8260SOL     OW36412   1.816   0.496  12.684 -0.2459 -0.1732 -0.1938
 8260SOL    HW136413   1.892   0.466  12.734 -2.2751 -1.5519  2.0213
 8260SOL    HW236414   1.804   0.420  12.627  1.1784  0.7238 -1.6932
 8261SOL     OW36415   0.009   0.339   4.308 -0.2277 -0.2594 -0.2567
 8261SOL    HW136416   0.012   0.406   4.376  0.6282 -1.7513  1.1983
 8261SOL    HW236417   0.100   0.313   4.292  0.5388  2.3453 -0.1500
 8262SOL     OW36418   4.123   3.299   8.216  0.4079 -0.4660  0.4401
 8262SOL    HW136419   4.104   3.381   8.262 -0.1327 -1.2721  1.6460
 8262SOL    HW236420   4.201   3.323   8.166  0.2346  1.3818  1.0547
 8263SOL     OW36421   0.054   2.640   7.442  0.2669  0.1591 -0.1492
 8263SOL    HW136422   0.085   2.564   7.491  0.0194  0.4183  0.4080
 8263SOL    HW236423   4.710   2.602   7.408  0.2362  0.7302 -0.7216
 8264SOL     OW36424   0.083   0.264   8.836 -0.4398  0.0305 -0.0007
 8264SOL    HW136425   0.172   0.297   8.820 -0.2091  0.2094  1.6739
 8264SOL    HW236426   0.059   0.294   8.924 -1.1632  1.2767 -0.6248
 8265SOL     OW36427   4.414   0.759   6.950 -0.4368 -0.1778  0.3647
 8265SOL    HW136428   4.396   0.678   6.998  1.3454 -0.9451 -0.2496
 8265SOL    HW236429   4.478   0.803   7.006 -0.7804  0.2104  0.4512
 8266SOL     OW36430   4.489   3.569   9.187 -0.2398 -0.2752 -0.5774
 8266SOL    HW136431   4.529   3.651   9.158  0.9703 -1.4751 -2.2985
 8266SOL    HW236432   4.446   3.529   9.111  1.3018 -1.5562 -0.7668
 8267SOL     OW36433   3.615   3.963  15.336 -0.0466  0.0535  0.3163
 8267SOL    HW136434   3.532   3.966  15.383 -0.0812 -1.2420  0.3459
 8267SOL    HW236435   3.663   3.895  15.385 -0.0533  0.1282  0.4267
 8268SOL     OW36436   2.238   4.481   5.738 -0.7089 -0.6164 -0.7781
 8268SOL    HW136437   2.224   4.570   5.769 -0.5696 -0.4582 -1.1762
 8268SOL    HW236438   2.208   4.427   5.811  2.0244 -0.0146  0.7777
 8269SOL     OW36439   1.979   2.409   7.987  0.3141  0.1235  0.5147
 8269SOL    HW136440   2.072   2.431   7.987  0.6373 -1.2119 -0.0112
 8269SOL    HW236441   1.949   2.470   7.920  0.5002 -0.2583  0.0840
 8270SOL     OW36442   0.454   0.559   5.577  0.3763  0.2666 -0.5883
 8270SOL    HW136443   0.530   0.612   5.553 -1.1880  0.9017 -4.2286
 8270SOL    HW236444   0.467   0.542   5.670  1.3830 -0.3927 -0.8445
 8271SOL     OW36445   0.232   1.269   6.397  0.4288  0.0595 -0.4219
 8271SOL    HW136446   0.293   1.259   6.470 -0.1291 -0.4795 -0.0253
 8271SOL    HW236447   0.279   1.211   6.337 -3.3253 -0.4007 -2.9313
 8272SOL     OW36448   0.927   3.947   4.867 -0.4193  0.4886 -0.4431
 8272SOL    HW136449   1.007   3.999   4.866 -0.5984  0.8245  1.5190
 8272SOL    HW236450   0.887   3.999   4.937 -2.2680  0.8494 -1.7862
 8273SOL     OW36451   3.462   3.083   3.422 -0.5368  0.1172 -0.4416
 8273SOL    HW136452   3.521   3.097   3.348 -0.4117 -1.5010 -0.6350
 8273SOL    HW236453   3.525   3.054   3.489 -0.6595  3.7519  1.2849
 8274SOL     OW36454   0.618   2.743  12.154 -0.1079 -0.1438  0.2318
 8274SOL    HW136455   0.578   2.725  12.069 -1.3438 -0.4862  0.8870
 8274SOL    HW236456   0.532   2.751  12.194 -0.2779 -1.3476  0.0830
 8275SOL     OW36457   4.037   0.325  15.331 -0.2591 -0.0192  0.2226
 8275SOL    HW136458   3.952   0.358  15.303 -1.2166 -3.1843 -0.5735
 8275SOL    HW236459   4.086   0.406  15.343 -0.3359 -0.2859  2.3641
 8276SOL     OW36460   2.814   2.097   8.677  0.3538 -0.9060  0.0368
 8276SOL    HW136461   2.851   2.164   8.619  2.2651 -0.2800  1.9782
 8276SOL    HW236462   2.752   2.046   8.626  0.8283 -1.3719 -0.0801
 8277SOL     OW36463   4.162   2.741   5.401 -0.1316  0.3267 -0.2291
 8277SOL    HW136464   4.134   2.701   5.484 -1.6714  0.3973 -0.7116
 8277SOL    HW236465   4.103   2.694   5.342  1.1482 -1.7880  0.1842
 8278SOL     OW36466   2.749   2.265  10.088 -0.2010 -0.4915 -0.0959
 8278SOL    HW136467   2.692   2.206  10.040 -0.6028 -0.9399  0.9234
 8278SOL    HW236468   2.818   2.211  10.127  0.5181  0.5808  0.1241
 8279SOL     OW36469   3.890   4.418  15.892  0.3994 -0.0238  0.6152
 8279SOL    HW136470   3.899   4.389  15.983 -3.2462 -1.9006  0.3312
 8279SOL    HW236471   3.846   4.347  15.846  0.2156 -0.3810  1.3338
 8280SOL     OW36472   3.412   2.651  16.550  0.6554 -0.0116  0.1989
 8280SOL    HW136473   3.477   2.584  16.569 -1.5353 -2.0693  0.3753
 8280SOL    HW236474   3.452   2.729  16.588 -0.2737  1.3628 -1.6362
 8281SOL     OW36475   0.151   3.972   2.150  0.1017  0.1836  0.1240
 8281SOL    HW136476   0.076   3.957   2.207 -1.2091 -0.4413 -1.7447
 8281SOL    HW236477   0.107   4.003   2.070  0.9486  1.6235  0.2113
 8282SOL     OW36478   1.769   3.977   3.125  0.2198  0.0581  0.8533
 8282SOL    HW136479   1.717   3.925   3.063 -2.1851  2.5839  0.7556
 8282SOL    HW236480   1.847   3.921   3.123  0.4449  0.3953  0.1532
 8283SOL     OW36481   3.713   0.184   8.271  0.2927 -0.0891  0.1084
 8283SOL    HW136482   3.677   0.214   8.354 -2.4976 -2.2822 -0.3040
 8283SOL    HW236483   3.712   0.265   8.219 -1.0355 -0.7911 -0.9857
 8284SOL     OW36484   1.808   2.090   3.068 -0.2668  0.1881 -0.4355
 8284SOL    HW136485   1.864   2.051   3.135  0.1667  2.4996  0.5401
 8284SOL    HW236486   1.868   2.079   2.994 -0.1458  2.7867 -0.6997
 8285SOL     OW36487   0.176   0.806  17.341  0.3469  0.9110  0.5535
 8285SOL    HW136488   0.205   0.725  17.384 -1.1183 -0.3143 -0.7660
 8285SOL    HW236489   0.253   0.863  17.342 -0.4768  2.0217  0.1891
 8286SOL     OW36490   4.219   0.753  12.404 -0.0931 -0.9705 -0.2299
 8286SOL    HW136491   4.166   0.791  12.473  0.4800  0.8931 -0.8170
 8286SOL    HW236492   4.279   0.822  12.375 -2.3098  1.2524  0.5203
 8287SOL     OW36493   1.354   4.348   1.467  0.3360  0.5437 -0.1054
 8287SOL    HW136494   1.289   4.400   1.515  1.4632  2.8864 -1.0898
 8287SOL    HW236495   1.426   4.364   1.528 -1.1345 -0.8750  1.9919
 8288SOL     OW36496   2.045   3.626  15.879  0.1049 -0.0265 -0.4037
 8288SOL    HW136497   2.036   3.544  15.831  0.3828 -0.6371  0.5884
 8288SOL    HW236498   1.957   3.648  15.848 -0.2147  1.8526  1.8196
 8289SOL     OW36499   0.089   2.426  17.305  0.1266  0.2981 -0.0405
 8289SOL    HW136500   0.132   2.395  17.225  2.0430 -1.4310  1.6513
 8289SOL    HW236501   0.160   2.479  17.341  0.3121  0.7317 -1.0364
 8290SOL     OW36502   3.827   3.841  15.119  0.4744  0.2251  0.2395
 8290SOL    HW136503   3.799   3.752  15.140 -0.4901  0.3983 -0.3596
 8290SOL    HW236504   3.822   3.838  15.024  1.9315  1.3470  0.1365
 8291SOL     OW36505   2.422   3.617  13.127  0.5154  0.3724 -0.0948
 8291SOL    HW136506   2.426   3.560  13.050  1.2120 -0.6159  0.6761
 8291SOL    HW236507   2.515   3.619  13.152  0.7174 -1.7225 -0.6696
 8292SOL     OW36508   4.620   1.116   7.841  0.3662 -0.0367 -0.4110
 8292SOL    HW136509   4.532   1.101   7.875 -0.5997  0.7295 -2.5986
 8292SOL    HW236510   4.657   1.162   7.917  1.0415  0.0009 -0.7624
 8293SOL     OW36511   4.725   4.445   5.180  0.0576  0.1969  0.0432
 8293SOL    HW136512   4.715   4.375   5.245  1.4833  1.3918  1.5763
 8293SOL    HW236513   4.673   4.404   5.111 -1.9499  1.4584  0.8204
 8294SOL     OW36514   1.817   1.989   7.677 -0.2210  0.3005 -0.6875
 8294SOL    HW136515   1.757   2.001   7.750  1.1392  1.4171  0.2456
 8294SOL    HW236516   1.887   2.047   7.706 -1.4917 -0.1154  3.1788
 8295SOL     OW36517   3.872   1.654   1.474 -0.8402 -0.0601  0.3177
 8295SOL    HW136518   3.819   1.641   1.553 -0.7082  0.8491  0.5561
 8295SOL    HW236519   3.846   1.742   1.446 -1.6817 -0.4649 -0.1860
 8296SOL     OW36520   3.444   3.365   6.051 -0.0685 -1.2144  0.1001
 8296SOL    HW136521   3.418   3.289   5.999  1.8374 -0.8218 -1.4200
 8296SOL    HW236522   3.461   3.436   5.989  1.6780 -0.5510  1.3298
 8297SOL     OW36523   4.193   1.666   4.919  0.1100  0.0736 -0.7053
 8297SOL    HW136524   4.247   1.731   4.962  3.2479 -1.3262 -2.5162
 8297SOL    HW236525   4.155   1.627   4.998  1.5939  0.8243  0.3748
 8298SOL     OW36526   2.839   0.545   3.236 -0.5185  0.2572 -0.1159
 8298SOL    HW136527   2.892   0.608   3.187 -0.2255  0.4222  0.4244
 8298SOL    HW236528   2.853   0.464   3.187  0.9382  2.0299 -2.6242
 8299SOL     OW36529   2.517   2.273  11.273  0.1000 -0.5375  0.0095
 8299SOL    HW136530   2.512   2.224  11.190  0.1271  1.6179 -1.2678
 8299SOL    HW236531   2.435   2.258  11.321  1.7723 -1.0016  2.7179
 8300SOL     OW36532   1.212   3.127   1.913 -0.0266 -0.4682  0.3109
 8300SOL    HW136533   1.117   3.120   1.900  0.0357  1.1893 -0.9635
 8300SOL    HW236534   1.225   3.117   2.008 -2.3064 -0.3288  0.6543
 8301SOL     OW36535   1.926   4.176   2.911 -0.3696 -0.5865 -0.4055
 8301SOL    HW136536   1.958   4.260   2.877 -2.7278  0.3170 -0.3880
 8301SOL    HW236537   1.892   4.202   2.996 -0.1466  1.2534 -0.8818
 8302SOL     OW36538   1.537   4.045   2.319  0.0496 -0.4248  0.4774
 8302SOL    HW136539   1.603   4.010   2.259  1.1916 -0.2228  1.6328
 8302SOL    HW236540   1.488   3.963   2.319 -0.9634  0.1757 -0.1790
 8303SOL     OW36541   1.672   0.448   7.998  0.2755  0.3759  0.0607
 8303SOL    HW136542   1.599   0.389   7.979  0.5025  0.4877 -1.1968
 8303SOL    HW236543   1.640   0.534   7.971  1.3165  0.4388 -0.9933
 8304SOL     OW36544   1.523   4.025   9.055  0.0112  0.7203 -0.3273
 8304SOL    HW136545   1.608   4.036   9.099  0.6121  0.8553 -1.5268
 8304SOL    HW236546   1.477   4.002   9.136  0.2058  1.3282 -0.0419
 8305SOL     OW36547   2.881   1.961  10.794  0.1305 -0.6002  0.2857
 8305SOL    HW136548   2.894   2.003  10.879  2.9629  0.5440 -0.7296
 8305SOL    HW236549   2.950   2.000  10.740  0.0515  0.9240  1.2858
 8306SOL     OW36550   4.041   2.873   1.956 -0.1640 -0.8623  0.1412
 8306SOL    HW136551   4.066   2.868   2.048 -3.2540 -0.7206  0.9837
 8306SOL    HW236552   3.973   2.808   1.936 -2.0299  1.5483 -1.3912
 8307SOL     OW36553   0.560   3.104  13.257 -0.6139 -0.0013  0.2000
 8307SOL    HW136554   0.558   3.056  13.339 -1.0174 -1.7986 -0.8733
 8307SOL    HW236555   0.647   3.145  13.261 -1.1023  1.2061 -1.2311
 8308SOL     OW36556   3.135   4.461  15.266 -0.7377  0.7128 -0.4299
 8308SOL    HW136557   3.068   4.512  15.311 -0.1911  0.6628  0.4455
 8308SOL    HW236558   3.097   4.440  15.181  0.8347 -2.3862 -0.3704
 8309SOL     OW36559   0.590   3.407   8.175  0.1770 -0.1111  0.2974
 8309SOL    HW136560   0.554   3.483   8.129  1.5762  0.4771  0.1828
 8309SOL    HW236561   0.661   3.453   8.220 -1.3375  0.4367  2.1215
 8310SOL     OW36562   0.972   2.465   7.768 -0.0337 -0.1599 -0.6920
 8310SOL    HW136563   0.980   2.453   7.674  1.4699  1.4270 -0.7737
 8310SOL    HW236564   0.923   2.548   7.766  1.0862  0.4914 -0.8673
 8311SOL     OW36565   1.495   2.694   4.071  0.4028  0.1607  0.2068
 8311SOL    HW136566   1.454   2.616   4.034  0.7506 -0.1378  0.4474
 8311SOL    HW236567   1.536   2.730   3.992  0.3736  0.4054  0.3035
 8312SOL     OW36568   1.546   2.096   4.300 -0.1744 -0.2200 -0.5618
 8312SOL    HW136569   1.500   2.013   4.298  0.3437 -0.4724 -1.9425
 8312SOL    HW236570   1.635   2.060   4.300  0.2343  0.7825 -0.9233
 8313SOL     OW36571   1.681   0.999   7.061 -0.4968 -0.1233 -0.3693
 8313SOL    HW136572   1.674   0.993   6.966  0.9391 -0.9643 -0.4322
 8313SOL    HW236573   1.722   0.914   7.075  1.8331  0.7294 -1.9222
 8314SOL     OW36574   2.764   2.425   7.837 -0.0083  0.0029 -0.6970
 8314SOL    HW136575   2.722   2.429   7.751 -1.3521 -0.6399 -0.0622
 8314SOL    HW236576   2.852   2.457   7.817  0.5841 -1.6261 -0.6547
 8315SOL     OW36577   1.043   4.564   5.859  0.2936 -0.2682  0.0035
 8315SOL    HW136578   1.053   4.652   5.824  0.1559  0.3121  1.4667
 8315SOL    HW236579   1.062   4.584   5.951 -1.8513  0.1977  0.3289
 8316SOL     OW36580   2.667   3.050   4.517 -0.1568 -0.4909  0.2378
 8316SOL    HW136581   2.574   3.059   4.493  0.6436  2.1821 -1.8116
 8316SOL    HW236582   2.708   3.129   4.483  1.2525 -1.0416  0.6803
 8317SOL     OW36583   0.582   3.200   1.691  0.2904 -0.3912  0.0991
 8317SOL    HW136584   0.538   3.279   1.720 -0.5305  0.6724 -4.0129
 8317SOL    HW236585   0.626   3.170   1.770  1.0745 -1.7199 -0.8278
 8318SOL     OW36586   1.802   3.129   7.264 -0.5821 -0.0213  0.3280
 8318SOL    HW136587   1.798   3.179   7.183 -1.0117 -2.0635 -0.9148
 8318SOL    HW236588   1.810   3.199   7.329 -0.2354  1.0940 -0.9336
 8319SOL     OW36589   2.052   0.797   3.617 -0.0136  0.6216  0.2658
 8319SOL    HW136590   2.069   0.880   3.661 -0.4208  0.3186  1.0055
 8319SOL    HW236591   1.958   0.795   3.635  0.1396 -2.7852  0.8122
 8320SOL     OW36592   0.679   1.780   3.750 -0.3878  0.2328 -0.3580
 8320SOL    HW136593   0.631   1.710   3.706  0.5271  0.2205 -1.3290
 8320SOL    HW236594   0.619   1.849   3.722  0.0875  0.1615 -1.5590
 8321SOL     OW36595   0.644   4.387   8.117  0.1703 -0.9122  0.0935
 8321SOL    HW136596   0.635   4.373   8.022 -0.7145 -2.3125  0.3945
 8321SOL    HW236597   0.738   4.370   8.125  0.4334  0.6094  0.3427
 8322SOL     OW36598   1.092   4.565   3.597 -0.3361  0.6701  0.0793
 8322SOL    HW136599   1.099   4.470   3.590  0.3791  1.0418 -3.8115
 8322SOL    HW236600   1.010   4.568   3.646  0.4013 -2.9193  1.5452
 8323SOL     OW36601   2.669   4.715   5.111  0.0444  0.4517  0.3309
 8323SOL    HW136602   2.718   4.637   5.138 -0.5634 -0.2482 -0.5973
 8323SOL    HW236603   2.596   4.678   5.061  0.8075  0.6172 -0.9035
 8324SOL     OW36604   2.357   3.022   5.565 -0.0805  0.1502  0.0329
 8324SOL    HW136605   2.287   3.052   5.507 -0.4082 -0.5265  0.0787
 8324SOL    HW236606   2.321   2.943   5.607 -0.0498 -0.0915 -0.3928
 8325SOL     OW36607   4.309   4.154   4.079 -0.0599 -0.2039  0.1142
 8325SOL    HW136608   4.319   4.217   4.150  0.7009 -1.0105  0.7300
 8325SOL    HW236609   4.236   4.200   4.040 -0.5049 -0.3001  0.8341
 8326SOL     OW36610   2.300   3.900   8.690  0.6079 -0.1075 -0.1905
 8326SOL    HW136611   2.246   3.975   8.716  0.6518 -0.7097  1.6462
 8326SOL    HW236612   2.385   3.913   8.732 -0.0283  0.8791  0.7962
 8327SOL     OW36613   0.154   3.678  13.017 -0.0535 -0.0381 -0.0647
 8327SOL    HW136614   0.232   3.636  13.054 -1.1493  0.8874  3.2930
 8327SOL    HW236615   0.188   3.766  12.999  0.0865  0.4889  2.7688
 8328SOL     OW36616   2.824   3.359   8.301 -0.1851 -0.3567  0.3807
 8328SOL    HW136617   2.861   3.339   8.387 -1.5901  0.2298  1.1222
 8328SOL    HW236618   2.893   3.327   8.244  0.8378 -0.8816  1.9066
 8329SOL     OW36619   3.606   0.687  17.236 -0.0909  0.0737  0.9466
 8329SOL    HW136620   3.679   0.683  17.298  0.4510  1.6179  0.4092
 8329SOL    HW236621   3.645   0.634  17.167 -0.1204 -1.2787  1.9744
 8330SOL     OW36622   0.791   2.712  11.497  0.3439 -0.5820  0.1721
 8330SOL    HW136623   0.792   2.644  11.429  0.3907  0.6543 -1.0587
 8330SOL    HW236624   0.862   2.769  11.467 -1.6621  0.5038 -2.4594
 8331SOL     OW36625   2.746   0.594  14.987  0.3600 -0.2501  0.1595
 8331SOL    HW136626   2.668   0.650  14.992  1.0609  1.0278 -3.5386
 8331SOL    HW236627   2.770   0.625  14.900 -0.8134 -0.5949 -0.2925
 8332SOL     OW36628   2.702   3.897   5.563  0.1884  0.1886 -0.2636
 8332SOL    HW136629   2.713   3.984   5.524  1.0432  0.5411  0.7607
 8332SOL    HW236630   2.745   3.835   5.503  0.6621  0.2789 -0.0131
 8333SOL     OW36631   4.298   1.512   7.250 -0.1792  0.5488  0.4682
 8333SOL    HW136632   4.312   1.436   7.193  0.9633  0.9923  0.1408
 8333SOL    HW236633   4.379   1.551   7.217 -1.2553  0.7751 -1.9485
 8334SOL     OW36634   0.410   2.174   1.967  0.2114  0.0580 -0.1966
 8334SOL    HW136635   0.389   2.265   1.946  0.4329  0.2754  0.5133
 8334SOL    HW236636   0.438   2.187   2.058  4.4717  1.1089 -1.6407
 8335SOL     OW36637   3.294   4.121  12.309 -0.1962 -0.2068  0.2942
 8335SOL    HW136638   3.250   4.117  12.394 -1.7681 -1.1614 -0.5735
 8335SOL    HW236639   3.379   4.079  12.323 -0.9192 -2.3820 -1.9877
 8336SOL     OW36640   3.424   0.577   4.365  0.1830 -0.4285  0.0338
 8336SOL    HW136641   3.339   0.541   4.392  0.7870 -0.0039  2.4491
 8336SOL    HW236642   3.437   0.543   4.276 -0.5155 -1.0159  0.1554
 8337SOL     OW36643   1.099   4.632   7.586 -0.0810  0.2485 -0.1218
 8337SOL    HW136644   1.146   4.716   7.585  0.1287  0.1280 -0.3397
 8337SOL    HW236645   1.027   4.650   7.526  0.0588  0.4117 -0.2423
 8338SOL     OW36646   1.336   3.607   1.969 -0.1607 -0.2094 -0.1489
 8338SOL    HW136647   1.429   3.626   1.955 -0.4733  1.1780 -0.3776
 8338SOL    HW236648   1.341   3.512   1.979 -1.2820 -0.3392 -0.9083
 8339SOL     OW36649   0.159   4.224   7.143 -0.2225  0.2504 -0.3231
 8339SOL    HW136650   0.096   4.180   7.086  0.8999 -2.4176  0.4929
 8339SOL    HW236651   0.184   4.151   7.200  1.4032  1.9485  1.1517
 8340SOL     OW36652   4.148   3.230   3.407  0.0730  0.5143 -0.0837
 8340SOL    HW136653   4.242   3.214   3.416  0.1729  0.2017 -1.6983
 8340SOL    HW236654   4.137   3.181   3.325  0.3989 -0.9795  0.7693
 8341SOL     OW36655   3.088   1.349   5.131 -0.3647  0.6212  0.0503
 8341SOL    HW136656   3.175   1.365   5.166 -2.2915  5.9831  2.3459
 8341SOL    HW236657   3.090   1.257   5.105  0.4541  1.2643 -2.2325
 8342SOL     OW36658   1.605   4.145   7.141  0.0283 -0.3457  0.4387
 8342SOL    HW136659   1.591   4.235   7.171 -0.7634  1.1934 -4.4667
 8342SOL    HW236660   1.660   4.169   7.066 -2.7889  1.8124 -0.9478
 8343SOL     OW36661   4.483   4.456   2.349  0.0758  0.4094  0.1480
 8343SOL    HW136662   4.540   4.482   2.421  1.3825  2.3824 -1.5810
 8343SOL    HW236663   4.396   4.457   2.389  2.0423  2.1702  4.3336
 8344SOL     OW36664   0.881   4.690   2.942 -0.7426 -0.0227 -0.2488
 8344SOL    HW136665   0.939   0.002   2.882 -1.5256  2.4445  0.9732
 8344SOL    HW236666   0.810   4.668   2.882 -0.6473 -0.2422 -0.2789
 8345SOL     OW36667   3.854   0.761   9.047  0.0534  0.2526  0.2855
 8345SOL    HW136668   3.913   0.722   8.982  0.2650  1.5574 -0.3045
 8345SOL    HW236669   3.907   0.839   9.064  0.8318 -0.2543  0.1978
 8346SOL     OW36670   4.609   4.113   4.211 -0.2398 -0.9994  0.5247
 8346SOL    HW136671   4.594   4.163   4.130  0.2793 -1.0668  0.3895
 8346SOL    HW236672   4.519   4.090   4.233 -0.6079 -0.2924 -0.2209
 8347SOL     OW36673   0.035   3.094   4.852 -0.2825  0.3457  0.1078
 8347SOL    HW136674   4.713   3.156   4.810  1.4684  0.6537 -1.8395
 8347SOL    HW236675   0.101   3.144   4.899 -1.6675  1.3864  0.9549
 8348SOL     OW36676   3.693   1.132   1.396  0.0556  0.0915  0.0686
 8348SOL    HW136677   3.742   1.129   1.478  0.4018  1.8904 -0.0799
 8348SOL    HW236678   3.605   1.169   1.408 -1.5721 -3.5032 -0.7382
 8349SOL     OW36679   0.623   1.310   0.176  0.0814 -0.2152 -0.0229
 8349SOL    HW136680   0.645   1.275   0.090  0.1583  1.1589 -0.5671
 8349SOL    HW236681   0.528   1.301   0.190  0.2404 -0.5532  0.8279
 8350SOL     OW36682   3.860   1.118   6.368 -0.3914  0.0866  0.2016
 8350SOL    HW136683   3.843   1.205   6.405 -0.9862 -0.2630  0.7478
 8350SOL    HW236684   3.896   1.068   6.442 -2.0485 -2.0339 -0.4191
 8351SOL     OW36685   2.047   2.438  13.506  0.0290  0.4586  0.4142
 8351SOL    HW136686   2.067   2.403  13.593  0.2331  2.9497  1.3635
 8351SOL    HW236687   2.035   2.530  13.525  0.6416  0.7624 -0.6415
 8352SOL     OW36688   4.447   0.788   2.993  0.1099  0.4381 -0.1288
 8352SOL    HW136689   4.478   0.864   2.944 -1.9858  1.3669 -0.0022
 8352SOL    HW236690   4.532   0.773   3.034  0.3741  0.8355 -0.5241
 8353SOL     OW36691   0.721   0.612  10.209 -0.2947  0.2219 -0.0175
 8353SOL    HW136692   0.680   0.694  10.180 -0.5302  0.8344  2.0181
 8353SOL    HW236693   0.695   0.547  10.145 -0.4637 -2.3040  2.6067
 8354SOL     OW36694   2.704   3.589   8.072 -0.2495  0.0221  0.3061
 8354SOL    HW136695   2.781   3.539   8.101  0.0845  0.6681  0.5468
 8354SOL    HW236696   2.727   3.678   8.102 -0.3711 -0.1684  0.9761
 8355SOL     OW36697   4.258   1.839   2.282  0.0996 -0.3335 -0.1793
 8355SOL    HW136698   4.298   1.754   2.301  0.7963 -0.0452 -0.3805
 8355SOL    HW236699   4.182   1.818   2.228 -0.3264  1.4219 -0.2586
 8356SOL     OW36700   4.540   0.994   1.637 -0.2159  0.4702 -0.3642
 8356SOL    HW136701   4.537   1.068   1.576 -0.2502  0.6527 -0.1420
 8356SOL    HW236702   4.557   1.051   1.712  0.3555  0.4135 -0.4498
 8357SOL     OW36703   3.572   0.117   2.185  0.7288  0.3053  0.1296
 8357SOL    HW136704   3.661   0.100   2.153  1.8019 -0.3884  3.5689
 8357SOL    HW236705   3.588   0.130   2.278 -0.8293  0.8094  0.3255
 8358SOL     OW36706   0.586   0.969   1.534  0.0945 -0.7709 -0.0020
 8358SOL    HW136707   0.580   1.051   1.582  1.2436 -0.3724 -0.5429
 8358SOL    HW236708   0.527   0.981   1.460  0.5139 -0.0326 -0.2147
 8359SOL     OW36709   3.621   2.681  11.601 -0.4013  0.4160 -0.4130
 8359SOL    HW136710   3.579   2.763  11.575 -1.2774  0.3051  0.6623
 8359SOL    HW236711   3.604   2.631  11.522 -0.8048  3.0770 -1.9972
 8360SOL     OW36712   2.532   2.023   6.629  0.4854 -0.1809  0.2314
 8360SOL    HW136713   2.561   1.933   6.643 -0.5054 -0.5700 -0.2271
 8360SOL    HW236714   2.468   2.042   6.698 -1.9010 -2.0802 -1.4581
 8361SOL     OW36715   0.382   2.472   0.633 -0.0236  0.3188 -0.3033
 8361SOL    HW136716   0.422   2.386   0.649 -0.0295 -0.0062 -2.0519
 8361SOL    HW236717   0.427   2.524   0.700 -0.7740  1.4379 -0.6685
 8362SOL     OW36718   3.811   2.076   7.284  0.1665 -0.4153 -0.2364
 8362SOL    HW136719   3.785   2.016   7.214 -0.6356 -0.5914  0.2066
 8362SOL    HW236720   3.764   2.026   7.351  0.2379 -0.5123 -0.2582
 8363SOL     OW36721   1.052   1.152   8.515 -0.0559 -0.1324 -0.3376
 8363SOL    HW136722   1.129   1.097   8.501 -0.6016 -1.1175  0.5926
 8363SOL    HW236723   1.093   1.236   8.537  0.1941 -0.8837  2.0377
 8364SOL     OW36724   0.746   3.686   1.219  0.6283 -0.2193 -0.2008
 8364SOL    HW136725   0.790   3.613   1.175 -0.4361 -1.3351  0.5959
 8364SOL    HW236726   0.658   3.675   1.184  0.4886 -0.7976  0.3411
 8365SOL     OW36727   1.833   2.249   8.383  0.2815  0.2946  0.3546
 8365SOL    HW136728   1.876   2.176   8.338 -0.9399  0.2545 -0.7358
 8365SOL    HW236729   1.822   2.307   8.308  1.4446 -2.1085 -1.6851
 8366SOL     OW36730   1.162   1.257   3.347  0.0573 -0.3295  0.8180
 8366SOL    HW136731   1.210   1.271   3.265  2.1809  1.6468  2.3910
 8366SOL    HW236732   1.228   1.199   3.386 -0.7035 -0.5551  1.7517
 8367SOL     OW36733   2.856   4.011  14.659  0.8194 -0.4048  0.1751
 8367SOL    HW136734   2.814   4.082  14.708  4.0419  1.2701  0.4738
 8367SOL    HW236735   2.948   4.021  14.683  1.5273 -0.6756 -2.4206
 8368SOL     OW36736   4.412   4.239  15.294 -0.2997  0.2775 -0.1730
 8368SOL    HW136737   4.473   4.170  15.267  1.3376  1.7334 -0.1584
 8368SOL    HW236738   4.339   4.231  15.232  1.1571  0.7437 -1.9630
 8369SOL     OW36739   1.224   2.095   1.421 -0.0697 -0.3336  0.9073
 8369SOL    HW136740   1.204   2.017   1.473 -0.9152 -1.0248 -0.4401
 8369SOL    HW236741   1.319   2.090   1.413 -0.1720  2.8756 -2.4633
 8370SOL     OW36742   3.904   3.009   6.025  0.6529  0.0007 -0.6134
 8370SOL    HW136743   3.948   2.926   6.038  0.0120 -0.2438 -0.0328
 8370SOL    HW236744   3.946   3.065   6.090 -0.6743 -0.6193  0.7619
 8371SOL     OW36745   0.473   3.096   0.591 -0.2334 -0.1258  0.5954
 8371SOL    HW136746   0.480   3.076   0.685  0.9284 -2.8371 -0.0656
 8371SOL    HW236747   0.405   3.033   0.567 -1.3259  0.6623  1.6075
 8372SOL     OW36748   0.388   2.472   2.545 -0.0730  0.0443 -0.2968
 8372SOL    HW136749   0.361   2.419   2.620  0.0317 -0.8398 -0.8847
 8372SOL    HW236750   0.484   2.467   2.546 -0.2238 -2.4659 -0.3941
 8373SOL     OW36751   3.096   1.999   3.823  0.5862 -0.6004 -0.1773
 8373SOL    HW136752   3.057   1.912   3.831  0.4920 -0.4594  0.9565
 8373SOL    HW236753   3.154   1.994   3.899 -1.3916 -0.7955  1.3228
 8374SOL     OW36754   4.432   2.814   7.632  0.4117  0.1529 -1.2341
 8374SOL    HW136755   4.525   2.808   7.652  0.3793 -0.4818 -1.2720
 8374SOL    HW236756   4.429   2.871   7.555 -0.6200  2.5547  0.5611
 8375SOL     OW36757   3.666   2.417  10.083  0.1493  0.3024 -0.8134
 8375SOL    HW136758   3.598   2.461  10.031  0.1700  0.7543 -0.4601
 8375SOL    HW236759   3.688   2.481  10.151  0.7360  0.1528 -0.8622
 8376SOL     OW36760   2.366   1.671  16.219 -0.6156 -0.0912  0.5028
 8376SOL    HW136761   2.324   1.649  16.303 -0.5761  1.5487  0.9559
 8376SOL    HW236762   2.437   1.609  16.206 -1.0518 -0.3219 -0.7241
 8377SOL     OW36763   1.627   1.264   7.527  0.3526 -0.1381 -0.0855
 8377SOL    HW136764   1.651   1.173   7.509  0.0143 -0.6720  2.2041
 8377SOL    HW236765   1.617   1.298   7.438 -5.1912 -2.1035 -0.1867
 8378SOL     OW36766   3.841   3.021   8.716 -0.2630  0.2464  0.6644
 8378SOL    HW136767   3.916   3.055   8.765  0.3057 -0.7816  0.4980
 8378SOL    HW236768   3.858   3.067   8.634 -2.6343  1.7886  1.0119
 8379SOL     OW36769   1.830   0.228   4.228  0.2727 -0.4811 -0.5691
 8379SOL    HW136770   1.789   0.257   4.147 -0.5423  0.7170  0.2701
 8379SOL    HW236771   1.908   0.188   4.189  0.0098 -1.0227 -0.5342
 8380SOL     OW36772   4.323   2.285   3.859  0.2030  0.7094 -0.3589
 8380SOL    HW136773   4.330   2.237   3.776  3.1684  0.5061  0.0126
 8380SOL    HW236774   4.334   2.376   3.831  0.5376  0.5767 -0.6665
 8381SOL     OW36775   0.109   4.669   2.188  0.0179 -0.4326 -0.4954
 8381SOL    HW136776   0.152   0.018   2.191 -0.4865 -0.1285 -2.2737
 8381SOL    HW236777   0.084   4.673   2.281 -0.6471  0.2156 -0.7005
 8382SOL     OW36778   2.364   3.874   0.516  0.6832  0.2207 -0.0285
 8382SOL    HW136779   2.408   3.800   0.559  0.7670  0.5629  0.4751
 8382SOL    HW236780   2.283   3.830   0.488  1.0189 -0.2768 -0.2282
 8383SOL     OW36781   4.692   1.280   0.292  0.5989 -0.0889 -0.4345
 8383SOL    HW136782   4.734   1.337   0.228 -1.6017  1.7170 -0.3009
 8383SOL    HW236783   0.010   1.294   0.369 -0.3517 -1.2949  0.4613
 8384SOL     OW36784   0.441   1.570  16.393  0.2479 -0.0297 -0.8303
 8384SOL    HW136785   0.502   1.643  16.380 -2.5123  1.8063 -3.5478
 8384SOL    HW236786   0.365   1.600  16.343  0.5987 -1.4462 -2.1880
 8385SOL     OW36787   2.658   1.641   4.933  0.3240  0.3908  0.0675
 8385SOL    HW136788   2.700   1.558   4.915 -0.2062 -0.1878  1.4882
 8385SOL    HW236789   2.710   1.665   5.010 -0.3806 -0.6271  0.8580
 8386SOL     OW36790   0.720   4.310   5.346 -0.5008 -0.3324 -0.3503
 8386SOL    HW136791   0.673   4.231   5.376 -2.6679  1.3194  0.6718
 8386SOL    HW236792   0.798   4.316   5.401 -0.0651  2.4487 -1.3047
 8387SOL     OW36793   1.927   1.120   8.343  0.2910  0.2345  0.0767
 8387SOL    HW136794   1.930   1.193   8.404 -2.7236  0.4275 -0.0080
 8387SOL    HW236795   1.917   1.168   8.261 -2.1433 -0.4865 -0.0347
 8388SOL     OW36796   1.713   2.781   1.257  0.3879  0.1942 -0.5111
 8388SOL    HW136797   1.627   2.743   1.239 -0.5508  2.2806 -0.4996
 8388SOL    HW236798   1.761   2.700   1.241 -0.9332 -0.9563  1.3791
 8389SOL     OW36799   3.831   3.387  17.362  0.1353  0.0011  0.1076
 8389SOL    HW136800   3.882   3.310  17.335 -0.2142 -0.4962  0.8684
 8389SOL    HW236801   3.897   3.454  17.381  0.4591 -0.2437 -0.1502
 8390SOL     OW36802   1.658   3.127  13.707  0.6871 -0.5129 -0.2799
 8390SOL    HW136803   1.574   3.109  13.664  0.9955 -0.2234 -0.9999
 8390SOL    HW236804   1.663   3.220  13.688 -0.9804 -0.5517 -0.9392
 8391SOL     OW36805   3.658   0.838   5.550 -0.3999  0.3843  0.8117
 8391SOL    HW136806   3.563   0.830   5.537 -0.7687  2.8385  1.9306
 8391SOL    HW236807   3.652   0.891   5.630 -1.6797  1.2387  0.1532
 8392SOL     OW36808   1.945   0.854   0.798  0.0739 -0.1346 -0.2333
 8392SOL    HW136809   1.850   0.859   0.790  0.0295 -0.9113 -0.2807
 8392SOL    HW236810   1.957   0.900   0.881  1.1603  0.1451 -0.5517
 8393SOL     OW36811   4.454   1.346   2.039  0.1854 -0.3408  0.1407
 8393SOL    HW136812   4.531   1.341   2.096  1.6461  2.5812 -1.5599
 8393SOL    HW236813   4.491   1.414   1.982 -2.2881 -0.5283 -1.7127
 8394SOL     OW36814   0.702   0.191  15.766 -0.3275 -0.4788 -0.6025
 8394SOL    HW136815   0.743   0.174  15.851  0.2676 -1.2189 -1.0357
 8394SOL    HW236816   0.768   0.251  15.731  0.0902 -0.4758  0.2025
 8395SOL     OW36817   3.906   4.629   4.785 -0.6158  0.1418 -0.0799
 8395SOL    HW136818   3.979   4.569   4.768  0.7988  2.2808 -1.5922
 8395SOL    HW236819   3.944   4.681   4.856  1.6637  0.5178 -1.5334
 8396SOL     OW36820   1.868   4.317   5.908 -0.0712  0.1191  0.6634
 8396SOL    HW136821   1.957   4.298   5.880 -0.5005  2.1661 -2.1602
 8396SOL    HW236822   1.817   4.251   5.861  0.7709  0.3693 -0.5975
 8397SOL     OW36823   0.085   4.487   1.331  0.2822 -0.3632  0.1502
 8397SOL    HW136824   0.109   4.413   1.385  1.2115 -1.3331 -1.5988
 8397SOL    HW236825   0.050   4.441   1.255  0.1640 -1.8875  1.1287
 8398SOL     OW36826   0.783   0.229  11.310  0.5809 -0.0351  0.1565
 8398SOL    HW136827   0.833   0.186  11.379 -1.4458 -0.0976  1.5937
 8398SOL    HW236828   0.704   0.175  11.313  0.5608 -0.1654 -2.9408
 8399SOL     OW36829   1.786   0.261   8.461  0.3451  0.6721  0.5115
 8399SOL    HW136830   1.744   0.176   8.451  0.2650  0.5955  1.4985
 8399SOL    HW236831   1.787   0.294   8.371  1.6296  1.9872  0.9874
 8400SOL     OW36832   0.119   3.995   3.930 -0.4504 -0.3217  0.3821
 8400SOL    HW136833   0.173   3.928   3.889 -0.5083  0.4365 -0.9264
 8400SOL    HW236834   0.173   4.074   3.921 -2.3024  0.9070  0.1395
 8401SOL     OW36835   1.531   4.216   8.387 -0.4963  0.3074  0.0946
 8401SOL    HW136836   1.450   4.208   8.437 -0.1763 -0.5270  0.4734
 8401SOL    HW236837   1.514   4.160   8.312 -0.0630  0.9633 -0.5027
 8402SOL     OW36838   3.572   0.552   7.281 -0.0807  0.2840  0.0380
 8402SOL    HW136839   3.620   0.525   7.203  1.6723 -1.1895  1.6336
 8402SOL    HW236840   3.642   0.589   7.335  0.2871  0.4259 -0.5419
 8403SOL     OW36841   4.571   0.420   5.875  0.5571  0.6392 -0.1105
 8403SOL    HW136842   4.622   0.471   5.813  0.2926  1.3101  0.2294
 8403SOL    HW236843   4.562   0.335   5.832 -1.1622  0.2004  1.1145
 8404SOL     OW36844   0.775   0.505  13.933 -0.0641 -0.1804  0.3430
 8404SOL    HW136845   0.793   0.582  13.879  0.9235 -0.1794  0.6810
 8404SOL    HW236846   0.694   0.472  13.893  0.0653 -0.0593 -0.0184
 8405SOL     OW36847   3.104   1.110   4.996 -0.1390 -0.4225 -0.3277
 8405SOL    HW136848   3.012   1.095   4.973  0.7004 -2.0031 -2.6601
 8405SOL    HW236849   3.124   1.030   5.044  0.8656  1.1790  1.8963
 8406SOL     OW36850   2.295   3.945   5.276 -0.3692  0.9165  0.4008
 8406SOL    HW136851   2.267   3.889   5.349 -1.0263  1.7952  0.8236
 8406SOL    HW236852   2.388   3.924   5.280 -0.2711  1.2509 -0.1716
 8407SOL     OW36853   3.698   3.330   5.066 -0.2151 -0.1317  0.0849
 8407SOL    HW136854   3.711   3.239   5.039  0.4008  0.1442 -0.5436
 8407SOL    HW236855   3.787   3.364   5.055 -1.0132  1.1398 -2.3646
 8408SOL     OW36856   4.418   1.818   2.052 -0.1681  0.4258 -0.1961
 8408SOL    HW136857   4.333   1.802   2.093  1.1985 -4.0919  0.8972
 8408SOL    HW236858   4.463   1.870   2.119 -0.2011  0.4290 -0.1767
 8409SOL     OW36859   1.604   2.068   9.372 -0.2942 -0.0992  0.1860
 8409SOL    HW136860   1.561   1.991   9.334 -1.5855  1.0329 -0.6848
 8409SOL    HW236861   1.692   2.053   9.338  0.7096  1.0908  2.2751
 8410SOL     OW36862   2.319   2.566   7.507 -0.0718  0.5079 -0.2780
 8410SOL    HW136863   2.272   2.567   7.424 -0.0243  3.4378 -0.2765
 8410SOL    HW236864   2.326   2.660   7.525  0.3718  0.4423 -0.0943
 8411SOL     OW36865   0.867   2.478   7.001 -0.2305  0.3043 -0.5022
 8411SOL    HW136866   0.792   2.431   7.037  0.7058  0.3584  1.5278
 8411SOL    HW236867   0.900   2.535   7.070 -1.0092  0.2201 -0.0686
 8412SOL     OW36868   0.225   3.424   7.563  0.2587 -0.2170  0.7681
 8412SOL    HW136869   0.216   3.358   7.494  0.3694  1.6436 -1.0316
 8412SOL    HW236870   0.219   3.363   7.636  0.0413  0.1321  1.0392
 8413SOL     OW36871   2.847   1.041   4.914  0.8248  0.4135  0.2215
 8413SOL    HW136872   2.793   1.088   4.850  0.3411 -0.1037  0.2473
 8413SOL    HW236873   2.863   0.952   4.882  0.1030  0.7672 -1.1379
 8414SOL     OW36874   1.788   0.843   2.382 -0.3589  0.2664  0.2615
 8414SOL    HW136875   1.755   0.894   2.308 -2.5340  0.1647  1.1664
 8414SOL    HW236876   1.721   0.859   2.448 -1.6038  0.8812 -1.1480
 8415SOL     OW36877   2.333   3.864  14.153  0.7716  0.2477  0.2421
 8415SOL    HW136878   2.240   3.847  14.171  1.0945 -0.8256  0.9068
 8415SOL    HW236879   2.328   3.898  14.064 -2.0660 -1.4035 -0.2278
 8416SOL     OW36880   4.438   1.455   1.386  0.1464  0.0693  0.1927
 8416SOL    HW136881   4.498   1.527   1.401 -0.5021  1.1307 -2.3828
 8416SOL    HW236882   4.395   1.482   1.305 -0.7345  0.5267  0.8115
 8417SOL     OW36883   3.421   0.196   9.224 -0.0797  0.3936 -0.2396
 8417SOL    HW136884   3.375   0.266   9.271  1.4987 -0.3825  2.4744
 8417SOL    HW236885   3.465   0.251   9.159  0.3582  0.1702 -0.1326
 8418SOL     OW36886   4.224   4.017   7.418 -0.5185  0.0617  0.2263
 8418SOL    HW136887   4.140   4.004   7.463 -0.8642 -2.6802 -1.2456
 8418SOL    HW236888   4.263   4.069   7.489 -1.8212  0.4704  0.6481
 8419SOL     OW36889   1.146   1.631   3.932 -0.0823 -0.1842 -0.4989
 8419SOL    HW136890   1.059   1.611   3.897 -0.4526  0.8624 -0.1699
 8419SOL    HW236891   1.205   1.577   3.879  0.1416 -1.1095  0.7023
 8420SOL     OW36892   3.307   3.675   3.738 -0.1962 -0.2797  0.2500
 8420SOL    HW136893   3.381   3.706   3.687  1.2758 -0.4877  2.2593
 8420SOL    HW236894   3.351   3.610   3.793  0.8445  0.6167  0.4794
 8421SOL     OW36895   0.308   0.448   4.004  0.3899  0.2566 -0.4510
 8421SOL    HW136896   0.338   0.488   3.922  0.7561  1.0306  0.0567
 8421SOL    HW236897   0.270   0.363   3.986 -1.1567  1.5583 -3.3747
 8422SOL     OW36898   3.950   1.333   5.896  0.0170 -0.5171  0.3511
 8422SOL    HW136899   3.970   1.275   5.970 -1.7123 -3.8018 -1.7439
 8422SOL    HW236900   3.879   1.390   5.928 -1.2505 -1.2647 -1.1222
 8423SOL     OW36901   3.678   2.012  14.437 -0.0291  0.3320  0.4620
 8423SOL    HW136902   3.596   1.963  14.440 -0.9780  1.9047  0.1657
 8423SOL    HW236903   3.734   1.951  14.485 -0.8502  0.1190  1.1402
 8424SOL     OW36904   3.197   0.728  13.592 -0.2615 -0.1886 -0.0889
 8424SOL    HW136905   3.136   0.724  13.666 -2.3306  1.2720 -1.7492
 8424SOL    HW236906   3.221   0.636  13.599  2.5639  0.3658 -2.0436
 8425SOL     OW36907   1.507   2.472   3.897  0.0310  0.0406 -0.3452
 8425SOL    HW136908   1.499   2.402   3.961 -2.1652 -1.6608 -2.4597
 8425SOL    HW236909   1.585   2.442   3.850 -0.7685 -1.0881 -0.9582
 8426SOL     OW36910   2.327   2.590   7.049 -0.3360 -0.7937  0.5447
 8426SOL    HW136911   2.308   2.635   7.131 -0.0687  0.1141  0.1092
 8426SOL    HW236912   2.277   2.509   7.057 -0.5128 -0.7492 -0.0693
 8427SOL     OW36913   3.058   0.698   4.939  0.3879 -0.2823  0.1699
 8427SOL    HW136914   3.102   0.613   4.931  4.2894  2.0274 -2.9628
 8427SOL    HW236915   2.965   0.683   4.922  1.0206 -1.3025 -2.3452
 8428SOL     OW36916   0.911   0.116   7.744  0.1820  0.3187  0.2538
 8428SOL    HW136917   0.873   0.044   7.795  1.7483  0.3643  1.4748
 8428SOL    HW236918   0.857   0.101   7.666  0.7711  0.5781 -0.2078
 8429SOL     OW36919   3.505   0.173  13.014 -0.2533 -0.6267  0.5246
 8429SOL    HW136920   3.551   0.240  13.064  0.8161  0.0317 -1.3668
 8429SOL    HW236921   3.413   0.173  13.042 -0.5345  1.8106 -0.4102
 8430SOL     OW36922   2.545   1.670   3.565  0.4009  0.1387  0.0885
 8430SOL    HW136923   2.572   1.748   3.516 -2.9018  1.6651  0.6909
 8430SOL    HW236924   2.527   1.704   3.653  1.5669  1.2116 -0.0779
 8431SOL     OW36925   3.536   4.492  15.957  0.0671 -0.7126  0.3046
 8431SOL    HW136926   3.558   4.422  16.019 -0.1169  0.8230  2.1043
 8431SOL    HW236927   3.588   4.465  15.881  1.4054  3.4578 -0.2154
 8432SOL     OW36928   0.863   2.123   6.672 -0.0612 -0.0445  0.5682
 8432SOL    HW136929   0.864   2.168   6.587 -3.4446 -1.4507 -0.2146
 8432SOL    HW236930   0.953   2.146   6.694 -0.2419  0.0800  1.1779
 8433SOL     OW36931   2.078   3.741   9.162 -0.4828  0.4918  0.3263
 8433SOL    HW136932   1.992   3.775   9.186 -1.0066 -0.4070 -0.2901
 8433SOL    HW236933   2.056   3.655   9.127 -1.3959  1.7051 -2.1604
 8434SOL     OW36934   0.357   0.657  13.999 -0.0166  0.3241  0.2158
 8434SOL    HW136935   0.365   0.721  14.070  0.9518  0.6648 -0.2037
 8434SOL    HW236936   0.262   0.647  14.002  0.1917 -0.8660  2.5215
 8435SOL     OW36937   3.864   2.360   5.491  1.1605 -0.6513  0.3314
 8435SOL    HW136938   3.889   2.369   5.399 -1.6251  0.7812 -0.2988
 8435SOL    HW236939   3.769   2.374   5.497  0.8945 -0.9093 -3.1523
 8436SOL     OW36940   0.556   4.126   9.836 -0.7869 -0.2578 -0.2122
 8436SOL    HW136941   0.521   4.071   9.906  1.7416  0.6944  1.7989
 8436SOL    HW236942   0.513   4.088   9.760 -0.8747  0.5493 -0.5699
 8437SOL     OW36943   2.286   1.209   3.870  0.1503  0.0680 -0.2739
 8437SOL    HW136944   2.292   1.205   3.775 -0.4579  0.8596 -0.3417
 8437SOL    HW236945   2.227   1.281   3.890  2.2645  1.0147  2.5747
 8438SOL     OW36946   0.837   2.826   8.529  0.1372 -0.0487  0.2743
 8438SOL    HW136947   0.747   2.820   8.562 -0.0592  2.1468  0.1481
 8438SOL    HW236948   0.834   2.747   8.475 -0.1029 -0.3955  0.7873
 8439SOL     OW36949   4.417   3.013   6.138 -0.1083 -0.2251  0.2415
 8439SOL    HW136950   4.485   3.078   6.154  1.6875 -2.0285 -0.0683
 8439SOL    HW236951   4.392   3.037   6.049 -0.5610 -0.7721  0.2198
 8440SOL     OW36952   0.188   3.870   6.527 -0.1715  0.5159  0.8950
 8440SOL    HW136953   0.112   3.927   6.540 -0.7355 -0.2430  0.9873
 8440SOL    HW236954   0.252   3.939   6.543 -0.7811  0.8787  1.8034
 8441SOL     OW36955   4.607   2.934   2.473 -0.5848 -0.5147 -0.5115
 8441SOL    HW136956   4.676   2.991   2.439 -1.8158 -0.3875 -2.7786
 8441SOL    HW236957   4.645   2.848   2.458 -0.4448 -1.1325  3.2657
 8442SOL     OW36958   4.183   4.127  12.173  0.5918  0.2029  0.2485
 8442SOL    HW136959   4.123   4.069  12.220 -0.8950  2.0908  0.7061
 8442SOL    HW236960   4.205   4.189  12.242 -0.6792 -0.7594  1.5155
 8443SOL     OW36961   2.394   0.838  12.616 -0.3422  0.2534  0.4680
 8443SOL    HW136962   2.462   0.780  12.649  0.6186 -0.2615 -2.3799
 8443SOL    HW236963   2.325   0.811  12.676  0.1700  1.2180  1.4937
 8444SOL     OW36964   3.302   1.127   2.224 -0.4909 -0.4303 -0.0471
 8444SOL    HW136965   3.258   1.189   2.282  1.4556  0.0761  0.9221
 8444SOL    HW236966   3.368   1.092   2.284  0.1631 -0.9153 -1.0485
 8445SOL     OW36967   2.327   2.158  13.137 -0.1279 -0.0993  0.0974
 8445SOL    HW136968   2.322   2.122  13.225  1.1707  2.7835  1.3506
 8445SOL    HW236969   2.288   2.085  13.088  2.0911 -1.1770 -0.0897
 8446SOL     OW36970   2.794   3.156   9.127  0.4234 -0.3665 -0.9229
 8446SOL    HW136971   2.734   3.196   9.064 -0.0320  1.8777  0.9378
 8446SOL    HW236972   2.831   3.093   9.065 -0.8886 -1.1746 -0.8825
 8447SOL     OW36973   4.100   4.702   4.219  0.3819  0.1566 -0.4608
 8447SOL    HW136974   4.080   4.726   4.309  0.9258 -2.2570  0.3014
 8447SOL    HW236975   4.192   4.674   4.217 -0.0924 -1.3770 -0.1029
 8448SOL     OW36976   3.592   1.333   4.446  0.1060  0.5686  0.1371
 8448SOL    HW136977   3.687   1.327   4.445  0.2510  2.7583  0.8110
 8448SOL    HW236978   3.570   1.242   4.425 -1.5740  0.3990  2.6068
 8449SOL     OW36979   4.455   2.453   5.887  0.1630  0.5200 -0.1133
 8449SOL    HW136980   4.515   2.523   5.859 -0.8951  1.0163 -1.1817
 8449SOL    HW236981   4.423   2.416   5.805  0.0914 -2.1574  1.1394
 8450SOL     OW36982   2.385   1.364   5.303 -0.0566 -0.2844 -0.7488
 8450SOL    HW136983   2.296   1.360   5.269 -0.0384  1.0122 -0.9385
 8450SOL    HW236984   2.376   1.314   5.385  1.4542  0.0733 -0.3585
 8451SOL     OW36985   0.782   2.540   0.748  0.1449 -0.0574  0.2254
 8451SOL    HW136986   0.701   2.576   0.786  0.2294  0.3823 -0.0054
 8451SOL    HW236987   0.799   2.614   0.689 -2.4491  1.0397  0.8495
 8452SOL     OW36988   3.449   2.015  16.373 -0.1282 -0.3135  0.1527
 8452SOL    HW136989   3.402   1.934  16.353  0.5275 -0.8661  0.8611
 8452SOL    HW236990   3.448   2.012  16.469 -0.9139 -0.2795  0.1465
 8453SOL     OW36991   1.752   4.466   0.829  0.5045  0.3938  0.5303
 8453SOL    HW136992   1.771   4.385   0.783  0.0130  0.3692  0.3707
 8453SOL    HW236993   1.696   4.431   0.899  0.5665  0.4063  0.5863
 8454SOL     OW36994   1.222   3.478   4.994 -0.0637  0.1626  0.3623
 8454SOL    HW136995   1.157   3.518   4.937 -0.7040  1.6255  2.1361
 8454SOL    HW236996   1.172   3.401   5.022 -0.6018  0.2869 -0.2532
 8455SOL     OW36997   4.292   0.614   5.182 -0.1693  0.2342  0.7556
 8455SOL    HW136998   4.350   0.567   5.122  0.7112 -0.7745  2.4027
 8455SOL    HW236999   4.309   0.705   5.161  1.5008 -1.2146 -4.2317
 8456SOL     OW37000   1.142   0.942  15.919  0.2942 -0.2459 -0.3682
 8456SOL    HW137001   1.075   0.886  15.958  0.4244 -1.0148 -1.2451
 8456SOL    HW237002   1.116   1.034  15.925  0.0752 -0.3788  0.5940
 8457SOL     OW37003   3.679   1.665   2.166 -0.0367  0.7821 -0.3638
 8457SOL    HW137004   3.760   1.690   2.210  0.0269 -1.5277  0.8253
 8457SOL    HW237005   3.615   1.680   2.236 -0.4011  0.8905 -0.7165
 8458SOL     OW37006   2.461   0.518  15.920  0.4595 -0.6027 -0.0231
 8458SOL    HW137007   2.445   0.480  16.006 -0.4930 -1.0813 -0.4161
 8458SOL    HW237008   2.518   0.586  15.957 -0.5580 -0.0885  0.6192
 8459SOL     OW37009   1.007   3.415   2.342 -0.2697  1.0898 -0.4643
 8459SOL    HW137010   0.991   3.508   2.325  1.1029  1.4055 -0.0578
 8459SOL    HW237011   1.007   3.377   2.255  1.3176  0.8139 -0.3455
 8460SOL     OW37012   3.664   3.913  16.809 -0.3589  0.7232 -0.4411
 8460SOL    HW137013   3.736   3.851  16.795 -0.0261  1.1587 -0.6962
 8460SOL    HW237014   3.610   3.888  16.735  0.1285  0.6696 -0.7832
 8461SOL     OW37015   3.661   1.071  17.085 -0.4866 -0.2978 -0.2589
 8461SOL    HW137016   3.703   1.036  17.163  1.1980 -0.4793 -1.2459
 8461SOL    HW237017   3.730   1.133  17.059 -0.6467  0.2625  0.6489
 8462SOL     OW37018   1.479   1.203   9.821  0.1326  0.0221 -0.6833
 8462SOL    HW137019   1.544   1.249   9.768  0.2288 -0.4404 -0.9624
 8462SOL    HW237020   1.474   1.121   9.772  0.9425 -0.7161  0.4953
 8463SOL     OW37021   2.567   1.064   0.775  0.0291 -0.2501  0.0264
 8463SOL    HW137022   2.582   1.156   0.754  1.1063 -0.4350 -0.0304
 8463SOL    HW237023   2.472   1.053   0.778  0.0283  0.3575  2.0935
 8464SOL     OW37024   4.000   1.178   8.742 -0.0679 -0.3710  0.4409
 8464SOL    HW137025   3.986   1.223   8.658 -0.3341  1.2770  1.3697
 8464SOL    HW237026   4.092   1.154   8.737 -0.4409 -1.9392  0.9218
 8465SOL     OW37027   4.638   1.888   1.176  0.1012  0.2038 -0.0438
 8465SOL    HW137028   4.654   1.957   1.111 -1.7511 -1.0588 -1.8451
 8465SOL    HW237029   4.651   1.808   1.126 -1.7671 -1.1509  1.6731
 8466SOL     OW37030   1.747   4.215  11.165  0.4186  0.2109 -0.2801
 8466SOL    HW137031   1.795   4.190  11.086  0.9902 -0.8142  0.3886
 8466SOL    HW237032   1.753   4.311  11.165 -0.2210  0.2509  0.2459
 8467SOL     OW37033   0.124   2.696  10.501  0.0102 -0.4019  0.0127
 8467SOL    HW137034   0.032   2.700  10.475 -0.2208  0.3668  0.9472
 8467SOL    HW237035   0.135   2.785  10.533 -1.3523 -1.2395  2.8274
 8468SOL     OW37036   3.998   1.257   3.356  1.3050  0.3947  0.2098
 8468SOL    HW137037   4.011   1.167   3.385  1.4732  0.9591  1.8794
 8468SOL    HW237038   4.048   1.259   3.274 -2.7227  1.2009 -2.2487
 8469SOL     OW37039   2.418   0.255   4.622 -0.3450 -0.6011  0.3788
 8469SOL    HW137040   2.455   0.307   4.694  2.3159  2.0021 -2.8783
 8469SOL    HW237041   2.377   0.182   4.669  0.5402 -1.3463  0.0028
 8470SOL     OW37042   2.434   4.096   6.312  0.1742  0.1183 -0.3604
 8470SOL    HW137043   2.511   4.134   6.269  0.6075 -0.5698 -0.1956
 8470SOL    HW237044   2.472   4.044   6.383 -0.2511  0.2175 -0.0683
 8471SOL     OW37045   4.408   0.807  12.175  0.5865 -0.1193 -0.1401
 8471SOL    HW137046   4.431   0.802  12.268  2.7293  1.7746 -0.5771
 8471SOL    HW237047   4.491   0.823  12.132  0.5749 -0.4782 -0.2978
 8472SOL     OW37048   3.988   4.046  17.525  0.1988 -0.0169 -0.0618
 8472SOL    HW137049   4.051   4.113  17.498  1.0486  0.3899  2.9362
 8472SOL    HW237050   3.959   4.083  17.609 -1.1306 -0.5354 -0.2990
 8473SOL     OW37051   0.057   4.682   8.162  0.0803  0.1666  0.1059
 8473SOL    HW137052   0.016   4.602   8.194 -0.3939  0.7911  1.0547
 8473SOL    HW237053   4.719   0.005   8.167 -0.4315 -0.4391 -0.3634
 8474SOL     OW37054   1.659   2.411   8.784 -0.8406  0.7014  0.0343
 8474SOL    HW137055   1.615   2.459   8.714  0.3681  0.5008 -0.8570
 8474SOL    HW237056   1.623   2.456   8.861  0.2193 -0.8388  1.4253
 8475SOL     OW37057   1.933   2.566   5.968  0.3842  0.4410 -0.0676
 8475SOL    HW137058   1.932   2.575   6.064  0.7134 -0.1847 -0.0068
 8475SOL    HW237059   2.014   2.516   5.958 -0.2259 -0.1640 -1.8913
 8476SOL     OW37060   0.641   2.399   5.615  0.0809  0.1557  0.4199
 8476SOL    HW137061   0.552   2.432   5.628  0.7632  1.6554  1.2571
 8476SOL    HW237062   0.692   2.480   5.615 -1.9717  1.4513 -0.2305
 8477SOL     OW37063   0.807   2.478   6.236 -0.3950  0.2086 -0.0845
 8477SOL    HW137064   0.814   2.523   6.152 -1.5754  1.3555  0.4338
 8477SOL    HW237065   0.829   2.554   6.290  0.2802 -0.6779  0.8782
 8478SOL     OW37066   2.535   3.396  11.673 -0.0070 -0.1727 -0.3495
 8478SOL    HW137067   2.529   3.301  11.680  0.8625 -0.2669 -0.7768
 8478SOL    HW237068   2.457   3.421  11.624 -1.1285 -0.3436  1.3568
 8479SOL     OW37069   1.848   1.494   3.449  0.0564 -0.1491 -0.2881
 8479SOL    HW137070   1.935   1.504   3.487  0.0881  0.4654 -0.5121
 8479SOL    HW237071   1.817   1.431   3.513 -0.0429  0.2957  0.1006
 8480SOL     OW37072   0.114   3.445   9.124  0.7985  0.3235  0.5256
 8480SOL    HW137073   0.078   3.526   9.087 -0.3219  0.0445  0.9839
 8480SOL    HW237074   0.208   3.459   9.118  0.6721  0.5585 -0.9088
 8481SOL     OW37075   4.276   2.110   2.278 -0.5021  0.8336 -0.0959
 8481SOL    HW137076   4.250   2.018   2.279  0.1928  0.6354 -0.6393
 8481SOL    HW237077   4.306   2.120   2.188  0.8998 -1.5453  0.1183
 8482SOL     OW37078   3.499   1.031  10.833 -0.0526 -0.5148 -0.3211
 8482SOL    HW137079   3.462   1.096  10.893  1.1713 -2.6055  2.7112
 8482SOL    HW237080   3.414   0.991  10.815 -0.8205  0.3707  1.2986
 8483SOL     OW37081   0.690   2.084   3.430  0.2374 -0.6038  0.2104
 8483SOL    HW137082   0.765   2.026   3.425  1.9240  1.5063  0.9179
 8483SOL    HW237083   0.634   2.033   3.371  0.9057 -0.1046 -0.8678
 8484SOL     OW37084   2.089   2.393   8.762  0.3836  0.1410  0.5066
 8484SOL    HW137085   2.041   2.400   8.679  2.1684 -3.1360 -0.8031
 8484SOL    HW237086   2.094   2.484   8.791 -1.2198  0.2039  0.6289
 8485SOL     OW37087   0.449   0.554   7.171 -0.3922  0.0101 -0.4559
 8485SOL    HW137088   0.383   0.505   7.220 -0.0284  1.0355  1.0639
 8485SOL    HW237089   0.400   0.617   7.118  1.7880  0.7275 -1.6040
 8486SOL     OW37090   0.422   2.586  11.342 -0.0192 -0.0740 -0.1582
 8486SOL    HW137091   0.395   2.667  11.386  1.1240  0.0330  0.3288
 8486SOL    HW237092   0.442   2.532  11.418  0.2240 -2.6449 -2.0717
 8487SOL     OW37093   4.553   2.580   4.739  0.1707 -0.4445  0.1063
 8487SOL    HW137094   4.542   2.505   4.682 -0.3571 -0.4471  0.2079
 8487SOL    HW237095   4.521   2.554   4.825  2.0001  0.4740  1.0757
 8488SOL     OW37096   1.688   1.300  11.736  0.3309 -0.2985 -0.4784
 8488SOL    HW137097   1.640   1.382  11.750 -0.7575 -1.0939  0.5254
 8488SOL    HW237098   1.644   1.240  11.796 -2.5216  2.3509  0.0753
 8489SOL     OW37099   0.250   0.160   2.149  0.2068  0.3981  0.4543
 8489SOL    HW137100   0.340   0.187   2.132  0.3965  0.2843  1.2744
 8489SOL    HW237101   0.199   0.219   2.094  0.9577  1.0096  0.4219
 8490SOL     OW37102   0.481   3.468   1.729  0.7628 -0.6227  0.2593
 8490SOL    HW137103   0.438   3.554   1.736 -0.2399 -1.0595 -0.5664
 8490SOL    HW237104   0.565   3.492   1.688  0.7646  0.1205  0.7010
 8491SOL     OW37105   0.578   0.895   5.979 -0.3766 -0.0885  0.2830
 8491SOL    HW137106   0.628   0.941   6.047 -0.8240  0.2996  0.3499
 8491SOL    HW237107   0.570   0.804   6.005 -2.7550 -0.9077 -3.3581
 8492SOL     OW37108   2.212   1.576   7.392 -0.3796  0.3020  0.3706
 8492SOL    HW137109   2.270   1.573   7.468  1.8061 -0.1963 -1.3109
 8492SOL    HW237110   2.130   1.560   7.439  0.8474 -0.2674  2.3172
 8493SOL     OW37111   2.006   2.840   4.196  0.0992  0.2981  0.0906
 8493SOL    HW137112   2.016   2.802   4.109  1.9662 -0.0075  0.4365
 8493SOL    HW237113   1.948   2.915   4.183  0.1533  0.6751  2.0642
 8494SOL     OW37114   0.125   3.853  16.654 -0.1501 -1.1694 -0.2304
 8494SOL    HW137115   0.146   3.922  16.590  0.9713 -0.4947  0.8827
 8494SOL    HW237116   0.029   3.859  16.647  0.0161  1.6748 -0.1544
 8495SOL     OW37117   0.226   2.641  17.394 -0.5385 -0.0772  0.3053
 8495SOL    HW137118   0.298   2.662  17.453 -1.6999 -0.5927  1.8814
 8495SOL    HW237119   0.231   2.709  17.327 -1.7974 -0.5512 -0.2741
 8496SOL     OW37120   1.123   4.539  17.709 -0.9712  0.4100 -0.5923
 8496SOL    HW137121   1.060   4.598   0.004  0.4072  0.3369  1.6048
 8496SOL    HW237122   1.204   4.582  17.738 -0.1382 -1.3290 -0.3535
 8497SOL     OW37123   3.946   3.342   6.839  0.3270  0.1417  0.8334
 8497SOL    HW137124   3.889   3.283   6.889 -0.1851 -0.5167 -0.5294
 8497SOL    HW237125   4.023   3.290   6.818 -1.5178 -1.0299 -2.9270
 8498SOL     OW37126   1.355   1.109  11.753 -0.2271  0.7823  0.1633
 8498SOL    HW137127   1.276   1.055  11.761  0.4681 -0.4526 -1.3186
 8498SOL    HW237128   1.415   1.059  11.698  0.3802  1.0547  0.5855
 8499SOL     OW37129   4.487   3.487   4.376  0.1130  0.8484  0.1420
 8499SOL    HW137130   4.557   3.553   4.387 -1.0483  2.2446 -0.9221
 8499SOL    HW237131   4.421   3.534   4.326 -0.8132 -2.7357 -1.9412
 8500SOL     OW37132   0.935   2.928   7.196 -0.1022 -0.0476  0.6821
 8500SOL    HW137133   0.843   2.938   7.221  0.0446 -1.2330  1.7624
 8500SOL    HW237134   0.921   2.940   7.102 -0.2922 -0.9312  0.5963
 8501SOL     OW37135   3.395   1.916   8.468  0.3537  0.3628 -0.1506
 8501SOL    HW137136   3.425   1.904   8.558  1.4795 -0.7953 -0.6826
 8501SOL    HW237137   3.466   1.964   8.425  1.6745 -0.5850  0.9962
 8502SOL     OW37138   1.372   3.293   8.586 -0.4455 -0.6841 -0.0086
 8502SOL    HW137139   1.392   3.201   8.602 -1.1821 -0.7458  0.5802
 8502SOL    HW237140   1.308   3.275   8.518  0.1008  0.5384 -0.8452
 8503SOL     OW37141   4.701   0.256  16.977 -0.4787 -0.3947 -0.1141
 8503SOL    HW137142   4.699   0.351  16.961  1.3287 -0.0072  1.9710
 8503SOL    HW237143   4.612   0.246  17.011 -1.0853  0.2608 -1.5134
 8504SOL     OW37144   3.768   0.255   0.412 -0.2776  0.4402 -0.0990
 8504SOL    HW137145   3.764   0.289   0.323 -3.1890 -3.2844 -1.3622
 8504SOL    HW237146   3.790   0.163   0.395 -0.9800 -0.3620  3.2394
 8505SOL     OW37147   1.879   3.078   6.854  0.2621 -0.4708 -0.2471
 8505SOL    HW137148   1.791   3.099   6.821 -0.2355  0.9387  1.9637
 8505SOL    HW237149   1.857   2.986   6.869 -2.1421 -0.2736 -2.6487
 8506SOL     OW37150   0.303   3.946   7.027  0.7099 -0.3472 -0.0917
 8506SOL    HW137151   0.324   3.928   7.118 -2.0685  1.2137  0.8506
 8506SOL    HW237152   0.213   3.913   7.022  0.8089 -0.4861 -1.1088
 8507SOL     OW37153   1.996   4.115   8.451 -0.7362  0.4915  0.3423
 8507SOL    HW137154   1.996   4.210   8.436  0.3002  0.2981 -0.8862
 8507SOL    HW237155   2.086   4.083   8.447 -1.2517 -0.8536 -0.3065
 8508SOL     OW37156   2.279   2.404   6.761  0.3722  0.1862  0.5259
 8508SOL    HW137157   2.340   2.331   6.770  1.3061  0.5608 -2.7490
 8508SOL    HW237158   2.243   2.415   6.849 -1.1307  1.0493 -0.2036
 8509SOL     OW37159   2.363   2.382  13.363 -0.1932 -0.4498  0.5350
 8509SOL    HW137160   2.318   2.331  13.297 -1.5450 -0.4492  1.4608
 8509SOL    HW237161   2.291   2.392  13.425  0.3358 -1.2250  1.2695
 8510SOL     OW37162   4.226   3.647   7.601 -0.3913 -1.1218 -0.5591
 8510SOL    HW137163   4.176   3.669   7.522  1.3453  1.1423 -1.0310
 8510SOL    HW237164   4.273   3.569   7.572 -0.1402 -1.5787  1.1146
 8511SOL     OW37165   1.954   0.123   2.156  0.0396  0.2061 -0.4746
 8511SOL    HW137166   2.041   0.151   2.186  0.6047 -0.1931 -1.7456
 8511SOL    HW237167   1.904   0.133   2.237  1.7218  0.5728  0.5398
 8512SOL     OW37168   4.055   0.218   1.304  0.0540  0.0514 -0.4056
 8512SOL    HW137169   4.112   0.295   1.300 -2.7218  2.1652  0.2329
 8512SOL    HW237170   3.970   0.252   1.277  0.1820  2.5695  2.2870
 8513SOL     OW37171   1.293   2.213   3.097  0.0053  0.5225  0.0445
 8513SOL    HW137172   1.300   2.186   3.189 -2.0833 -1.3208 -0.3482
 8513SOL    HW237173   1.383   2.222   3.066  1.1853 -1.5663  2.8882
 8514SOL     OW37174   2.078   4.394   3.157 -0.7355  0.2386  0.1037
 8514SOL    HW137175   2.011   4.441   3.208 -0.5889 -2.2550  2.5943
 8514SOL    HW237176   2.158   4.441   3.182  1.2966 -3.9561  1.4847
 8515SOL     OW37177   1.534   0.340   2.075  0.3834 -0.1245  0.2240
 8515SOL    HW137178   1.611   0.293   2.106  0.5877 -0.1023 -0.2503
 8515SOL    HW237179   1.484   0.335   2.156 -0.8232 -0.0762 -0.5208
 8516SOL     OW37180   0.638   0.682   3.095 -0.0660  0.5627  0.1915
 8516SOL    HW137181   0.693   0.640   3.161  0.9317  2.0150  0.2866
 8516SOL    HW237182   0.705   0.696   3.028 -2.2133  1.1477 -1.8260
 8517SOL     OW37183   0.662   3.737   6.502  0.3398  0.0498 -0.2331
 8517SOL    HW137184   0.684   3.655   6.547  0.5881 -0.1135 -0.6505
 8517SOL    HW237185   0.579   3.710   6.463  0.0135  2.1814 -0.9798
 8518SOL     OW37186   3.092   2.890  17.490  0.4067  0.3044 -0.0688
 8518SOL    HW137187   3.080   2.870  17.397 -1.1312  0.5405  0.0886
 8518SOL    HW237188   3.133   2.976  17.485 -0.5179  0.6743 -1.1545
 8519SOL     OW37189   0.096   0.502   8.679 -0.2956  0.3498 -0.9413
 8519SOL    HW137190   0.063   0.429   8.732 -2.2253 -0.8571 -3.7712
 8519SOL    HW237191   0.174   0.527   8.727  0.6879 -1.4596 -1.6099
 8520SOL     OW37192   3.029   3.982   5.534  0.4806 -0.6098  0.4860
 8520SOL    HW137193   2.963   4.038   5.491  0.4377 -0.8898  0.1901
 8520SOL    HW237194   2.975   3.956   5.609 -1.3833  2.4071  0.2029
 8521SOL     OW37195   2.988   1.658  10.612 -0.1165 -0.0601 -0.1572
 8521SOL    HW137196   3.071   1.660  10.563 -0.5812  0.7634 -0.9097
 8521SOL    HW237197   2.931   1.716  10.562 -0.7434 -0.9662 -0.4917
 8522SOL     OW37198   2.475   3.697   9.485  0.1190  0.5428 -0.1882
 8522SOL    HW137199   2.458   3.618   9.538  2.4826 -0.4162 -0.8187
 8522SOL    HW237200   2.538   3.736   9.546  0.2212 -2.1514  1.4371
 8523SOL     OW37201   3.994   3.990   3.288  0.4957  0.5545  0.2758
 8523SOL    HW137202   4.068   4.048   3.307 -1.8618  3.2105  1.3095
 8523SOL    HW237203   3.920   4.051   3.283 -1.1071 -1.5796 -1.9275
 8524SOL     OW37204   4.507   3.076  11.560 -0.0122  0.0003 -0.1920
 8524SOL    HW137205   4.577   3.109  11.503 -0.5935 -1.4944 -1.7589
 8524SOL    HW237206   4.513   3.141  11.630  0.4973  0.7675 -0.9406
 8525SOL     OW37207   3.051   2.564   3.244 -0.7731 -0.2806 -0.2200
 8525SOL    HW137208   3.090   2.646   3.272 -0.0349 -0.3203 -1.1447
 8525SOL    HW237209   3.127   2.511   3.221 -0.6553 -0.1287 -0.1761
 8526SOL     OW37210   4.616   1.982   8.548  0.0737 -0.0136  0.1509
 8526SOL    HW137211   4.557   2.057   8.551  0.7026  0.6206 -3.6480
 8526SOL    HW237212   4.564   1.910   8.585  0.1283  1.5669  3.3200
 8527SOL     OW37213   1.741   3.636  15.331  0.2661  0.6137 -0.0638
 8527SOL    HW137214   1.713   3.704  15.270  0.1278  1.4499  0.9218
 8527SOL    HW237215   1.730   3.570  15.263 -0.5105 -0.5902  1.2425
 8528SOL     OW37216   0.725   3.818   6.890 -0.2748 -0.1083  0.1943
 8528SOL    HW137217   0.637   3.780   6.894 -0.3279  0.2508  2.1749
 8528SOL    HW237218   0.746   3.816   6.983  1.4508 -2.6304 -0.2584
 8529SOL     OW37219   0.653   4.016   2.099 -0.3832  0.0478 -0.1539
 8529SOL    HW137220   0.711   3.958   2.051 -0.9443  0.5860 -1.4773
 8529SOL    HW237221   0.577   3.959   2.085 -1.0690  0.9105  0.0310
 8530SOL     OW37222   3.747   0.721   2.214  0.0612  0.1537 -0.3086
 8530SOL    HW137223   3.727   0.796   2.270  2.3900  1.2158 -0.9194
 8530SOL    HW237224   3.726   0.747   2.124 -1.7596  1.4114  0.4604
 8531SOL     OW37225   4.556   4.173   3.043  0.0964 -0.3835 -0.0739
 8531SOL    HW137226   4.608   4.158   2.964  0.0527  1.3381 -0.4226
 8531SOL    HW237227   4.479   4.122   3.016 -1.4101  1.0652  1.5302
 8532SOL     OW37228   3.970   2.645   1.659  0.2003 -0.0071  0.1540
 8532SOL    HW137229   4.053   2.649   1.612 -0.8222  0.2314 -1.6356
 8532SOL    HW237230   3.943   2.554   1.650  2.4459 -0.8313  1.9698
 8533SOL     OW37231   4.370   0.443   7.722 -0.1811  0.2788  0.2646
 8533SOL    HW137232   4.339   0.402   7.803 -1.0682 -0.8412 -0.6344
 8533SOL    HW237233   4.447   0.390   7.704  0.2574  1.0525 -0.1072
 8534SOL     OW37234   2.606   0.999   5.913 -0.4812 -0.2676 -0.1813
 8534SOL    HW137235   2.585   0.968   5.824  0.8302 -0.3013 -0.4783
 8534SOL    HW237236   2.542   0.954   5.968  1.5745 -3.9807 -0.7626
 8535SOL     OW37237   0.887   0.210   8.793 -0.2596 -0.6852  0.5209
 8535SOL    HW137238   0.843   0.291   8.816  0.1152 -0.0993 -0.8749
 8535SOL    HW237239   0.973   0.233   8.828 -0.1310 -0.3327 -0.0325
 8536SOL     OW37240   2.458   4.494   9.828  0.6308 -0.1780 -0.6287
 8536SOL    HW137241   2.371   4.459   9.848  1.0980 -0.9549  0.0546
 8536SOL    HW237242   2.453   4.584   9.859  2.0528  0.2607 -1.6826
 8537SOL     OW37243   4.483   2.872   9.696 -0.4537 -0.1988  0.5006
 8537SOL    HW137244   4.392   2.848   9.712 -1.0657  2.0930  0.5146
 8537SOL    HW237245   4.471   2.934   9.624  0.5121 -0.9384 -0.2986
 8538SOL     OW37246   3.919   0.842   4.197  0.3236  0.6065 -0.2992
 8538SOL    HW137247   3.843   0.801   4.237  1.4813 -0.4615  0.8142
 8538SOL    HW237248   3.950   0.786   4.126 -0.9187 -1.9625  1.1999
 8539SOL     OW37249   0.790   0.701  11.587 -0.7722 -0.1735  0.0434
 8539SOL    HW137250   0.872   0.709  11.637 -0.6257 -2.4749  0.1311
 8539SOL    HW237251   0.759   0.792  11.591  0.6784  0.3695 -1.0969
 8540SOL     OW37252   0.100   4.659   4.364 -0.2203 -0.2145  0.0518
 8540SOL    HW137253   0.065   4.570   4.361  0.6962 -0.5509 -0.6960
 8540SOL    HW237254   0.017   4.707   4.363 -0.1063  0.0087  0.9206
 8541SOL     OW37255   0.968   3.125   1.826  0.6199 -0.2627 -0.4862
 8541SOL    HW137256   0.874   3.129   1.844  0.7389  0.9986 -0.1034
 8541SOL    HW237257   0.996   3.193   1.765 -1.7253  0.5950 -0.5972
 8542SOL     OW37258   3.704   1.583   2.969 -0.3363 -0.3933  0.4979
 8542SOL    HW137259   3.696   1.497   3.011  2.6002 -0.5190  0.8298
 8542SOL    HW237260   3.616   1.620   2.961  0.1023 -0.0218 -2.3895
 8543SOL     OW37261   2.775   4.699   6.837 -0.0315 -0.5896  0.2261
 8543SOL    HW137262   2.789   4.619   6.886 -1.9107 -0.1915  1.4095
 8543SOL    HW237263   2.680   4.702   6.827 -0.0648 -1.8155  0.2067
 8544SOL     OW37264   2.104   2.443   3.496 -0.4260 -0.2575  0.2563
 8544SOL    HW137265   2.129   2.427   3.587 -1.7514 -0.3103  0.6184
 8544SOL    HW237266   2.187   2.478   3.465 -2.0995  3.1621 -0.4637
 8545SOL     OW37267   2.942   0.825   1.782  0.1930  0.6115 -0.1207
 8545SOL    HW137268   2.954   0.734   1.811  0.8153  0.5728 -0.4748
 8545SOL    HW237269   2.988   0.889   1.836 -1.4057  1.1197  0.6116
 8546SOL     OW37270   4.059   2.875  14.695 -0.3536 -0.0344  0.1122
 8546SOL    HW137271   4.034   2.884  14.603 -2.1465 -1.6143  0.4471
 8546SOL    HW237272   4.138   2.929  14.695 -0.7600  0.5586 -1.1405
 8547SOL     OW37273   2.874   4.278  16.252  0.1792  0.7451 -0.1219
 8547SOL    HW137274   2.802   4.288  16.314  1.2922 -0.0174  1.3023
 8547SOL    HW237275   2.936   4.240  16.314 -0.8731  3.3244  2.4996
 8548SOL     OW37276   2.276   4.702   7.089  0.3504  0.4105 -0.0387
 8548SOL    HW137277   2.333   4.652   7.148  2.5304  3.0831  0.1283
 8548SOL    HW237278   2.338   0.037   7.074 -0.2410  1.1080  0.8180
 8549SOL     OW37279   4.656   2.104  10.008 -0.2359 -0.5652  0.2267
 8549SOL    HW137280   4.639   2.198  10.010 -3.0998 -1.1401  2.9917
 8549SOL    HW237281   4.608   2.073   9.931 -0.3698  1.1985 -0.3985
 8550SOL     OW37282   2.412   3.924   3.326  0.3342 -1.0107  0.4907
 8550SOL    HW137283   2.367   3.880   3.398 -0.5208  1.0974  1.2422
 8550SOL    HW237284   2.478   3.963   3.384  2.4139 -3.1854 -0.4164
 8551SOL     OW37285   4.091   0.882  15.792 -0.0779 -0.9844  0.0441
 8551SOL    HW137286   4.004   0.842  15.788 -0.5931  0.2615 -1.5117
 8551SOL    HW237287   4.145   0.809  15.763 -0.8965 -0.8708 -1.7564
 8552SOL     OW37288   0.652   2.330   7.087  0.6480 -0.1315  0.1534
 8552SOL    HW137289   0.572   2.366   7.048  0.5568 -1.8881 -1.2789
 8552SOL    HW237290   0.628   2.335   7.180  1.0649 -0.1939  0.2661
 8553SOL     OW37291   3.487   3.139  16.573 -0.3694  0.4677 -0.2405
 8553SOL    HW137292   3.509   3.209  16.634 -0.4333 -0.0171  0.3335
 8553SOL    HW237293   3.533   3.171  16.495  1.6327  0.1452  0.8145
 8554SOL     OW37294   0.043   0.448  12.064  0.3330 -0.0894 -0.2539
 8554SOL    HW137295   0.087   0.459  12.149  1.5377 -0.6242 -0.7998
 8554SOL    HW237296   0.090   0.375  12.023  0.6630  0.6121 -1.1186
 8555SOL     OW37297   0.777   4.281   6.622  0.4367  0.3280  0.0212
 8555SOL    HW137298   0.696   4.233   6.640  0.0864  0.2968 -1.6533
 8555SOL    HW237299   0.850   4.221   6.632 -0.0998 -0.0433  1.8659
 8556SOL     OW37300   3.609   2.866   3.249 -0.0514 -0.1165  0.2878
 8556SOL    HW137301   3.589   2.878   3.342 -0.5193 -0.9712  0.3015
 8556SOL    HW237302   3.619   2.771   3.244  0.7881  0.0007 -0.2656
 8557SOL     OW37303   3.279   2.749  12.630 -0.3488  0.3725  0.3595
 8557SOL    HW137304   3.264   2.666  12.586 -1.3923  0.8274 -0.1575
 8557SOL    HW237305   3.188   2.780  12.629  0.1961  2.0279  1.6802
 8558SOL     OW37306   4.596   3.646  15.196  0.3214  0.9266 -0.0012
 8558SOL    HW137307   4.614   3.646  15.290 -4.6564 -2.3975  0.9591
 8558SOL    HW237308   4.655   3.575  15.169 -3.4321 -1.9972 -0.5980
 8559SOL     OW37309   0.998   3.133   2.164 -0.0054  0.1094  0.0241
 8559SOL    HW137310   0.927   3.130   2.228 -2.6219 -0.4443 -2.9036
 8559SOL    HW237311   1.074   3.112   2.219  0.4010  4.1353  1.0365
 8560SOL     OW37312   2.694   0.954   5.399  0.2057  0.1778  0.2755
 8560SOL    HW137313   2.602   0.944   5.373  0.2950 -0.6786  0.2712
 8560SOL    HW237314   2.701   1.048   5.381 -2.8879  0.4986  0.7195
 8561SOL     OW37315   3.570   0.578   6.347  0.2405  0.0466  0.2451
 8561SOL    HW137316   3.496   0.541   6.394  0.5420 -2.0987 -0.9773
 8561SOL    HW237317   3.624   0.502   6.325 -0.6589 -0.1369 -1.3987
 8562SOL     OW37318   2.173   1.728   7.766  0.6161 -0.4496 -0.6763
 8562SOL    HW137319   2.236   1.664   7.799  0.7625  0.3977  0.6750
 8562SOL    HW237320   2.235   1.777   7.712 -2.2749  2.4221 -1.3891
 8563SOL     OW37321   3.970   2.143   8.262  0.5035 -0.3055  0.7448
 8563SOL    HW137322   3.927   2.159   8.178 -1.1912  2.7931  2.1935
 8563SOL    HW237323   4.052   2.191   8.250 -0.2666  1.1597  1.2546
 8564SOL     OW37324   1.905   3.688  16.830 -0.0060 -0.0790 -0.2958
 8564SOL    HW137325   1.973   3.624  16.809 -0.0748 -0.7080  1.4213
 8564SOL    HW237326   1.926   3.768  16.782  0.3001 -0.3469 -0.6097
 8565SOL     OW37327   4.148   3.923   1.615  0.3285  0.4682 -0.0684
 8565SOL    HW137328   4.140   3.829   1.598  0.7490  0.3583  0.3508
 8565SOL    HW237329   4.243   3.935   1.611  0.4977 -0.5939  0.6523
 8566SOL     OW37330   4.517   3.792   5.580 -0.4553  0.2420 -0.2622
 8566SOL    HW137331   4.484   3.770   5.666  0.4354 -2.1661 -0.5531
 8566SOL    HW237332   4.580   3.860   5.602 -0.3188 -0.2449  0.8033
 8567SOL     OW37333   0.445   2.020   6.900  0.3002  0.8280  0.0627
 8567SOL    HW137334   0.538   2.033   6.916  0.4032 -0.5761  0.5778
 8567SOL    HW237335   0.431   1.930   6.871 -0.5592  0.2010  2.3579
 8568SOL     OW37336   1.926   3.612  15.504 -0.3284 -0.0001 -0.4169
 8568SOL    HW137337   1.846   3.635  15.457 -0.5968  1.0785  0.5489
 8568SOL    HW237338   1.982   3.654  15.439 -0.1842 -1.5089 -1.2707
 8569SOL     OW37339   3.203   1.149  16.622 -0.4072  0.1406 -0.8866
 8569SOL    HW137340   3.239   1.192  16.700  1.7998 -0.0935 -1.7941
 8569SOL    HW237341   3.118   1.192  16.615 -0.6748 -0.5861 -2.0162
 8570SOL     OW37342   0.677   3.792   1.698 -0.1753 -0.1908  0.4951
 8570SOL    HW137343   0.621   3.803   1.621 -2.6397  2.7543  2.6994
 8570SOL    HW237344   0.736   3.726   1.663 -0.4564 -1.0446  1.6154
 8571SOL     OW37345   0.432   0.134  14.164  0.2649 -0.4727  0.5374
 8571SOL    HW137346   0.514   0.087  14.180  0.9497  1.3158  2.3103
 8571SOL    HW237347   0.458   0.214  14.210  1.3090  0.1540 -1.1011
 8572SOL     OW37348   2.665   0.505  16.586 -0.3048 -0.3006 -0.5034
 8572SOL    HW137349   2.622   0.531  16.668  0.8838  1.2238 -0.3537
 8572SOL    HW237350   2.695   0.418  16.610  2.3265  0.8725  0.5089
 8573SOL     OW37351   2.076   4.486   7.426  0.4583  0.0993  0.0297
 8573SOL    HW137352   2.015   4.535   7.370 -0.7030  0.6953  1.8274
 8573SOL    HW237353   2.090   4.408   7.373 -1.4704 -0.1909 -0.0559
 8574SOL     OW37354   1.101   3.414   4.006  0.0737 -0.0701  0.0677
 8574SOL    HW137355   1.181   3.455   3.973 -0.5334 -1.4150 -3.0265
 8574SOL    HW237356   1.126   3.326   4.036 -2.0029 -1.2604 -1.6934
 8575SOL     OW37357   0.369   2.757   6.367 -0.7360 -0.5286 -0.4192
 8575SOL    HW137358   0.397   2.792   6.451 -0.0311  0.2307 -0.9685
 8575SOL    HW237359   0.280   2.763   6.401 -0.0280 -3.0411  1.8422
 8576SOL     OW37360   1.773   4.083   0.311 -0.1770  0.2938 -0.0141
 8576SOL    HW137361   1.766   4.164   0.362  1.2201 -0.7923  1.8796
 8576SOL    HW237362   1.841   4.105   0.247  0.1454  0.7880  0.5005
 8577SOL     OW37363   0.306   1.658   1.677  0.5395  0.0778  0.1599
 8577SOL    HW137364   0.250   1.735   1.668 -0.8497 -0.8534  0.7934
 8577SOL    HW237365   0.344   1.649   1.590 -1.3350  1.0613 -0.7555
 8578SOL     OW37366   2.180   0.890   9.230 -0.1477 -0.1149 -0.0417
 8578SOL    HW137367   2.130   0.881   9.311  2.4233  0.8158  1.6718
 8578SOL    HW237368   2.110   0.900   9.166  0.3686 -0.8574 -0.7234
 8579SOL     OW37369   4.349   1.756   7.944  0.1298 -0.3056  0.0896
 8579SOL    HW137370   4.282   1.819   7.915  0.8210  0.1990 -0.4167
 8579SOL    HW237371   4.379   1.809   8.018  0.3478 -1.1936  0.6320
 8580SOL     OW37372   1.441   4.178  11.653  0.2218  0.1196  0.5482
 8580SOL    HW137373   1.536   4.169  11.662  0.1602 -0.5123  0.5714
 8580SOL    HW237374   1.414   4.255  11.704 -1.1803  1.3725 -2.0859
 8581SOL     OW37375   1.152   2.176   7.564  0.2976  0.0099  0.0933
 8581SOL    HW137376   1.116   2.257   7.598 -1.7758 -0.8869  0.0592
 8581SOL    HW237377   1.104   2.159   7.483  0.0854  0.6098  0.0962
 8582SOL     OW37378   0.625   3.748   2.670 -0.1248 -0.2527 -0.0754
 8582SOL    HW137379   0.599   3.771   2.581 -0.8389  2.0876  0.7421
 8582SOL    HW237380   0.542   3.757   2.715  0.1522  2.5271 -0.1476
 8583SOL     OW37381   1.415   3.079  11.177  0.4367 -0.1384 -0.4189
 8583SOL    HW137382   1.473   3.003  11.171  0.3396 -0.4606  2.7736
 8583SOL    HW237383   1.363   3.067  11.097  1.2758 -1.1580 -0.8114
 8584SOL     OW37384   0.036   3.266   6.716 -0.2698  1.1329 -0.1043
 8584SOL    HW137385   0.062   3.350   6.754  2.9223  0.7747 -1.4858
 8584SOL    HW237386   0.114   3.256   6.662 -0.9591 -1.3268 -0.6227
 8585SOL     OW37387   2.068   4.489   2.006  0.4031  0.1043 -0.3427
 8585SOL    HW137388   2.039   4.423   1.943 -0.5170 -0.0946  0.2891
 8585SOL    HW237389   1.991   4.515   2.056  1.1544 -2.8188  2.3951
 8586SOL     OW37390   0.529   0.340  12.087 -0.3315 -0.2748 -0.7698
 8586SOL    HW137391   0.554   0.328  11.996 -1.5569 -0.8140 -1.0352
 8586SOL    HW237392   0.593   0.406  12.116  0.8791 -1.3523 -0.9686
 8587SOL     OW37393   2.401   1.582  17.164  0.1218  0.5553 -0.0385
 8587SOL    HW137394   2.405   1.488  17.183  0.2070  0.1807 -1.8479
 8587SOL    HW237395   2.313   1.600  17.197 -1.1033 -0.5560 -2.6661
 8588SOL     OW37396   4.334   2.402  16.438  0.0095  0.8011  0.1896
 8588SOL    HW137397   4.394   2.399  16.364  0.3248 -1.4695  0.5183
 8588SOL    HW237398   4.270   2.470  16.416 -0.9218  0.0117  0.4141
 8589SOL     OW37399   4.638   3.592   8.156 -0.0527 -0.2861 -0.2767
 8589SOL    HW137400   4.587   3.555   8.084  2.2743  0.0970 -2.1124
 8589SOL    HW237401   4.723   3.554   8.133  0.3756  1.1693 -1.1360
 8590SOL     OW37402   4.026   2.732  11.921  0.3965  0.1512 -0.2420
 8590SOL    HW137403   3.975   2.719  11.841 -0.9942  0.3728  0.6099
 8590SOL    HW237404   4.009   2.651  11.969 -0.1667 -0.0351 -0.7468
 8591SOL     OW37405   1.089   0.110   0.167  0.2172  0.6929 -0.5099
 8591SOL    HW137406   1.161   0.167   0.139  0.6730  0.5861  0.4400
 8591SOL    HW237407   1.135   0.051   0.227  2.8483 -0.9641 -4.2100
 8592SOL     OW37408   3.405   2.186   7.612 -0.0994 -0.0374  0.3397
 8592SOL    HW137409   3.353   2.230   7.545 -0.0468  1.8453  1.5269
 8592SOL    HW237410   3.357   2.105   7.628  0.4340 -0.3325  0.4546
 8593SOL     OW37411   2.701   1.311  11.460 -0.5254 -0.6310  0.2879
 8593SOL    HW137412   2.752   1.381  11.500  0.9706 -1.4491 -0.2067
 8593SOL    HW237413   2.650   1.351  11.390  2.6994  1.8119 -0.6507
 8594SOL     OW37414   4.507   1.327   9.559 -0.0910  0.3873 -0.0107
 8594SOL    HW137415   4.507   1.244   9.606 -0.7542 -1.1302 -2.6767
 8594SOL    HW237416   4.537   1.294   9.474  0.6470 -0.0967  0.4406
 8595SOL     OW37417   0.300   2.027   4.404  1.1387 -0.4004  0.4682
 8595SOL    HW137418   0.283   1.953   4.462  2.3713 -1.3692 -0.4007
 8595SOL    HW237419   0.366   1.998   4.341  1.9715  0.9811  0.6831
 8596SOL     OW37420   0.859   4.046   6.772  0.5590  0.0742 -0.6556
 8596SOL    HW137421   0.842   3.956   6.798 -2.3190  0.2914 -1.7657
 8596SOL    HW237422   0.808   4.094   6.837  0.2585  0.2745 -1.0413
 8597SOL     OW37423   0.269   1.473  12.122 -0.3768 -0.0700 -0.0613
 8597SOL    HW137424   0.255   1.568  12.123  2.2063  0.2714  3.1084
 8597SOL    HW237425   0.195   1.435  12.168  0.8621  0.7617  2.6368
 8598SOL     OW37426   4.372   4.091   5.632  0.4326  0.5942  0.1023
 8598SOL    HW137427   4.282   4.071   5.659  0.1911 -0.0537 -1.1861
 8598SOL    HW237428   4.362   4.186   5.637 -0.1040  0.4679  1.3714
 8599SOL     OW37429   3.565   2.861   0.816  0.5697 -0.0767  0.5806
 8599SOL    HW137430   3.528   2.852   0.904  1.8475 -3.1676  0.7692
 8599SOL    HW237431   3.654   2.832   0.834  0.2117 -2.0778 -0.9235
 8600SOL     OW37432   1.495   0.869  12.982 -0.1256 -0.0783  0.3857
 8600SOL    HW137433   1.418   0.834  13.027 -0.3676 -0.1080 -0.0599
 8600SOL    HW237434   1.486   0.956  13.023  0.7281 -0.4393  1.3379
 8601SOL     OW37435   2.038   4.416  17.532 -0.0186 -0.8437  0.2298
 8601SOL    HW137436   2.048   4.410  17.627 -3.2155  0.8854  0.6750
 8601SOL    HW237437   2.014   4.326  17.509  0.4636 -1.0196  0.4057
 8602SOL     OW37438   0.064   0.853   8.839 -0.0241  0.4682 -0.2558
 8602SOL    HW137439   0.147   0.844   8.791 -0.9248  1.4044 -1.9717
 8602SOL    HW237440   0.002   0.871   8.769  0.4559  1.5027 -0.4163
 8603SOL     OW37441   4.713   1.346   6.543  0.4753  0.2416  0.0679
 8603SOL    HW137442   4.736   1.300   6.624 -0.0438 -0.2691 -0.0740
 8603SOL    HW237443   0.053   1.322   6.493  0.4529  0.0496  0.1236
 8604SOL     OW37444   1.076   2.780   3.889 -0.5170  0.2167 -0.2497
 8604SOL    HW137445   1.134   2.704   3.884 -0.9397 -0.1598  0.5458
 8604SOL    HW237446   0.991   2.736   3.896 -0.2991 -0.2808 -0.6967
 8605SOL     OW37447   0.173   1.631  11.629  0.2250 -0.7696  0.3314
 8605SOL    HW137448   0.134   1.555  11.586  1.0375  0.2348 -2.1494
 8605SOL    HW237449   0.240   1.581  11.675  0.0329 -0.4671  0.9366
 8606SOL     OW37450   1.951   1.118   5.617  0.2691 -0.5075  0.3259
 8606SOL    HW137451   1.939   1.035   5.664 -0.0356 -0.2496  0.7043
 8606SOL    HW237452   1.957   1.178   5.691 -1.4749 -0.1343  0.1620
 8607SOL     OW37453   2.587   3.797   8.704  0.4885  0.4197 -0.0592
 8607SOL    HW137454   2.642   3.719   8.713  0.4863  0.4571  0.2717
 8607SOL    HW237455   2.583   3.818   8.797 -2.7935  0.7463 -0.2437
 8608SOL     OW37456   1.607   3.510   3.620  0.5413 -0.1909  0.9221
 8608SOL    HW137457   1.556   3.586   3.592  0.8076  0.3733  1.9607
 8608SOL    HW237458   1.634   3.474   3.536 -0.3314 -1.6165  1.2511
 8609SOL     OW37459   0.151   2.583   2.114 -0.0790  0.6081  0.4293
 8609SOL    HW137460   0.076   2.525   2.132  0.7727 -0.6301 -0.0342
 8609SOL    HW237461   0.108   2.641   2.051  2.6812  0.9767 -1.0949
 8610SOL     OW37462   3.109   0.362  13.242  0.3023 -0.6296 -0.2785
 8610SOL    HW137463   3.029   0.415  13.238  0.3774 -0.5434 -0.6494
 8610SOL    HW237464   3.167   0.437  13.244 -1.3286  0.5714  2.8442
 8611SOL     OW37465   3.815   4.480  13.067  0.3697  0.2656 -0.0431
 8611SOL    HW137466   3.908   4.498  13.057  0.5318  0.2374  1.5036
 8611SOL    HW237467   3.777   4.567  13.057 -0.0969  0.0945  0.1997
 8612SOL     OW37468   1.565   4.669   0.754  0.1120  0.4459 -0.0038
 8612SOL    HW137469   1.627   4.731   0.790 -0.8654  0.7345  1.1828
 8612SOL    HW237470   1.629   4.600   0.738 -0.4456 -0.0441 -0.1537
 8613SOL     OW37471   2.290   1.647   5.906  0.4868 -0.3006 -0.0588
 8613SOL    HW137472   2.294   1.670   5.998  0.6955  0.3972 -0.2432
 8613SOL    HW237473   2.307   1.727   5.855 -0.5993  0.8198  1.3594
 8614SOL     OW37474   3.414   1.384   3.067 -0.3183  0.1030 -0.3068
 8614SOL    HW137475   3.369   1.414   2.988 -1.0039 -2.4309 -0.8734
 8614SOL    HW237476   3.417   1.289   3.054  2.7145  0.3474 -1.3712
 8615SOL     OW37477   0.982   3.473   7.395  0.6943 -0.1910  0.4816
 8615SOL    HW137478   0.909   3.473   7.457 -0.7497  0.4758 -1.2440
 8615SOL    HW237479   0.981   3.386   7.354  1.6856  0.0655 -0.0992
 8616SOL     OW37480   4.437   3.742   4.960  0.4380  0.5201  0.4799
 8616SOL    HW137481   4.385   3.673   5.003 -1.1325  0.4110 -1.5633
 8616SOL    HW237482   4.503   3.763   5.025  1.0996 -0.0157 -0.0174
 8617SOL     OW37483   3.503   0.146  10.261  0.0731  0.1629 -0.4138
 8617SOL    HW137484   3.594   0.160  10.289 -0.3604 -0.4854  1.2780
 8617SOL    HW237485   3.513   0.082  10.190 -1.6561 -2.0510  1.3562
 8618SOL     OW37486   2.023   0.480   8.334 -0.2090 -0.0872 -0.8400
 8618SOL    HW137487   1.980   0.416   8.278  0.0961  0.6691 -1.9437
 8618SOL    HW237488   1.945   0.511   8.379 -0.0237 -2.6530  1.1999
 8619SOL     OW37489   4.681   2.324   9.558  0.1974 -0.1116  0.1604
 8619SOL    HW137490   4.597   2.360   9.585  0.3648  1.6177 -1.5777
 8619SOL    HW237491   4.732   2.395   9.596  1.7181 -1.0667 -0.0855
 8620SOL     OW37492   1.083   1.817   4.673 -0.4158  0.4953  0.1620
 8620SOL    HW137493   1.136   1.868   4.611  0.1900  1.4588  1.4682
 8620SOL    HW237494   1.008   1.874   4.693 -0.8353 -0.6801  1.9230
 8621SOL     OW37495   2.283   2.018   0.585 -0.4681 -0.4022  0.1356
 8621SOL    HW137496   2.354   1.973   0.538 -1.2840 -0.1271 -1.3863
 8621SOL    HW237497   2.274   1.979   0.672 -1.8020 -2.0865 -0.7506
 8622SOL     OW37498   2.345   3.421   6.648  0.1324  0.0019 -0.1069
 8622SOL    HW137499   2.416   3.366   6.681  0.2965  1.0839  1.3146
 8622SOL    HW237500   2.269   3.363   6.642  0.2194 -0.0453 -0.7662
 8623SOL     OW37501   0.831   0.039   1.456 -0.3346  0.1145 -0.2750
 8623SOL    HW137502   0.745   0.014   1.422 -1.3268  0.9500  1.6255
 8623SOL    HW237503   0.873   0.075   1.377  1.6847 -0.8333  0.3680
 8624SOL     OW37504   3.287   2.608   0.171 -0.5621  0.3336 -0.1734
 8624SOL    HW137505   3.248   2.641   0.090  2.4618  0.9418 -1.3485
 8624SOL    HW237506   3.369   2.656   0.175  0.8629 -2.0487 -1.1490
 8625SOL     OW37507   1.520   2.752   7.236  0.2142  0.1042 -0.1564
 8625SOL    HW137508   1.602   2.796   7.212  0.5889 -0.3037  0.3608
 8625SOL    HW237509   1.547   2.667   7.271  2.3242  0.3160 -1.2589
 8626SOL     OW37510   4.231   3.306   6.048 -0.2015  0.2871 -0.1174
 8626SOL    HW137511   4.193   3.389   6.019 -2.0812 -0.5395 -0.0303
 8626SOL    HW237512   4.168   3.275   6.113 -0.5321  1.4444  0.1209
 8627SOL     OW37513   4.201   1.879   9.737  0.6055  0.0308  0.2740
 8627SOL    HW137514   4.201   1.801   9.682 -0.0325 -0.9338  1.6334
 8627SOL    HW237515   4.194   1.844   9.826  0.1852  0.1210  0.2754
 8628SOL     OW37516   2.846   0.823  11.019 -0.1486 -0.4685  0.0963
 8628SOL    HW137517   2.782   0.762  11.056  1.1825 -2.3148 -0.6037
 8628SOL    HW237518   2.807   0.876  10.949  2.2417  0.3178 -0.6501
 8629SOL     OW37519   0.753   0.198   7.527  0.2835 -0.5998  0.0316
 8629SOL    HW137520   0.663   0.210   7.556  0.9100  2.1151  0.8363
 8629SOL    HW237521   0.797   0.283   7.526  0.4117 -0.6641  0.2827
 8630SOL     OW37522   1.113   1.227   3.909  0.3999  0.0636 -0.0242
 8630SOL    HW137523   1.026   1.264   3.927  0.5763 -0.2864  1.5437
 8630SOL    HW237524   1.104   1.163   3.979 -0.2088  0.1686 -0.0027
 8631SOL     OW37525   1.739   3.840   6.549 -0.5899 -0.3139 -0.1014
 8631SOL    HW137526   1.659   3.794   6.522 -0.3902  0.7562 -2.5367
 8631SOL    HW237527   1.735   3.915   6.489  0.4086 -1.0997 -1.1632
 8632SOL     OW37528   3.349   3.109  11.272 -0.1849 -0.0441 -0.2966
 8632SOL    HW137529   3.282   3.040  11.266  1.0844 -1.2412 -0.6728
 8632SOL    HW237530   3.403   3.064  11.207  0.7349  0.9970 -0.2440
 8633SOL     OW37531   3.436   2.419   3.963  0.1993 -0.3185  0.5755
 8633SOL    HW137532   3.367   2.485   3.964 -0.1615 -0.6835 -0.3031
 8633SOL    HW237533   3.516   2.466   3.940 -0.2983 -0.4252 -1.3726
 8634SOL     OW37534   1.840   2.103   9.265 -0.0633 -0.1094  0.1422
 8634SOL    HW137535   1.842   2.193   9.233  1.0368 -0.5810 -1.1128
 8634SOL    HW237536   1.933   2.078   9.263 -0.0409 -0.1062  1.0063
 8635SOL     OW37537   0.116   1.100  11.544  0.2026  0.2129  1.0232
 8635SOL    HW137538   0.194   1.056  11.577 -0.3371 -1.3624  0.1673
 8635SOL    HW237539   0.047   1.077  11.606  0.5330  0.2491  1.4058
 8636SOL     OW37540   2.630   0.069   5.468  0.3913  0.1303  0.2276
 8636SOL    HW137541   2.674   0.152   5.489  4.4777 -2.1867  0.9462
 8636SOL    HW237542   2.555   0.105   5.422  0.7510  0.5620 -0.0290
 8637SOL     OW37543   2.920   1.789   4.487  0.1991  0.2500  0.3154
 8637SOL    HW137544   2.901   1.881   4.500  1.0607  0.1833  1.9896
 8637SOL    HW237545   2.969   1.802   4.405  1.0569  1.9465  1.1019
 8638SOL     OW37546   3.548   3.966   8.133 -0.1732  0.3652  0.1068
 8638SOL    HW137547   3.458   3.963   8.102  0.6117 -0.3336 -2.1208
 8638SOL    HW237548   3.547   4.021   8.212 -0.7323  2.4842 -1.3750
 8639SOL     OW37549   1.685   3.986   2.093  0.1831  0.3371 -0.3108
 8639SOL    HW137550   1.637   3.981   2.010  1.6758  0.6121 -1.1940
 8639SOL    HW237551   1.737   4.064   2.077 -1.4412  1.1929 -1.4568
 8640SOL     OW37552   0.129   4.380   8.465 -0.1028  0.2251 -0.1122
 8640SOL    HW137553   0.141   4.395   8.371  2.8636 -0.8789  0.0874
 8640SOL    HW237554   0.107   4.470   8.490 -2.8866 -0.6318  0.5575
 8641SOL     OW37555   1.753   0.535   3.473  0.3616 -0.4292  0.4334
 8641SOL    HW137556   1.784   0.445   3.472  0.0404 -0.5394  0.5362
 8641SOL    HW237557   1.800   0.568   3.550 -0.0040 -1.0711  0.9344
 8642SOL     OW37558   1.523   0.213   1.349  0.0642 -0.3813  0.0579
 8642SOL    HW137559   1.459   0.148   1.319 -1.1295  0.8405 -0.0206
 8642SOL    HW237560   1.556   0.253   1.269  1.1376  1.3926  1.4024
 8643SOL     OW37561   0.970   1.654  15.846 -0.8838  0.0026 -0.1576
 8643SOL    HW137562   0.989   1.596  15.772 -0.7478  1.1880 -1.0484
 8643SOL    HW237563   1.018   1.612  15.917  0.3208  1.0235 -0.3723
 8644SOL     OW37564   2.716   0.083  10.707  0.1607  0.0829  0.1481
 8644SOL    HW137565   2.658   0.042  10.772  0.0027  0.3066  0.1489
 8644SOL    HW237566   2.673   0.168  10.697 -2.2219 -1.4618 -3.0091
 8645SOL     OW37567   0.460   2.691  13.474  0.5066  0.0184 -0.3493
 8645SOL    HW137568   0.478   2.784  13.461  0.4328  0.0868  0.0408
 8645SOL    HW237569   0.409   2.669  13.396  1.5308 -1.4087 -0.6093
 8646SOL     OW37570   0.848   4.111   2.905  0.2278 -0.0103 -0.3734
 8646SOL    HW137571   0.758   4.077   2.896  1.3456 -3.1014  0.0916
 8646SOL    HW237572   0.847   4.195   2.859  0.4238  0.4188  0.4017
 8647SOL     OW37573   2.172   3.217   2.632  0.7539  0.7225  0.1017
 8647SOL    HW137574   2.265   3.216   2.655  0.8573  2.0429 -0.2410
 8647SOL    HW237575   2.146   3.134   2.672  0.1899  1.0243  0.3700
 8648SOL     OW37576   4.052   2.695   4.359  0.6480 -0.4366  0.0155
 8648SOL    HW137577   4.083   2.774   4.404 -1.2059  0.9983 -1.2335
 8648SOL    HW237578   4.032   2.729   4.272  2.4647  1.4707  0.3453
 8649SOL     OW37579   2.167   3.682   9.547 -0.3155  0.3453  0.1176
 8649SOL    HW137580   2.191   3.639   9.629 -1.9773 -0.4965  0.1679
 8649SOL    HW237581   2.094   3.735   9.578  0.2607  1.6982 -0.8245
 8650SOL     OW37582   2.456   3.228  13.177  0.2150  0.3768 -0.0764
 8650SOL    HW137583   2.494   3.148  13.140  1.3504  1.8492 -2.1168
 8650SOL    HW237584   2.530   3.239  13.237  1.2811  0.4263 -1.3788
 8651SOL     OW37585   0.105   2.778   0.732 -0.0213 -0.3629  0.2516
 8651SOL    HW137586   0.052   2.841   0.780  0.6127 -0.4345  1.0396
 8651SOL    HW237587   0.042   2.725   0.684  0.0796  0.2567 -0.5610
 8652SOL     OW37588   3.804   0.995   4.555 -0.0356  0.0598  0.0575
 8652SOL    HW137589   3.836   1.086   4.551 -0.0194 -0.0149 -1.4594
 8652SOL    HW237590   3.819   0.965   4.465 -1.3790  0.9431 -0.4525
 8653SOL     OW37591   0.067   1.046   8.399  0.0488 -0.2128  0.7991
 8653SOL    HW137592   0.064   1.079   8.489 -2.8559  0.4117  0.4584
 8653SOL    HW237593   0.093   0.955   8.413  1.1446 -0.2199 -1.2828
 8654SOL     OW37594   2.229   2.332   8.240  0.5235 -0.3644 -0.0507
 8654SOL    HW137595   2.161   2.271   8.267  0.7556 -1.7117 -2.5301
 8654SOL    HW237596   2.256   2.377   8.320  0.2093  1.8308 -1.1691
 8655SOL     OW37597   2.085   3.410   7.101  0.2818  0.0934  0.4463
 8655SOL    HW137598   2.004   3.358   7.106  0.6427 -0.2776  2.6685
 8655SOL    HW237599   2.136   3.362   7.036 -1.3801 -3.0375  1.4484
 8656SOL     OW37600   0.652   3.221   2.926  0.3839  0.2246  0.1516
 8656SOL    HW137601   0.608   3.225   3.010 -1.1431 -0.5167 -0.6227
 8656SOL    HW237602   0.633   3.313   2.905  0.2569 -0.2677 -1.8892
 8657SOL     OW37603   0.442   2.815   2.442  0.8225 -0.0922 -0.0465
 8657SOL    HW137604   0.436   2.890   2.383  1.3316  0.3411  0.4545
 8657SOL    HW237605   0.500   2.763   2.385  0.1302 -0.3202 -0.5444
 8658SOL     OW37606   1.147   2.648   8.208  0.0411  0.5316  0.6149
 8658SOL    HW137607   1.194   2.731   8.219  3.0151 -0.8382 -1.6683
 8658SOL    HW237608   1.174   2.620   8.121  1.3092 -0.3216  1.2839
 8659SOL     OW37609   0.834   3.605   2.047 -0.0129 -0.0320  0.7448
 8659SOL    HW137610   0.920   3.563   2.035  0.1989  0.1803  1.5439
 8659SOL    HW237611   0.775   3.536   2.018  0.1625  1.1165 -2.4031
 8660SOL     OW37612   2.304   3.012   8.124  0.1495  0.2873 -0.6652
 8660SOL    HW137613   2.255   2.989   8.045 -1.8833 -0.0269  0.6815
 8660SOL    HW237614   2.365   3.074   8.085  1.7259 -0.3344  0.8289
 8661SOL     OW37615   0.737   2.939   2.328  0.6998 -0.3165 -0.7287
 8661SOL    HW137616   0.753   2.860   2.275  1.7600  0.4431 -1.5408
 8661SOL    HW237617   0.776   2.904   2.409  0.4501  1.0936  0.0012
 8662SOL     OW37618   0.641   3.560   7.930 -0.0321  0.0475  0.0424
 8662SOL    HW137619   0.681   3.582   8.014 -1.0977 -2.2525  1.1646
 8662SOL    HW237620   0.632   3.648   7.895 -0.8600 -0.9859 -2.3341
 8663SOL     OW37621   4.418   3.893   6.396 -0.0753  0.5015 -0.3918
 8663SOL    HW137622   4.465   3.936   6.325 -1.7204  1.3542 -0.9527
 8663SOL    HW237623   4.405   3.968   6.454  0.4665  1.2882 -1.2753
 8664SOL     OW37624   0.486   1.822  17.668 -0.0667  0.2762  0.1036
 8664SOL    HW137625   0.418   1.885  17.643  1.5951  1.9704 -0.1731
 8664SOL    HW237626   0.561   1.865  17.626  0.0489 -0.0824 -0.0535
 8665SOL     OW37627   0.208   0.429  15.829 -0.3469 -0.0881 -0.0728
 8665SOL    HW137628   0.151   0.496  15.866  0.1652  0.7132 -0.7352
 8665SOL    HW237629   0.187   0.349  15.877 -0.3894  1.3715  2.3467
 8666SOL     OW37630   4.239   2.213   9.317  0.4485 -0.3766 -0.0570
 8666SOL    HW137631   4.216   2.305   9.311  1.7228 -0.0512 -0.0830
 8666SOL    HW237632   4.277   2.209   9.405  0.4414 -0.6975 -0.0661
 8667SOL     OW37633   3.384   3.795   5.507 -0.1632 -0.1378 -0.2699
 8667SOL    HW137634   3.449   3.784   5.438 -0.0607  0.7664 -0.3161
 8667SOL    HW237635   3.308   3.828   5.458 -1.6022 -0.9383  1.4429
 8668SOL     OW37636   3.790   0.055   9.326  0.2981 -0.0424 -0.3681
 8668SOL    HW137637   3.778   0.120   9.257 -2.1576  0.6302  0.7094
 8668SOL    HW237638   3.872   0.013   9.301  0.9157 -0.8059  2.9620
 8669SOL     OW37639   0.131   0.985   0.009  0.4041 -0.1307 -0.1796
 8669SOL    HW137640   0.114   0.974   0.103 -0.0459 -3.8232 -0.6676
 8669SOL    HW237641   0.179   1.067   0.007 -2.2800  1.4113 -2.0086
 8670SOL     OW37642   4.300   0.474  11.469 -0.3418 -0.2070  0.0121
 8670SOL    HW137643   4.214   0.499  11.504  0.2719  1.1416  0.5536
 8670SOL    HW237644   4.315   0.386  11.505 -1.6843 -0.6980 -0.6259
 8671SOL     OW37645   0.936   2.833  11.740  0.0674  0.6628 -0.0487
 8671SOL    HW137646   0.883   2.838  11.661  0.1833 -0.8128 -0.2192
 8671SOL    HW237647   0.971   2.745  11.728  0.3996  0.6203  1.2713
 8672SOL     OW37648   1.776   1.044   8.730 -0.3390  0.7740 -0.7629
 8672SOL    HW137649   1.829   1.035   8.651  1.4189 -0.1062  0.4990
 8672SOL    HW237650   1.684   1.053   8.704 -1.0352 -0.0219  1.3409
 8673SOL     OW37651   3.653   3.093   3.777  0.4101 -0.4842 -0.2407
 8673SOL    HW137652   3.640   2.999   3.791 -0.3322 -0.3967 -0.3168
 8673SOL    HW237653   3.681   3.084   3.686  0.2218 -0.2007 -0.3267
 8674SOL     OW37654   4.419   3.544  10.112  0.2796 -0.6552 -0.1060
 8674SOL    HW137655   4.465   3.523  10.031 -1.3894  0.0124 -1.2206
 8674SOL    HW237656   4.493   3.592  10.148 -0.5572  1.0717 -0.6807
 8675SOL     OW37657   4.283   2.290  11.980  0.1189  0.3023  0.7323
 8675SOL    HW137658   4.189   2.272  11.980  0.9112 -3.8670 -2.1373
 8675SOL    HW237659   4.306   2.210  11.932  0.4542  0.6931  0.2404
 8676SOL     OW37660   2.758   2.132   0.088 -0.2118  0.4764 -0.1581
 8676SOL    HW137661   2.848   2.156   0.113  0.3543 -1.2076 -0.6104
 8676SOL    HW237662   2.735   2.067   0.154 -0.1954  0.2180 -0.4079
 8677SOL     OW37663   4.587   3.408   7.417 -0.5384  0.1008  0.3202
 8677SOL    HW137664   4.656   3.470   7.392  0.4909 -1.8871 -1.8393
 8677SOL    HW237665   4.548   3.383   7.333  4.0854 -2.3002 -1.1127
 8678SOL     OW37666   0.237   2.655   3.411 -0.0056 -0.2961  0.1712
 8678SOL    HW137667   0.328   2.625   3.407  0.2619  0.2326  2.3680
 8678SOL    HW237668   0.226   2.644   3.506 -0.9876 -1.4971 -0.0827
 8679SOL     OW37669   4.200   1.006  16.937 -0.0110 -0.3350  0.0993
 8679SOL    HW137670   4.150   1.038  17.012  1.2628 -1.4182  1.4046
 8679SOL    HW237671   4.134   0.949  16.896  0.6841  1.9809 -4.2777
 8680SOL     OW37672   2.397   3.708   8.912 -0.0560  0.9486  0.1282
 8680SOL    HW137673   2.323   3.754   8.950 -1.6514 -0.5468 -1.1443
 8680SOL    HW237674   2.372   3.702   8.820  1.3321  2.8324 -0.3718
 8681SOL     OW37675   1.977   3.779   6.952 -0.0370  0.5072 -0.5156
 8681SOL    HW137676   1.941   3.851   6.901 -0.8508  1.0930  0.8680
 8681SOL    HW237677   1.933   3.790   7.036  2.4299  1.2850  0.6875
 8682SOL     OW37678   2.680   0.329   3.027 -0.0899 -0.1657 -0.4605
 8682SOL    HW137679   2.620   0.317   3.101 -1.1119 -1.2490 -1.4775
 8682SOL    HW237680   2.757   0.276   3.050 -0.6944 -0.8453  0.0139
 8683SOL     OW37681   0.345   0.968  10.734  0.1134  0.3622 -0.0293
 8683SOL    HW137682   0.358   0.891  10.789  0.7937  0.1595 -0.4648
 8683SOL    HW237683   0.259   0.998  10.762 -0.4673 -1.6418  0.3835
 8684SOL     OW37684   1.138   2.638   5.089  0.5730  1.1250  0.1414
 8684SOL    HW137685   1.145   2.575   5.016  1.2865  1.0006  0.3192
 8684SOL    HW237686   1.098   2.718   5.055 -2.5133  0.2851  1.8118
 8685SOL     OW37687   1.877   4.226   3.795 -0.5446 -0.2086 -0.2835
 8685SOL    HW137688   1.802   4.172   3.818 -0.1564 -0.2988  0.7773
 8685SOL    HW237689   1.941   4.162   3.765 -0.6491 -0.0359 -0.8750
 8686SOL     OW37690   2.358   0.155   4.172 -0.3796 -0.0729  1.2525
 8686SOL    HW137691   2.296   0.226   4.191 -1.7285 -1.5840  2.4242
 8686SOL    HW237692   2.309   0.082   4.133  0.0665 -0.3594  1.2338
 8687SOL     OW37693   2.750   2.816   5.043 -0.7870  0.4812 -0.6388
 8687SOL    HW137694   2.757   2.842   5.135  0.0692 -1.0851 -0.2606
 8687SOL    HW237695   2.662   2.845   5.018 -0.4917  1.3605 -0.6545
 8688SOL     OW37696   0.208   3.504   9.947 -0.3139 -0.4388 -0.1141
 8688SOL    HW137697   0.224   3.422   9.993  2.5347  0.6344  0.8519
 8688SOL    HW237698   0.288   3.552   9.969 -0.9931 -0.7032  2.9111
 8689SOL     OW37699   4.029   0.507  11.523  0.6642  0.0277 -0.4174
 8689SOL    HW137700   3.955   0.561  11.550  2.1362  2.0786 -0.4552
 8689SOL    HW237701   4.020   0.432  11.582 -1.3172  2.0796  1.9147
 8690SOL     OW37702   0.383   3.789   1.255  0.2988 -0.7692 -0.1997
 8690SOL    HW137703   0.303   3.746   1.284 -0.3919  1.9685  1.9337
 8690SOL    HW237704   0.409   3.721   1.193 -0.0860 -0.9314 -0.1785
 8691SOL     OW37705   0.453   2.301   2.930  0.3880  0.0072 -0.5041
 8691SOL    HW137706   0.530   2.356   2.912 -0.2346  0.4885 -1.6410
 8691SOL    HW237707   0.465   2.306   3.025 -3.4491 -1.4657  0.0449
 8692SOL     OW37708   1.264   0.008  12.325 -0.4621 -0.6556  0.2852
 8692SOL    HW137709   1.312   0.084  12.359 -0.5732 -0.8557  0.8882
 8692SOL    HW237710   1.339   4.691  12.300  0.6784  0.2028  1.8037
 8693SOL     OW37711   0.336   0.369   6.625 -0.2306 -0.1199  0.2691
 8693SOL    HW137712   0.398   0.429   6.584 -2.0639  1.1749 -0.6429
 8693SOL    HW237713   0.396   0.294   6.631 -0.4082 -0.2269  0.6804
 8694SOL     OW37714   2.926   4.627   5.920  0.8184 -0.0767  0.0282
 8694SOL    HW137715   2.879   4.621   5.837 -0.7766  0.6074  0.8945
 8694SOL    HW237716   2.983   4.702   5.901 -1.9839  1.9466 -0.3821
 8695SOL     OW37717   4.609   1.483  15.279 -0.1762 -0.4962 -0.2026
 8695SOL    HW137718   4.568   1.569  15.284 -1.7400 -1.1647 -1.7443
 8695SOL    HW237719   4.583   1.455  15.367  2.0468  0.7990  0.8855
 8696SOL     OW37720   4.490   4.510   7.164  0.0125  0.0039  0.1673
 8696SOL    HW137721   4.522   4.592   7.127  0.1172  0.2512  0.8029
 8696SOL    HW237722   4.513   4.525   7.256  0.9556  0.0051 -0.0623
 8697SOL     OW37723   0.688   1.515   2.556  0.7092 -0.5555  0.1306
 8697SOL    HW137724   0.674   1.478   2.643  2.2582  1.2097  1.1225
 8697SOL    HW237725   0.777   1.542   2.578  0.0268  2.1800 -0.4676
 8698SOL     OW37726   2.074   1.935  12.825  0.3946 -0.2827  0.2503
 8698SOL    HW137727   2.067   2.030  12.832 -0.6496 -0.1214 -2.9503
 8698SOL    HW237728   2.053   1.912  12.735 -1.3917 -3.0442  1.3715
 8699SOL     OW37729   4.087   2.275   6.495  0.0181 -0.7753  0.4323
 8699SOL    HW137730   4.084   2.180   6.484  0.7484 -0.5611 -1.5344
 8699SOL    HW237731   4.041   2.298   6.576 -0.2660  1.6576 -0.4251
 8700SOL     OW37732   4.427   2.758   6.236 -0.2461  0.1805 -0.1799
 8700SOL    HW137733   4.522   2.749   6.233 -0.2758 -0.1257 -0.2124
 8700SOL    HW237734   4.412   2.849   6.212  0.4555  0.7989  1.7053
 8701SOL     OW37735   4.430   3.978   1.665  0.3797  0.0395  0.1139
 8701SOL    HW137736   4.478   4.024   1.596 -1.2262  0.1563 -0.9084
 8701SOL    HW237737   4.462   4.043   1.728 -0.3710  0.0151  0.5130
 8702SOL     OW37738   1.847   4.189   0.720 -0.1818 -0.2464 -0.6304
 8702SOL    HW137739   1.900   4.127   0.671 -1.8788 -2.6859  0.6315
 8702SOL    HW237740   1.788   4.221   0.652 -1.8144  0.1501  0.9754
 8703SOL     OW37741   3.357   2.711   6.125 -0.4052  0.0390 -0.4451
 8703SOL    HW137742   3.314   2.643   6.074 -0.4772  0.3808 -0.8403
 8703SOL    HW237743   3.287   2.740   6.183  0.9181  1.0645  0.6607
 8704SOL     OW37744   2.144   2.982   6.865  0.1327 -0.4786 -0.2071
 8704SOL    HW137745   2.204   3.044   6.906 -0.1563  1.5293 -2.8233
 8704SOL    HW237746   2.069   3.038   6.850 -0.5394 -1.3625 -0.1783
 8705SOL     OW37747   2.339   1.649   1.165  0.3511  0.0400  0.4318
 8705SOL    HW137748   2.414   1.696   1.128 -0.0543  0.9032  0.6991
 8705SOL    HW237749   2.260   1.683   1.122  0.9787 -1.5387 -1.9638
 8706SOL     OW37750   3.136   1.231  15.356 -0.1145  0.5989 -0.2098
 8706SOL    HW137751   3.097   1.174  15.422 -1.4120  1.7075 -0.0355
 8706SOL    HW237752   3.105   1.318  15.383 -2.2436  0.5529 -2.5291
 8707SOL     OW37753   4.500   3.583   6.694 -0.7972 -1.0324 -0.4989
 8707SOL    HW137754   4.584   3.627   6.705 -1.4375  0.2916 -0.8948
 8707SOL    HW237755   4.516   3.566   6.601  1.7876 -1.7984  0.0951
 8708SOL     OW37756   4.644   2.683   1.682 -0.7909  0.3398  0.4103
 8708SOL    HW137757   4.558   2.658   1.717  0.1630 -0.4682  2.1521
 8708SOL    HW237758   4.672   2.602   1.640 -2.9888 -0.2272 -0.0009
 8709SOL     OW37759   4.664   0.564   7.013 -0.7642 -0.2574  0.1036
 8709SOL    HW137760   4.616   0.577   7.095  0.2748  0.8491  0.5398
 8709SOL    HW237761   0.012   0.542   7.051 -1.0632 -2.9602 -0.8169
 8710SOL     OW37762   2.975   0.637   9.102  0.4893  0.0860 -0.2649
 8710SOL    HW137763   2.956   0.571   9.169 -0.9555  0.5781 -0.1849
 8710SOL    HW237764   3.020   0.696   9.162  3.3212 -2.4894  0.1140
 8711SOL     OW37765   1.202   1.208   6.597 -0.5229 -0.1024 -0.0251
 8711SOL    HW137766   1.162   1.280   6.646 -0.5595 -0.4051  0.3823
 8711SOL    HW237767   1.281   1.251   6.564 -1.0020  0.8434  0.0674
 8712SOL     OW37768   4.087   3.353   1.713  0.3234  0.0039 -0.1394
 8712SOL    HW137769   4.145   3.311   1.648 -0.2402 -1.9269  0.5976
 8712SOL    HW237770   4.083   3.279   1.774  0.8326  0.3011  0.2524
 8713SOL     OW37771   2.436   3.323   4.858  0.2524  0.3189  0.7452
 8713SOL    HW137772   2.416   3.402   4.808 -3.4512 -0.0309  1.7065
 8713SOL    HW237773   2.516   3.291   4.816  0.1896  2.0772 -0.7112
 8714SOL     OW37774   4.409   2.810  11.561  0.4350  0.1409 -0.5245
 8714SOL    HW137775   4.438   2.902  11.554  1.3031 -0.0865  0.1662
 8714SOL    HW237776   4.372   2.815  11.648 -0.4171 -0.0258 -0.8786
 8715SOL     OW37777   2.486   0.411   8.276  0.1736 -0.1273 -0.0709
 8715SOL    HW137778   2.485   0.505   8.294 -2.9367 -0.2611  0.4705
 8715SOL    HW237779   2.515   0.410   8.185  2.6038  0.9843  0.6893
 8716SOL     OW37780   0.015   0.297   7.225 -0.0733 -0.0963 -0.3286
 8716SOL    HW137781   4.690   0.307   7.152  0.9350 -0.1181 -1.1946
 8716SOL    HW237782   4.696   0.280   7.300 -0.3420  0.7408 -0.3405
 8717SOL     OW37783   0.311   0.297   7.322 -1.0037  0.0966 -0.8712
 8717SOL    HW137784   0.236   0.237   7.314  1.3153 -2.9592  0.6721
 8717SOL    HW237785   0.384   0.236   7.319  0.0883  1.2525  2.8314
 8718SOL     OW37786   4.072   3.231   9.308  0.0972 -0.0090 -0.0486
 8718SOL    HW137787   4.134   3.301   9.290 -1.5166  1.6197  0.6850
 8718SOL    HW237788   4.111   3.151   9.272 -0.1890 -0.3842  0.4797
 8719SOL     OW37789   2.660   4.718   9.626 -0.1111  0.5441 -0.3860
 8719SOL    HW137790   2.701   4.632   9.625 -0.9134  0.1188  2.7740
 8719SOL    HW237791   2.675   0.014   9.715 -0.8751 -0.2366  0.0341
 8720SOL     OW37792   0.905   0.356  15.718 -0.0342 -0.2992 -0.2956
 8720SOL    HW137793   0.931   0.400  15.637  1.4206  0.0896  0.3783
 8720SOL    HW237794   0.992   0.335  15.753  0.7506  0.7984 -1.6039
 8721SOL     OW37795   3.308   2.108   3.627  0.4764 -0.2258  0.1241
 8721SOL    HW137796   3.263   2.040   3.677  0.3060 -2.4516 -3.0142
 8721SOL    HW237797   3.377   2.134   3.687  1.7715  0.7076 -1.7993
 8722SOL     OW37798   2.267   0.367  10.679  0.0136  0.3182 -0.2959
 8722SOL    HW137799   2.250   0.400  10.768  0.7989  0.2583 -0.1269
 8722SOL    HW237800   2.316   0.440  10.643  1.2928 -1.9647 -3.1226
 8723SOL     OW37801   2.873   0.849   8.433  0.4286 -0.5534 -0.1220
 8723SOL    HW137802   2.782   0.823   8.450 -0.6689  0.7015 -4.2208
 8723SOL    HW237803   2.905   0.766   8.396 -3.3548 -0.9019 -2.5562
 8724SOL     OW37804   4.412   2.946   8.426 -0.2023  0.0063  0.1653
 8724SOL    HW137805   4.470   2.918   8.355 -2.0762 -0.6795 -1.0733
 8724SOL    HW237806   4.439   3.038   8.427  1.6437 -0.4936 -1.7795
 8725SOL     OW37807   4.517   2.149  13.251 -0.4746  0.1481  0.5861
 8725SOL    HW137808   4.514   2.231  13.301 -0.3624  0.6004 -0.1505
 8725SOL    HW237809   4.459   2.175  13.180  0.5139  0.6169 -0.0510
 8726SOL     OW37810   4.153   4.535   8.889 -0.5710 -0.1176  0.2124
 8726SOL    HW137811   4.208   4.527   8.811 -0.7214 -0.2159  0.1142
 8726SOL    HW237812   4.207   4.567   8.960  0.5492  0.1051 -0.7387
 8727SOL     OW37813   4.222   3.015   9.229 -0.1745 -0.1382  0.0174
 8727SOL    HW137814   4.221   2.923   9.254  0.0813  0.1196  0.9879
 8727SOL    HW237815   4.309   3.034   9.195 -0.0736  0.0647  0.3878
 8728SOL     OW37816   4.205   1.675   9.542 -0.4433 -0.0486 -0.0123
 8728SOL    HW137817   4.170   1.678   9.453 -1.1719 -0.0748  0.2729
 8728SOL    HW237818   4.271   1.607   9.528 -1.2795 -1.1614  1.4696
 8729SOL     OW37819   3.677   0.288   5.702 -0.3952 -0.2196 -0.3428
 8729SOL    HW137820   3.709   0.364   5.652  1.1571  0.0449  1.0528
 8729SOL    HW237821   3.740   0.291   5.774 -3.2992  1.9186  2.1020
 8730SOL     OW37822   1.025   4.032  13.918  0.1123  0.7091  0.0578
 8730SOL    HW137823   0.958   3.968  13.899  1.3927 -0.2253 -1.2517
 8730SOL    HW237824   1.094   4.014  13.855 -0.7588  0.6583 -0.8725
 8731SOL     OW37825   1.148   0.094  14.004 -0.5298 -0.0123 -0.5920
 8731SOL    HW137826   1.187   0.180  13.989 -2.0389  0.2112 -3.2814
 8731SOL    HW237827   1.112   0.087  14.092  2.8143 -1.1686  0.6984
 8732SOL     OW37828   0.812   0.194  16.050 -0.1405  0.3544 -0.9081
 8732SOL    HW137829   0.858   0.225  16.127 -1.9640 -0.8605  0.6712
 8732SOL    HW237830   0.893   0.175  16.002  0.0059 -2.3769  0.4163
 8733SOL     OW37831   0.061   0.119   5.214  0.0873 -0.1497 -0.5718
 8733SOL    HW137832   0.146   0.154   5.244 -0.8696  1.9506 -0.2832
 8733SOL    HW237833   0.090   0.088   5.128 -4.5537 -1.6732 -1.5506
 8734SOL     OW37834   3.038   2.280   9.204 -0.5356  0.0347 -0.1607
 8734SOL    HW137835   3.121   2.326   9.216  0.3578 -1.2354 -1.4335
 8734SOL    HW237836   3.075   2.193   9.187 -0.4228  0.0604 -0.0480
 8735SOL     OW37837   0.565   2.283  16.177  0.5103  0.8250 -0.4823
 8735SOL    HW137838   0.647   2.331  16.175  2.5724 -2.6640 -1.1935
 8735SOL    HW237839   0.524   2.314  16.258 -0.7428  1.0930 -1.2326
 8736SOL     OW37840   2.780   2.036   3.565 -0.1355 -0.4353  0.0985
 8736SOL    HW137841   2.773   2.126   3.532  1.1781 -0.5844 -0.5753
 8736SOL    HW237842   2.868   2.018   3.531 -0.0912  0.3638 -0.2108
 8737SOL     OW37843   2.082   2.680   9.661  0.2928 -0.0313  0.7027
 8737SOL    HW137844   2.086   2.604   9.720  0.5526  2.0833  3.3620
 8737SOL    HW237845   2.173   2.711   9.660  0.8115 -1.5126  0.2524
 8738SOL     OW37846   3.088   2.415  13.484 -0.0569 -0.2443  0.1690
 8738SOL    HW137847   3.075   2.507  13.509 -2.7781 -0.5642 -0.0452
 8738SOL    HW237848   3.161   2.394  13.542  0.8449  0.1466 -0.8003
 8739SOL     OW37849   4.300   0.907   9.084 -0.3113 -0.0957 -0.1150
 8739SOL    HW137850   4.356   0.839   9.121 -2.3959 -1.4754  0.5225
 8739SOL    HW237851   4.363   0.945   9.023  0.8227  1.6535  2.1340
 8740SOL     OW37852   1.930   1.253   5.222  0.0433 -0.4488 -0.2054
 8740SOL    HW137853   1.902   1.165   5.248  2.8685 -1.3911 -0.3325
 8740SOL    HW237854   1.845   1.296   5.234  1.2425  2.2006 -1.3280
 8741SOL     OW37855   1.075   0.090  10.979  0.8806 -0.1126 -0.1925
 8741SOL    HW137856   0.993   0.041  10.989  0.2315  0.5087 -2.3878
 8741SOL    HW237857   1.078   0.137  11.062 -0.2175  0.7510 -0.6370
 8742SOL     OW37858   0.504   0.980   8.846 -0.0003  0.5049  0.0506
 8742SOL    HW137859   0.589   0.939   8.864 -0.0396  0.0353 -0.8507
 8742SOL    HW237860   0.512   1.067   8.884 -2.2021  0.2183  1.1736
 8743SOL     OW37861   0.840   2.105  11.735 -0.0142 -0.0033 -0.1379
 8743SOL    HW137862   0.909   2.052  11.773 -0.0958 -0.2050 -0.2732
 8743SOL    HW237863   0.791   2.126  11.815 -0.0238 -0.5842  0.0059
 8744SOL     OW37864   1.353   0.065   9.029  0.4380 -0.0229 -0.2867
 8744SOL    HW137865   1.429   0.008   9.022  0.2634 -0.4830  1.5592
 8744SOL    HW237866   1.375   0.131   8.963 -0.5350  0.3928 -0.1989
 8745SOL     OW37867   2.237   4.170   6.609  0.4026 -0.4187 -0.1328
 8745SOL    HW137868   2.261   4.240   6.670  1.4892 -0.3245 -0.6709
 8745SOL    HW237869   2.218   4.235   6.541  3.1377  0.0669 -0.4586
 8746SOL     OW37870   4.240   0.418   2.724 -0.2937  0.2866  0.0178
 8746SOL    HW137871   4.290   0.450   2.799 -0.6352  2.6554 -0.7710
 8746SOL    HW237872   4.311   0.402   2.662  0.4413  2.0805  0.3831
 8747SOL     OW37873   1.793   2.995  12.969  0.2223 -0.1468 -0.0983
 8747SOL    HW137874   1.856   3.042  12.915  2.3079 -0.0521  2.4041
 8747SOL    HW237875   1.723   2.978  12.906 -0.4807 -1.3707  1.0036
 8748SOL     OW37876   3.941   4.548   8.144  0.0467  0.1439  0.2220
 8748SOL    HW137877   3.865   4.581   8.192 -0.2961 -1.2046  0.5980
 8748SOL    HW237878   3.898   4.524   8.061 -1.6014  1.0411  0.8037
 8749SOL     OW37879   4.116   2.491   4.988  0.1612  0.0823  0.9463
 8749SOL    HW137880   4.040   2.457   4.941  0.5508  1.0174 -0.3714
 8749SOL    HW237881   4.084   2.581   4.996  1.9674  1.0662 -2.9545
 8750SOL     OW37882   2.558   1.313  10.373  0.1548 -0.5508 -0.4034
 8750SOL    HW137883   2.465   1.301  10.359  0.1428 -0.9776  0.0407
 8750SOL    HW237884   2.593   1.267  10.297  1.5899  0.3625 -0.2979
 8751SOL     OW37885   3.259   3.884   4.798 -0.3147 -0.7573 -0.0000
 8751SOL    HW137886   3.328   3.821   4.818  0.7961  0.4359 -0.0273
 8751SOL    HW237887   3.259   3.932   4.881  0.4376  1.3168 -1.1951
 8752SOL     OW37888   1.666   1.602   6.815  0.3856  0.0014  0.6418
 8752SOL    HW137889   1.686   1.696   6.810 -0.1376 -0.0878 -3.2944
 8752SOL    HW237890   1.720   1.565   6.746 -1.4769  1.5487 -1.6602
 8753SOL     OW37891   3.444   4.067   9.269 -0.6899 -0.3899  0.3384
 8753SOL    HW137892   3.447   4.110   9.183  0.1313 -1.2514 -0.0636
 8753SOL    HW237893   3.357   4.090   9.300 -1.6488 -3.6676  0.0940
 8754SOL     OW37894   3.011   0.424   9.275  0.3543 -0.0182  0.1572
 8754SOL    HW137895   2.994   0.344   9.324 -1.1050  0.4541  0.4137
 8754SOL    HW237896   3.107   0.431   9.279  0.2867  0.2386  1.5130
 8755SOL     OW37897   2.717   0.530   2.489  0.6944 -0.7811 -0.2876
 8755SOL    HW137898   2.680   0.495   2.409 -0.4346  1.7255 -0.8733
 8755SOL    HW237899   2.806   0.553   2.461 -0.1286  2.2835 -0.3592
 8756SOL     OW37900   0.342   2.056   9.258  0.1874  0.1555 -0.0669
 8756SOL    HW137901   0.338   2.121   9.328  1.0249  0.9783 -0.7917
 8756SOL    HW237902   0.424   2.009   9.272 -0.0896 -0.4779 -0.5844
 8757SOL     OW37903   1.606   2.110   5.734  0.3225  0.4316  1.0139
 8757SOL    HW137904   1.661   2.180   5.769  0.1215  0.5200  1.1537
 8757SOL    HW237905   1.527   2.161   5.715  0.5073 -0.4472 -2.2137
 8758SOL     OW37906   0.636   3.847   9.942 -0.0529  0.5855  0.5561
 8758SOL    HW137907   0.685   3.779   9.988  0.5311 -0.2186 -1.2572
 8758SOL    HW237908   0.673   3.842   9.854  2.8733 -0.1684  1.8291
 8759SOL     OW37909   3.040   2.071   7.366 -0.0468  0.3808 -0.0242
 8759SOL    HW137910   2.998   2.071   7.452  1.5489 -2.1039  0.7336
 8759SOL    HW237911   2.967   2.043   7.311  2.0516 -0.5808 -2.3279
 8760SOL     OW37912   3.444   1.838   4.694 -0.0793  0.1434 -0.5206
 8760SOL    HW137913   3.537   1.819   4.690 -0.1148 -0.5458  1.6058
 8760SOL    HW237914   3.416   1.760   4.743 -0.8927  0.8162  0.1021
 8761SOL     OW37915   1.264   1.350  11.622  0.4375  0.4226 -0.2055
 8761SOL    HW137916   1.180   1.376  11.661  0.2481 -0.0644 -0.2732
 8761SOL    HW237917   1.288   1.275  11.677  3.0911  0.0214 -1.9406
 8762SOL     OW37918   3.344   4.240  17.004  0.1989  0.5961 -0.5254
 8762SOL    HW137919   3.280   4.176  17.036 -0.6611  1.0523 -1.3535
 8762SOL    HW237920   3.376   4.188  16.930 -0.5647  0.5660 -0.8371
 8763SOL     OW37921   2.209   4.691   4.025 -0.3168 -0.1273 -0.2852
 8763SOL    HW137922   2.123   4.673   3.986 -0.9482  2.3845 -0.0074
 8763SOL    HW237923   2.268   4.636   3.974  0.1733  1.5207 -1.4803
 8764SOL     OW37924   3.444   4.484  15.331  0.2943 -0.0619  0.1063
 8764SOL    HW137925   3.472   4.399  15.366 -2.0073 -1.8669 -2.4793
 8764SOL    HW237926   3.363   4.463  15.285  0.1492  0.6495  0.0441
 8765SOL     OW37927   1.029   4.033  14.222 -0.6968  0.1855  0.1311
 8765SOL    HW137928   1.061   4.035  14.132 -0.8235 -2.2083  0.0249
 8765SOL    HW237929   0.935   4.024  14.204 -0.7292 -2.6536  1.7365
 8766SOL     OW37930   0.356   3.062   9.585 -0.3123  0.2903 -0.5853
 8766SOL    HW137931   0.437   3.037   9.630 -0.6573  2.2687  1.1369
 8766SOL    HW237932   0.286   3.069   9.649 -0.4411  2.1902 -0.9201
 8767SOL     OW37933   1.030   1.861  12.224 -0.4079  0.3571  0.2074
 8767SOL    HW137934   1.122   1.835  12.233 -0.9023 -1.1962  0.7968
 8767SOL    HW237935   1.039   1.956  12.224 -1.8384  0.4994 -1.6024
 8768SOL     OW37936   0.886   1.978   5.133 -0.2689 -0.0651 -0.6404
 8768SOL    HW137937   0.981   1.969   5.122 -0.0471 -1.5714  2.5345
 8768SOL    HW237938   0.869   2.071   5.119 -0.4824  0.1474  0.9522
 8769SOL     OW37939   1.399   2.556  15.132 -0.8928  0.2079 -0.1111
 8769SOL    HW137940   1.321   2.528  15.180 -0.9317 -2.9596 -2.0297
 8769SOL    HW237941   1.452   2.584  15.207  0.5474 -2.3921 -0.1531
 8770SOL     OW37942   1.177   2.815  13.733 -0.1416  0.5074 -0.0360
 8770SOL    HW137943   1.178   2.816  13.637 -0.1510  1.3817 -0.0221
 8770SOL    HW237944   1.115   2.745  13.754 -0.1821  0.4505 -0.3388
 8771SOL     OW37945   2.757   4.396   6.895 -0.2354 -0.2253 -0.5230
 8771SOL    HW137946   2.696   4.399   6.969  0.9643 -0.0694  0.4607
 8771SOL    HW237947   2.714   4.324   6.850  0.8886 -0.9677 -0.4189
 8772SOL     OW37948   3.471   1.459   6.021  0.2339  0.1465 -0.0121
 8772SOL    HW137949   3.396   1.441   6.078 -0.4730 -0.5061 -1.1504
 8772SOL    HW237950   3.435   1.447   5.934  2.1095 -0.7027 -0.6719
 8773SOL     OW37951   0.507   1.533   7.542 -0.3973  0.5283  0.4024
 8773SOL    HW137952   0.522   1.497   7.454  0.6808 -1.1234  1.2568
 8773SOL    HW237953   0.423   1.490   7.557 -0.0706  0.2228  1.3458
 8774SOL     OW37954   0.576   1.245   5.013  0.2079 -0.1870 -0.4449
 8774SOL    HW137955   0.603   1.207   5.096 -1.0643 -3.0865 -1.3710
 8774SOL    HW237956   0.668   1.258   4.987  0.0816 -1.4572 -1.5151
 8775SOL     OW37957   3.842   0.070   1.738  0.2952  0.1183  0.1013
 8775SOL    HW137958   3.836   0.134   1.668  0.4942  1.3650  1.2364
 8775SOL    HW237959   3.885   0.119   1.808  0.3954  0.1129  0.0434
 8776SOL     OW37960   0.374   3.714   2.788 -0.3208  0.2202 -0.1124
 8776SOL    HW137961   0.376   3.634   2.842  0.3903  2.5733  3.3800
 8776SOL    HW237962   0.299   3.689   2.736  1.3174  0.0985 -2.4179
 8777SOL     OW37963   0.198   1.440   5.968  0.3423  0.1229 -0.1903
 8777SOL    HW137964   0.292   1.450   5.954  0.0779  0.6989 -1.5830
 8777SOL    HW237965   0.162   1.528   5.965  0.5377  0.1756 -1.0139
 8778SOL     OW37966   1.713   0.562   3.974  0.1802 -0.3915 -0.2516
 8778SOL    HW137967   1.780   0.630   3.964  0.3248 -0.8791 -2.3846
 8778SOL    HW237968   1.694   0.579   4.067 -2.2560  1.5934 -1.1294
 8779SOL     OW37969   2.244   0.440   3.376  0.5567 -0.0934  0.2439
 8779SOL    HW137970   2.180   0.456   3.446 -0.6963 -4.0059 -0.0402
 8779SOL    HW237971   2.251   0.530   3.344  1.8718 -0.6750 -1.0957
 8780SOL     OW37972   0.001   2.831   5.585 -0.6999 -0.3007  0.2141
 8780SOL    HW137973   4.681   2.906   5.569 -2.3570 -1.9454 -1.7971
 8780SOL    HW237974   0.010   2.797   5.496 -0.2545 -0.0115  0.1543
 8781SOL     OW37975   0.286   4.624  13.282 -0.5711  0.2567 -0.1019
 8781SOL    HW137976   0.201   4.639  13.325 -0.6587  0.9240 -0.5177
 8781SOL    HW237977   0.323   4.707  13.312  2.2992 -1.4018  0.9430
 8782SOL     OW37978   3.021   2.018  17.541  0.3266 -0.0612  0.2763
 8782SOL    HW137979   3.011   1.955  17.470  1.4592 -1.3632  1.3011
 8782SOL    HW237980   3.055   2.085  17.481  0.8378 -0.7049 -0.1547
 8783SOL     OW37981   1.175   4.640   8.712  0.0818 -0.4172  0.3248
 8783SOL    HW137982   1.266   4.640   8.681  0.1454 -0.9382  0.5154
 8783SOL    HW237983   1.131   4.673   8.634 -0.9547 -0.1812  1.0074
 8784SOL     OW37984   3.314   0.089   7.511 -0.1779 -0.7345 -0.1173
 8784SOL    HW137985   3.265   0.082   7.429 -1.1277  1.0330  0.3136
 8784SOL    HW237986   3.256   0.030   7.560 -0.4967  0.5270  1.0006
 8785SOL     OW37987   2.942   0.855  15.508  0.0612  0.1077  0.7172
 8785SOL    HW137988   2.943   0.759  15.513 -1.4223  0.0903  0.8619
 8785SOL    HW237989   2.888   0.864  15.429  0.7946 -1.0164  0.0794
 8786SOL     OW37990   3.523   3.403   4.372 -0.1127  0.3284 -0.2276
 8786SOL    HW137991   3.562   3.459   4.439 -0.1512 -1.7628  1.5315
 8786SOL    HW237992   3.456   3.451   4.322  0.2326 -0.3910 -1.3776
 8787SOL     OW37993   0.255   4.161   6.078 -0.0764 -0.2420  0.5280
 8787SOL    HW137994   0.243   4.181   6.171 -2.3004  0.7625  0.0226
 8787SOL    HW237995   0.206   4.232   6.038  0.8672  1.5284  2.5520
 8788SOL     OW37996   0.375   3.031   2.282  0.2616  0.0139  0.0952
 8788SOL    HW137997   0.450   3.091   2.273  0.1225 -0.2044 -2.6333
 8788SOL    HW237998   0.339   3.074   2.359  3.2318  1.2543  0.8066
 8789SOL     OW37999   1.951   1.347  10.589 -0.2202 -0.6267  0.3766
 8789SOL    HW138000   1.901   1.272  10.557  0.8347  0.1039 -2.9781
 8789SOL    HW238001   1.927   1.339  10.681 -0.2999  1.6085  0.5411
 8790SOL     OW38002   2.864   3.578   8.995  0.2273  0.1311  0.0321
 8790SOL    HW138003   2.928   3.598   9.063 -1.9609  0.0091  2.1173
 8790SOL    HW238004   2.792   3.545   9.049  0.2338  0.9135  0.5143
 8791SOL     OW38005   2.266   4.424   3.848  0.6564  0.2708 -0.5634
 8791SOL    HW138006   2.295   4.467   3.767  2.6991  2.1090  1.1228
 8791SOL    HW238007   2.308   4.339   3.836  0.4379 -0.2096  2.2541
 8792SOL     OW38008   3.779   1.675   6.198 -0.6693  0.0432  0.2470
 8792SOL    HW138009   3.769   1.620   6.121 -0.1466 -0.5148  0.5701
 8792SOL    HW238010   3.867   1.658   6.233 -0.0747  1.3348 -0.6487
 8793SOL     OW38011   2.859   0.873   3.449 -0.0055 -0.0609  0.1638
 8793SOL    HW138012   2.799   0.849   3.379  0.3049  0.6988 -0.3602
 8793SOL    HW238013   2.802   0.903   3.520 -0.5389  0.3830 -0.4538
 8794SOL     OW38014   3.803   3.989   9.197 -0.3964 -0.1068 -0.1714
 8794SOL    HW138015   3.768   3.985   9.286 -1.6221  1.6387 -0.5677
 8794SOL    HW238016   3.840   3.901   9.191 -2.5499 -1.0024 -0.4776
 8795SOL     OW38017   2.522   1.792   0.867 -0.4701  0.4066 -0.0607
 8795SOL    HW138018   2.546   1.704   0.840 -0.1276  0.5490 -0.2213
 8795SOL    HW238019   2.585   1.849   0.823  0.0765 -0.3036 -0.1903
 8796SOL     OW38020   2.316   3.547   7.161 -0.1010 -0.4665  0.3775
 8796SOL    HW138021   2.300   3.633   7.121  0.1737  0.1341  1.5340
 8796SOL    HW238022   2.235   3.505   7.133 -0.9555  1.3905  0.0011
 8797SOL     OW38023   2.950   1.517   1.786  0.8501  0.2344  0.2360
 8797SOL    HW138024   2.947   1.424   1.761  2.5376  0.5324 -1.1038
 8797SOL    HW238025   2.859   1.526   1.815  1.0040 -1.2870  1.1796
 8798SOL     OW38026   4.675   1.314   5.529 -0.0103 -0.0145  0.1064
 8798SOL    HW138027   4.641   1.277   5.610 -0.4767  1.4389  0.5556
 8798SOL    HW238028   0.011   1.358   5.571  0.0268 -0.1402  0.1755
 8799SOL     OW38029   2.402   4.111   5.586 -0.2723  0.0931 -0.0496
 8799SOL    HW138030   2.464   4.179   5.557 -0.3951  0.6496  0.9809
 8799SOL    HW238031   2.450   4.081   5.664 -2.0185 -0.6299  0.7378
 8800SOL     OW38032   0.677   1.374   2.313  0.4806  0.1599 -0.2459
 8800SOL    HW138033   0.711   1.443   2.257  0.7285  0.2500  0.0187
 8800SOL    HW238034   0.695   1.410   2.400 -0.2556 -0.7347  0.2791
 8801SOL     OW38035   0.825   0.247  14.546  0.4692  0.1700 -0.2616
 8801SOL    HW138036   0.870   0.171  14.584  0.1461  0.2962  0.3639
 8801SOL    HW238037   0.882   0.319  14.571 -1.9458  2.5878 -1.7747
 8802SOL     OW38038   1.071   0.699   2.319 -0.3461  0.3682 -0.0488
 8802SOL    HW138039   0.999   0.736   2.369  0.0234  1.0502 -0.0123
 8802SOL    HW238040   1.033   0.697   2.231  2.5613  0.3946 -1.3055
 8803SOL     OW38041   4.294   3.647   4.244 -0.3374  0.3240 -0.3818
 8803SOL    HW138042   4.297   3.735   4.205 -1.2179  0.9193  0.9081
 8803SOL    HW238043   4.220   3.615   4.193 -0.2680  0.9380 -0.8766
 8804SOL     OW38044   3.358   0.148   3.509  0.2720  0.1403  0.3607
 8804SOL    HW138045   3.399   0.178   3.590 -3.2686  0.3927  2.0617
 8804SOL    HW238046   3.268   0.148   3.540  0.8501  1.6827  2.0153
 8805SOL     OW38047   4.149   3.751   6.338  0.0403  0.4224  0.1710
 8805SOL    HW138048   4.226   3.769   6.392  0.0305  1.2981 -0.1028
 8805SOL    HW238049   4.129   3.832   6.291 -0.9072 -0.5455 -1.0943
 8806SOL     OW38050   4.290   0.333   6.556  0.9746  0.3350  0.0104
 8806SOL    HW138051   4.369   0.285   6.579  0.9797  0.6216  0.5922
 8806SOL    HW238052   4.272   0.295   6.470  2.0522 -3.0641  1.2870
 8807SOL     OW38053   1.171   2.257   4.599 -0.3077  0.5081 -0.3617
 8807SOL    HW138054   1.223   2.257   4.679 -0.3687  0.6946 -0.3223
 8807SOL    HW238055   1.235   2.268   4.530  1.6713 -2.7740  0.9501
 8808SOL     OW38056   3.340   4.287  13.385  0.2881  0.1176  0.3852
 8808SOL    HW138057   3.430   4.308  13.358  0.0837  0.1962 -0.2219
 8808SOL    HW238058   3.313   4.369  13.426 -2.9722  1.1168 -3.8060
 8809SOL     OW38059   4.264   2.030   7.976  0.0305 -0.6419 -0.0628
 8809SOL    HW138060   4.207   2.102   7.946  3.3634  2.4476  0.9987
 8809SOL    HW238061   4.349   2.066   7.952 -1.0645  2.1312  0.1866
 8810SOL     OW38062   3.622   0.229   2.710  0.1476  0.3294  0.1246
 8810SOL    HW138063   3.591   0.193   2.793  1.2029  2.1280  1.2951
 8810SOL    HW238064   3.603   0.322   2.720 -1.0827  0.0501  0.3604
 8811SOL     OW38065   1.381   3.866   2.968  0.3019  0.3178 -0.2221
 8811SOL    HW138066   1.379   3.957   2.997 -2.2842  0.5109 -0.9835
 8811SOL    HW238067   1.293   3.844   2.996  1.4153 -1.6545  1.6839
 8812SOL     OW38068   1.669   1.265   6.598  0.0015  0.3592  0.6090
 8812SOL    HW138069   1.646   1.177   6.568 -0.3425  0.6493  0.0043
 8812SOL    HW238070   1.649   1.246   6.689  0.6212  1.7984  1.0346
 8813SOL     OW38071   1.600   3.001  12.793  0.5751 -0.3310 -0.1163
 8813SOL    HW138072   1.589   3.087  12.754 -0.1389  0.4873  1.8445
 8813SOL    HW238073   1.618   2.942  12.720 -0.2440  2.6687 -2.7234
 8814SOL     OW38074   0.692   3.723   4.335  0.2579 -0.5901 -0.2056
 8814SOL    HW138075   0.772   3.671   4.338  0.2827 -0.4808  0.8008
 8814SOL    HW238076   0.706   3.773   4.415 -2.3943 -3.7297  2.2091
 8815SOL     OW38077   2.787   3.193   5.498  0.4855 -0.3531 -0.2484
 8815SOL    HW138078   2.867   3.145   5.518  1.3946  1.6438  0.9177
 8815SOL    HW238079   2.736   3.131   5.446 -2.0466  1.7539 -0.2743
 8816SOL     OW38080   1.083   4.193   6.509  0.7837  0.1907  0.0659
 8816SOL    HW138081   1.088   4.277   6.555 -2.2713  0.9247 -0.8897
 8816SOL    HW238082   1.171   4.187   6.473  0.4010  0.2432 -0.8864
 8817SOL     OW38083   1.392   3.773   5.844 -0.4874  0.2930 -0.2923
 8817SOL    HW138084   1.343   3.769   5.926  0.3051 -2.7283  0.0253
 8817SOL    HW238085   1.335   3.738   5.775 -0.5797 -1.7690  0.8332
 8818SOL     OW38086   2.273   3.680  16.005 -0.5146  0.0970  0.0687
 8818SOL    HW138087   2.236   3.764  16.032  1.0042 -0.1467  2.9342
 8818SOL    HW238088   2.202   3.647  15.951 -2.2031  2.2295  1.0080
 8819SOL     OW38089   1.322   3.671   5.433  0.6201  0.4412  0.1554
 8819SOL    HW138090   1.372   3.752   5.439  0.3615  0.5199  1.2956
 8819SOL    HW238091   1.349   3.643   5.346 -2.2770 -0.0498 -0.6037
 8820SOL     OW38092   2.681   1.292   6.063 -0.1367  0.0243 -0.0925
 8820SOL    HW138093   2.688   1.291   6.158  0.4708 -0.6141 -0.1426
 8820SOL    HW238094   2.691   1.200   6.039 -1.9444 -0.1952 -0.0142
 8821SOL     OW38095   0.211   1.358  14.330  0.1032  0.0498 -0.2254
 8821SOL    HW138096   0.129   1.323  14.297 -0.3113 -1.0560  2.0009
 8821SOL    HW238097   0.179   1.432  14.381  1.2079 -0.1935  0.8360
 8822SOL     OW38098   0.402   0.999   1.342 -0.0858  0.2822 -0.1116
 8822SOL    HW138099   0.319   0.966   1.377 -0.3917  1.1070 -0.0405
 8822SOL    HW238100   0.390   1.092   1.319  1.3495 -0.0236 -2.1549
 8823SOL     OW38101   0.102   4.502  16.402  0.5812 -0.3454  0.6273
 8823SOL    HW138102   0.017   4.511  16.444  0.0320  0.1716 -0.5764
 8823SOL    HW238103   0.159   4.530  16.473 -0.1466  0.1271  1.0266
 8824SOL     OW38104   4.306   3.926   9.143  0.4187  0.4420  0.5802
 8824SOL    HW138105   4.217   3.961   9.148  0.1250 -0.3013  0.5495
 8824SOL    HW238106   4.346   4.013   9.138  0.8056  0.2835  0.9805
 8825SOL     OW38107   3.716   1.457   7.821  0.1530 -0.0973 -0.0553
 8825SOL    HW138108   3.805   1.434   7.795  0.1667  1.4796 -1.4033
 8825SOL    HW238109   3.672   1.416   7.746  0.3967 -0.3725 -0.0492
 8826SOL     OW38110   1.955   4.601   6.277 -0.4128  0.0879 -0.1365
 8826SOL    HW138111   1.903   4.606   6.196 -0.3786  0.3905 -0.1405
 8826SOL    HW238112   2.017   4.531   6.257 -2.8052 -1.3693 -2.5438
 8827SOL     OW38113   3.032   0.740   5.430  0.2116  0.0585 -0.0101
 8827SOL    HW138114   2.998   0.818   5.474  0.5573 -0.4660  1.1851
 8827SOL    HW238115   3.071   0.702   5.509  0.7140 -1.6051 -1.0304
 8828SOL     OW38116   3.033   0.124  11.887 -0.1123 -0.4701 -0.0496
 8828SOL    HW138117   3.106   0.135  11.826 -0.4219 -0.3546 -0.3884
 8828SOL    HW238118   2.960   0.127  11.826  0.1903  2.5673 -0.2497
 8829SOL     OW38119   0.054   2.913  13.197  0.5149  0.2459 -0.1301
 8829SOL    HW138120   4.720   2.873  13.248 -0.9609  2.2716 -0.6322
 8829SOL    HW238121   0.004   2.971  13.140 -1.4727 -0.5195  0.8417
 8830SOL     OW38122   2.317   2.684  10.953 -0.0143 -0.0927  0.4374
 8830SOL    HW138123   2.384   2.751  10.938 -0.5950  0.9729  2.6964
 8830SOL    HW238124   2.359   2.630  11.020 -0.5101 -1.0198 -0.0010
 8831SOL     OW38125   0.411   4.273   8.192 -0.0307  0.1020  0.5400
 8831SOL    HW138126   0.490   4.315   8.157 -1.5243  0.1434 -2.7654
 8831SOL    HW238127   0.455   4.191   8.215 -3.1867 -0.8021  3.3090
 8832SOL     OW38128   4.350   1.480   6.222  0.6738 -0.2374 -0.2741
 8832SOL    HW138129   4.366   1.428   6.300 -2.3084  2.4415  2.1173
 8832SOL    HW238130   4.431   1.532   6.214  1.0202 -0.9077 -1.1034
 8833SOL     OW38131   0.093   4.600   5.375 -0.0340 -0.3670  0.8166
 8833SOL    HW138132   0.052   4.557   5.299  1.0405 -0.6522  0.4006
 8833SOL    HW238133   0.137   4.677   5.340  0.0038 -1.7673 -2.2402
 8834SOL     OW38134   2.259   0.090   4.812  0.3782 -0.2631  0.2155
 8834SOL    HW138135   2.190   0.155   4.822  0.5183  0.0804 -1.0154
 8834SOL    HW238136   2.215   0.005   4.809 -0.3914  0.1909 -1.7073
 8835SOL     OW38137   2.431   3.141  11.654 -0.2305 -0.2175  0.3804
 8835SOL    HW138138   2.486   3.082  11.706 -0.6560 -2.8513 -2.1222
 8835SOL    HW238139   2.369   3.161  11.724 -2.5491 -0.1667 -1.6875
 8836SOL     OW38140   3.998   2.203   7.154 -0.7361 -0.0551 -0.2801
 8836SOL    HW138141   3.940   2.257   7.100 -0.8946  1.6818  1.6446
 8836SOL    HW238142   3.941   2.149   7.208  0.9944 -2.6681 -1.0202
 8837SOL     OW38143   0.813   2.402   8.455  0.1816 -0.3863 -0.6046
 8837SOL    HW138144   0.722   2.433   8.449  1.4540  2.9467 -3.0874
 8837SOL    HW238145   0.821   2.383   8.548  1.0385  0.5758 -0.4740
 8838SOL     OW38146   3.396   3.366  17.520  0.7623  0.2960  0.3758
 8838SOL    HW138147   3.379   3.349  17.427  2.6742 -0.6156  0.2031
 8838SOL    HW238148   3.395   3.462  17.516 -1.8228  0.3324  1.5231
 8839SOL     OW38149   2.780   1.556   4.076 -0.0070  0.1285 -0.3819
 8839SOL    HW138150   2.702   1.574   4.129  0.3034  0.0539  0.0973
 8839SOL    HW238151   2.743   1.504   4.004 -0.6739 -0.6387  0.5032
 8840SOL     OW38152   3.534   2.652   1.747 -0.2173  0.0728 -0.2570
 8840SOL    HW138153   3.511   2.579   1.689 -0.1166  0.5408 -0.8826
 8840SOL    HW238154   3.453   2.646   1.798 -0.8901  1.7497 -1.1353
 8841SOL     OW38155   4.653   2.609   8.487  0.0106  0.0327  0.3674
 8841SOL    HW138156   4.574   2.611   8.432  0.4557  1.7739 -0.2136
 8841SOL    HW238157   4.670   2.515   8.479 -0.1470 -0.0425  0.9118
 8842SOL     OW38158   0.335   3.430   0.229 -0.0834 -0.9870 -0.1889
 8842SOL    HW138159   0.393   3.398   0.299 -1.0735 -1.6196  0.3439
 8842SOL    HW238160   0.293   3.500   0.278  0.9795 -1.1296  0.9334
 8843SOL     OW38161   4.164   1.613   3.787 -0.1147 -0.2205 -0.3189
 8843SOL    HW138162   4.157   1.595   3.693  2.5003 -0.3833 -0.4730
 8843SOL    HW238163   4.178   1.707   3.788 -2.6198  0.1602 -1.0850
 8844SOL     OW38164   4.452   0.557   7.184 -0.3474  0.1508  0.1477
 8844SOL    HW138165   4.501   0.586   7.262  1.9504 -2.8182 -0.1942
 8844SOL    HW238166   4.374   0.524   7.228 -1.2472  1.2948 -0.5881
 8845SOL     OW38167   1.391   4.721   5.996 -0.2642 -0.0539 -0.3831
 8845SOL    HW138168   1.389   4.625   5.998  1.3301 -0.1368 -2.7225
 8845SOL    HW238169   1.422   4.736   5.907  1.4495  2.9152  0.7495
 8846SOL     OW38170   0.909   1.903   2.237 -0.3215 -0.0369  0.3251
 8846SOL    HW138171   0.941   1.993   2.236  1.3231 -0.6018  0.9913
 8846SOL    HW238172   0.976   1.853   2.283 -0.6515  0.3307  1.1872
 8847SOL     OW38173   0.346   3.174  16.545  0.3928  0.1078  0.1547
 8847SOL    HW138174   0.442   3.178  16.542  0.4693 -1.0234  1.5038
 8847SOL    HW238175   0.333   3.268  16.540 -1.3810 -0.1290  0.4329
 8848SOL     OW38176   1.325   1.537  16.211 -0.5648 -0.0191 -0.4974
 8848SOL    HW138177   1.405   1.540  16.264 -0.6249  1.1421 -0.4672
 8848SOL    HW238178   1.368   1.533  16.125  1.1330  0.4939  0.3141
 8849SOL     OW38179   3.754   3.500   2.082  0.0243  0.5534  0.2251
 8849SOL    HW138180   3.719   3.562   2.147 -0.6113  1.0949 -0.6361
 8849SOL    HW238181   3.676   3.487   2.028 -0.6372  1.6720  0.9127
 8850SOL     OW38182   4.191   0.790   2.876 -0.3397 -0.2610  0.1851
 8850SOL    HW138183   4.239   0.837   2.808  0.1953 -1.6311 -0.3851
 8850SOL    HW238184   4.266   0.762   2.929  0.2749  0.0387 -0.5264
 8851SOL     OW38185   3.911   2.590   2.963 -0.4739 -0.6768  0.2121
 8851SOL    HW138186   3.855   2.601   2.886 -0.8928  2.2729  0.9479
 8851SOL    HW238187   3.960   2.509   2.947 -0.1700 -0.4272 -0.1355
 8852SOL     OW38188   0.020   1.191   5.299 -0.4350 -0.2719 -0.7160
 8852SOL    HW138189   4.728   1.217   5.386 -0.3066 -1.7460 -0.2394
 8852SOL    HW238190   0.105   1.234   5.292 -1.6943  2.2919 -0.2731
 8853SOL     OW38191   1.792   3.953   8.521 -0.2445 -0.1795 -1.0775
 8853SOL    HW138192   1.866   4.012   8.502  0.6675 -0.8895  0.2958
 8853SOL    HW238193   1.779   3.901   8.442  0.1815 -1.2039 -0.4765
 8854SOL     OW38194   2.551   0.377   4.822 -0.0325 -0.0036 -0.0724
 8854SOL    HW138195   2.526   0.388   4.914  1.1792  0.0087  0.2535
 8854SOL    HW238196   2.552   0.467   4.787 -1.0312 -0.2564 -0.7437
 8855SOL     OW38197   0.459   2.624   9.993  0.5947 -0.1436  0.0534
 8855SOL    HW138198   0.426   2.626   9.903  0.6218 -0.2636  0.0405
 8855SOL    HW238199   0.532   2.562   9.992  1.0194  0.3517  0.6725
 8856SOL     OW38200   1.967   2.982   5.187 -0.3025  0.0590 -0.3114
 8856SOL    HW138201   2.060   2.998   5.176 -0.7691  2.0694 -1.4542
 8856SOL    HW238202   1.926   3.064   5.158  3.6626  1.5363 -1.6712
 8857SOL     OW38203   2.381   1.005   6.350 -0.0865 -0.3837 -0.3128
 8857SOL    HW138204   2.350   0.938   6.411 -1.1194 -0.0498 -0.4664
 8857SOL    HW238205   2.405   0.957   6.271  0.7247  0.7474 -0.7513
 8858SOL     OW38206   0.327   3.795   9.767  0.6885  0.3978  0.2977
 8858SOL    HW138207   0.267   3.870   9.766  0.1810 -0.0042  0.4723
 8858SOL    HW238208   0.410   3.841   9.763  0.8503  0.1450  0.7492
 8859SOL     OW38209   3.140   1.256   7.303  0.0207 -0.3695 -0.8858
 8859SOL    HW138210   3.191   1.260   7.222 -0.7314 -0.1493 -1.3475
 8859SOL    HW238211   3.196   1.201   7.358 -0.9640  0.6332  1.1371
 8860SOL     OW38212   2.578   0.657   8.221  0.1925  0.2636  0.3361
 8860SOL    HW138213   2.526   0.734   8.198 -1.0689  0.1417  2.7852
 8860SOL    HW238214   2.655   0.663   8.164 -1.3540 -0.8363 -1.8981
 8861SOL     OW38215   1.161   3.426   4.593 -0.2369 -0.5670  0.5363
 8861SOL    HW138216   1.211   3.344   4.597  2.6027  1.1392  0.0236
 8861SOL    HW238217   1.126   3.409   4.505  1.2852 -0.8417 -0.0310
 8862SOL     OW38218   2.397   4.306  12.617  0.7066  0.4811 -0.2753
 8862SOL    HW138219   2.383   4.376  12.553 -0.4297 -0.2360 -0.7975
 8862SOL    HW238220   2.411   4.348  12.702 -1.6261 -0.9185  0.7805
 8863SOL     OW38221   4.652   3.560   1.425 -0.8628 -0.1207 -0.7627
 8863SOL    HW138222   4.581   3.598   1.476  1.2336  0.2606  1.9269
 8863SOL    HW238223   4.613   3.557   1.338 -2.6331 -1.8715  0.1159
 8864SOL     OW38224   3.459   0.227   0.848 -0.2356  0.5519 -0.4266
 8864SOL    HW138225   3.456   0.307   0.901  1.1894 -0.1221  0.6834
 8864SOL    HW238226   3.367   0.203   0.860 -0.3666  0.8070 -0.9287
 8865SOL     OW38227   2.269   4.088  10.397  0.0252 -0.1271  0.6513
 8865SOL    HW138228   2.280   4.168  10.447 -0.7935 -0.7528  1.8091
 8865SOL    HW238229   2.353   4.082  10.349 -1.4902 -3.2717 -1.6371
 8866SOL     OW38230   1.747   4.156   6.904  0.8136  0.2487  0.3353
 8866SOL    HW138231   1.786   4.085   6.854  4.6309  1.0330  2.1923
 8866SOL    HW238232   1.712   4.204   6.829  0.5996 -0.0550  0.2422
 8867SOL     OW38233   3.124   1.253   6.856 -0.0940 -0.2792  0.1589
 8867SOL    HW138234   3.036   1.290   6.861  0.5751  1.2968  0.1768
 8867SOL    HW238235   3.121   1.193   6.781  3.2390 -0.2700  0.0213
 8868SOL     OW38236   2.608   2.442   7.618 -0.0544 -0.0401  0.3653
 8868SOL    HW138237   2.636   2.402   7.536  0.5111  1.3693 -0.1262
 8868SOL    HW238238   2.550   2.511   7.587  0.7593  0.3355 -0.3386
 8869SOL     OW38239   2.131   3.603   1.429 -0.3732  0.2552 -0.4153
 8869SOL    HW138240   2.203   3.539   1.428 -1.4676 -1.0176  2.6913
 8869SOL    HW238241   2.076   3.574   1.502  1.7226  0.7000  1.3178
 8870SOL     OW38242   3.005   0.571   6.728  0.1730 -0.2178  0.1744
 8870SOL    HW138243   3.076   0.566   6.665 -0.4406  3.2231 -0.7639
 8870SOL    HW238244   2.978   0.662   6.715 -0.2100 -0.1052  1.7285
 8871SOL     OW38245   1.178   1.400  13.579 -0.2481  0.0265 -0.0587
 8871SOL    HW138246   1.232   1.342  13.633 -1.2071  1.3492  2.3368
 8871SOL    HW238247   1.172   1.355  13.495 -0.0183 -0.8514  0.3948
 8872SOL     OW38248   0.236   2.728  15.484 -0.4877  0.0081 -0.0312
 8872SOL    HW138249   0.205   2.639  15.469 -0.1903 -0.3338  1.3489
 8872SOL    HW238250   0.269   2.752  15.398 -1.8108  1.1759 -0.2084
 8873SOL     OW38251   1.585   1.649   4.487 -0.1207 -0.1927 -0.9532
 8873SOL    HW138252   1.624   1.580   4.432  1.9636  1.7857 -1.9683
 8873SOL    HW238253   1.494   1.621   4.482  0.6041 -2.8488  1.0073
 8874SOL     OW38254   1.322   4.617   4.046 -0.2148 -0.4602 -0.1496
 8874SOL    HW138255   1.399   4.666   4.018 -1.2184  1.5730  0.6838
 8874SOL    HW238256   1.270   4.623   3.966 -1.0906 -0.6456  0.4121
 8875SOL     OW38257   1.439   3.447   6.810  0.3022 -0.5335  0.6340
 8875SOL    HW138258   1.488   3.485   6.884 -0.3322 -1.7623  1.6793
 8875SOL    HW238259   1.457   3.519   6.749 -1.6324 -2.5910 -2.2896
 8876SOL     OW38260   4.571   0.746   3.375  0.2290 -0.4639  0.4532
 8876SOL    HW138261   4.594   0.839   3.384  2.0533 -0.9956  1.3123
 8876SOL    HW238262   4.653   0.724   3.331 -0.3114  0.5164 -1.0311
 8877SOL     OW38263   2.772   3.704   4.926 -0.2214  0.2466  0.0300
 8877SOL    HW138264   2.722   3.774   4.884  0.2726  0.5880  0.0194
 8877SOL    HW238265   2.750   3.629   4.870 -2.4742  0.6576  0.3482
 8878SOL     OW38266   1.466   3.105   7.788 -0.1390  0.4539  0.0484
 8878SOL    HW138267   1.515   3.187   7.790  2.2581 -1.0245  2.0785
 8878SOL    HW238268   1.372   3.124   7.794 -0.1724  1.0681 -2.2937
 8879SOL     OW38269   2.119   1.338   5.061  0.1890  0.0207  0.2579
 8879SOL    HW138270   2.114   1.433   5.068 -0.3291  0.1071 -1.4114
 8879SOL    HW238271   2.047   1.304   5.114  0.6725  0.5593  1.2692
 8880SOL     OW38272   3.262   2.125  17.398  0.2994 -0.1084  0.3532
 8880SOL    HW138273   3.342   2.177  17.396 -0.1000  0.4209 -1.7872
 8880SOL    HW238274   3.286   2.034  17.417  1.8347  0.3962  0.7819
 8881SOL     OW38275   2.644   0.406   8.885  0.1601  0.0759 -0.0092
 8881SOL    HW138276   2.663   0.498   8.867  1.4196 -0.0747  0.5415
 8881SOL    HW238277   2.564   0.397   8.834  0.5902 -1.0671 -0.4808
 8882SOL     OW38278   0.423   4.499  10.606 -0.1222 -0.0724 -0.5476
 8882SOL    HW138279   0.508   4.542  10.615  0.0388  0.0297 -2.6034
 8882SOL    HW238280   0.416   4.497  10.511 -3.1547  0.1769 -0.3295
 8883SOL     OW38281   0.327   1.019   5.397 -0.4107  0.4717 -0.1035
 8883SOL    HW138282   0.346   0.955   5.465 -1.4592  0.4955  0.2169
 8883SOL    HW238283   0.317   1.092   5.458 -0.6934 -0.4472  0.9306
 8884SOL     OW38284   1.506   0.734  15.080  0.0696 -0.9746  0.1221
 8884SOL    HW138285   1.574   0.691  15.131 -0.5879 -1.6417  0.4368
 8884SOL    HW238286   1.493   0.805  15.143 -0.0908 -0.8284 -0.0755
 8885SOL     OW38287   4.571   4.550   7.448 -0.7100  0.0961 -0.1060
 8885SOL    HW138288   4.484   4.550   7.489  0.2085  0.7319  1.8586
 8885SOL    HW238289   4.612   4.497   7.517  0.9020  1.4227 -0.0412
 8886SOL     OW38290   4.523   0.835   5.829 -0.1854  0.2518  0.7231
 8886SOL    HW138291   4.497   0.893   5.901  0.0761  0.4850  0.6319
 8886SOL    HW238292   4.615   0.862   5.821 -0.0900 -0.4464 -0.4601
 8887SOL     OW38293   0.243   3.350  12.028  0.4477 -0.5545  0.2771
 8887SOL    HW138294   0.178   3.299  12.077 -1.0159  1.3971  0.3669
 8887SOL    HW238295   0.196   3.432  12.042  1.8446  0.3725 -0.5220
 8888SOL     OW38296   1.141   1.002  14.387 -0.5521 -0.2333  0.1416
 8888SOL    HW138297   1.100   0.928  14.431  0.8996 -0.0496  1.8037
 8888SOL    HW238298   1.230   0.970  14.399  0.5462  2.5539 -0.5945
 8889SOL     OW38299   0.364   2.532   2.258  0.7764  0.2627 -0.0802
 8889SOL    HW138300   0.293   2.538   2.195  0.7698  1.3432  0.0311
 8889SOL    HW238301   0.317   2.558   2.337  1.5850  1.0056  0.1595
 8890SOL     OW38302   0.696   0.676   5.532  0.1092  0.0220  0.3181
 8890SOL    HW138303   0.787   0.662   5.505  0.2412  1.2146  0.1744
 8890SOL    HW238304   0.700   0.749   5.594 -1.9727  0.4953 -0.1115
 8891SOL     OW38305   1.834   0.761   6.978 -0.0389  0.1970  0.6880
 8891SOL    HW138306   1.913   0.717   7.009 -0.3299  0.1187  1.3224
 8891SOL    HW238307   1.811   0.707   6.903 -0.3699  1.3950 -0.0818
 8892SOL     OW38308   1.504   1.142   8.725  0.6453  0.1617 -0.3281
 8892SOL    HW138309   1.529   1.234   8.737 -0.7296  0.0299  3.4722
 8892SOL    HW238310   1.487   1.132   8.631  1.1714  0.5377 -0.4621
 8893SOL     OW38311   1.519   4.483   8.326  0.9442  0.9594  0.6067
 8893SOL    HW138312   1.525   4.389   8.346 -0.6443  0.5200 -0.9858
 8893SOL    HW238313   1.597   4.512   8.373  1.3340  0.4101  0.3017
 8894SOL     OW38314   2.282   3.541   8.660 -0.0688 -0.4314 -0.0789
 8894SOL    HW138315   2.213   3.487   8.699 -0.3736 -2.6971 -3.7866
 8894SOL    HW238316   2.350   3.475   8.673 -0.7563 -0.9260  0.9931
 8895SOL     OW38317   3.445   3.322   1.537  0.2909 -0.5560  0.4651
 8895SOL    HW138318   3.494   3.402   1.552 -0.9477  0.4259 -0.7942
 8895SOL    HW238319   3.439   3.294   1.629  0.4102 -2.1252  0.0046
 8896SOL     OW38320   3.663   1.677   9.764 -0.1373 -0.3937  0.1171
 8896SOL    HW138321   3.616   1.658   9.845  0.4770 -2.0824  0.0755
 8896SOL    HW238322   3.732   1.611   9.769  1.8543  1.6783 -0.0009
 8897SOL     OW38323   3.719   4.476   7.908 -0.0503  0.7008  0.2299
 8897SOL    HW138324   3.631   4.510   7.894  0.4677  1.9637  0.0167
 8897SOL    HW238325   3.767   4.556   7.933 -0.4383  0.1540  2.7192
 8898SOL     OW38326   0.346   1.233   5.549  0.8196  0.0561  0.0827
 8898SOL    HW138327   0.323   1.283   5.471 -2.5443  1.6000  2.0421
 8898SOL    HW238328   0.288   1.279   5.610  0.0226 -1.4923  0.4926
 8899SOL     OW38329   4.635   2.357   8.736 -0.3705  0.3825 -0.3914
 8899SOL    HW138330   4.651   2.327   8.647  0.6498  0.8149 -0.3469
 8899SOL    HW238331   4.609   2.273   8.774 -0.3960  0.8977  0.7339
 8900SOL     OW38332   4.238   0.151   2.277  0.3034 -0.4299  0.3283
 8900SOL    HW138333   4.216   0.084   2.212 -3.1807  0.5098  0.5279
 8900SOL    HW238334   4.158   0.203   2.284  0.7418  0.4320 -0.9999
 8901SOL     OW38335   1.998   3.819   7.929  0.2883 -0.6396 -0.3546
 8901SOL    HW138336   2.053   3.744   7.949  1.5915  1.1673  2.7728
 8901SOL    HW238337   2.045   3.875   7.990  3.0825 -1.4608 -1.7741
 8902SOL     OW38338   1.787   0.846   9.173 -0.5557  0.2140  0.3599
 8902SOL    HW138339   1.834   0.838   9.257  0.7000  2.4746 -0.1099
 8902SOL    HW238340   1.737   0.765   9.181 -1.0753  0.5168  0.1242
 8903SOL     OW38341   0.478   2.120   6.097  0.0141 -0.0248 -0.8457
 8903SOL    HW138342   0.470   2.178   6.021  1.6846  1.2128 -0.0869
 8903SOL    HW238343   0.396   2.141   6.142 -0.6979 -0.9466 -1.6988
 8904SOL     OW38344   1.404   2.052   4.729 -0.0600  0.3668  0.2197
 8904SOL    HW138345   1.449   1.968   4.718 -1.8826 -0.2610 -2.5776
 8904SOL    HW238346   1.326   2.043   4.675 -0.1248 -0.0900  0.3928
 8905SOL     OW38347   3.647   4.524  14.500  0.3843  0.4138 -0.6024
 8905SOL    HW138348   3.678   4.502  14.412 -1.5749  1.1630 -1.4891
 8905SOL    HW238349   3.557   4.555  14.485  0.2832  0.1086 -0.6271
 8906SOL     OW38350   4.552   0.039   9.226  0.2827  0.4500 -0.0896
 8906SOL    HW138351   4.630   0.092   9.244  1.1964 -0.7358 -0.5712
 8906SOL    HW238352   4.485   0.103   9.248 -1.6308 -0.9359 -1.9623
 8907SOL     OW38353   1.831   2.960   3.809 -0.0186 -0.5470  0.6410
 8907SOL    HW138354   1.925   2.959   3.790 -0.0276  0.2615  0.5670
 8907SOL    HW238355   1.797   3.000   3.729  1.1967 -0.0222  0.3849
 8908SOL     OW38356   3.406   0.050   8.143  0.1168 -0.3153  0.4244
 8908SOL    HW138357   3.311   0.036   8.138 -0.0709  0.3665  2.0253
 8908SOL    HW238358   3.408   0.135   8.186  0.5014 -0.7451  1.2447
 8909SOL     OW38359   2.027   0.195   4.021 -0.3826  0.0757  0.3744
 8909SOL    HW138360   2.024   0.291   4.015 -0.9718  0.1702  2.2425
 8909SOL    HW238361   2.104   0.182   3.965  0.3641  0.8739  1.2180
 8910SOL     OW38362   3.339   1.936  16.609  0.0960  0.1816  0.3260
 8910SOL    HW138363   3.299   1.849  16.611  1.4521 -0.4326  0.1385
 8910SOL    HW238364   3.269   1.993  16.642 -1.3646 -2.1228  1.2179
 8911SOL     OW38365   3.323   4.317  10.763  0.4001  0.2556  0.2665
 8911SOL    HW138366   3.282   4.398  10.793 -0.6474  0.2220 -1.0672
 8911SOL    HW238367   3.374   4.290  10.839  2.1641 -1.2133 -1.4396
 8912SOL     OW38368   3.849   4.069  15.733  0.2370 -1.0863  0.1505
 8912SOL    HW138369   3.887   4.091  15.818  0.0002 -3.0568  0.7648
 8912SOL    HW238370   3.788   4.143  15.725  0.7355 -0.4775  2.1863
 8913SOL     OW38371   0.515   3.443   5.335 -0.5894 -0.2064  0.2381
 8913SOL    HW138372   0.575   3.464   5.263 -0.5257  1.4381  0.7742
 8913SOL    HW238373   0.458   3.380   5.292  0.9667 -0.6770 -1.1367
 8914SOL     OW38374   0.415   0.487   7.772 -0.6394  0.1948  0.1385
 8914SOL    HW138375   0.394   0.413   7.830 -0.1436  1.2832  1.7032
 8914SOL    HW238376   0.377   0.454   7.690 -0.8642  2.9118 -0.8339
 8915SOL     OW38377   1.254   4.673   3.782 -0.7081  0.6503  0.2906
 8915SOL    HW138378   1.210   4.626   3.711  0.9043  0.4398 -0.5542
 8915SOL    HW238379   1.215   0.024   3.779 -0.8149  0.5738 -0.5495
 8916SOL     OW38380   4.586   1.049  12.444  0.1865  0.3190  0.5183
 8916SOL    HW138381   4.514   0.998  12.481 -0.2699  1.2432  0.9105
 8916SOL    HW238382   4.571   1.130  12.492 -0.7027  1.9916 -2.5472
 8917SOL     OW38383   2.938   4.253  11.901 -0.1591  0.0714  0.6854
 8917SOL    HW138384   2.961   4.326  11.958 -0.2728  0.0962  0.6994
 8917SOL    HW238385   2.845   4.266  11.880  0.0316 -1.5106 -1.2125
 8918SOL     OW38386   0.471   0.521   1.715 -0.3154 -0.8069  0.2024
 8918SOL    HW138387   0.439   0.610   1.698  0.3328 -0.7711 -0.8548
 8918SOL    HW238388   0.494   0.496   1.625  0.6043  0.2607  0.1463
 8919SOL     OW38389   0.792   3.472   7.589  0.0055  0.0672  0.4963
 8919SOL    HW138390   0.701   3.504   7.584  0.1814  0.5461  0.3373
 8919SOL    HW238391   0.781   3.397   7.646  0.5343  0.0121  0.5165
 8920SOL     OW38392   0.130   0.989   3.471 -0.1756  0.3631  0.2566
 8920SOL    HW138393   0.041   0.990   3.437  0.4026  0.5874 -1.2572
 8920SOL    HW238394   0.174   0.923   3.417 -1.4703 -0.4452  0.1912
 8921SOL     OW38395   3.084   2.019   0.471  0.4575  0.1671  0.0284
 8921SOL    HW138396   3.126   2.105   0.475 -0.4679  0.4572  3.0406
 8921SOL    HW238397   3.106   1.980   0.556 -0.0324 -0.8929 -0.3266
 8922SOL     OW38398   0.359   4.656   1.018  0.4366  0.2129  0.1687
 8922SOL    HW138399   0.370   4.564   0.995  1.3958  0.7038 -1.3550
 8922SOL    HW238400   0.361   4.704   0.935  0.5122 -1.1390 -0.6149
 8923SOL     OW38401   1.416   1.863   4.365  0.2232  0.1252  0.2537
 8923SOL    HW138402   1.490   1.802   4.364  0.2788  0.1882  0.5654
 8923SOL    HW238403   1.355   1.827   4.302  0.5785  0.8050 -0.4816
 8924SOL     OW38404   4.249   0.700   3.877  0.1931 -0.3983 -0.3034
 8924SOL    HW138405   4.184   0.631   3.896  1.4212 -1.3022  0.6556
 8924SOL    HW238406   4.197   0.779   3.862  0.0873 -0.2139  1.0051
 8925SOL     OW38407   1.668   0.033   1.660  0.1234 -0.0959  0.6743
 8925SOL    HW138408   1.693   0.093   1.730  0.6268  0.5078 -0.0256
 8925SOL    HW238409   1.668   4.684   1.703 -2.9685  0.0081  0.8477
 8926SOL     OW38410   3.467   0.895   1.835  0.4262 -0.3734 -0.1654
 8926SOL    HW138411   3.400   0.915   1.900  0.2658  1.1651 -0.7991
 8926SOL    HW238412   3.412   0.898   1.757 -0.7928  0.6189  0.7190
 8927SOL     OW38413   4.281   2.430   2.283 -0.2960 -0.3379  0.2697
 8927SOL    HW138414   4.351   2.381   2.325 -0.0498 -0.9506 -0.8655
 8927SOL    HW238415   4.307   2.435   2.191 -0.7421 -3.1334 -0.0162
 8928SOL     OW38416   0.039   4.572   7.711 -0.3087 -0.0202  0.0576
 8928SOL    HW138417   4.695   4.521   7.723 -1.3165  1.2700 -1.2703
 8928SOL    HW238418   4.733   4.640   7.658 -0.5268 -0.4023 -0.2578
 8929SOL     OW38419   0.912   3.938   5.975  0.6721  0.0607  0.1461
 8929SOL    HW138420   0.877   3.851   5.994  2.7423 -0.6591  0.6628
 8929SOL    HW238421   0.976   3.922   5.905  0.8288 -0.5894  0.4383
 8930SOL     OW38422   3.611   4.508  10.412 -0.0970  0.0155  0.2483
 8930SOL    HW138423   3.522   4.488  10.439  1.4826 -2.6458  3.4231
 8930SOL    HW238424   3.664   4.445  10.461  0.8373  0.3500 -0.3229
 8931SOL     OW38425   1.064   4.335   5.086 -0.3438 -0.3810  0.8165
 8931SOL    HW138426   1.086   4.254   5.133  1.3228  0.8382  2.1782
 8931SOL    HW238427   1.154   4.350   5.057 -0.3363 -2.4875 -0.2257
 8932SOL     OW38428   1.964   4.688   3.881  0.8949  0.1449  0.6578
 8932SOL    HW138429   1.917   4.679   3.798  1.5287 -0.1600  0.3316
 8932SOL    HW238430   1.952   0.042   3.911  0.7929  0.3950 -0.1472
 8933SOL     OW38431   2.821   2.982  14.907 -0.2508 -0.3719 -0.6636
 8933SOL    HW138432   2.887   3.035  14.952  1.0271 -2.0134 -0.6185
 8933SOL    HW238433   2.781   2.951  14.988 -0.3897 -2.2056 -1.4311
 8934SOL     OW38434   0.323   2.980  12.473  0.2066 -0.3563  0.6120
 8934SOL    HW138435   0.336   3.069  12.505  1.3620  0.8739 -3.1761
 8934SOL    HW238436   0.260   2.955  12.540  0.1176 -2.8917 -0.4134
 8935SOL     OW38437   2.484   0.538   5.547 -0.3126 -0.0538 -0.1972
 8935SOL    HW138438   2.392   0.564   5.555 -0.7260 -1.8101  0.6425
 8935SOL    HW238439   2.490   0.523   5.452 -0.1765  1.1726 -0.3813
 8936SOL     OW38440   1.275   2.365   1.728  0.0035  0.2870 -0.0747
 8936SOL    HW138441   1.327   2.440   1.698  0.7751  0.1115  0.8095
 8936SOL    HW238442   1.256   2.319   1.646  1.2069 -1.6203  0.7157
 8937SOL     OW38443   0.256   4.590   3.700 -0.1027 -0.0232 -0.3612
 8937SOL    HW138444   0.326   4.584   3.765 -0.2525 -0.3262 -0.2300
 8937SOL    HW238445   0.321   4.594   3.629  1.1274 -0.7895  0.7240
 8938SOL     OW38446   0.977   3.417   1.750 -0.7226  0.4476 -0.3525
 8938SOL    HW138447   1.028   3.498   1.746  0.0649 -0.0609 -0.6629
 8938SOL    HW238448   1.005   3.385   1.836 -0.7134  1.3511 -0.0267
 8939SOL     OW38449   1.183   0.789  14.662  0.1455  0.9674  0.2634
 8939SOL    HW138450   1.160   0.715  14.718 -2.8839  2.3387  0.8211
 8939SOL    HW238451   1.246   0.828  14.723  0.6131  0.4868  0.0892
 8940SOL     OW38452   0.887   0.080   5.754 -0.2594 -0.1696  0.2434
 8940SOL    HW138453   0.822   0.123   5.810 -0.5328  0.7704 -0.7902
 8940SOL    HW238454   0.848   0.084   5.666  3.1385  3.2592 -1.0970
 8941SOL     OW38455   2.933   2.108  10.194  0.1545  0.5753 -0.0921
 8941SOL    HW138456   2.934   2.020  10.157  1.9656 -0.7026  3.0046
 8941SOL    HW238457   2.922   2.086  10.287 -0.8678  2.5468  0.2586
 8942SOL     OW38458   0.832   2.422  13.698  0.2109  0.1509 -0.0357
 8942SOL    HW138459   0.850   2.376  13.615  0.2644  3.1634 -1.6980
 8942SOL    HW238460   0.759   2.482  13.684 -0.5549 -1.0428 -1.0977
 8943SOL     OW38461   2.513   1.041   3.176  0.6286  0.7318  0.7350
 8943SOL    HW138462   2.542   1.029   3.086 -1.0009 -0.1693  0.3367
 8943SOL    HW238463   2.487   1.133   3.182 -0.0340  0.6097 -0.4793
 8944SOL     OW38464   0.369   1.756  12.287  0.5661 -0.2507  0.2741
 8944SOL    HW138465   0.301   1.753  12.354  2.8934  0.1583  2.6515
 8944SOL    HW238466   0.354   1.848  12.265 -0.5158 -0.8904 -1.6083
 8945SOL     OW38467   2.414   2.427   4.801 -0.0255 -0.0856 -0.1865
 8945SOL    HW138468   2.432   2.519   4.819  0.2406 -0.5790  1.9772
 8945SOL    HW238469   2.483   2.411   4.737  0.3909 -0.4546  0.3601
 8946SOL     OW38470   0.389   1.767   6.813 -0.0479  0.2192  0.0681
 8946SOL    HW138471   0.342   1.684   6.816 -2.1672  1.4435  1.5223
 8946SOL    HW238472   0.370   1.777   6.720  0.1292 -0.9271 -0.0884
 8947SOL     OW38473   4.458   2.491   9.695 -0.2075 -0.3772 -0.0646
 8947SOL    HW138474   4.409   2.546   9.756 -0.2203  0.0646 -0.4729
 8947SOL    HW238475   4.513   2.548   9.641 -0.1752  1.5191  1.9428
 8948SOL     OW38476   1.944   3.838   4.911 -0.2457  0.0614  0.1870
 8948SOL    HW138477   1.904   3.813   4.828  0.0756  1.0916 -0.2775
 8948SOL    HW238478   1.907   3.926   4.918 -0.7174 -0.3750  3.6127
 8949SOL     OW38479   1.056   0.516  12.168  0.9853  0.0514  0.3790
 8949SOL    HW138480   1.072   0.450  12.236 -2.0041 -0.2449  0.7850
 8949SOL    HW238481   1.147   0.537  12.146  1.0288 -0.9495 -0.4104
 8950SOL     OW38482   3.492   2.894  11.484 -0.8391  0.1695 -0.3265
 8950SOL    HW138483   3.439   2.970  11.508  1.4807  2.3282 -2.0258
 8950SOL    HW238484   3.448   2.872  11.402 -2.3478  1.3011  0.1822
 8951SOL     OW38485   0.478   3.618   6.147 -0.0455  0.3534  0.2181
 8951SOL    HW138486   0.441   3.673   6.216 -0.3157 -0.2126  0.5217
 8951SOL    HW238487   0.494   3.542   6.203  0.9434 -0.7194 -1.5289
 8952SOL     OW38488   3.039   3.399   7.509  0.1352 -0.3904 -0.6558
 8952SOL    HW138489   3.034   3.337   7.582  0.3277 -0.6961 -0.8988
 8952SOL    HW238490   3.130   3.382   7.483  0.4691  0.9638 -0.3289
 8953SOL     OW38491   3.446   1.634   4.891  0.4409 -1.2040 -0.5079
 8953SOL    HW138492   3.535   1.602   4.908  0.4220 -0.7143  0.5718
 8953SOL    HW238493   3.426   1.573   4.820 -0.8374 -1.7828  0.3515
 8954SOL     OW38494   2.210   3.974   3.828  0.0335 -0.2884  0.4671
 8954SOL    HW138495   2.260   4.027   3.765 -0.5563 -1.8323 -1.3230
 8954SOL    HW238496   2.257   3.972   3.911 -0.4414 -2.5944  0.6813
 8955SOL     OW38497   3.284   3.828   0.204 -0.0130  0.4845  0.2635
 8955SOL    HW138498   3.337   3.757   0.241 -0.2568  0.7843  1.2002
 8955SOL    HW238499   3.344   3.902   0.207 -1.1359  1.4011  0.4261
 8956SOL     OW38500   1.435   2.688   5.033  0.3683 -0.2123  0.4273
 8956SOL    HW138501   1.361   2.671   5.092 -1.8245  0.8670 -2.0075
 8956SOL    HW238502   1.485   2.611   5.059  0.1231 -0.0306  1.4234
 8957SOL     OW38503   0.619   1.686   6.151 -0.1523  0.8463  0.1189
 8957SOL    HW138504   0.586   1.736   6.076 -0.3066  2.8736  1.5530
 8957SOL    HW238505   0.700   1.737   6.153  0.6654 -0.4896  1.3651
 8958SOL     OW38506   3.766   1.964   3.033 -0.1937 -0.5571 -0.0578
 8958SOL    HW138507   3.809   2.013   2.963  0.1223 -0.7271  0.0157
 8958SOL    HW238508   3.721   2.033   3.081  1.2511 -0.1263  0.6772
 8959SOL     OW38509   2.343   4.035   1.312  0.0011  0.7529 -0.6604
 8959SOL    HW138510   2.328   4.097   1.241 -2.0768 -0.6343 -1.4285
 8959SOL    HW238511   2.352   4.100   1.381  2.3400  0.8436 -1.0571
 8960SOL     OW38512   1.989   2.934   5.456 -0.0446 -0.1669  0.0111
 8960SOL    HW138513   1.927   2.992   5.501  0.2776 -0.6888  1.1335
 8960SOL    HW238514   1.971   2.952   5.364 -1.2223 -0.5638  0.1608
 8961SOL     OW38515   0.461   2.522   5.782 -0.1309 -0.1028 -0.2008
 8961SOL    HW138516   0.422   2.498   5.866 -0.2128 -0.3615 -0.3114
 8961SOL    HW238517   0.496   2.607   5.807  2.3244 -0.2488 -3.1427
 8962SOL     OW38518   2.493   0.201   3.626 -0.3472 -0.8879  0.3196
 8962SOL    HW138519   2.540   0.180   3.546  1.0417  0.3806  0.7978
 8962SOL    HW238520   2.461   0.114   3.651 -2.2790 -0.6257 -1.2117
 8963SOL     OW38521   2.926   3.699   2.566  0.1855 -0.1117 -0.5626
 8963SOL    HW138522   2.946   3.764   2.497  0.1658  1.0323  0.5103
 8963SOL    HW238523   2.948   3.624   2.511  0.3125 -0.3009 -0.2479
 8964SOL     OW38524   4.568   0.314  10.643 -0.2776  0.3033  0.2214
 8964SOL    HW138525   4.640   0.329  10.704 -0.5267  2.0007  0.0994
 8964SOL    HW238526   4.502   0.268  10.696  0.9827 -2.9271 -0.9977
 8965SOL     OW38527   2.521   1.150   2.576 -0.7995 -0.2944 -0.1669
 8965SOL    HW138528   2.461   1.213   2.535 -1.2890  0.1734  1.2636
 8965SOL    HW238529   2.481   1.131   2.660  0.6816 -0.4348  0.5016
 8966SOL     OW38530   0.368   1.769  10.115  0.1407  0.1779 -0.1265
 8966SOL    HW138531   0.374   1.839  10.179 -1.4762 -0.9986  1.3145
 8966SOL    HW238532   0.287   1.791  10.069  0.1362  2.4123  0.9701
 8967SOL     OW38533   3.391   3.334   5.480 -0.2231  0.5022  0.1555
 8967SOL    HW138534   3.317   3.333   5.418 -0.1113 -1.1893  0.0636
 8967SOL    HW238535   3.459   3.298   5.424 -0.6097 -0.3542  0.2440
 8968SOL     OW38536   4.033   4.010   5.157  0.8900  0.1103  0.9665
 8968SOL    HW138537   4.015   4.086   5.102  1.0366  1.4515  2.7872
 8968SOL    HW238538   4.128   3.997   5.152  0.9293 -0.3410  2.7796
 8969SOL     OW38539   2.123   3.664   6.752 -0.0361  0.1474 -0.6298
 8969SOL    HW138540   2.128   3.740   6.694 -1.9454  1.4760  0.9346
 8969SOL    HW238541   2.067   3.698   6.822 -3.0598  0.1846 -3.0581
 8970SOL     OW38542   3.406   2.500   5.340  0.4754 -0.0979 -0.5215
 8970SOL    HW138543   3.446   2.416   5.316 -0.7342 -0.4991 -1.1269
 8970SOL    HW238544   3.315   2.472   5.324 -0.1365  1.6018  0.0395
 8971SOL     OW38545   1.940   3.118   1.732  0.1572  0.2493  0.0816
 8971SOL    HW138546   1.969   3.160   1.651  0.7822 -0.0730  0.1385
 8971SOL    HW238547   2.018   3.066   1.751  0.5345 -1.0645 -5.1154
 8972SOL     OW38548   1.098   1.267   4.365  0.0303  0.5112 -0.5106
 8972SOL    HW138549   1.085   1.189   4.312 -2.0085  0.8388 -0.4865
 8972SOL    HW238550   1.088   1.229   4.453  1.5854 -0.3172 -0.6892
 8973SOL     OW38551   1.811   3.810   1.747 -0.1406  0.4548 -0.5770
 8973SOL    HW138552   1.717   3.814   1.761 -0.2135 -0.1930 -0.9041
 8973SOL    HW238553   1.815   3.845   1.658  1.8478  0.2315 -0.5888
 8974SOL     OW38554   4.616   0.377   6.632  0.7999  0.2034  1.1305
 8974SOL    HW138555   4.566   0.298   6.607  0.2650  0.9517 -0.1507
 8974SOL    HW238556   4.592   0.377   6.725  0.4744 -2.2218  1.0508
 8975SOL     OW38557   2.745   2.574   7.080  0.4050 -0.0621 -0.2470
 8975SOL    HW138558   2.744   2.627   7.000  1.0337  1.9323  1.0709
 8975SOL    HW238559   2.656   2.579   7.116 -0.0500  0.4478 -1.4486
 8976SOL     OW38560   3.470   3.783  13.508  0.1376 -0.3994  0.4443
 8976SOL    HW138561   3.376   3.764  13.512 -0.0139  0.2355 -0.1183
 8976SOL    HW238562   3.467   3.879  13.513  3.7551 -0.2859  0.3533
 8977SOL     OW38563   2.689   0.999   1.045 -0.1701 -0.0629  0.1389
 8977SOL    HW138564   2.701   0.929   0.981  0.8264 -0.1756  0.4586
 8977SOL    HW238565   2.637   1.055   0.988  4.3632  2.1582 -1.8146
 8978SOL     OW38566   4.534   1.258   3.563 -0.2712 -0.0282 -0.0491
 8978SOL    HW138567   4.439   1.243   3.564 -0.2059 -0.4062  0.6239
 8978SOL    HW238568   4.526   1.336   3.508  0.8040 -1.1756 -1.8377
 8979SOL     OW38569   0.089   1.414   1.410 -0.4910  0.2126 -0.2061
 8979SOL    HW138570   0.026   1.439   1.478  0.6379 -0.8802  1.2257
 8979SOL    HW238571   0.107   1.504   1.383  2.0938 -0.5177 -0.8601
 8980SOL     OW38572   1.894   0.062   1.875 -0.3219 -0.5913  0.1694
 8980SOL    HW138573   1.914   0.069   1.968  2.1929 -1.5020 -0.2825
 8980SOL    HW238574   1.842   0.141   1.862  0.5864 -0.1216 -0.6609
 8981SOL     OW38575   0.870   2.986  15.367 -0.1426  0.4656  0.6470
 8981SOL    HW138576   0.932   3.056  15.345  0.2960 -0.7021 -1.7135
 8981SOL    HW238577   0.904   2.967  15.455 -1.5862 -0.6684  0.9520
 8982SOL     OW38578   0.844   2.642   3.983 -0.1075  0.0572  0.2874
 8982SOL    HW138579   0.822   2.611   3.895 -1.7855 -1.1901  1.1347
 8982SOL    HW238580   0.774   2.589   4.023  0.2914 -1.3995 -0.8985
 8983SOL     OW38581   4.709   4.084  15.629 -0.5222  0.2175  0.3722
 8983SOL    HW138582   0.037   4.059  15.562 -0.1822  0.0660  0.7591
 8983SOL    HW238583   0.030   4.143  15.676  0.7781  0.1303 -1.1108
 8984SOL     OW38584   0.554   4.655   1.991 -0.4265  0.2919 -0.2760
 8984SOL    HW138585   0.585   4.569   1.963  0.7653  0.8654 -0.7436
 8984SOL    HW238586   0.499   4.681   1.917 -1.9008  1.1201  1.1158
 8985SOL     OW38587   0.748   0.331   1.617  0.0230  0.1001 -0.3657
 8985SOL    HW138588   0.804   0.285   1.555 -2.6522 -1.5315 -1.5392
 8985SOL    HW238589   0.721   0.411   1.571  0.7911 -0.2195 -1.3773
 8986SOL     OW38590   4.489   3.489   3.956 -0.4740 -0.0642 -0.0760
 8986SOL    HW138591   4.558   3.548   3.985  0.2147  0.4164 -2.7016
 8986SOL    HW238592   4.446   3.556   3.904  1.4518  3.0218  2.3064
 8987SOL     OW38593   2.636   1.768   4.699 -0.2549  0.4559 -0.0337
 8987SOL    HW138594   2.631   1.717   4.780  1.1716  1.6465  0.8045
 8987SOL    HW238595   2.648   1.853   4.742  2.4808  1.4388 -2.7436
 8988SOL     OW38596   3.679   0.016   5.749  0.1907  0.4520  0.3946
 8988SOL    HW138597   3.696   0.091   5.692  1.0036 -0.5838 -0.7396
 8988SOL    HW238598   3.617   4.701   5.698  0.5102  0.3320  0.1248
 8989SOL     OW38599   4.579   1.010   2.859  0.5615  0.5889  0.2758
 8989SOL    HW138600   4.609   0.997   2.769 -1.3098 -1.4974 -0.0597
 8989SOL    HW238601   4.659   1.040   2.902  1.7661 -1.7702 -0.3254
 8990SOL     OW38602   2.396   1.884   8.427 -0.3195 -0.0090  0.6713
 8990SOL    HW138603   2.301   1.881   8.421 -0.4183  3.7481  0.4032
 8990SOL    HW238604   2.425   1.794   8.414 -2.2419 -0.6313  0.7223
 8991SOL     OW38605   0.368   3.121   7.932  0.0320 -0.0944 -0.2957
 8991SOL    HW138606   0.406   3.209   7.929 -1.2744  0.4656 -0.4453
 8991SOL    HW238607   0.445   3.079   7.893  0.7529 -0.1051  1.1698
 8992SOL     OW38608   3.266   2.231   8.479  0.4498  0.2837 -0.3641
 8992SOL    HW138609   3.203   2.206   8.412  0.2079  1.2739 -0.5112
 8992SOL    HW238610   3.217   2.275   8.548 -0.5013 -1.4248  0.0501
 8993SOL     OW38611   0.624   2.497   6.564  0.0686  0.2895 -0.0761
 8993SOL    HW138612   0.626   2.592   6.580 -1.4269  0.3162 -0.0306
 8993SOL    HW238613   0.706   2.475   6.607 -1.7314 -0.7637  2.8278
 8994SOL     OW38614   3.366   3.730   7.525  0.1516 -0.1412 -0.0586
 8994SOL    HW138615   3.334   3.820   7.523  0.7971  0.0886 -0.0239
 8994SOL    HW238616   3.406   3.744   7.611 -1.5149  1.9972  0.3685
 8995SOL     OW38617   1.210   3.915   4.378 -0.0950 -0.1049 -0.1057
 8995SOL    HW138618   1.226   3.842   4.318 -1.7469 -0.0665 -0.6171
 8995SOL    HW238619   1.142   3.958   4.325 -0.8109  0.5119  1.3111
 8996SOL     OW38620   2.256   4.079  10.898 -0.3428 -0.1156 -0.7005
 8996SOL    HW138621   2.204   4.148  10.941  2.0087  0.6258  0.9792
 8996SOL    HW238622   2.200   4.008  10.867 -0.4362 -0.2903 -0.1420
 8997SOL     OW38623   1.191   1.769   9.928  0.3296  0.6244  0.6181
 8997SOL    HW138624   1.124   1.706   9.899  2.0975 -0.5823 -0.8166
 8997SOL    HW238625   1.215   1.739  10.015 -0.4387 -2.4353 -0.2231
 8998SOL     OW38626   4.617   3.314   7.819 -0.5677 -0.3061  0.2346
 8998SOL    HW138627   4.550   3.374   7.851 -0.6697 -1.0577  1.4225
 8998SOL    HW238628   4.609   3.261   7.898  2.4127 -1.0033  0.0544
 8999SOL     OW38629   1.013   1.185  10.632  0.4055  0.2346 -0.5280
 8999SOL    HW138630   1.007   1.224  10.719 -0.7861  0.4421 -0.7027
 8999SOL    HW238631   0.992   1.094  10.648  2.4873 -0.5692 -2.3141
 9000SOL     OW38632   3.505   0.903  16.891  0.3387  0.0741 -0.9191
 9000SOL    HW138633   3.553   0.984  16.908 -0.4244  0.0916  1.1815
 9000SOL    HW238634   3.435   0.911  16.956  0.9702 -1.1209 -0.0893
 9001SOL     OW38635   4.651   3.120  11.991 -0.6985  0.2815 -0.0488
 9001SOL    HW138636   4.648   3.215  11.976 -0.5609 -0.0582 -2.2223
 9001SOL    HW238637   4.564   3.091  11.963 -0.6172  0.8352 -0.8649
 9002SOL     OW38638   4.593   1.332  12.537 -0.3803  0.2779  0.2116
 9002SOL    HW138639   4.542   1.346  12.617 -0.8915 -0.8948  0.0924
 9002SOL    HW238640   4.580   1.413  12.488 -1.4978 -0.0266  0.0107
 9003SOL     OW38641   3.513   0.304   5.374 -0.2102  0.0152  0.2993
 9003SOL    HW138642   3.607   0.285   5.369 -0.2204  0.2284 -0.7932
 9003SOL    HW238643   3.478   0.251   5.302  1.3318 -1.0999  0.3741
 9004SOL     OW38644   3.680   1.655   2.581  0.3072 -0.2128 -0.2185
 9004SOL    HW138645   3.729   1.681   2.659  0.7537 -1.1105 -0.2086
 9004SOL    HW238646   3.686   1.560   2.573  0.5721 -0.0393 -2.0200
 9005SOL     OW38647   1.884   2.916  13.219 -0.5569 -0.4128  0.5214
 9005SOL    HW138648   1.973   2.918  13.184 -0.2944 -2.0271  1.1211
 9005SOL    HW238649   1.838   2.926  13.135  0.8203  3.2373  0.1661
 9006SOL     OW38650   0.449   2.732   5.361 -0.1554 -0.1222 -0.2121
 9006SOL    HW138651   0.442   2.770   5.448 -0.8682  1.9236 -1.1792
 9006SOL    HW238652   0.398   2.794   5.309  1.8036  1.0869 -0.7074
 9007SOL     OW38653   0.663   2.671   6.070 -0.2618 -0.1898  0.3669
 9007SOL    HW138654   0.622   2.645   6.152  1.3798  1.3042  1.6622
 9007SOL    HW238655   0.594   2.665   6.003 -1.2533 -1.4281  1.5086
 9008SOL     OW38656   4.438   4.087   2.642 -0.4259 -0.4419  0.3210
 9008SOL    HW138657   4.465   4.036   2.566  0.5575 -1.0351  1.0557
 9008SOL    HW238658   4.518   4.118   2.684 -0.3066 -0.0206 -0.2233
 9009SOL     OW38659   3.540   1.547   4.174 -0.0212  0.5188 -0.0735
 9009SOL    HW138660   3.597   1.619   4.147 -1.5619  1.6352 -0.3687
 9009SOL    HW238661   3.514   1.569   4.264 -0.1848  0.2461 -0.0533
 9010SOL     OW38662   2.446   0.866   9.200 -0.6466 -0.5478  0.0667
 9010SOL    HW138663   2.353   0.844   9.202 -1.0549  0.9471 -1.6289
 9010SOL    HW238664   2.477   0.799   9.261  0.9964  1.5475  1.5158
 9011SOL     OW38665   4.412   0.094   8.929  0.4952  0.4766  0.0931
 9011SOL    HW138666   4.331   0.133   8.962 -0.1907 -0.0197 -0.9771
 9011SOL    HW238667   4.470   0.093   9.005 -1.1107  0.1277  1.3299
 9012SOL     OW38668   0.571   1.620  10.203 -0.6301 -0.9501 -0.4544
 9012SOL    HW138669   0.501   1.674  10.166 -1.0864  0.2043  2.1398
 9012SOL    HW238670   0.650   1.661  10.167 -0.3971 -1.8306 -0.9453
 9013SOL     OW38671   1.144   1.807   6.639  0.4371  0.0778 -0.1866
 9013SOL    HW138672   1.219   1.749   6.652  0.9455  0.9564  0.8492
 9013SOL    HW238673   1.115   1.823   6.729 -1.3686  1.5492 -1.0212
 9014SOL     OW38674   3.290   3.772   8.269 -0.6552 -0.1845  0.1628
 9014SOL    HW138675   3.277   3.832   8.196 -0.7747 -0.4162 -0.0088
 9014SOL    HW238676   3.303   3.835   8.340 -0.5703 -0.1355  0.1028
 9015SOL     OW38677   1.135   4.415   0.849  0.0857  0.0328  0.1322
 9015SOL    HW138678   1.196   4.460   0.791  0.2419  0.6848  0.7995
 9015SOL    HW238679   1.086   4.371   0.780 -0.1717 -0.2316  0.4821
 9016SOL     OW38680   3.097   3.206   6.134 -0.0675 -0.2317 -0.2908
 9016SOL    HW138681   3.134   3.135   6.080 -0.2976 -0.1878 -0.5083
 9016SOL    HW238682   3.120   3.290   6.094  2.7900 -0.4723  0.9008
 9017SOL     OW38683   3.374   2.624   3.686  0.2565  0.5827  0.3067
 9017SOL    HW138684   3.439   2.555   3.671 -1.0257 -0.3886 -0.7544
 9017SOL    HW238685   3.349   2.642   3.596  1.0418  1.8559  0.3480
 9018SOL     OW38686   0.063   4.074   1.428 -0.1615 -0.5995  0.0226
 9018SOL    HW138687   0.091   4.165   1.417  2.6272 -1.1686  2.4066
 9018SOL    HW238688   0.142   4.028   1.399 -1.5076 -2.8642 -0.0193
 9019SOL     OW38689   0.929   3.152  10.613 -0.1062  0.0306 -0.0123
 9019SOL    HW138690   0.993   3.217  10.642  0.5897 -0.4414 -0.4882
 9019SOL    HW238691   0.927   3.106  10.697  0.8178 -2.3684 -1.2920
 9020SOL     OW38692   3.337   1.802   3.694 -0.5580 -0.1782  0.4048
 9020SOL    HW138693   3.402   1.827   3.629 -1.2003 -1.5213 -0.7503
 9020SOL    HW238694   3.385   1.746   3.754 -3.2130 -1.2075  1.5657
 9021SOL     OW38695   4.222   4.471  15.742 -0.7750  0.0486  0.2274
 9021SOL    HW138696   4.128   4.486  15.754 -0.9313  0.5836 -1.7094
 9021SOL    HW238697   4.220   4.451  15.649 -0.9107  1.3749 -0.0499
 9022SOL     OW38698   2.179   2.124  12.560  0.8579 -0.7643 -0.4171
 9022SOL    HW138699   2.242   2.074  12.612 -1.7822 -1.5583  1.9492
 9022SOL    HW238700   2.226   2.134  12.477  0.7014  0.5489 -0.3509
 9023SOL     OW38701   3.766   3.549   2.429  0.8231  0.1351  0.0523
 9023SOL    HW138702   3.809   3.632   2.407 -1.3766  0.9397 -1.2777
 9023SOL    HW238703   3.801   3.490   2.362 -0.8319  1.1274 -1.7000
 9024SOL     OW38704   2.816   3.702   6.706  0.2981 -0.1326  0.0911
 9024SOL    HW138705   2.873   3.696   6.630 -1.7190  1.2986 -1.5386
 9024SOL    HW238706   2.756   3.771   6.677  0.6085  0.6185  1.2370
 9025SOL     OW38707   3.913   0.404   4.760  0.2527 -0.3383  0.0577
 9025SOL    HW138708   3.969   0.327   4.758 -0.6325 -1.0101  0.9739
 9025SOL    HW238709   3.827   0.363   4.770  0.4535 -1.0737 -1.3537
 9026SOL     OW38710   0.410   4.208   4.707 -0.4048 -0.2961  0.6481
 9026SOL    HW138711   0.360   4.251   4.776 -1.0946  2.2952 -1.4618
 9026SOL    HW238712   0.370   4.122   4.720 -1.1432 -0.5239 -3.0430
 9027SOL     OW38713   4.209   2.170   9.772  0.3012 -0.0973  0.3522
 9027SOL    HW138714   4.199   2.078   9.748 -1.3838 -0.0579  0.8876
 9027SOL    HW238715   4.115   2.190   9.782 -0.4170 -1.7965 -2.9840
 9028SOL     OW38716   2.240   4.702   1.360  0.1645  0.5828 -0.7100
 9028SOL    HW138717   2.187   4.669   1.288  1.2004 -0.9370 -0.7825
 9028SOL    HW238718   2.310   0.006   1.310 -0.3382  0.3159 -1.6342
 9029SOL     OW38719   3.073   2.063   5.231 -0.1667  0.2574 -0.6570
 9029SOL    HW138720   3.121   2.019   5.160  0.8842 -0.7454  0.6720
 9029SOL    HW238721   2.995   2.091   5.185 -1.3097  1.4353  2.0225
 9030SOL     OW38722   3.875   1.855  17.356  0.2495  0.6802 -0.6494
 9030SOL    HW138723   3.910   1.834  17.269  0.0518 -2.2422 -0.0182
 9030SOL    HW238724   3.856   1.949  17.355  0.8354  0.8007 -0.4320
 9031SOL     OW38725   3.052   3.647   5.593  0.5455 -0.8997 -0.2807
 9031SOL    HW138726   2.974   3.671   5.542  0.4682 -0.3228  0.1091
 9031SOL    HW238727   3.034   3.697   5.673 -1.0231 -0.9981 -0.5592
 9032SOL     OW38728   2.440   2.242  12.723  0.1102 -0.0805 -0.1349
 9032SOL    HW138729   2.497   2.242  12.646  1.0046  2.2913  0.5194
 9032SOL    HW238730   2.406   2.153  12.713  0.1364 -0.1496  0.3722
 9033SOL     OW38731   3.096   1.787   4.942 -0.1267  0.2251 -0.1738
 9033SOL    HW138732   3.064   1.719   4.883 -0.1947  0.0860  0.0234
 9033SOL    HW238733   3.159   1.730   4.988 -1.4269  0.0422  1.3550
 9034SOL     OW38734   4.212   3.913  14.948 -0.1825 -0.3751 -0.2100
 9034SOL    HW138735   4.284   3.864  14.909 -0.8858 -0.0284 -1.9103
 9034SOL    HW238736   4.136   3.913  14.890 -0.4606  1.1554  0.1326
 9035SOL     OW38737   0.850   4.386   4.312 -0.0346 -0.8375  0.0861
 9035SOL    HW138738   0.872   4.461   4.257  2.0971 -1.9621 -0.6132
 9035SOL    HW238739   0.847   4.413   4.404  0.2733 -0.4688 -0.0144
 9036SOL     OW38740   3.664   0.790  10.202  0.0224 -0.8123  0.8729
 9036SOL    HW138741   3.571   0.809  10.186  0.7977  0.5427 -1.9173
 9036SOL    HW238742   3.665   0.695  10.219 -1.8179 -1.2125 -1.1521
 9037SOL     OW38743   2.924   3.468   7.176 -0.0021  0.0558 -0.3253
 9037SOL    HW138744   2.975   3.504   7.104 -0.1342  1.6095  0.3649
 9037SOL    HW238745   2.893   3.384   7.142  0.5868 -0.9429  1.6523
 9038SOL     OW38746   0.698   3.361   6.179  0.8519 -0.3467 -0.0309
 9038SOL    HW138747   0.788   3.391   6.166  1.9031 -3.7861 -0.7688
 9038SOL    HW238748   0.684   3.415   6.257 -2.1192 -0.7201 -0.2927
 9039SOL     OW38749   4.257   1.410   2.826 -0.1134  0.4494 -0.1808
 9039SOL    HW138750   4.255   1.319   2.855  0.8103  0.0833 -1.2753
 9039SOL    HW238751   4.351   1.422   2.837  0.0237 -0.8463 -0.0270
 9040SOL     OW38752   2.700   0.354   5.573  0.5712 -0.1982 -0.3726
 9040SOL    HW138753   2.779   0.406   5.588  1.3077 -1.7907  1.3167
 9040SOL    HW238754   2.635   0.424   5.579  0.3839 -0.5049  1.2282
 9041SOL     OW38755   4.432   1.774   4.508 -0.3616 -0.4443 -0.6352
 9041SOL    HW138756   4.513   1.819   4.532 -0.4091 -0.7931  0.1904
 9041SOL    HW238757   4.461   1.726   4.430  0.4818  0.3704 -0.8239
 9042SOL     OW38758   3.901   4.605   5.395 -0.4567  0.2753 -0.0472
 9042SOL    HW138759   3.961   4.592   5.321 -0.9947 -3.6318  0.1841
 9042SOL    HW238760   3.918   4.698   5.407 -0.3284  0.4293 -1.3720
 9043SOL     OW38761   0.819   0.452   8.853  0.2974 -0.3545  0.1170
 9043SOL    HW138762   0.879   0.486   8.918 -1.0642  0.9556  0.6736
 9043SOL    HW238763   0.848   0.497   8.774  0.2559  0.1597  0.3950
 9044SOL     OW38764   2.240   2.099   9.845 -0.2285 -0.3818 -0.0214
 9044SOL    HW138765   2.285   2.113   9.929  0.2741 -0.3137 -0.3044
 9044SOL    HW238766   2.312   2.061   9.794  0.9124  0.9085  0.6291
 9045SOL     OW38767   2.337   0.488   7.083 -0.1729  0.4655  0.1368
 9045SOL    HW138768   2.249   0.467   7.115 -0.2678  0.5229 -0.0847
 9045SOL    HW238769   2.357   0.572   7.123  0.0967  0.8825 -0.8888
 9046SOL     OW38770   0.538   2.534  17.332  0.1891  0.0005  0.5299
 9046SOL    HW138771   0.488   2.572  17.260  1.3038 -1.0027 -0.7953
 9046SOL    HW238772   0.491   2.452  17.345 -1.8994  1.1386  0.0110
 9047SOL     OW38773   0.173   4.654  13.049 -0.1080  0.3955  0.3707
 9047SOL    HW138774   0.205   0.005  13.028 -0.4843  0.2661 -0.7477
 9047SOL    HW238775   0.235   4.645  13.121  0.1931 -0.6088 -0.0188
 9048SOL     OW38776   1.655   3.674   8.525  0.2239 -0.2329  0.3049
 9048SOL    HW138777   1.607   3.604   8.481  0.4840 -1.2279  1.5923
 9048SOL    HW238778   1.719   3.712   8.464 -0.6395  0.1832 -0.3278
 9049SOL     OW38779   2.864   1.529   3.692 -0.2714 -0.3968  0.3392
 9049SOL    HW138780   2.823   1.607   3.655 -0.2986 -1.0680 -1.0243
 9049SOL    HW238781   2.956   1.547   3.710 -0.3044  1.4885 -1.4463
 9050SOL     OW38782   0.829   2.499   2.016 -0.2490  0.6660 -0.2734
 9050SOL    HW138783   0.750   2.530   1.970 -1.0028  0.5027  0.9077
 9050SOL    HW238784   0.881   2.492   1.936  0.0112  1.2460 -0.1588
 9051SOL     OW38785   1.270   3.970   4.648 -0.0534  0.0746 -0.3519
 9051SOL    HW138786   1.218   3.945   4.572  1.4792 -2.2497 -0.6471
 9051SOL    HW238787   1.349   4.008   4.609  2.1533 -3.7030  0.3921
 9052SOL     OW38788   0.753   1.462  16.230  0.8851 -0.1020  0.3321
 9052SOL    HW138789   0.780   1.414  16.308  0.5911 -2.0002 -0.7570
 9052SOL    HW238790   0.785   1.551  16.248  0.3878 -0.2340  1.8847
 9053SOL     OW38791   4.207   0.610  15.629 -0.4211 -0.5334  0.2505
 9053SOL    HW138792   4.282   0.670  15.625  2.0226 -3.5409  1.3615
 9053SOL    HW238793   4.196   0.579  15.539 -1.0853 -0.9041  0.4613
 9054SOL     OW38794   0.288   1.305   6.841  0.2304 -0.5896 -0.0754
 9054SOL    HW138795   0.346   1.262   6.778  4.1507  0.8960  2.4941
 9054SOL    HW238796   0.348   1.341   6.907  1.1565  0.4274 -1.4824
 9055SOL     OW38797   1.714   0.995   2.128  0.5018 -0.6145 -0.5151
 9055SOL    HW138798   1.704   1.039   2.043  0.2124 -1.2966 -0.8339
 9055SOL    HW238799   1.758   0.916   2.098  0.4433 -0.4043 -1.1778
 9056SOL     OW38800   3.132   4.635   6.828  0.3172  0.4141  0.5386
 9056SOL    HW138801   3.072   4.701   6.793  0.2188  0.6161  1.0804
 9056SOL    HW238802   3.217   4.663   6.795  0.2563  0.2114  0.2122
 9057SOL     OW38803   4.146   4.710  12.422 -0.5915  0.1946 -0.5049
 9057SOL    HW138804   4.106   4.694  12.507 -0.2835  0.2173 -0.3545
 9057SOL    HW238805   4.236   4.730  12.448 -1.1594  2.6655 -0.4386
 9058SOL     OW38806   1.424   2.273  10.716  0.2101 -0.3847 -0.0891
 9058SOL    HW138807   1.385   2.360  10.723  0.2441 -0.4550  1.0348
 9058SOL    HW238808   1.504   2.287  10.665  0.4452  1.0904  0.6853
 9059SOL     OW38809   3.883   4.162  15.007  0.6093  0.2642 -0.3445
 9059SOL    HW138810   3.943   4.201  14.943  0.2860 -1.6051 -1.7598
 9059SOL    HW238811   3.845   4.094  14.952 -0.0451  0.3784 -0.0378
 9060SOL     OW38812   2.195   1.372   1.737 -0.1362  0.3742 -0.0031
 9060SOL    HW138813   2.218   1.458   1.774  0.0536  0.0750  0.5631
 9060SOL    HW238814   2.269   1.366   1.676  1.1518 -1.4987  1.7723
 9061SOL     OW38815   4.043   4.331   9.041  0.0054  0.6617 -0.4761
 9061SOL    HW138816   4.024   4.333   9.135 -0.1970  0.4035 -0.5090
 9061SOL    HW238817   4.132   4.363   9.035  0.9174 -1.5823  0.9395
 9062SOL     OW38818   1.851   4.660  11.643 -0.1469  0.4504 -0.2667
 9062SOL    HW138819   1.776   4.634  11.589 -1.9006 -0.3081  2.5238
 9062SOL    HW238820   1.901   4.579  11.627 -1.8935 -0.5052 -0.9515
 9063SOL     OW38821   4.621   2.812  12.952  0.3598 -0.3496  0.0209
 9063SOL    HW138822   4.623   2.899  12.993  1.4502 -0.2473 -0.2401
 9063SOL    HW238823   4.529   2.794  12.933  0.6976 -0.1654 -1.8105
 9064SOL     OW38824   4.187   0.125  14.142 -0.2668  0.6198  0.3294
 9064SOL    HW138825   4.253   0.137  14.073  0.2119  0.1814  0.7101
 9064SOL    HW238826   4.108   0.174  14.119 -0.1258  0.0594 -1.3444
 9065SOL     OW38827   0.946   1.071   3.022 -0.3508 -0.3870  0.3146
 9065SOL    HW138828   0.940   1.056   3.116 -1.1650  0.3976  0.3823
 9065SOL    HW238829   1.039   1.090   3.009 -0.3591 -0.9783 -0.6656
 9066SOL     OW38830   0.666   3.792   7.799  0.2076 -0.0518 -0.6705
 9066SOL    HW138831   0.616   3.865   7.763  2.6257  1.3011 -1.3399
 9066SOL    HW238832   0.748   3.791   7.748  0.3629 -2.0329 -0.3787
 9067SOL     OW38833   1.848   2.909   6.117  0.7837 -0.6690 -0.5513
 9067SOL    HW138834   1.872   2.927   6.208 -1.3292  1.5898 -0.4563
 9067SOL    HW238835   1.757   2.939   6.110  1.4308  1.0480 -1.6432
 9068SOL     OW38836   4.015   4.665   3.601  0.3537 -0.6168  0.3598
 9068SOL    HW138837   3.942   4.725   3.616  0.9538  0.5703 -1.5132
 9068SOL    HW238838   4.093   4.715   3.625 -0.2756 -0.5230  2.2434
 9069SOL     OW38839   2.466   1.327   7.140 -0.0366 -0.2363 -0.2578
 9069SOL    HW138840   2.467   1.235   7.167 -1.1742 -0.8456 -2.3070
 9069SOL    HW238841   2.558   1.352   7.149 -0.0437 -0.2259 -0.2157
 9070SOL     OW38842   0.985   4.661   1.651  0.4043  0.0415 -0.0584
 9070SOL    HW138843   1.040   0.001   1.651  1.5569 -0.7914 -1.1096
 9070SOL    HW238844   0.928   4.675   1.575  2.0150  0.1282 -1.2398
 9071SOL     OW38845   0.313   4.055   1.286 -0.2503  0.3253 -0.5975
 9071SOL    HW138846   0.358   3.982   1.244 -1.5479 -0.1641 -1.1404
 9071SOL    HW238847   0.392   4.109   1.290  0.8009 -1.2922  0.1615
 9072SOL     OW38848   0.426   1.026   4.324 -0.1371 -0.1940 -0.0909
 9072SOL    HW138849   0.473   1.049   4.404  1.3038 -1.6466 -0.5236
 9072SOL    HW238850   0.337   1.035   4.357  0.0878  1.1529  0.1611
 9073SOL     OW38851   2.530   4.492   4.615  0.2759 -0.0766 -0.3767
 9073SOL    HW138852   2.450   4.440   4.622  0.1539  0.0371 -0.9447
 9073SOL    HW238853   2.544   4.529   4.702 -0.1143 -0.4914 -0.1363
 9074SOL     OW38854   4.212   3.089   3.787 -0.7266 -0.1196 -0.7099
 9074SOL    HW138855   4.156   3.160   3.756  0.5486  1.5240  0.7491
 9074SOL    HW238856   4.251   3.135   3.861  0.2056 -1.1128 -0.5789
 9075SOL     OW38857   1.428   3.215  17.673 -0.2150  0.3221  0.2864
 9075SOL    HW138858   1.390   3.136  17.634 -1.7617 -0.4025  3.2721
 9075SOL    HW238859   1.440   3.189   0.019 -0.6501  1.6941  0.7299
 9076SOL     OW38860   3.176   0.894  11.803  0.1047  0.4443 -0.2337
 9076SOL    HW138861   3.239   0.887  11.732  1.3493 -1.6145  1.0773
 9076SOL    HW238862   3.101   0.837  11.783  0.0377  0.8186 -1.0261
 9077SOL     OW38863   0.679   3.498   1.554 -0.3592 -0.6781  0.0582
 9077SOL    HW138864   0.729   3.417   1.544  1.3142  0.8175 -3.6786
 9077SOL    HW238865   0.731   3.555   1.496 -1.7560 -0.7506 -1.2482
 9078SOL     OW38866   2.751   2.589  15.269  0.4846 -0.7451  0.0668
 9078SOL    HW138867   2.766   2.558  15.358  0.2329  0.1085  0.4086
 9078SOL    HW238868   2.803   2.523  15.223  0.2001 -0.2277 -1.0028
 9079SOL     OW38869   0.715   2.155   2.820 -0.0335  0.3159  0.2898
 9079SOL    HW138870   0.793   2.121   2.776 -0.2559 -0.8368  0.7790
 9079SOL    HW238871   0.756   2.212   2.885 -0.9700  1.7201 -0.3732
 9080SOL     OW38872   4.345   1.118   5.516 -0.0800  0.3686  0.0074
 9080SOL    HW138873   4.263   1.081   5.548 -1.2765  3.6225  0.6699
 9080SOL    HW238874   4.393   1.039   5.490  0.3766  0.5223  0.3822
 9081SOL     OW38875   3.011   0.297   7.956 -0.5965  0.5248  0.9556
 9081SOL    HW138876   3.036   0.276   8.046  1.9685  1.8908  0.5650
 9081SOL    HW238877   3.086   0.277   7.901  0.0530  0.6406  1.7961
 9082SOL     OW38878   3.995   3.196  13.308 -0.2692 -0.0571 -0.2246
 9082SOL    HW138879   3.940   3.192  13.386  1.1216 -0.0042  0.7698
 9082SOL    HW238880   4.077   3.161  13.343 -1.1715 -2.1437 -0.2479
 9083SOL     OW38881   2.717   4.070  15.016  0.2100 -0.4604 -0.0036
 9083SOL    HW138882   2.711   4.140  14.951  1.0781  1.1709  1.6856
 9083SOL    HW238883   2.631   4.030  15.010 -0.7049  1.7752 -1.9715
 9084SOL     OW38884   0.911   1.187   6.418 -0.0049  0.0551  0.3665
 9084SOL    HW138885   0.878   1.256   6.475  1.9960  1.3253 -0.0278
 9084SOL    HW238886   0.852   1.194   6.342 -0.8057  2.2564  1.1892
 9085SOL     OW38887   1.781   2.699   8.139  0.1215  0.3386 -0.5259
 9085SOL    HW138888   1.746   2.785   8.161 -0.9691 -0.5567  1.2802
 9085SOL    HW238889   1.747   2.695   8.050 -0.4384  0.2610 -0.3135
 9086SOL     OW38890   0.613   2.717  16.854  0.3809  0.1620 -0.1110
 9086SOL    HW138891   0.642   2.633  16.819  2.3180  0.7851 -0.0089
 9086SOL    HW238892   0.568   2.755  16.779  0.7721  1.0629  0.1152
 9087SOL     OW38893   3.398   3.488   3.086  0.7805 -0.0847  0.1172
 9087SOL    HW138894   3.436   3.576   3.093 -1.6099  1.0948 -1.5176
 9087SOL    HW238895   3.309   3.508   3.115  0.5842 -1.2125  0.2691
 9088SOL     OW38896   4.492   3.195   3.680 -0.0976 -0.0707 -0.0036
 9088SOL    HW138897   4.572   3.142   3.676  0.1372  0.2623  0.1558
 9088SOL    HW238898   4.436   3.149   3.742  1.0069  0.7297  1.6052
 9089SOL     OW38899   3.659   3.046   8.316  0.2140 -0.3756  0.4877
 9089SOL    HW138900   3.733   3.061   8.375  0.0979  0.7620  0.3426
 9089SOL    HW238901   3.712   3.072   8.241  2.8171 -1.0788  2.0698
 9090SOL     OW38902   4.350   3.941   3.324 -0.0284 -0.7929 -0.0680
 9090SOL    HW138903   4.362   3.999   3.399 -1.3874  0.4850 -0.8631
 9090SOL    HW238904   4.273   3.885   3.337  0.3119 -0.9622  1.2599
 9091SOL     OW38905   3.811   0.965  17.279 -0.3713  0.7299  0.3168
 9091SOL    HW138906   3.804   1.005  17.366 -2.0597  2.0536 -0.4316
 9091SOL    HW238907   3.776   0.880  17.306  0.7523 -0.0235 -0.5941
 9092SOL     OW38908   3.293   2.060   4.029  0.6373 -0.1070  0.1863
 9092SOL    HW138909   3.283   2.126   4.097 -0.3760 -1.1180  1.0114
 9092SOL    HW238910   3.305   1.986   4.088  0.4623 -0.0774  0.2560
 9093SOL     OW38911   1.998   0.637   1.851 -0.4182 -0.0238 -0.6781
 9093SOL    HW138912   2.058   0.705   1.819 -0.5752  1.2166  1.6393
 9093SOL    HW238913   2.051   0.559   1.833 -0.1485 -0.3715  1.5910
 9094SOL     OW38914   2.487   3.188   8.005 -0.1981  0.6074  0.1259
 9094SOL    HW138915   2.512   3.222   8.091  1.1059  3.3033 -1.3350
 9094SOL    HW238916   2.574   3.194   7.967 -0.5608 -0.4515 -0.8720
 9095SOL     OW38917   4.529   2.119  16.228  0.2067  0.2990 -0.0597
 9095SOL    HW138918   4.620   2.136  16.255 -0.1849 -0.1517  1.5258
 9095SOL    HW238919   4.509   2.212  16.223  2.5766  0.7179 -1.8364
 9096SOL     OW38920   4.734   2.686   3.277  0.8376 -0.4346  0.0541
 9096SOL    HW138921   0.070   2.645   3.325 -0.3317 -0.7102  1.6040
 9096SOL    HW238922   0.015   2.657   3.188  0.1548 -2.3716  0.5495
 9097SOL     OW38923   3.481   4.404   5.316 -0.2392 -0.4035  0.1265
 9097SOL    HW138924   3.550   4.409   5.382  1.7118  1.8223 -2.0928
 9097SOL    HW238925   3.426   4.482   5.325 -1.0870 -0.5435 -3.7244
 9098SOL     OW38926   4.041   1.019  17.145  0.4991  0.0864  0.3456
 9098SOL    HW138927   4.088   1.019  17.228  2.3145  2.1163 -0.6730
 9098SOL    HW238928   3.960   0.975  17.172  0.6149 -0.3104  0.0485
 9099SOL     OW38929   2.282   1.739  12.316 -0.2548  0.0884  0.6712
 9099SOL    HW138930   2.339   1.730  12.393 -0.6112 -0.9920  0.8140
 9099SOL    HW238931   2.340   1.694  12.254 -3.8462 -2.2113 -1.0085
 9100SOL     OW38932   4.663   3.941   7.313  0.1149  0.0613  0.5085
 9100SOL    HW138933   4.622   3.950   7.399 -1.8317  0.5218 -0.4823
 9100SOL    HW238934   4.590   3.972   7.260 -1.0227 -0.8202  1.5650
 9101SOL     OW38935   0.323   0.671   3.486 -0.0799 -0.1426 -0.0425
 9101SOL    HW138936   0.335   0.577   3.473 -1.1896 -0.4822  1.4136
 9101SOL    HW238937   0.242   0.700   3.443  0.0264 -1.4294 -1.1316
 9102SOL     OW38938   4.113   0.452   1.508  0.2903  0.0106  0.0783
 9102SOL    HW138939   4.160   0.516   1.455  0.2920 -0.2152 -0.1949
 9102SOL    HW238940   4.024   0.470   1.475  0.3574 -0.1785 -0.2035
 9103SOL     OW38941   0.677   3.167   4.011  0.5804 -0.3422 -0.6930
 9103SOL    HW138942   0.696   3.075   3.991  1.2884  0.3326 -3.1037
 9103SOL    HW238943   0.582   3.165   4.000  0.6243  0.1915 -1.1515
 9104SOL     OW38944   0.274   1.022   9.068 -0.3101  0.0511  0.0400
 9104SOL    HW138945   0.204   0.957   9.078 -0.2470  0.0882  0.7337
 9104SOL    HW238946   0.353   0.969   9.060 -1.3964 -1.5604 -0.0723
 9105SOL     OW38947   1.441   3.759  16.669  0.3619 -0.3441 -0.0198
 9105SOL    HW138948   1.471   3.722  16.752 -1.2891  0.2427  0.8372
 9105SOL    HW238949   1.364   3.810  16.694  0.2310 -0.8872  0.6769
 9106SOL     OW38950   0.434   4.299   6.345 -0.1435 -0.1034 -0.4631
 9106SOL    HW138951   0.391   4.379   6.316 -1.0788 -0.4950 -0.1599
 9106SOL    HW238952   0.479   4.280   6.263  0.7516 -0.1754  0.0454
 9107SOL     OW38953   2.169   1.371   7.215 -0.7325  0.0594 -0.3677
 9107SOL    HW138954   2.198   1.410   7.298 -0.1036 -1.6843  0.2249
 9107SOL    HW238955   2.254   1.357   7.173 -1.7893 -1.0375 -2.1285
 9108SOL     OW38956   4.447   0.542   6.370 -0.0949  0.0180  0.6240
 9108SOL    HW138957   4.433   0.515   6.461 -0.1619 -2.9207 -0.2666
 9108SOL    HW238958   4.357   0.553   6.340 -0.3412 -1.6856  0.7528
 9109SOL     OW38959   0.836   1.302   8.473 -0.6063  0.0974 -0.0507
 9109SOL    HW138960   0.897   1.370   8.502 -0.7694  0.1869  0.0815
 9109SOL    HW238961   0.898   1.231   8.491 -1.5246 -0.1708  2.1302
 9110SOL     OW38962   0.365   3.321  10.524 -0.0972  0.1296  0.0913
 9110SOL    HW138963   0.354   3.362  10.438 -0.0843 -1.2312 -0.5518
 9110SOL    HW238964   0.310   3.382  10.573  0.2148  1.4192 -1.1650
 9111SOL     OW38965   2.879   4.511   4.007 -0.2004  0.0158 -0.2250
 9111SOL    HW138966   2.813   4.456   4.049 -0.2599 -0.4450 -0.9065
 9111SOL    HW238967   2.947   4.522   4.073 -0.0138 -0.1700 -0.3838
 9112SOL     OW38968   2.012   2.827   5.896  0.3522 -0.2083 -0.2125
 9112SOL    HW138969   1.999   2.736   5.925  0.2991  0.2012  1.0521
 9112SOL    HW238970   1.960   2.883   5.953  1.4210 -1.4252  1.9692
 9113SOL     OW38971   2.937   2.770   6.030  0.0672 -0.6227 -0.6395
 9113SOL    HW138972   3.018   2.818   6.048 -0.2014  0.0415 -1.2021
 9113SOL    HW238973   2.916   2.767   6.123 -1.3779  2.0027 -0.8761
 9114SOL     OW38974   0.150   4.234  16.286 -0.3875 -0.6156  0.4539
 9114SOL    HW138975   0.195   4.267  16.208 -1.5189 -1.7402 -0.6786
 9114SOL    HW238976   0.113   4.318  16.314 -1.4599 -1.5790  1.9290
 9115SOL     OW38977   0.556   0.480   8.890 -0.5546 -0.3499 -0.9283
 9115SOL    HW138978   0.650   0.466   8.891 -0.6122 -0.7596 -0.9049
 9115SOL    HW238979   0.549   0.494   8.985  1.8735  1.9463 -1.1016
 9116SOL     OW38980   2.542   1.533   5.855  0.2653  0.2644  0.5657
 9116SOL    HW138981   2.481   1.593   5.813 -0.5089 -0.5751  0.4978
 9116SOL    HW238982   2.590   1.515   5.774  2.6367 -0.2511  2.0888
 9117SOL     OW38983   1.562   0.414   6.435  0.2682  0.2000  0.0725
 9117SOL    HW138984   1.551   0.343   6.373  2.6923 -0.5783  0.5398
 9117SOL    HW238985   1.613   0.475   6.381  0.7869  1.0487  1.5191
 9118SOL     OW38986   3.368   0.729   6.058 -0.0995  0.0797 -0.6422
 9118SOL    HW138987   3.435   0.693   6.116 -0.0724  2.3369  0.6815
 9118SOL    HW238988   3.289   0.723   6.112 -0.3392  1.8126 -0.8197
 9119SOL     OW38989   0.117   2.137   1.109  0.1353  0.0726  0.0080
 9119SOL    HW138990   0.101   2.226   1.139 -0.5301  0.7952 -2.5309
 9119SOL    HW238991   0.052   2.117   1.042  0.8778 -3.2962  0.2687
 9120SOL     OW38992   0.511   0.615  15.049  0.7033  0.1497  0.8900
 9120SOL    HW138993   0.499   0.524  15.074  1.5658 -0.0202  0.6896
 9120SOL    HW238994   0.555   0.654  15.125  2.5309 -1.0200  0.4260
 9121SOL     OW38995   0.980   4.496   1.985  0.5946  0.0076 -0.0487
 9121SOL    HW138996   1.036   4.531   1.916  0.1245  0.4912 -0.1877
 9121SOL    HW238997   1.041   4.455   2.046  1.9213  1.7687 -0.1834
 9122SOL     OW38998   1.168   2.404   8.805 -0.2545  0.0704  0.3391
 9122SOL    HW138999   1.085   2.449   8.814 -0.6211 -0.7872  1.1881
 9122SOL    HW239000   1.149   2.345   8.732 -2.7863  0.5011  0.6642
 9123SOL     OW39001   2.365   1.009  15.187 -0.0821  0.0522  0.0349
 9123SOL    HW139002   2.348   0.957  15.109  0.1158 -0.8924  0.6141
 9123SOL    HW239003   2.425   0.951  15.233  0.2754  0.9352  0.6918
 9124SOL     OW39004   4.323   4.511   8.107 -0.3033 -0.8926  0.6903
 9124SOL    HW139005   4.325   4.511   8.011  1.5628  1.6558  0.7175
 9124SOL    HW239006   4.273   4.437   8.140  0.6123 -0.0356  3.9512
 9125SOL     OW39007   0.174   1.280   4.700 -0.5328 -0.1308 -0.2665
 9125SOL    HW139008   0.093   1.275   4.649  0.8286  0.3616 -2.4666
 9125SOL    HW239009   0.247   1.271   4.639  0.9750  0.4230  1.4528
 9126SOL     OW39010   3.497   4.221  15.548  0.1352  0.6195 -0.1665
 9126SOL    HW139011   3.486   4.134  15.508  1.6168  1.0831 -1.5704
 9126SOL    HW239012   3.408   4.257  15.552 -0.2929 -0.5958  1.3879
 9127SOL     OW39013   1.293   0.296  16.603  0.0428 -0.3282 -0.2144
 9127SOL    HW139014   1.242   0.338  16.672  0.3049  0.6508 -0.6202
 9127SOL    HW239015   1.367   0.356  16.611 -0.5426  0.1199  1.6281
 9128SOL     OW39016   3.697   1.947   9.134 -0.2032  0.5421  0.1266
 9128SOL    HW139017   3.769   1.925   9.194 -0.8384  0.7125  0.9448
 9128SOL    HW239018   3.681   2.041   9.133  0.9273  0.7252 -1.2113
 9129SOL     OW39019   3.310   0.686   8.616  0.6101 -0.3696  0.3040
 9129SOL    HW139020   3.351   0.769   8.641 -0.4549  0.6431 -1.3906
 9129SOL    HW239021   3.383   0.638   8.577  0.3197  1.3675 -2.3727
 9130SOL     OW39022   4.001   0.996   9.090 -0.1063  0.3895  0.3048
 9130SOL    HW139023   3.979   1.002   9.184  0.1956 -0.6172  0.4332
 9130SOL    HW239024   4.096   1.004   9.080 -0.2766  3.2672  0.9025
 9131SOL     OW39025   1.100   2.929   1.383  0.0814  0.5555  0.5106
 9131SOL    HW139026   1.081   2.954   1.473 -1.5715 -0.9233  0.5608
 9131SOL    HW239027   1.130   3.012   1.346 -0.8886  1.4904  1.8335
 9132SOL     OW39028   2.995   2.164  13.387 -0.5386 -0.5182  0.3935
 9132SOL    HW139029   3.027   2.114  13.313  1.1709  0.9930  0.1058
 9132SOL    HW239030   3.009   2.256  13.366  1.9243 -1.4073 -1.8028
 9133SOL     OW39031   0.741   0.893   7.082 -0.2455 -0.0281 -0.2605
 9133SOL    HW139032   0.729   0.833   7.008 -1.4190  0.5364 -0.5373
 9133SOL    HW239033   0.681   0.846   7.141 -1.7472  3.6494  1.1172
 9134SOL     OW39034   1.675   3.980  12.803 -0.4398 -0.4165  0.2632
 9134SOL    HW139035   1.748   4.041  12.794 -0.9644 -0.1721 -2.2242
 9134SOL    HW239036   1.602   4.035  12.832  1.2695  0.9579  1.9791
 9135SOL     OW39037   1.053   2.345  13.088  0.3391 -0.5534  0.1871
 9135SOL    HW139038   1.144   2.371  13.101  0.6623 -0.6695 -1.8314
 9135SOL    HW239039   1.005   2.371  13.167 -1.0671 -1.3167 -0.4182
 9136SOL     OW39040   2.200   3.051   4.246 -0.4225 -0.0237  0.0841
 9136SOL    HW139041   2.151   2.975   4.213 -2.0942 -0.0095  2.5263
 9136SOL    HW239042   2.289   3.019   4.231 -1.1496 -1.4505 -1.2709
 9137SOL     OW39043   2.074   1.628   6.545 -0.1452  0.0089 -0.2046
 9137SOL    HW139044   1.990   1.584   6.558  0.2563 -0.9221 -0.7853
 9137SOL    HW239045   2.120   1.566   6.488  2.0749  0.4468  1.1455
 9138SOL     OW39046   2.978   3.359   8.884 -0.2879 -0.1545  0.3447
 9138SOL    HW139047   2.933   3.274   8.887  1.2768 -1.0695 -2.0545
 9138SOL    HW239048   2.918   3.426   8.917  0.7948 -0.0312  2.0945
 9139SOL     OW39049   4.387   4.546   3.352 -0.1168 -0.1165  0.1647
 9139SOL    HW139050   4.426   4.459   3.341 -0.0750 -0.4482  2.7561
 9139SOL    HW239051   4.303   4.540   3.307 -0.2289 -1.4423  0.5323
 9140SOL     OW39052   4.509   2.363   7.014 -0.0425 -0.1876  0.5610
 9140SOL    HW139053   4.491   2.445   7.060 -1.3687 -0.1609 -0.0031
 9140SOL    HW239054   4.425   2.356   6.970  1.0258 -0.8544 -1.3979
 9141SOL     OW39055   1.773   3.119   4.021 -0.1263 -0.2986  0.5132
 9141SOL    HW139056   1.682   3.110   4.047  0.5640  0.7019  3.2112
 9141SOL    HW239057   1.771   3.068   3.940  3.3116  0.0367  0.2169
 9142SOL     OW39058   1.855   0.688   7.428  0.0016  0.2998  0.4947
 9142SOL    HW139059   1.807   0.632   7.489 -2.2138  0.6393 -0.9788
 9142SOL    HW239060   1.792   0.749   7.390  0.3700 -0.4680 -1.3359
 9143SOL     OW39061   1.568   1.997   2.793 -0.2423  0.1749  0.1551
 9143SOL    HW139062   1.486   1.957   2.766  0.4503 -0.6176 -0.7639
 9143SOL    HW239063   1.541   2.067   2.852  0.9693  1.6417 -1.0588
 9144SOL     OW39064   0.670   0.910   5.704 -0.2050 -0.0361  0.0150
 9144SOL    HW139065   0.718   0.993   5.696 -0.3423 -0.0905 -1.5130
 9144SOL    HW239066   0.628   0.919   5.789  2.4412  2.0202  1.1408
 9145SOL     OW39067   4.268   1.031   3.083  0.5267  0.0592 -0.5341
 9145SOL    HW139068   4.292   0.939   3.079  0.6251  0.0720 -0.2550
 9145SOL    HW239069   4.307   1.049   3.169  0.1411 -1.1473 -0.1085
 9146SOL     OW39070   3.154   1.932   2.178  0.3325  0.2437  0.5322
 9146SOL    HW139071   3.115   1.953   2.093  1.5098 -0.4520 -0.1769
 9146SOL    HW239072   3.241   1.913   2.142 -0.0846  0.0273 -0.3769
 9147SOL     OW39073   3.322   2.693   2.949 -0.5768 -0.5877 -0.1672
 9147SOL    HW139074   3.347   2.759   3.012  1.2877  0.0942 -1.6236
 9147SOL    HW239075   3.231   2.681   2.978 -0.2752  0.0996  1.0474
 9148SOL     OW39076   0.416   3.809   6.381  0.4976 -0.5478  0.7720
 9148SOL    HW139077   0.321   3.812   6.371  0.7385 -2.3511 -2.0182
 9148SOL    HW239078   0.451   3.892   6.347  0.2264 -0.4833  0.6516
 9149SOL     OW39079   3.534   2.581   7.494  0.1767  0.0269  0.2252
 9149SOL    HW139080   3.509   2.549   7.581  1.2964  2.6483  1.5239
 9149SOL    HW239081   3.486   2.531   7.428 -1.4415  0.4035  1.1171
 9150SOL     OW39082   3.129   3.677   3.541  0.4361 -0.5182  0.4914
 9150SOL    HW139083   3.206   3.670   3.484  0.3904  0.0874  0.3508
 9150SOL    HW239084   3.164   3.672   3.630  1.3148 -0.3451  0.1574
 9151SOL     OW39085   3.492   0.960  13.806  0.2194  0.1317  0.4012
 9151SOL    HW139086   3.563   0.929  13.751 -0.2983 -0.8741  0.2966
 9151SOL    HW239087   3.473   0.884  13.861  3.6217 -0.4567  0.7057
 9152SOL     OW39088   0.318   1.290   5.059 -0.2085 -0.0378 -0.6482
 9152SOL    HW139089   0.299   1.199   5.083 -0.5528 -0.1533 -1.3443
 9152SOL    HW239090   0.404   1.278   5.019 -0.1529  1.1787 -0.8772
 9153SOL     OW39091   2.682   1.973   8.486 -0.3328 -0.1355 -0.5988
 9153SOL    HW139092   2.615   2.017   8.433  0.0442  0.0165 -0.9546
 9153SOL    HW239093   2.645   1.887   8.503 -3.6192  1.7304  1.5260
 9154SOL     OW39094   4.615   4.171   4.736 -0.6340  0.3623  0.5094
 9154SOL    HW139095   4.575   4.092   4.700  1.4452  0.1812 -1.4244
 9154SOL    HW239096   4.686   4.200   4.679 -0.8571  0.7285  0.4142
 9155SOL     OW39097   3.080   1.997   9.259 -0.2578  0.0894 -0.2288
 9155SOL    HW139098   2.988   2.024   9.265  0.2555  1.5858  1.2504
 9155SOL    HW239099   3.101   1.989   9.352 -0.9839  1.5929  0.0755
 9156SOL     OW39100   4.275   3.901   1.201  0.8630 -0.0137  0.2895
 9156SOL    HW139101   4.260   3.829   1.261  0.8060  1.7919  2.4562
 9156SOL    HW239102   4.339   3.859   1.144  0.6629 -0.7224  0.5978
 9157SOL     OW39103   4.322   0.359   7.997 -0.0009  1.1221 -0.0258
 9157SOL    HW139104   4.414   0.340   8.020 -0.3163  1.4870  1.5239
 9157SOL    HW239105   4.282   0.322   8.076 -0.7107 -0.5523 -1.1687
 9158SOL     OW39106   0.104   0.221  10.165 -0.3047 -0.1298  0.2048
 9158SOL    HW139107   0.035   0.202  10.229  2.2447 -1.8506  2.4109
 9158SOL    HW239108   0.086   0.160  10.093 -1.6722  0.7594 -0.2267
 9159SOL     OW39109   3.641   0.815   7.698 -0.1423 -0.2134  0.2785
 9159SOL    HW139110   3.628   0.733   7.747  0.6345 -0.3640  0.2292
 9159SOL    HW239111   3.582   0.817   7.623 -0.4524  1.2424  0.5626
 9160SOL     OW39112   0.495   1.481   6.265 -0.1666  0.5171 -0.2779
 9160SOL    HW139113   0.535   1.557   6.223  1.0668 -0.0683 -0.1668
 9160SOL    HW239114   0.481   1.516   6.353  2.9093 -0.9565  0.7937
 9161SOL     OW39115   3.289   4.021   5.029 -0.6737  0.8281 -0.1474
 9161SOL    HW139116   3.327   3.961   5.093 -1.2062  1.6717  0.9461
 9161SOL    HW239117   3.268   4.086   5.096  1.0235  2.3014 -1.0643
 9162SOL     OW39118   1.190   1.106   9.580 -0.1846  0.1681 -0.2024
 9162SOL    HW139119   1.205   1.020   9.617  0.8546  0.5622  0.3081
 9162SOL    HW239120   1.176   1.170   9.651  0.2396 -0.7038  0.6600
 9163SOL     OW39121   2.682   0.860   1.789 -0.1620  0.5494 -0.2752
 9163SOL    HW139122   2.657   0.800   1.860 -0.8715  0.1499 -0.8659
 9163SOL    HW239123   2.777   0.861   1.801  0.0884 -2.2694 -2.0991
 9164SOL     OW39124   3.503   0.970  17.672  0.4597 -0.5453 -0.0054
 9164SOL    HW139125   3.585   0.920  17.677  0.0208 -0.9508  2.9269
 9164SOL    HW239126   3.477   0.976   0.018 -0.2140  2.0627 -0.3474
 9165SOL     OW39127   2.909   1.995   2.575  0.0116  0.1851 -0.0620
 9165SOL    HW139128   2.885   2.016   2.485  1.1790 -1.7170 -0.8152
 9165SOL    HW239129   2.998   2.028   2.568  0.2399 -0.3276  0.4312
 9166SOL     OW39130   2.959   3.815   0.443  0.4761  0.3753  0.2532
 9166SOL    HW139131   2.981   3.864   0.364  0.0818  0.3994  0.1603
 9166SOL    HW239132   2.867   3.835   0.460  0.5553  1.7564 -0.9065
 9167SOL     OW39133   1.547   2.026   7.284  0.5227  0.2634 -0.0426
 9167SOL    HW139134   1.610   2.098   7.282  1.1227 -0.3523 -2.5298
 9167SOL    HW239135   1.462   2.067   7.268  0.4595  0.4095  0.6384
 9168SOL     OW39136   0.218   2.255   6.117 -0.1864 -0.1388 -0.1086
 9168SOL    HW139137   0.171   2.181   6.080 -0.1482  0.8796 -2.1974
 9168SOL    HW239138   0.224   2.222   6.206  2.3258  0.0510 -0.1984
 9169SOL     OW39139   1.157   3.269   6.434 -0.0188  0.1653  0.0412
 9169SOL    HW139140   1.087   3.241   6.375 -0.2335  0.4006  0.1821
 9169SOL    HW239141   1.120   3.349   6.472  0.0432 -0.0281  0.5130
 9170SOL     OW39142   1.849   0.190   4.496 -0.0201  0.1817  0.1001
 9170SOL    HW139143   1.922   0.133   4.473  1.9262  2.6669  0.0296
 9170SOL    HW239144   1.830   0.228   4.410 -0.0375 -1.7773 -0.7400
 9171SOL     OW39145   3.788   0.646   5.327 -0.5167 -0.5229  0.1414
 9171SOL    HW139146   3.771   0.649   5.233  3.0264  0.4423 -0.4914
 9171SOL    HW239147   3.696   0.644   5.350 -1.1937  0.8510 -2.4020
 9172SOL     OW39148   0.431   0.836   8.450 -0.2567  0.6165 -0.2309
 9172SOL    HW139149   0.396   0.919   8.418  1.6827  1.8324  0.7940
 9172SOL    HW239150   0.391   0.841   8.537 -0.7723 -0.9405 -0.3705
 9173SOL     OW39151   3.234   4.720  12.425 -0.5908 -0.0161  0.3087
 9173SOL    HW139152   3.234   0.018  12.335  1.2349  1.7527  0.9978
 9173SOL    HW239153   3.309   0.025  12.468  1.7245 -0.3073 -3.3604
 9174SOL     OW39154   4.289   4.709   8.318  0.0917 -0.1795  0.3948
 9174SOL    HW139155   4.285   4.648   8.245 -1.2754  1.0064 -0.5096
 9174SOL    HW239156   4.255   4.653   8.388  0.6603 -0.7608  0.2059
 9175SOL     OW39157   0.103   2.559   5.891 -0.5912  0.7476 -0.2083
 9175SOL    HW139158   0.108   2.542   5.985 -0.1650 -0.8450 -0.5290
 9175SOL    HW239159   0.014   2.592   5.877  0.0715  1.4059 -2.9091
 9176SOL     OW39160   4.387   0.002  15.271  0.5016 -0.0988  0.1535
 9176SOL    HW139161   4.431   4.715  15.352 -0.7357 -2.5523  0.1324
 9176SOL    HW239162   4.376   4.652  15.230  2.2008 -0.6309  0.8675
 9177SOL     OW39163   2.450   3.630   9.218 -0.1332 -0.0687  0.0784
 9177SOL    HW139164   2.457   3.656   9.310  3.6744 -0.7591 -0.0132
 9177SOL    HW239165   2.442   3.717   9.180  0.2421  0.4895  1.2621
 9178SOL     OW39166   1.625   3.608   1.450  0.0216  0.2347  0.1616
 9178SOL    HW139167   1.607   3.532   1.394  1.6192 -0.8659  1.1380
 9178SOL    HW239168   1.590   3.579   1.534 -2.0076  0.8445 -0.4851
 9179SOL     OW39169   2.678   1.776   3.169  0.2154 -0.3924 -0.3234
 9179SOL    HW139170   2.593   1.743   3.138 -1.5356  1.7042  2.3048
 9179SOL    HW239171   2.723   1.696   3.198 -2.6159 -1.8567  0.0706
 9180SOL     OW39172   1.300   0.666   6.523 -0.4495  0.2447 -1.0719
 9180SOL    HW139173   1.308   0.694   6.614 -2.8565 -2.0831 -0.1462
 9180SOL    HW239174   1.205   0.667   6.511 -0.4910 -1.2528 -0.8823
 9181SOL     OW39175   3.786   3.765   0.870 -0.0012  0.0240 -0.8179
 9181SOL    HW139176   3.751   3.718   0.794  0.6306 -0.3628 -0.8723
 9181SOL    HW239177   3.780   3.855   0.836  0.9809 -0.2029 -1.6029
 9182SOL     OW39178   4.311   0.872   8.461  0.5954 -0.4717 -0.1429
 9182SOL    HW139179   4.269   0.786   8.463  3.1098 -1.6632  1.4634
 9182SOL    HW239180   4.313   0.889   8.367  2.4981 -0.3667 -0.0673
 9183SOL     OW39181   0.449   3.434  10.265 -0.1737 -0.1635 -0.2832
 9183SOL    HW139182   0.503   3.488  10.323  2.8904 -0.2852 -3.0314
 9183SOL    HW239183   0.440   3.485  10.184 -1.1074 -0.0996 -0.1394
 9184SOL     OW39184   4.701   2.792  16.886 -0.3335 -0.3203  0.1742
 9184SOL    HW139185   0.037   2.776  16.825  0.9521  2.6651  0.9179
 9184SOL    HW239186   4.697   2.718  16.946 -2.1738  1.1498  1.8618
 9185SOL     OW39187   0.448   1.065   0.966  0.7288 -0.0378  0.7539
 9185SOL    HW139188   0.405   1.139   1.009  1.9931  1.3044 -0.2822
 9185SOL    HW239189   0.381   0.998   0.977  1.0439 -1.0842 -3.5707
 9186SOL     OW39190   1.412   4.449  13.679  0.1738 -0.5257  0.5386
 9186SOL    HW139191   1.384   4.396  13.754 -1.3874 -0.6451 -0.1294
 9186SOL    HW239192   1.501   4.420  13.660  0.7025  1.0358  0.7035
 9187SOL     OW39193   0.657   1.762   7.391 -0.6262 -0.1247 -0.0079
 9187SOL    HW139194   0.598   1.783   7.319  0.1905  2.6570  0.1187
 9187SOL    HW239195   0.732   1.730   7.341  0.0920  1.7721 -0.1483
 9188SOL     OW39196   3.654   2.009   6.156 -0.2995 -0.0692 -0.8990
 9188SOL    HW139197   3.704   2.081   6.195 -0.8390 -1.4110  2.2578
 9188SOL    HW239198   3.567   2.031   6.189  0.3068 -1.0164  1.3194
 9189SOL     OW39199   0.270   1.452  11.841  0.5248  0.2570  0.0538
 9189SOL    HW139200   0.272   1.471  11.934  0.2345  0.0853  0.0945
 9189SOL    HW239201   0.253   1.358  11.843  0.8341  0.2444  1.5316
 9190SOL     OW39202   1.817   0.708   9.459  0.2787  0.2116 -0.0860
 9190SOL    HW139203   1.741   0.745   9.504  0.8045 -0.1937  1.1559
 9190SOL    HW239204   1.785   0.699   9.370  2.4819 -0.7292 -0.7930
 9191SOL     OW39205   1.897   4.610   6.565 -0.1329 -0.3331  0.2124
 9191SOL    HW139206   1.813   4.621   6.521  0.9058 -2.2234 -2.2644
 9191SOL    HW239207   1.946   4.593   6.484 -0.3498  0.8072 -0.1560
 9192SOL     OW39208   4.091   1.828  13.232  0.1611  0.4566 -0.2075
 9192SOL    HW139209   4.112   1.761  13.297  1.1425 -0.9427 -1.9471
 9192SOL    HW239210   4.007   1.866  13.257  0.7890  2.3637 -0.9523
 9193SOL     OW39211   0.861   0.063   9.049  0.1720  0.4391  0.6048
 9193SOL    HW139212   0.851   0.100   8.961 -0.3494 -2.1814 -0.4241
 9193SOL    HW239213   0.946   0.105   9.060  0.7972 -0.5368 -0.5356
 9194SOL     OW39214   2.050   0.648   3.188  0.0221  0.0903 -0.2434
 9194SOL    HW139215   2.002   0.700   3.252  1.9058  0.0908  1.1595
 9194SOL    HW239216   2.115   0.708   3.153 -1.6444  0.7567 -2.2278
 9195SOL     OW39217   0.382   1.774   6.551 -0.3706  0.0733 -0.4452
 9195SOL    HW139218   0.292   1.800   6.528 -0.6704  1.5039  2.3931
 9195SOL    HW239219   0.431   1.856   6.546 -1.3855  0.6954 -0.2735
 9196SOL     OW39220   0.814   3.021   6.537  0.0684 -0.4198 -0.6256
 9196SOL    HW139221   0.719   3.008   6.538  0.0901 -0.3659  1.7647
 9196SOL    HW239222   0.823   3.104   6.491 -1.0669  0.2274  0.3429
 9197SOL     OW39223   0.619   0.232  14.360  0.0660  0.1792 -0.5577
 9197SOL    HW139224   0.642   0.309  14.307  0.9559  0.4091  0.1551
 9197SOL    HW239225   0.702   0.206  14.401  0.8062  2.2298 -0.7339
 9198SOL     OW39226   2.736   2.055  13.335  0.1844 -0.3111 -0.5149
 9198SOL    HW139227   2.780   2.133  13.368 -1.1419  1.1740 -2.3308
 9198SOL    HW239228   2.778   2.029  13.253 -0.3746 -2.9606  0.0109
 9199SOL     OW39229   1.910   3.243   9.099 -0.3287 -0.6410 -0.7999
 9199SOL    HW139230   1.927   3.326   9.144 -0.5956 -0.0706 -1.7429
 9199SOL    HW239231   1.825   3.268   9.062 -0.3387 -1.2042 -1.1400
 9200SOL     OW39232   1.115   2.845   7.931  0.0366  0.1944  0.5491
 9200SOL    HW139233   1.050   2.864   7.998  0.6299  0.0655  1.1594
 9200SOL    HW239234   1.076   2.886   7.854  1.3149 -1.7616 -1.1348
 9201SOL     OW39235   1.466   4.416   7.215  0.7766 -0.0213 -0.2164
 9201SOL    HW139236   1.452   4.464   7.134 -0.2245 -0.2873 -0.1975
 9201SOL    HW239237   1.382   4.427   7.259 -0.0748 -1.1132 -1.5498
 9202SOL     OW39238   1.239   3.900   7.271  0.0245 -0.6102 -0.3031
 9202SOL    HW139239   1.288   3.852   7.336  0.9667  1.2700  0.3732
 9202SOL    HW239240   1.152   3.871   7.300 -1.4125 -0.6597 -4.5936
 9203SOL     OW39241   2.944   0.939  16.402 -0.1637  0.1722 -0.3309
 9203SOL    HW139242   2.856   0.925  16.368 -1.2767  1.8604  1.8282
 9203SOL    HW239243   2.925   1.001  16.473 -0.3402  1.1078 -1.1878
 9204SOL     OW39244   1.266   0.965   3.984 -0.2834 -0.0972  0.1834
 9204SOL    HW139245   1.256   0.881   4.028 -1.5749  2.1797  4.2341
 9204SOL    HW239246   1.185   1.005   4.015 -0.6144  0.8406 -1.8796
 9205SOL     OW39247   0.665   1.990   8.463 -0.2093 -0.5644 -0.7611
 9205SOL    HW139248   0.661   2.013   8.370 -0.7737 -2.4207 -1.1999
 9205SOL    HW239249   0.689   1.897   8.462 -2.7053 -1.2124 -1.0464
 9206SOL     OW39250   3.332   0.516   8.850 -0.4193 -0.3054 -0.4352
 9206SOL    HW139251   3.310   0.432   8.809 -1.9861 -0.5678  0.9281
 9206SOL    HW239252   3.270   0.578   8.812 -0.2495 -0.8327 -1.5908
 9207SOL     OW39253   3.677   1.192   5.082  0.5314  0.3730  0.5930
 9207SOL    HW139254   3.660   1.157   4.994  0.8653  0.0861  0.6437
 9207SOL    HW239255   3.771   1.206   5.092  0.6912 -0.3218  0.0335
 9208SOL     OW39256   3.122   4.406   6.117  0.8011  0.4015  0.6262
 9208SOL    HW139257   3.185   4.357   6.064 -0.2696 -0.5944  0.2771
 9208SOL    HW239258   3.135   4.492   6.078  1.9864 -0.2183 -0.3449
 9209SOL     OW39259   3.214   1.689   2.311  0.3498 -0.2761 -0.1025
 9209SOL    HW139260   3.155   1.764   2.303 -2.0278 -2.3565 -2.0171
 9209SOL    HW239261   3.207   1.658   2.221 -0.4473  0.7505 -0.4002
 9210SOL     OW39262   0.969   1.490   2.587  0.1926 -0.0798 -0.0169
 9210SOL    HW139263   1.054   1.482   2.542  0.8325  1.9222  0.8311
 9210SOL    HW239264   0.950   1.397   2.584  1.9650 -0.4835  1.2736
 9211SOL     OW39265   2.487   2.526   0.390 -0.2258  0.3327  0.1376
 9211SOL    HW139266   2.502   2.470   0.314 -0.5640 -2.2322  1.9439
 9211SOL    HW239267   2.452   2.462   0.453  0.4789 -0.9645 -0.7695
 9212SOL     OW39268   3.649   2.549   0.935 -0.3187 -0.2653 -0.2188
 9212SOL    HW139269   3.589   2.549   0.860  2.2959 -0.5599 -2.3084
 9212SOL    HW239270   3.667   2.643   0.940 -2.3485  0.0466  0.9552
 9213SOL     OW39271   4.235   0.333  14.922  0.1733 -0.0237 -0.0815
 9213SOL    HW139272   4.324   0.301  14.909 -0.2342 -0.7720 -1.0145
 9213SOL    HW239273   4.202   0.270  14.986  1.1732  0.7606  1.2130
 9214SOL     OW39274   0.569   0.335  15.152 -0.2952 -0.4832 -0.0698
 9214SOL    HW139275   0.566   0.246  15.188  0.6098  0.0029  1.2039
 9214SOL    HW239276   0.613   0.372  15.229 -0.3378 -0.7526  0.0870
 9215SOL     OW39277   4.442   1.161   2.481  0.0728  0.7292 -0.1762
 9215SOL    HW139278   4.439   1.072   2.517  2.1806  1.0864  0.9014
 9215SOL    HW239279   4.355   1.188   2.511  1.0954  1.8651  1.7700
 9216SOL     OW39280   0.734   2.209   3.873  0.0873  0.0534  0.2707
 9216SOL    HW139281   0.715   2.218   3.779 -0.4719 -0.5117  0.3283
 9216SOL    HW239282   0.777   2.124   3.873  1.2843  0.6597 -2.1658
 9217SOL     OW39283   2.354   3.511  11.246 -0.2852 -0.4899  0.2638
 9217SOL    HW139284   2.356   3.426  11.290  0.5527  0.0167  1.2070
 9217SOL    HW239285   2.435   3.504  11.195 -2.0641 -0.6311 -2.5810
 9218SOL     OW39286   1.857   1.800  10.076 -0.5314 -0.5988  0.0088
 9218SOL    HW139287   1.778   1.805  10.023  0.2114 -1.9490 -1.2470
 9218SOL    HW239288   1.923   1.834  10.016  0.4948 -2.7808 -0.1330
 9219SOL     OW39289   2.875   4.587   0.687  0.2803  0.1341 -0.8893
 9219SOL    HW139290   2.890   4.580   0.781 -0.3205 -0.0832 -0.8134
 9219SOL    HW239291   2.929   4.659   0.654  3.2299 -2.2911 -1.3889
 9220SOL     OW39292   3.789   4.598   7.261 -0.7993  0.1384 -0.0230
 9220SOL    HW139293   3.697   4.591   7.284 -0.8449 -0.4965 -0.4011
 9220SOL    HW239294   3.816   4.509   7.236  1.4708  0.2241  2.0266
 9221SOL     OW39295   3.042   1.067  17.342  0.1389  0.4911  0.4089
 9221SOL    HW139296   3.082   1.089  17.426 -1.4676  5.0787 -0.0189
 9221SOL    HW239297   3.092   1.132  17.293 -0.1622 -0.8527 -1.6397
 9222SOL     OW39298   2.420   2.184  14.603 -0.1030 -0.0595 -0.0092
 9222SOL    HW139299   2.451   2.141  14.682  0.5517 -1.6835 -1.1641
 9222SOL    HW239300   2.496   2.239  14.585  0.5876 -0.8202  0.5833
 9223SOL     OW39301   0.955   3.435   6.078  0.0078 -0.6439  0.2996
 9223SOL    HW139302   1.023   3.369   6.073  0.3747 -0.4353  2.2000
 9223SOL    HW239303   0.975   3.490   6.003 -3.1721 -0.6970 -0.5896
 9224SOL     OW39304   1.300   4.167   7.507  0.0987 -0.5241  0.3015
 9224SOL    HW139305   1.363   4.107   7.548  0.7276 -0.6318 -0.8378
 9224SOL    HW239306   1.284   4.218   7.587 -0.2415  2.5927 -1.7588
 9225SOL     OW39307   0.444   0.323   2.520  0.3176 -0.3039 -0.0234
 9225SOL    HW139308   0.432   0.313   2.615  0.5871 -0.8021 -0.0467
 9225SOL    HW239309   0.433   0.232   2.496  2.1502 -0.9408  1.5423
 9226SOL     OW39310   0.619   1.283  13.905 -0.2487  0.0101  0.0554
 9226SOL    HW139311   0.615   1.373  13.936 -1.5399 -0.2324  0.5951
 9226SOL    HW239312   0.641   1.244  13.990  0.7437  2.5525  0.9614
 9227SOL     OW39313   1.986   2.195   7.749  0.4812  0.3758 -0.4048
 9227SOL    HW139314   2.020   2.224   7.834  1.0162  0.1699 -0.5565
 9227SOL    HW239315   2.034   2.252   7.690  0.6833  1.7722  1.0880
 9228SOL     OW39316   2.617   4.635   2.142 -0.0850 -0.7040  0.2713
 9228SOL    HW139317   2.573   4.708   2.186  0.8091  1.4095 -2.3348
 9228SOL    HW239318   2.702   4.673   2.119 -0.9082  0.6165 -0.6008
 9229SOL     OW39319   1.768   2.125   2.637 -0.6322 -0.0611 -0.4408
 9229SOL    HW139320   1.739   2.216   2.625 -1.7601 -0.2838  0.5686
 9229SOL    HW239321   1.727   2.106   2.721 -0.9067 -0.8133 -0.7532
 9230SOL     OW39322   0.275   0.613   9.110 -0.8964  0.4474  0.0880
 9230SOL    HW139323   0.304   0.583   9.196  1.3981  3.3344  0.2924
 9230SOL    HW239324   0.342   0.681   9.099  1.6647 -1.7193  2.3272
 9231SOL     OW39325   0.183   0.552  16.901  0.2559  0.0122  0.1116
 9231SOL    HW139326   0.139   0.561  16.985 -2.6483 -0.0040 -1.4086
 9231SOL    HW239327   0.210   0.640  16.874  0.5586  0.3778  1.6267
 9232SOL     OW39328   3.657   0.135   6.538  0.1339 -0.2194  0.1113
 9232SOL    HW139329   3.654   0.164   6.628 -1.6718 -0.4556  0.1312
 9232SOL    HW239330   3.562   0.126   6.534  0.1666 -0.4831 -0.1603
 9233SOL     OW39331   3.829   1.193   9.396  0.5251  0.0999 -0.2248
 9233SOL    HW139332   3.883   1.115   9.382  2.4752  1.1809  1.1445
 9233SOL    HW239333   3.781   1.189   9.314  2.1879 -0.4458 -1.1730
 9234SOL     OW39334   2.156   0.586   8.555  0.4150  0.3416  0.8446
 9234SOL    HW139335   2.113   0.565   8.472  2.1179 -0.3681  0.1498
 9234SOL    HW239336   2.103   0.530   8.611 -0.1716  0.2296  0.1697
 9235SOL     OW39337   1.870   0.279  12.441 -0.2998 -0.4198  0.3221
 9235SOL    HW139338   1.951   0.323  12.467 -2.7755  2.3864  3.1955
 9235SOL    HW239339   1.865   0.324  12.357  1.6809  0.9560  0.9315
 9236SOL     OW39340   2.839   0.018  10.475  0.3105  0.4313  0.1588
 9236SOL    HW139341   2.920   4.706  10.489 -0.6568 -1.1450  0.2475
 9236SOL    HW239342   2.829   0.049  10.565 -0.3728 -0.0816  0.2544
 9237SOL     OW39343   0.595   0.384  14.851 -0.1303  0.7185 -0.0936
 9237SOL    HW139344   0.580   0.340  14.936 -2.7527  0.3203 -0.7461
 9237SOL    HW239345   0.575   0.473  14.881 -1.0031  0.5348 -0.1070
 9238SOL     OW39346   1.146   4.690   9.248 -0.2049 -0.2063 -0.7471
 9238SOL    HW139347   1.167   4.597   9.248 -2.0223 -0.6085 -0.1658
 9238SOL    HW239348   1.221   4.719   9.196 -1.4012  1.2926 -1.6268
 9239SOL     OW39349   1.751   2.021   2.390 -0.2135  0.2255  0.2243
 9239SOL    HW139350   1.708   2.106   2.380 -1.7405 -0.6970 -1.1326
 9239SOL    HW239351   1.771   2.024   2.483  0.9485 -1.5620  0.0156
 9240SOL     OW39352   1.354   3.019  16.895  0.2155  0.1172 -0.2142
 9240SOL    HW139353   1.289   2.952  16.875  2.6487 -2.0771 -0.6350
 9240SOL    HW239354   1.357   3.074  16.816 -1.0406  1.3369  0.5758
 9241SOL     OW39355   0.454   3.813  14.635 -0.0528  0.0572  0.0132
 9241SOL    HW139356   0.439   3.854  14.721 -3.3196 -0.3105 -0.3674
 9241SOL    HW239357   0.467   3.725  14.671  2.0177  0.0281 -0.8458
 9242SOL     OW39358   4.498   0.496   3.253  0.3737 -0.0939  0.3854
 9242SOL    HW139359   4.430   0.447   3.301  1.8195 -1.4662  1.0324
 9242SOL    HW239360   4.501   0.580   3.298 -2.8406  0.9854 -1.4171
 9243SOL     OW39361   4.182   0.631  17.596 -0.0987 -0.1037 -0.1823
 9243SOL    HW139362   4.108   0.691  17.594  0.5718  0.7226 -0.2180
 9243SOL    HW239363   4.163   0.591  17.681  2.1465 -1.5699 -0.3566
 9244SOL     OW39364   1.276   2.254  15.025  0.5340 -0.1996 -0.1275
 9244SOL    HW139365   1.313   2.186  15.081 -0.7106 -1.1449 -0.4337
 9244SOL    HW239366   1.345   2.252  14.958  1.1438  1.7125  0.4563
 9245SOL     OW39367   2.911   0.083   9.064 -0.5701 -0.6269  0.9552
 9245SOL    HW139368   2.864   0.068   9.145 -0.2774 -0.2820  1.1909
 9245SOL    HW239369   3.001   0.100   9.094 -0.7326 -0.5384  1.3824
 9246SOL     OW39370   4.736   3.904   8.477  0.0142  0.1906  0.2651
 9246SOL    HW139371   0.021   3.956   8.400  0.4895 -0.2259  0.1195
 9246SOL    HW239372   0.021   3.978   8.534  0.7901  0.8339 -0.8845
 9247SOL     OW39373   4.021   0.935   8.111  0.1972 -0.2256  0.0751
 9247SOL    HW139374   4.103   0.941   8.063 -0.4191 -0.0652 -0.9553
 9247SOL    HW239375   3.960   0.900   8.045 -0.4345  0.9878  0.0285
 9248SOL     OW39376   1.992   0.994   7.429 -0.4408 -0.0869  0.0916
 9248SOL    HW139377   2.066   0.984   7.368  0.0737  2.2574  0.3394
 9248SOL    HW239378   2.007   1.083   7.461 -1.1268 -0.5051  1.5999
 9249SOL     OW39379   0.172   1.324   7.834  0.2785  0.1173 -0.1463
 9249SOL    HW139380   0.217   1.257   7.886 -0.3296  0.2811  0.5881
 9249SOL    HW239381   0.140   1.385   7.900  0.2630 -0.0704  0.0231
 9250SOL     OW39382   3.686   2.656   3.594 -0.1486  0.4493 -0.2798
 9250SOL    HW139383   3.778   2.638   3.611 -0.3212  2.3406  2.6830
 9250SOL    HW239384   3.644   2.574   3.620  0.0542  0.9824  1.7428
 9251SOL     OW39385   0.226   1.114   9.749 -0.0845 -0.1227 -0.0728
 9251SOL    HW139386   0.311   1.121   9.706  0.1792 -1.1508  0.2833
 9251SOL    HW239387   0.227   1.031   9.796 -0.0966  0.3310  0.7201
 9252SOL     OW39388   1.204   2.287   3.870  0.1678 -0.2475 -0.0668
 9252SOL    HW139389   1.156   2.255   3.946 -0.2716  0.7713  0.0788
 9252SOL    HW239390   1.266   2.220   3.842 -0.3615  0.0759 -2.0112
 9253SOL     OW39391   3.772   3.508   6.314 -0.1528 -0.5177  0.0906
 9253SOL    HW139392   3.810   3.509   6.402 -3.2235  0.2150  1.3753
 9253SOL    HW239393   3.739   3.596   6.294  2.2946  0.0913 -1.3770
 9254SOL     OW39394   4.173   2.030   1.287 -0.2540  0.2815  0.2874
 9254SOL    HW139395   4.105   2.086   1.249  0.9280  0.2074 -1.9684
 9254SOL    HW239396   4.201   1.983   1.209 -2.5091  2.4994 -1.8666
 9255SOL     OW39397   3.886   3.124   9.502 -0.2951  0.1076  0.5984
 9255SOL    HW139398   3.973   3.141   9.466  0.2591 -0.7268  1.5344
 9255SOL    HW239399   3.842   3.209   9.497  0.2177  0.2230 -1.8875
 9256SOL     OW39400   3.491   2.477   7.756 -0.4804  0.4354  0.2738
 9256SOL    HW139401   3.467   2.387   7.732 -0.6747  0.5240  0.1374
 9256SOL    HW239402   3.501   2.474   7.852 -2.5662  2.1780  0.5351
 9257SOL     OW39403   3.339   2.648   1.937 -0.4502  0.4468 -0.1828
 9257SOL    HW139404   3.324   2.669   2.030  0.8294 -1.5587  0.4793
 9257SOL    HW239405   3.259   2.597   1.925  0.7488 -2.4122  3.7149
 9258SOL     OW39406   1.845   3.765   7.225  0.2926 -0.2541  0.8102
 9258SOL    HW139407   1.810   3.691   7.274 -3.6064  1.5894  0.8124
 9258SOL    HW239408   1.790   3.831   7.268 -1.1729 -0.4407 -0.8121
 9259SOL     OW39409   0.288   2.197   7.702  0.5923 -0.3790  0.1627
 9259SOL    HW139410   0.230   2.146   7.646 -0.3283  0.1007  0.6702
 9259SOL    HW239411   0.343   2.131   7.743 -2.9191 -1.2260  3.5415
 9260SOL     OW39412   2.126   0.147   9.763  0.4647 -0.1188  0.2517
 9260SOL    HW139413   2.032   0.162   9.769 -0.1883 -4.9030  1.7215
 9260SOL    HW239414   2.145   0.156   9.856  0.4050 -0.6868  0.3210
 9261SOL     OW39415   0.214   3.338   9.441  0.2353  0.1407 -0.6064
 9261SOL    HW139416   0.144   3.342   9.376  0.8686  1.5997 -1.1904
 9261SOL    HW239417   0.166   3.317   9.521  1.5770 -2.1017 -0.3888
 9262SOL     OW39418   3.446   1.095   3.072 -0.0403 -0.8868 -0.5563
 9262SOL    HW139419   3.453   1.086   2.977 -0.4213  3.3909 -0.9997
 9262SOL    HW239420   3.517   1.047   3.114  1.0727  1.0531 -0.2319
 9263SOL     OW39421   3.600   3.186   2.762  0.2258  0.3214 -0.6235
 9263SOL    HW139422   3.528   3.241   2.729 -1.6112 -1.9282 -0.4058
 9263SOL    HW239423   3.594   3.223   2.850  0.3463 -1.6442  0.2204
 9264SOL     OW39424   3.009   1.655   4.715  0.2924  0.0811  0.4683
 9264SOL    HW139425   3.084   1.623   4.664  0.8620 -0.6149  1.7523
 9264SOL    HW239426   2.979   1.718   4.649 -0.3536 -0.7567 -0.0424
 9265SOL     OW39427   2.187   0.357   4.483  0.4656  0.4768 -0.5749
 9265SOL    HW139428   2.260   0.306   4.516  0.9461  1.6998  0.2625
 9265SOL    HW239429   2.210   0.357   4.390 -2.7732 -2.7053 -1.3671
 9266SOL     OW39430   2.907   2.739   3.847  0.2106 -0.0773  0.2829
 9266SOL    HW139431   2.910   2.644   3.842 -0.9117 -0.0952 -0.1727
 9266SOL    HW239432   2.876   2.767   3.934  2.9196 -1.3442  1.6604
 9267SOL     OW39433   2.476   3.060  10.318  0.3529  0.0603  0.2744
 9267SOL    HW139434   2.432   3.119  10.378  0.3169  0.8031 -0.4849
 9267SOL    HW239435   2.557   3.038  10.365  1.3484 -2.2554 -2.4928
 9268SOL     OW39436   0.856   4.570   7.875 -0.1921  0.1117  0.4025
 9268SOL    HW139437   0.782   4.621   7.908 -0.1753  0.9337 -0.8160
 9268SOL    HW239438   0.925   4.616   7.922  2.1516 -2.0843 -0.9396
 9269SOL     OW39439   2.677   3.526   4.730 -0.3407 -0.2096  0.0440
 9269SOL    HW139440   2.584   3.542   4.747  0.1580  0.2624  2.2762
 9269SOL    HW239441   2.675   3.433   4.710 -2.3274 -0.3269  0.7941
 9270SOL     OW39442   4.175   3.062   8.369  0.0724  0.2019  0.0377
 9270SOL    HW139443   4.175   3.138   8.310  0.1182  0.2722  0.1294
 9270SOL    HW239444   4.256   3.016   8.351 -0.5026 -0.1421 -1.7300
 9271SOL     OW39445   3.700   1.532   6.563 -0.0497  0.4197  0.0001
 9271SOL    HW139446   3.698   1.622   6.597 -0.0222  0.0876  0.8792
 9271SOL    HW239447   3.627   1.527   6.502  0.4839 -0.7195 -0.5244
 9272SOL     OW39448   3.506   3.484   3.923 -0.2602  0.1795  0.1610
 9272SOL    HW139449   3.571   3.516   3.985 -0.8188  2.1769 -0.2897
 9272SOL    HW239450   3.560   3.418   3.879 -0.8064 -1.4856  1.9860
 9273SOL     OW39451   4.615   1.011   9.369  0.4509  0.0347  0.4088
 9273SOL    HW139452   4.667   0.985   9.445 -0.8295  0.2269  1.3497
 9273SOL    HW239453   4.641   1.103   9.366  2.2646 -0.5583 -2.1044
 9274SOL     OW39454   3.131   3.037   2.725  0.1437  0.0503 -0.6051
 9274SOL    HW139455   3.160   3.028   2.816 -2.6215  2.6223  0.5269
 9274SOL    HW239456   3.060   3.099   2.740  1.5956  2.0905 -2.0479
 9275SOL     OW39457   3.814   2.253   3.600  0.5535  0.2137  0.7483
 9275SOL    HW139458   3.772   2.339   3.599  1.0780  0.4740  0.5548
 9275SOL    HW239459   3.891   2.267   3.655  1.5215 -0.2890 -0.4763
 9276SOL     OW39460   0.837   3.466   1.098  0.5683  0.2528 -0.0771
 9276SOL    HW139461   0.913   3.420   1.062  1.3938  0.1650  1.7861
 9276SOL    HW239462   0.768   3.404   1.076  1.0612 -0.7688  1.2278
 9277SOL     OW39463   1.646   3.721   5.746 -0.2116  0.4497  0.0261
 9277SOL    HW139464   1.671   3.805   5.708 -0.1317  0.3361 -0.1746
 9277SOL    HW239465   1.554   3.743   5.758 -0.1301  0.0058  1.4127
 9278SOL     OW39466   0.268   1.863  13.538  0.5722  0.0274 -0.3209
 9278SOL    HW139467   0.218   1.812  13.474  1.9549 -0.1758 -1.2468
 9278SOL    HW239468   0.241   1.826  13.621  0.5793  1.0474  0.1284
 9279SOL     OW39469   0.297   3.120   5.456  0.2186  0.5258  0.2671
 9279SOL    HW139470   0.278   3.130   5.550  1.6709  0.7265  0.5456
 9279SOL    HW239471   0.210   3.095   5.425 -0.1846  1.2632  0.7923
 9280SOL     OW39472   3.159   0.038   8.023  0.4150 -0.4395 -0.1683
 9280SOL    HW139473   3.134   4.691   7.982 -1.4115 -0.4213  0.9422
 9280SOL    HW239474   3.205   0.086   7.954  1.1745 -0.7284  0.1348
 9281SOL     OW39475   0.278   1.895  10.875 -0.4613 -0.0942 -0.4765
 9281SOL    HW139476   0.302   1.904  10.783 -1.8913  1.2568 -0.7007
 9281SOL    HW239477   0.305   1.977  10.917  0.2034  0.0208 -1.1434
 9282SOL     OW39478   0.869   0.868   6.399 -1.0154 -0.4537  0.1842
 9282SOL    HW139479   0.943   0.838   6.346 -2.1341 -4.6930  1.0657
 9282SOL    HW239480   0.888   0.830   6.485 -1.7963 -2.0257 -0.3473
 9283SOL     OW39481   1.554   4.273  12.556 -0.5133 -0.0075  0.0652
 9283SOL    HW139482   1.587   4.327  12.628 -0.9921  1.0535 -0.5013
 9283SOL    HW239483   1.468   4.313  12.546 -0.5595 -0.0458  0.3149
 9284SOL     OW39484   4.322   1.176  11.406 -0.0944 -0.1209  0.7428
 9284SOL    HW139485   4.394   1.199  11.465  1.6617 -0.9865 -1.0232
 9284SOL    HW239486   4.357   1.088  11.390  0.3839  0.2775 -0.4384
 9285SOL     OW39487   4.536   3.527   3.515 -0.2136 -0.3322  0.3861
 9285SOL    HW139488   4.487   3.451   3.484  0.7711 -1.9238  2.7374
 9285SOL    HW239489   4.576   3.549   3.431 -1.1804 -1.9732 -0.5085
 9286SOL     OW39490   0.801   4.035   1.729  0.3981 -0.0753  0.6796
 9286SOL    HW139491   0.780   3.941   1.724  1.1264 -0.0114 -3.3688
 9286SOL    HW239492   0.786   4.064   1.819  0.0286 -1.7497  1.1601
 9287SOL     OW39493   4.365   4.491  15.166 -0.1583 -0.3823 -0.6219
 9287SOL    HW139494   4.374   4.409  15.214 -0.3044 -0.1360 -0.1747
 9287SOL    HW239495   4.340   4.458  15.079  0.4124  1.6745 -1.5797
 9288SOL     OW39496   4.511   2.769   4.217  0.3381 -0.2983 -0.2721
 9288SOL    HW139497   4.468   2.818   4.287 -0.0558  0.2643 -0.9041
 9288SOL    HW239498   4.556   2.700   4.266 -0.6156 -0.7234  0.0237
 9289SOL     OW39499   4.683   0.671   6.289 -0.0153 -0.3782 -0.3176
 9289SOL    HW139500   4.690   0.741   6.354  1.7011 -0.8268 -0.0294
 9289SOL    HW239501   4.594   0.644   6.311  0.7208 -0.2757  2.7173
 9290SOL     OW39502   2.191   2.701   7.837 -0.0103  0.6548 -0.7758
 9290SOL    HW139503   2.276   2.699   7.792 -0.1775 -2.1614 -0.9953
 9290SOL    HW239504   2.207   2.627   7.897 -0.6160  2.0126  1.0518
 9291SOL     OW39505   3.447   0.080  16.973  0.4884  0.1853  0.0090
 9291SOL    HW139506   3.441   4.730  16.933 -0.4164  0.0868  0.3647
 9291SOL    HW239507   3.506   0.064  17.047 -1.3419 -1.5985  1.0619
 9292SOL     OW39508   0.773   2.464  11.372  0.3672 -0.2663  0.4233
 9292SOL    HW139509   0.780   2.373  11.399 -0.8748 -0.2664  0.7302
 9292SOL    HW239510   0.739   2.498  11.454 -1.7305  0.3635 -0.7053
 9293SOL     OW39511   3.939   3.236  14.667  0.4265 -0.3220  0.5854
 9293SOL    HW139512   4.021   3.216  14.712  0.9636  0.7761  0.1005
 9293SOL    HW239513   3.976   3.245  14.579 -1.7538 -1.7934 -0.4967
 9294SOL     OW39514   2.979   4.645   8.212  0.2284  0.0593  0.2488
 9294SOL    HW139515   2.976   4.659   8.307 -1.6642  1.5567 -0.0443
 9294SOL    HW239516   3.042   4.713   8.187 -0.0176  0.8611  1.8007
 9295SOL     OW39517   2.462   1.837   4.465  0.2402 -0.4897  0.4043
 9295SOL    HW139518   2.452   1.776   4.392  0.7198 -1.8328  1.4592
 9295SOL    HW239519   2.554   1.830   4.491  0.4290  1.0272  0.1489
 9296SOL     OW39520   1.338   0.079   1.201 -0.1775  1.3100 -0.0272
 9296SOL    HW139521   1.275   0.111   1.136 -1.8144 -1.1036  0.3652
 9296SOL    HW239522   1.361   4.727   1.171 -0.9317  1.0559  0.1374
 9297SOL     OW39523   0.269   0.853  16.166 -0.2584  0.0141  0.0440
 9297SOL    HW139524   0.280   0.764  16.201 -1.5877  0.0062  0.4567
 9297SOL    HW239525   0.323   0.849  16.087 -0.0232 -1.5684  0.2759
 9298SOL     OW39526   2.818   1.106  13.960  0.8045  0.1010 -0.3438
 9298SOL    HW139527   2.809   1.195  13.927  1.7814  0.6657  0.9014
 9298SOL    HW239528   2.762   1.114  14.038  0.9257 -1.3578 -0.0904
 9299SOL     OW39529   2.233   4.673   8.466 -0.0820 -0.1360 -0.1256
 9299SOL    HW139530   2.275   0.023   8.462 -0.5625  0.0078 -2.0236
 9299SOL    HW239531   2.279   4.637   8.542  0.8010 -0.5280 -0.8469
 9300SOL     OW39532   0.749   4.350   7.245 -0.7615  0.2171 -0.0808
 9300SOL    HW139533   0.787   4.351   7.333 -0.2503  0.6490 -0.3065
 9300SOL    HW239534   0.826   4.389   7.204  0.4683  1.1342  3.1437
 9301SOL     OW39535   3.291   0.923   5.398  0.0783 -0.1687 -0.1464
 9301SOL    HW139536   3.226   0.909   5.328  0.6988 -2.7920 -0.1960
 9301SOL    HW239537   3.333   1.005   5.373  1.9730 -0.2929  2.6559
 9302SOL     OW39538   4.083   2.149  13.330 -0.3098 -0.5572 -0.5205
 9302SOL    HW139539   4.010   2.090  13.348 -1.3172  0.0114 -2.8425
 9302SOL    HW239540   4.156   2.120  13.386 -1.3750 -1.8419  0.1989
 9303SOL     OW39541   1.343   1.399   4.112  0.5308  0.1837  0.6172
 9303SOL    HW139542   1.255   1.429   4.134  0.1349  0.9487 -2.0053
 9303SOL    HW239543   1.346   1.406   4.016  0.5243 -0.1089  0.5971
 9304SOL     OW39544   1.177   2.905   6.296  0.2178  0.2117  0.6058
 9304SOL    HW139545   1.137   2.991   6.303  2.3199  1.0806  1.6874
 9304SOL    HW239546   1.142   2.873   6.379  0.5291 -1.7811 -0.0305
 9305SOL     OW39547   3.787   3.689   3.089 -0.2346 -0.0983 -0.3446
 9305SOL    HW139548   3.694   3.710   3.079 -0.8254 -2.7069 -0.4947
 9305SOL    HW239549   3.803   3.685   2.994 -0.3787 -1.0239 -0.3330
 9306SOL     OW39550   2.873   4.017   8.684  0.1180  0.5727 -0.3569
 9306SOL    HW139551   2.839   3.927   8.674 -1.5974  1.1690  0.0832
 9306SOL    HW239552   2.952   3.994   8.732 -0.5332  1.0952  0.9411
 9307SOL     OW39553   0.254   0.249  14.008  0.3897 -0.2085 -0.3216
 9307SOL    HW139554   0.289   0.201  14.083  0.5997  0.7697  0.2171
 9307SOL    HW239555   0.311   0.325  14.023 -0.6448  0.4696  0.1906
 9308SOL     OW39556   3.011   2.801  17.226  0.0754 -0.2709 -0.1467
 9308SOL    HW139557   2.923   2.830  17.200 -0.0366 -0.4502  0.0317
 9308SOL    HW239558   3.058   2.797  17.142  0.2478  1.5959 -0.1476
 9309SOL     OW39559   3.984   2.726  12.462 -0.1632  0.1862  0.6353
 9309SOL    HW139560   3.967   2.807  12.414 -0.7672 -1.4462 -1.9203
 9309SOL    HW239561   3.951   2.749  12.549 -0.1828 -1.6659  1.1323
 9310SOL     OW39562   4.708   1.717   7.419 -0.2487 -0.0738 -0.0517
 9310SOL    HW139563   0.023   1.778   7.366 -2.5125  2.8027  1.0263
 9310SOL    HW239564   0.044   1.690   7.475  0.0881 -0.3647 -0.6262
 9311SOL     OW39565   1.541   3.462   2.956  0.1204 -0.2517  0.3770
 9311SOL    HW139566   1.457   3.505   2.964 -1.3154 -2.7453 -1.0638
 9311SOL    HW239567   1.586   3.486   3.037  0.2210 -2.2209  0.9123
 9312SOL     OW39568   2.776   2.240   4.305  0.4076  0.1801  0.0569
 9312SOL    HW139569   2.737   2.316   4.263 -1.9286 -0.4206  1.1368
 9312SOL    HW239570   2.869   2.259   4.316  0.5977 -0.4242 -0.5010
 9313SOL     OW39571   0.462   0.807   9.126 -0.4963  0.1480  0.1207
 9313SOL    HW139572   0.550   0.822   9.090 -1.9418  0.7031 -3.2234
 9313SOL    HW239573   0.476   0.812   9.220 -1.2311  2.6254  0.1143
 9314SOL     OW39574   2.146   1.394   8.540 -0.0192 -0.0756 -0.0853
 9314SOL    HW139575   2.052   1.377   8.543 -0.2818  1.3648 -0.2530
 9314SOL    HW239576   2.151   1.435   8.626 -0.0869 -0.5190  0.1295
 9315SOL     OW39577   2.195   1.763   7.005 -0.0361  0.8457 -1.1596
 9315SOL    HW139578   2.152   1.700   6.947 -1.5444 -1.3349  2.3288
 9315SOL    HW239579   2.142   1.741   7.082  2.1291 -2.6711 -0.6748
 9316SOL     OW39580   2.880   4.612   0.952 -0.1465 -0.4374 -0.1801
 9316SOL    HW139581   2.940   4.678   0.986  0.3313 -0.8721 -0.1915
 9316SOL    HW239582   2.805   4.669   0.969  1.5578  1.5435  0.6888
 9317SOL     OW39583   3.721   1.539  12.304  0.3389 -0.3736  0.4404
 9317SOL    HW139584   3.682   1.602  12.365 -0.5610 -0.4293 -0.0824
 9317SOL    HW239585   3.748   1.481  12.375 -1.5492 -0.2074  1.3001
 9318SOL     OW39586   0.486   0.459   9.625  0.5319  0.0973  0.3261
 9318SOL    HW139587   0.554   0.393   9.639 -2.5832 -3.0850  0.3998
 9318SOL    HW239588   0.524   0.528   9.679 -1.3020 -1.2984  3.3617
 9319SOL     OW39589   4.450   3.264   3.414  0.0605 -0.1460 -0.1223
 9319SOL    HW139590   4.436   3.171   3.395 -0.1774 -0.4029  1.2668
 9319SOL    HW239591   4.472   3.245   3.505 -1.7451 -0.7110  0.1982
 9320SOL     OW39592   2.962   2.437  12.413 -0.2264 -0.1807  0.1116
 9320SOL    HW139593   2.956   2.401  12.502  1.3144 -1.2423 -0.2204
 9320SOL    HW239594   3.020   2.381  12.362 -1.1772 -0.2740 -0.8534
 9321SOL     OW39595   0.233   1.858   1.150 -0.0139 -0.5038 -0.0489
 9321SOL    HW139596   0.197   1.947   1.151 -0.6603 -0.7640 -0.3682
 9321SOL    HW239597   0.299   1.872   1.082 -0.0300 -0.3149 -0.0272
 9322SOL     OW39598   0.004   0.793   6.843  0.5834 -0.7133 -0.1023
 9322SOL    HW139599   0.020   0.807   6.936  1.4478  0.9056 -0.4850
 9322SOL    HW239600   4.699   0.708   6.857  1.4652 -1.2743 -0.8767
 9323SOL     OW39601   0.237   2.982   4.052  0.4965  0.0382  0.2441
 9323SOL    HW139602   0.165   2.980   4.115 -0.9717  2.0690 -1.3610
 9323SOL    HW239603   0.278   3.067   4.065 -1.5672  1.2354 -0.9517
 9324SOL     OW39604   0.339   1.253   3.751  0.3358 -0.2630  0.0920
 9324SOL    HW139605   0.288   1.312   3.694 -0.8104  0.1678  1.5637
 9324SOL    HW239606   0.276   1.181   3.755 -0.0306  0.0182 -0.5703
 9325SOL     OW39607   1.367   2.051  11.677  0.2954  0.0461  0.5382
 9325SOL    HW139608   1.373   2.031  11.770  1.0538  2.6706  1.0462
 9325SOL    HW239609   1.303   2.123  11.678 -0.9514 -1.0072 -2.0383
 9326SOL     OW39610   3.612   4.080  16.353 -0.2112  0.0568  0.1628
 9326SOL    HW139611   3.694   4.031  16.354 -1.3526 -1.8779 -1.7882
 9326SOL    HW239612   3.608   4.109  16.444  1.4410 -0.0221  0.2637
 9327SOL     OW39613   1.483   4.563  12.810 -0.0676 -0.4763 -0.7706
 9327SOL    HW139614   1.540   4.637  12.831  0.3934 -1.3376  0.9299
 9327SOL    HW239615   1.444   4.539  12.894  0.9691  1.6646  0.3420
 9328SOL     OW39616   0.201   3.578  10.600  0.3506 -0.1373 -0.3243
 9328SOL    HW139617   0.225   3.606  10.689 -2.2429 -2.5407  1.1272
 9328SOL    HW239618   0.138   3.507  10.609 -1.5710  1.4743 -1.0894
 9329SOL     OW39619   4.512   4.701   6.978  0.1567 -0.1387 -0.3778
 9329SOL    HW139620   4.608   4.705   6.980  0.1887 -0.2691 -1.6700
 9329SOL    HW239621   4.492   4.633   6.914  0.9477 -2.5614  1.9681
 9330SOL     OW39622   3.649   1.123   0.769  0.6444  0.0300 -0.4266
 9330SOL    HW139623   3.654   1.054   0.703  0.0855  1.3186 -1.8238
 9330SOL    HW239624   3.684   1.076   0.845  0.4745  1.0456  0.2743
 9331SOL     OW39625   1.395   4.658   5.708 -0.5547 -0.2002  0.5847
 9331SOL    HW139626   1.367   4.566   5.712 -0.1365 -0.3006  1.2204
 9331SOL    HW239627   1.316   4.708   5.688  1.2026  3.6857  3.3361
 9332SOL     OW39628   0.920   0.420   5.546 -0.4737  0.4966 -0.1690
 9332SOL    HW139629   0.992   0.386   5.493  0.1036  0.2910  0.7438
 9332SOL    HW239630   0.840   0.409   5.495 -0.7988 -0.2379  0.5010
 9333SOL     OW39631   1.120   0.577   9.061 -0.0728  1.0001 -0.0196
 9333SOL    HW139632   1.195   0.519   9.047  0.7394  1.8815  0.7356
 9333SOL    HW239633   1.144   0.647   9.000 -0.3531  0.3765 -0.8524
 9334SOL     OW39634   2.320   2.276   8.852  0.0504 -0.3525 -0.6749
 9334SOL    HW139635   2.276   2.252   8.934 -0.7028 -0.9913 -1.2560
 9334SOL    HW239636   2.249   2.309   8.797  0.9892  2.4663 -0.1566
 9335SOL     OW39637   4.281   2.286   8.781 -0.1421 -0.4638  0.0416
 9335SOL    HW139638   4.300   2.365   8.830 -0.4808 -1.0872  1.1778
 9335SOL    HW239639   4.203   2.252   8.825 -1.0393 -1.0138 -1.9308
 9336SOL     OW39640   3.137   4.195   7.051  0.6528  0.3088  0.7806
 9336SOL    HW139641   3.082   4.263   7.090 -0.7678 -0.0933 -0.5320
 9336SOL    HW239642   3.102   4.109   7.074  2.7293 -0.0480  2.6171
 9337SOL     OW39643   2.598   1.420  16.939 -0.3223  0.1468  0.4152
 9337SOL    HW139644   2.566   1.489  16.996 -0.3369 -0.4075  1.0748
 9337SOL    HW239645   2.682   1.448  16.903 -0.5137 -0.2794 -0.3656
 9338SOL     OW39646   1.301   4.426  12.475  0.0115 -0.3590  0.0390
 9338SOL    HW139647   1.268   4.497  12.530 -2.6088  0.1453 -2.1827
 9338SOL    HW239648   1.293   4.465  12.388  0.7911  0.8040  0.4922
 9339SOL     OW39649   3.890   0.677   4.848 -0.4600 -0.4427 -0.2966
 9339SOL    HW139650   3.974   0.705   4.810 -0.5260  0.2366  0.0568
 9339SOL    HW239651   3.892   0.582   4.837 -0.0127 -0.6449  1.5808
 9340SOL     OW39652   0.959   2.865   4.928 -0.5759  0.1148  0.2170
 9340SOL    HW139653   0.932   2.884   4.839  1.1318  0.6504 -0.1750
 9340SOL    HW239654   1.022   2.937   4.933  0.5207 -0.9014  1.3094
 9341SOL     OW39655   1.339   3.211   4.589 -0.1960  0.2912 -0.3820
 9341SOL    HW139656   1.303   3.123   4.598  0.9146 -0.0215  0.9996
 9341SOL    HW239657   1.369   3.195   4.500  0.2258  1.3635 -0.4366
 9342SOL     OW39658   0.822   2.173   5.636  0.1284 -0.2081 -0.2386
 9342SOL    HW139659   0.780   2.258   5.629 -3.4989 -2.0573 -1.0223
 9342SOL    HW239660   0.859   2.166   5.548 -1.4066 -1.8391 -0.7613
 9343SOL     OW39661   0.970   2.623   6.802 -0.2066 -0.5746  0.3222
 9343SOL    HW139662   0.939   2.573   6.727 -2.1944  1.6163 -0.3299
 9343SOL    HW239663   0.946   2.573   6.880  0.3492 -0.3659  0.6246
 9344SOL     OW39664   3.285   0.456   9.288  0.1478  0.4025  0.1148
 9344SOL    HW139665   3.312   0.537   9.245  0.2863  0.2075 -0.1686
 9344SOL    HW239666   3.265   0.484   9.377 -0.0816  0.2015  0.1258
 9345SOL     OW39667   0.473   3.631  15.065 -0.0154  0.1348 -0.0450
 9345SOL    HW139668   0.419   3.607  14.990  0.9814 -1.4027 -0.2589
 9345SOL    HW239669   0.509   3.545  15.085 -1.9672 -0.6164  0.2854
 9346SOL     OW39670   0.764   3.382  16.324 -0.2068 -0.2904  0.2396
 9346SOL    HW139671   0.847   3.402  16.280  0.6735 -0.3523  1.8579
 9346SOL    HW239672   0.708   3.455  16.298 -2.5922 -3.6910 -4.1897
 9347SOL     OW39673   3.564   4.358   5.912 -0.1569  0.1459  1.0457
 9347SOL    HW139674   3.534   4.290   5.972  0.1832 -1.0676 -0.1574
 9347SOL    HW239675   3.548   4.318   5.827  0.0198  0.9547  0.6318
 9348SOL     OW39676   0.106   0.274  13.511 -0.0123  0.5372 -0.0786
 9348SOL    HW139677   0.170   0.287  13.581 -1.0641 -0.0731  0.9853
 9348SOL    HW239678   0.087   0.182  13.494  2.1652  0.5244 -2.4264
 9349SOL     OW39679   4.721   1.619   6.562 -0.0357  0.1774 -0.1738
 9349SOL    HW139680   4.725   1.535   6.517  0.9806  0.6896 -1.0258
 9349SOL    HW239681   4.647   1.609   6.622  2.4427  0.1138  2.8276
 9350SOL     OW39682   3.689   4.536   8.963  0.2832  0.7755 -0.1195
 9350SOL    HW139683   3.614   4.592   8.982 -1.3447 -0.6601 -2.3177
 9350SOL    HW239684   3.761   4.598   8.956  0.4044  0.5066 -1.2768
 9351SOL     OW39685   4.299   0.581  14.514 -0.0821  0.5898 -0.1723
 9351SOL    HW139686   4.289   0.645  14.584 -1.2407  0.1476  0.0595
 9351SOL    HW239687   4.247   0.511  14.552 -0.9339  0.0971 -2.2136
 9352SOL     OW39688   0.233   4.438   5.817  0.2801  0.1221 -0.2765
 9352SOL    HW139689   0.244   4.347   5.789 -1.0525 -0.3473  0.7130
 9352SOL    HW239690   0.318   4.452   5.857  0.3049 -1.2543  0.1449
 9353SOL     OW39691   2.085   0.947   7.154 -0.1493 -0.2100 -0.3673
 9353SOL    HW139692   2.022   0.875   7.161  1.2476 -1.4272 -0.5668
 9353SOL    HW239693   2.027   1.022   7.138 -0.3869 -0.1672  0.7049
 9354SOL     OW39694   2.991   4.391   6.768  0.2137  0.5418 -0.2116
 9354SOL    HW139695   3.025   4.477   6.795 -0.7394  1.1213 -0.8901
 9354SOL    HW239696   2.913   4.369   6.819  1.4073  0.9129  1.7965
 9355SOL     OW39697   4.025   2.436  14.446 -0.3812 -0.0423  0.3907
 9355SOL    HW139698   4.101   2.462  14.394 -1.9402  0.8079 -1.4552
 9355SOL    HW239699   4.046   2.465  14.535 -0.0157 -1.1571  0.6719
 9356SOL     OW39700   0.248   0.995  16.452 -0.0620  0.5324  0.1829
 9356SOL    HW139701   0.274   0.919  16.401 -0.4056 -1.4113  2.9112
 9356SOL    HW239702   0.274   1.068  16.396 -0.7237  2.0273  1.8152
 9357SOL     OW39703   0.880   1.722   2.691 -0.7137  0.3609 -0.1892
 9357SOL    HW139704   0.901   1.641   2.645  0.0109 -1.1330  2.7795
 9357SOL    HW239705   0.967   1.735   2.729 -1.2404  0.3645  1.0490
 9358SOL     OW39706   1.541   2.994   9.988 -0.6599 -0.4605 -0.1594
 9358SOL    HW139707   1.472   3.040   9.941 -0.6583 -1.0319 -0.7177
 9358SOL    HW239708   1.620   3.029   9.946 -2.2078  1.0751 -1.8317
 9359SOL     OW39709   0.837   3.731   7.596 -0.4787  0.0139  0.2668
 9359SOL    HW139710   0.917   3.720   7.648 -0.5296  2.2623  0.8014
 9359SOL    HW239711   0.825   3.636   7.590  0.6778 -0.2592  2.1556
 9360SOL     OW39712   2.429   0.812  13.175  0.1249 -0.4074 -0.1071
 9360SOL    HW139713   2.475   0.744  13.126 -0.2935  0.8872 -2.2537
 9360SOL    HW239714   2.430   0.765  13.259  0.3500  1.3187  0.8643
 9361SOL     OW39715   3.805   0.179  14.236  0.7158  0.8006  0.0241
 9361SOL    HW139716   3.819   0.270  14.261 -0.7210  1.2653 -0.8772
 9361SOL    HW239717   3.812   0.202  14.143  1.1917  2.0055  0.3643
 9362SOL     OW39718   2.617   4.217  13.365  0.0453  0.6588  0.2321
 9362SOL    HW139719   2.710   4.241  13.370  0.1954 -0.3713  2.1847
 9362SOL    HW239720   2.589   4.266  13.442  0.7625  0.3815  0.6706
 9363SOL     OW39721   2.871   1.213   7.742  0.4778 -1.0316  0.2884
 9363SOL    HW139722   2.894   1.165   7.662  0.3612 -0.9550  0.2092
 9363SOL    HW239723   2.860   1.145   7.807  1.7538 -1.3519  0.1818
 9364SOL     OW39724   3.541   1.618  14.417  0.2090 -0.4226 -0.2505
 9364SOL    HW139725   3.614   1.625  14.355  1.5985  0.6039  1.4891
 9364SOL    HW239726   3.496   1.703  14.410 -0.5394 -0.8770 -0.9506
 9365SOL     OW39727   3.112   0.280   5.259  0.6031  0.3021 -0.4469
 9365SOL    HW139728   3.020   0.264   5.237  0.3882  0.7383  0.1432
 9365SOL    HW239729   3.109   0.375   5.271 -2.4713  0.2186 -0.3737
 9366SOL     OW39730   0.377   0.964   2.910  0.1396  0.2307  0.0311
 9366SOL    HW139731   0.441   0.893   2.903  0.0722  0.3488 -1.6347
 9366SOL    HW239732   0.327   0.929   2.836  0.1428  1.5942 -0.6259
 9367SOL     OW39733   4.154   4.260   8.079  0.4468 -0.1932 -0.6790
 9367SOL    HW139734   4.082   4.223   8.129 -1.2010  1.4431 -1.8241
 9367SOL    HW239735   4.214   4.268   8.153  0.0650  2.1445 -0.6014
 9368SOL     OW39736   4.671   2.040   8.185  0.0111  0.1117  0.2656
 9368SOL    HW139737   4.705   2.039   8.095  0.1536 -2.3903  0.3350
 9368SOL    HW239738   4.691   2.128   8.217  0.8366 -1.4130  3.9785
 9369SOL     OW39739   1.324   0.819   2.340  0.0576  0.3828  0.2387
 9369SOL    HW139740   1.312   0.868   2.259 -1.1767  0.0888  0.2370
 9369SOL    HW239741   1.236   0.783   2.347 -0.3093  0.6281 -3.4372
 9370SOL     OW39742   2.103   4.388   8.418 -0.2504 -0.3462  0.8561
 9370SOL    HW139743   2.139   4.378   8.506  1.5882 -1.7513 -0.0398
 9370SOL    HW239744   2.112   4.480   8.395  2.5648 -0.8755 -0.2321
 9371SOL     OW39745   4.581   3.630  11.766 -0.2787  0.1257 -0.5036
 9371SOL    HW139746   4.504   3.664  11.810  0.2658 -3.1499  3.0524
 9371SOL    HW239747   4.562   3.658  11.677 -1.0497  1.1722 -0.0006
 9372SOL     OW39748   0.790   0.295   2.460 -0.7343  0.0333 -0.6742
 9372SOL    HW139749   0.762   0.232   2.394  1.1496  0.1934 -1.6258
 9372SOL    HW239750   0.885   0.279   2.456 -0.7982 -0.2256 -1.1253
 9373SOL     OW39751   1.322   2.741   4.790  0.4964 -0.6097  0.0536
 9373SOL    HW139752   1.373   2.720   4.868 -2.1935  2.0233  2.5375
 9373SOL    HW239753   1.249   2.682   4.807 -3.3865  4.6124  1.4336
 9374SOL     OW39754   2.783   4.435   2.279  0.0108  0.1852  0.2617
 9374SOL    HW139755   2.704   4.484   2.255 -1.5562 -2.6647 -0.4112
 9374SOL    HW239756   2.788   4.364   2.216 -2.1114 -1.6259  2.1230
 9375SOL     OW39757   1.346   0.507   9.963 -0.0868 -0.5221  0.0420
 9375SOL    HW139758   1.319   0.417   9.980 -3.4385  0.6387  0.8065
 9375SOL    HW239759   1.384   0.525  10.050 -1.0842  2.1771 -0.0962
 9376SOL     OW39760   4.075   1.166   1.624  0.0561 -0.2800  0.3805
 9376SOL    HW139761   3.992   1.210   1.607  0.3011 -0.1131 -0.3846
 9376SOL    HW239762   4.131   1.242   1.642 -1.1721  0.5349  0.7355
 9377SOL     OW39763   1.190   3.814   6.061 -0.5122  0.1477 -0.2448
 9377SOL    HW139764   1.231   3.864   6.131 -0.8575 -0.0264  0.0848
 9377SOL    HW239765   1.129   3.760   6.111 -0.3622  0.1271 -0.0844
 9378SOL     OW39766   1.420   1.062   2.741 -0.0426  0.2457  0.0510
 9378SOL    HW139767   1.487   1.123   2.774  2.2431 -2.0971 -0.2761
 9378SOL    HW239768   1.468   1.034   2.663  0.8860  0.9083  0.3711
 9379SOL     OW39769   3.477   0.023  13.495  0.1833  0.1986  0.7554
 9379SOL    HW139770   3.382   0.023  13.502  0.1367  2.1045  0.3355
 9379SOL    HW239771   3.476   4.668  13.469 -1.0141  0.8449 -1.4573
 9380SOL     OW39772   1.264   1.236   7.302 -0.1909  0.3710  0.0884
 9380SOL    HW139773   1.283   1.318   7.346  0.1297  0.2804  0.1179
 9380SOL    HW239774   1.187   1.219   7.356 -0.2523  1.3851  0.3150
 9381SOL     OW39775   2.162   1.023   2.785  0.1406 -0.0464 -0.0573
 9381SOL    HW139776   2.150   0.928   2.793  2.5823 -0.3256  0.1267
 9381SOL    HW239777   2.257   1.021   2.796  0.2975 -1.2667 -1.5980
 9382SOL     OW39778   2.041   4.209  13.226 -0.1702  0.3539 -0.2701
 9382SOL    HW139779   2.107   4.245  13.168  0.8757 -1.1450  0.0053
 9382SOL    HW239780   2.054   4.270  13.298  1.0079  0.3483 -0.4786
 9383SOL     OW39781   0.687   3.677   8.188 -0.1759  0.0428  0.6025
 9383SOL    HW139782   0.714   3.713   8.272 -3.4782  1.7550  0.9133
 9383SOL    HW239783   0.693   3.758   8.138 -1.7728 -1.1613 -1.5450
 9384SOL     OW39784   1.454   0.831   6.357 -0.0749 -0.0511 -0.9447
 9384SOL    HW139785   1.501   0.763   6.308  1.4780  1.0841 -1.0471
 9384SOL    HW239786   1.407   0.770   6.414 -1.5515 -0.4631 -2.6159
 9385SOL     OW39787   2.780   3.456   5.552 -0.3445  0.4594  0.3143
 9385SOL    HW139788   2.763   3.362   5.547 -0.0072  0.2506  3.0558
 9385SOL    HW239789   2.800   3.483   5.463  1.9390  0.0894  0.7195
 9386SOL     OW39790   4.511   2.048   2.810 -0.5620  0.0631  0.2921
 9386SOL    HW139791   4.592   2.095   2.830 -0.2757  0.3178 -1.4525
 9386SOL    HW239792   4.514   2.029   2.716  1.5781 -0.5120  0.4773
 9387SOL     OW39793   3.825   3.509   5.932 -0.5086 -0.1231 -0.4683
 9387SOL    HW139794   3.854   3.509   6.023 -0.8162  0.3383 -0.3691
 9387SOL    HW239795   3.790   3.420   5.933  0.2910 -0.4379 -0.6435
 9388SOL     OW39796   4.451   1.073   4.619  0.2416  0.0805 -0.5552
 9388SOL    HW139797   4.524   1.048   4.675 -0.3913 -0.0165  0.2208
 9388SOL    HW239798   4.376   1.075   4.678  0.3940 -0.6949 -0.3446
 9389SOL     OW39799   4.328   3.767   7.333  0.6127 -0.0920  0.2396
 9389SOL    HW139800   4.380   3.739   7.408  2.1051 -0.2592 -0.8561
 9389SOL    HW239801   4.303   3.858   7.351 -1.3176 -0.8108  1.1078
 9390SOL     OW39802   1.740   1.029   3.389  0.4486 -0.2459  0.2143
 9390SOL    HW139803   1.671   0.965   3.370  0.8594 -0.5385 -0.2879
 9390SOL    HW239804   1.724   1.080   3.310 -1.2731 -0.1617  0.6315
 9391SOL     OW39805   1.331   2.923   7.638  0.2203 -0.0349  0.1071
 9391SOL    HW139806   1.362   2.913   7.549 -3.0302  4.4659 -1.5525
 9391SOL    HW239807   1.389   2.996   7.658 -1.9767  2.0454 -1.1609
 9392SOL     OW39808   2.080   2.391   2.448  0.9692  0.2520 -0.1768
 9392SOL    HW139809   2.016   2.409   2.516 -0.0767 -1.3894 -0.7172
 9392SOL    HW239810   2.020   2.389   2.373  1.4886  1.3840 -0.6168
 9393SOL     OW39811   2.222   1.618   2.179  0.4262 -0.4750  0.5108
 9393SOL    HW139812   2.247   1.574   2.260  1.3665 -0.3646  0.2856
 9393SOL    HW239813   2.132   1.644   2.194  0.2792 -0.2330 -0.7984
 9394SOL     OW39814   3.078   3.996   0.244 -0.3845  0.5616 -0.0844
 9394SOL    HW139815   3.151   3.935   0.251  0.2389  1.1688 -1.4692
 9394SOL    HW239816   3.094   4.044   0.163 -1.1711  0.3907 -0.3439
 9395SOL     OW39817   3.186   0.579  14.022 -0.0140  0.5939 -0.5569
 9395SOL    HW139818   3.225   0.494  14.042 -0.1216  0.2926 -1.6708
 9395SOL    HW239819   3.169   0.601  14.114  0.7602  2.1985 -0.7852
 9396SOL     OW39820   0.018   0.039   6.066  0.4208  0.1879  0.1846
 9396SOL    HW139821   0.095   0.030   6.122 -0.0264  0.4745  0.8420
 9396SOL    HW239822   0.053   0.010   5.982 -0.4685  1.5853 -0.6546
 9397SOL     OW39823   1.734   4.641  17.206  0.7949  0.0360 -0.0164
 9397SOL    HW139824   1.703   4.724  17.240  1.0827  0.5327 -0.9760
 9397SOL    HW239825   1.793   4.614  17.276  1.3753  0.9209 -0.1728
 9398SOL     OW39826   4.429   3.467   7.974 -0.2246  0.1327 -0.0925
 9398SOL    HW139827   4.395   3.414   8.046  0.0071  1.4917  1.0100
 9398SOL    HW239828   4.359   3.531   7.965 -1.4623 -1.4843 -2.1824
 9399SOL     OW39829   1.757   0.303   6.041  0.1421 -0.5626 -0.2437
 9399SOL    HW139830   1.837   0.331   6.085  0.8616  0.2865 -2.1345
 9399SOL    HW239831   1.799   0.247   5.977  2.0081  1.0990 -0.4612
 9400SOL     OW39832   1.109   4.150   1.366  0.2387  0.8876  0.6672
 9400SOL    HW139833   1.097   4.153   1.461  1.1469  0.2255  0.8029
 9400SOL    HW239834   1.152   4.064   1.369  0.8704  1.1482 -1.6025
 9401SOL     OW39835   2.971   1.074  14.887  0.2526  0.5597  0.2284
 9401SOL    HW139836   2.995   1.149  14.941  1.3793 -0.1836  0.7489
 9401SOL    HW239837   3.058   1.037  14.870 -0.6745 -1.6895  0.3096
 9402SOL     OW39838   2.982   1.442   4.245  0.0892  0.3038  0.1654
 9402SOL    HW139839   2.896   1.458   4.207 -0.0507  2.2698  1.3418
 9402SOL    HW239840   3.008   1.534   4.256 -2.6216  1.0283  0.3894
 9403SOL     OW39841   3.259   2.185   1.339  0.6589 -0.6985 -0.4316
 9403SOL    HW139842   3.271   2.195   1.244 -3.0478 -1.6547 -0.9941
 9403SOL    HW239843   3.225   2.096   1.348  0.5296 -0.4083  1.8435
 9404SOL     OW39844   4.442   0.416   1.718  0.2287  0.7808 -0.6274
 9404SOL    HW139845   4.438   0.352   1.790  0.7989  0.6761 -0.6922
 9404SOL    HW239846   4.495   0.378   1.649 -0.6177  0.0322 -0.8660
 9405SOL     OW39847   1.967   0.353   6.818 -0.6065 -0.6700 -0.0272
 9405SOL    HW139848   1.946   0.354   6.911 -0.5811 -1.3202 -0.0147
 9405SOL    HW239849   1.883   0.329   6.779 -1.0454  1.6730 -0.5420
 9406SOL     OW39850   4.364   0.545   5.430 -0.1839 -0.6469 -0.5057
 9406SOL    HW139851   4.451   0.578   5.407 -0.1154 -1.6789 -1.7320
 9406SOL    HW239852   4.321   0.571   5.348  0.1524  2.8800  0.4549
 9407SOL     OW39853   1.070   2.862   1.712  0.2232  0.0420 -0.0015
 9407SOL    HW139854   1.018   2.941   1.726  0.4239  0.3158 -0.8547
 9407SOL    HW239855   1.140   2.864   1.777 -0.3254  0.5309  0.5719
 9408SOL     OW39856   3.766   1.058   8.539 -0.6806 -0.0873 -0.2130
 9408SOL    HW139857   3.802   1.057   8.628 -0.7988 -1.0494 -0.1703
 9408SOL    HW239858   3.727   1.145   8.532  0.5813  0.6656  1.9335
 9409SOL     OW39859   3.532   3.932   6.483 -0.2159  0.4769  0.5053
 9409SOL    HW139860   3.448   3.887   6.489 -0.0693  0.1944  0.4651
 9409SOL    HW239861   3.516   4.007   6.540  0.0863  3.0730 -2.8521
 9410SOL     OW39862   0.735   3.488   6.627  0.5679 -0.9329 -0.2067
 9410SOL    HW139863   0.640   3.477   6.635  0.5861  1.5384  3.2166
 9410SOL    HW239864   0.760   3.509   6.717  2.2274 -1.7355 -0.4797
 9411SOL     OW39865   3.017   0.903  11.480  0.2548  1.1052 -0.0537
 9411SOL    HW139866   3.024   0.923  11.387 -1.8327  0.6917 -0.2976
 9411SOL    HW239867   2.975   0.818  11.465  0.9112  0.7509  0.1142
 9412SOL     OW39868   3.113   4.355   5.065 -0.1484 -0.1944  0.1385
 9412SOL    HW139869   3.197   4.320   5.094  0.0191  0.9290  1.0178
 9412SOL    HW239870   3.081   4.281   5.013  0.0804  1.2912 -2.1232
 9413SOL     OW39871   1.062   0.330   8.506  0.4532  0.2822 -0.3694
 9413SOL    HW139872   1.027   0.304   8.591 -1.2030 -0.2829 -1.2276
 9413SOL    HW239873   0.987   0.316   8.448 -0.0239 -0.5193  0.4423
 9414SOL     OW39874   3.556   1.573  16.141  0.6102 -0.1634  0.4393
 9414SOL    HW139875   3.495   1.643  16.118 -1.8782 -2.0151  1.4700
 9414SOL    HW239876   3.521   1.491  16.109  1.2085  0.5506 -2.0792
 9415SOL     OW39877   2.233   4.160   6.168  0.1642 -0.2191  0.2184
 9415SOL    HW139878   2.254   4.117   6.086  1.1893  1.8806 -0.6200
 9415SOL    HW239879   2.302   4.129   6.226 -0.3845 -2.1167 -0.1353
 9416SOL     OW39880   1.500   4.390   0.486 -0.6338  0.0020 -0.0122
 9416SOL    HW139881   1.455   4.420   0.566  3.1195 -0.5610  2.3297
 9416SOL    HW239882   1.444   4.432   0.421  0.5729 -1.9504 -2.2602
 9417SOL     OW39883   0.504   1.638   1.011 -0.2390 -0.1690 -0.1100
 9417SOL    HW139884   0.533   1.584   1.085  0.5292  1.4582  0.7788
 9417SOL    HW239885   0.552   1.720   1.016 -1.5488  0.5598  0.4966
 9418SOL     OW39886   2.527   3.526  12.579  0.3066  0.4716  0.3945
 9418SOL    HW139887   2.462   3.585  12.617 -0.6002 -0.5507  0.4470
 9418SOL    HW239888   2.605   3.576  12.555  0.1759  1.1946  1.5033
 9419SOL     OW39889   3.690   0.941   2.349  0.2400  0.7964  0.6302
 9419SOL    HW139890   3.748   1.012   2.376  1.9728  0.1192 -1.2594
 9419SOL    HW239891   3.615   0.978   2.394 -0.2854  2.9067 -1.9695
 9420SOL     OW39892   4.429   3.367   4.636  0.0903 -0.0766  0.5563
 9420SOL    HW139893   4.423   3.421   4.557 -2.0559 -1.4989 -0.2643
 9420SOL    HW239894   4.355   3.411   4.677 -0.0857 -0.2484  0.4278
 9421SOL     OW39895   2.835   3.910   5.112 -0.2653 -0.1179  0.3029
 9421SOL    HW139896   2.899   3.841   5.127  0.2594 -0.0329 -1.5794
 9421SOL    HW239897   2.784   3.863   5.045  1.0298 -2.0304  0.6714
 9422SOL     OW39898   3.212   1.585   1.190  0.0426  0.1262 -0.0567
 9422SOL    HW139899   3.274   1.653   1.219  1.0161 -1.8566  2.4841
 9422SOL    HW239900   3.227   1.516   1.255 -1.7156  0.5057  0.7591
 9423SOL     OW39901   4.394   3.053   9.509  0.0238  0.6263 -0.2741
 9423SOL    HW139902   4.302   3.051   9.482 -0.6828  1.8977  2.0443
 9423SOL    HW239903   4.405   3.146   9.527 -1.0694  1.1341 -2.2022
 9424SOL     OW39904   3.101   2.854  10.606 -0.2387  0.3137 -0.5329
 9424SOL    HW139905   3.024   2.879  10.657 -1.2020  0.1797 -1.9365
 9424SOL    HW239906   3.066   2.804  10.532  0.0180  3.7701 -2.9384
 9425SOL     OW39907   1.381   3.349   6.230  0.3654 -0.8598  0.0210
 9425SOL    HW139908   1.430   3.285   6.282 -0.8331 -1.8853 -0.1105
 9425SOL    HW239909   1.305   3.363   6.286 -0.5299 -0.6969 -1.2248
 9426SOL     OW39910   2.933   2.056   4.092  0.3001 -0.0799  0.7361
 9426SOL    HW139911   2.899   1.988   4.150 -0.4581  0.6841  1.1833
 9426SOL    HW239912   2.890   2.034   4.010 -3.6475  2.9573  2.0050
 9427SOL     OW39913   2.414   1.863   4.943  0.0937  0.0660 -0.1031
 9427SOL    HW139914   2.355   1.938   4.953 -2.2390 -1.6778 -0.6454
 9427SOL    HW239915   2.499   1.893   4.975 -0.2082 -0.3806  1.1321
 9428SOL     OW39916   1.127   2.703   0.769  0.4083  0.0514 -0.3705
 9428SOL    HW139917   1.095   2.754   0.694 -0.5666 -0.4285 -0.2868
 9428SOL    HW239918   1.111   2.618   0.727 -2.2980 -0.6545  2.1032
 9429SOL     OW39919   0.920   0.863  14.475  0.8016  0.2300  0.7267
 9429SOL    HW139920   0.897   0.798  14.541  2.2228  2.1188  3.0777
 9429SOL    HW239921   0.850   0.927  14.492 -0.0246 -0.2061 -1.0491
 9430SOL     OW39922   4.325   4.181   7.621 -0.5409  0.4131  0.3944
 9430SOL    HW139923   4.384   4.178   7.696  0.9485 -3.9882 -0.9777
 9430SOL    HW239924   4.244   4.209   7.663  0.1681  2.0708  0.6729
 9431SOL     OW39925   2.861   3.504   4.339  0.4313 -0.3713 -0.2283
 9431SOL    HW139926   2.867   3.519   4.244  1.5515  1.6461  0.1445
 9431SOL    HW239927   2.834   3.592   4.368  0.1419 -0.7149  0.5401
 9432SOL     OW39928   1.623   3.012   3.008  0.1706 -0.4055 -0.0868
 9432SOL    HW139929   1.595   3.056   3.088  0.0362 -0.4722 -0.0973
 9432SOL    HW239930   1.590   3.066   2.936 -0.0044  1.9858  1.8006
 9433SOL     OW39931   2.143   2.392  16.740 -0.2126 -0.0409  0.2094
 9433SOL    HW139932   2.198   2.322  16.707  1.8791  0.9809  1.5033
 9433SOL    HW239933   2.066   2.343  16.769 -0.5768  1.3654  1.6135
 9434SOL     OW39934   2.871   2.874  15.188  0.1886 -0.2394  0.1379
 9434SOL    HW139935   2.860   2.818  15.265  0.7660 -1.3390 -0.5675
 9434SOL    HW239936   2.966   2.889  15.191  0.2470 -0.7420  0.7595
 9435SOL     OW39937   1.345   4.525   0.717  0.7229  0.4899 -0.3377
 9435SOL    HW139938   1.278   4.577   0.674  0.3402 -0.0854 -0.4408
 9435SOL    HW239939   1.411   4.587   0.749 -1.1549  2.0299  0.5002
 9436SOL     OW39940   1.146   3.198   1.289  0.3643  0.1837 -0.4134
 9436SOL    HW139941   1.086   3.249   1.234 -1.3755 -0.7466  0.6251
 9436SOL    HW239942   1.212   3.180   1.222  0.6690  1.1923 -0.3822
 9437SOL     OW39943   3.273   0.329   6.753  0.1218 -0.9105 -0.3008
 9437SOL    HW139944   3.259   0.234   6.747  2.2726 -1.1982 -0.8414
 9437SOL    HW239945   3.216   0.354   6.826  2.0472  0.3345  0.7878
 9438SOL     OW39946   1.403   3.338   1.868  0.0222 -0.2524  0.4418
 9438SOL    HW139947   1.343   3.267   1.890 -0.7543  0.7288  1.4588
 9438SOL    HW239948   1.492   3.307   1.884 -0.2173  0.6513  3.5658
 9439SOL     OW39949   3.049   1.416   7.529 -0.1268  0.0605 -0.6197
 9439SOL    HW139950   3.056   1.336   7.477 -0.6999 -1.0952  1.0912
 9439SOL    HW239951   3.110   1.405   7.602 -0.8535 -0.0064 -0.0225
 9440SOL     OW39952   3.628   2.824   3.857 -0.0288  0.4685 -0.3230
 9440SOL    HW139953   3.586   2.763   3.796  2.0934 -1.8368  0.4971
 9440SOL    HW239954   3.716   2.793   3.878 -0.9620 -2.5318 -0.7194
 9441SOL     OW39955   4.663   2.073   0.925  0.2744  0.0956 -0.4868
 9441SOL    HW139956   4.589   2.130   0.904 -0.6839 -2.1231 -3.1201
 9441SOL    HW239957   4.707   2.074   0.839  1.4158  2.6965  0.1122
 9442SOL     OW39958   3.875   2.593   6.177 -0.1984  0.1847 -0.2351
 9442SOL    HW139959   3.783   2.599   6.200  0.1883  2.2430  0.8036
 9442SOL    HW239960   3.914   2.559   6.258  4.0193  1.3651 -1.7336
 9443SOL     OW39961   4.620   3.592   2.223 -0.5744 -0.7452  0.1638
 9443SOL    HW139962   4.660   3.587   2.136  2.2305 -0.0145  1.4165
 9443SOL    HW239963   4.527   3.608   2.205 -0.1896  1.7861  0.3317
 9444SOL     OW39964   2.847   2.303   1.815 -0.1929  0.0721  0.4439
 9444SOL    HW139965   2.846   2.385   1.864  0.6127 -0.1032  0.7643
 9444SOL    HW239966   2.809   2.238   1.875  0.3748  0.5414  1.3186
 9445SOL     OW39967   2.921   2.135   5.014  0.0460  0.0256 -0.7970
 9445SOL    HW139968   2.936   2.207   4.952  2.4539  0.0295 -0.2209
 9445SOL    HW239969   2.841   2.097   4.979 -1.0283 -0.2153  1.9679
 9446SOL     OW39970   0.056   2.750   4.585 -0.2058 -0.5255 -0.1347
 9446SOL    HW139971   4.701   2.762   4.607  0.3564  1.7041  1.0293
 9446SOL    HW239972   0.072   2.838   4.551  1.1797 -0.7924 -0.1905
 9447SOL     OW39973   4.135   2.917   2.801 -0.3286 -0.5914  0.2553
 9447SOL    HW139974   4.133   2.836   2.750 -0.4025 -0.2973 -0.2005
 9447SOL    HW239975   4.091   2.892   2.883  1.0191  0.2902  1.2269
 9448SOL     OW39976   2.055   4.389   4.607  0.1475 -0.1727 -0.6990
 9448SOL    HW139977   1.971   4.421   4.641  0.9807 -0.5446  1.6869
 9448SOL    HW239978   2.031   4.302   4.575  1.4764  0.5328 -3.6599
 9449SOL     OW39979   0.057   1.707  16.490 -0.2744  0.0882  0.0752
 9449SOL    HW139980   0.148   1.736  16.480 -0.4407  1.2674  1.8475
 9449SOL    HW239981   0.009   1.772  16.439  2.2901  2.5617  0.7445
 9450SOL     OW39982   3.804   0.103   3.632 -0.1866  0.1276 -1.0661
 9450SOL    HW139983   3.804   0.185   3.680 -0.3717 -0.1609 -0.5648
 9450SOL    HW239984   3.766   0.041   3.695 -1.5651  2.3376  0.2739
 9451SOL     OW39985   0.519   3.539  16.980  0.3825 -0.0940  0.0114
 9451SOL    HW139986   0.458   3.596  17.028 -0.3888 -1.7860  1.0185
 9451SOL    HW239987   0.607   3.573  16.992  0.8901 -0.9619 -1.2423
 9452SOL     OW39988   0.839   4.639  11.032  0.1464  0.4631 -0.3131
 9452SOL    HW139989   0.825   4.630  11.126  1.7831  0.8149 -0.0225
 9452SOL    HW239990   0.825   4.550  10.999  1.3359  0.2661 -0.2922
 9453SOL     OW39991   1.182   2.442   4.256 -0.0175 -0.0842  0.4783
 9453SOL    HW139992   1.274   2.418   4.271 -0.8646 -2.9377  1.0063
 9453SOL    HW239993   1.132   2.379   4.307  1.5305  0.0855  2.2126
 9454SOL     OW39994   2.762   1.598  11.719  0.1855  0.0115  0.2401
 9454SOL    HW139995   2.810   1.516  11.707 -1.9881 -1.1011 -0.7271
 9454SOL    HW239996   2.687   1.582  11.662  0.0989  1.4146 -0.0426
 9455SOL     OW39997   2.598   1.238   1.857 -0.5576  0.2733 -0.3209
 9455SOL    HW139998   2.585   1.197   1.771 -1.2525  0.6790 -0.4087
 9455SOL    HW239999   2.661   1.170   1.881  0.5861  1.1841 -0.7367
 9456SOL     OW40000   3.700   2.017   3.635 -0.0644 -0.1588 -0.2745
 9456SOL    HW140001   3.767   2.084   3.625 -2.4032  2.1965 -0.1774
 9456SOL    HW240002   3.693   2.002   3.730  1.5421  1.5286  0.1110
 9457SOL     OW40003   2.453   0.410  14.148 -0.0501  0.1278  0.4837
 9457SOL    HW140004   2.389   0.479  14.129 -0.1710  0.1621  1.0171
 9457SOL    HW240005   2.424   0.374  14.232 -0.7402 -0.6913 -0.1166
 9458SOL     OW40006   1.286   2.965   3.110  0.8936  0.7061 -0.2451
 9458SOL    HW140007   1.361   3.001   3.156 -0.7847  3.3972  0.3802
 9458SOL    HW240008   1.279   3.005   3.023  0.1715  0.6785 -0.2023
 9459SOL     OW40009   3.143   0.866   5.158  0.2417  0.8271  0.0863
 9459SOL    HW140010   3.147   0.812   5.078  0.8871  0.6162  0.2582
 9459SOL    HW240011   3.049   0.864   5.172  0.2555  0.2165  0.1010
 9460SOL     OW40012   2.782   3.611  17.033 -0.0571 -0.3015  0.0226
 9460SOL    HW140013   2.767   3.702  17.006  0.6296 -0.0580  0.4521
 9460SOL    HW240014   2.854   3.621  17.096 -2.0542 -2.6855  2.6788
 9461SOL     OW40015   2.338   4.624   2.040 -0.1199  0.2825 -0.1644
 9461SOL    HW140016   2.257   4.583   2.012 -0.1912  0.2591  0.0783
 9461SOL    HW240017   2.358   4.567   2.114 -1.9583 -1.3538 -0.9499
 9462SOL     OW40018   2.057   0.784   7.625 -0.0638  0.4518  0.1211
 9462SOL    HW140019   1.997   0.809   7.695 -1.1657  0.6799 -0.9247
 9462SOL    HW240020   2.004   0.797   7.547 -0.0611 -0.5077 -0.0328
 9463SOL     OW40021   3.711   1.619  11.416  0.1914  0.4352 -0.3833
 9463SOL    HW140022   3.639   1.639  11.356  2.3171  2.5925 -2.2396
 9463SOL    HW240023   3.712   1.525  11.399  0.8357  0.7992 -2.3861
 9464SOL     OW40024   2.042   3.291   1.335  0.3258 -0.0431 -0.2683
 9464SOL    HW140025   2.007   3.367   1.289 -0.5537 -0.2710  0.0266
 9464SOL    HW240026   2.033   3.312   1.428  0.1026  1.1843 -0.5715
 9465SOL     OW40027   1.600   3.847   6.996  0.0142 -0.1966 -0.1057
 9465SOL    HW140028   1.617   3.924   7.050 -2.9450  0.2005  0.3090
 9465SOL    HW240029   1.584   3.873   6.905 -2.1047  0.4716  0.4361
 9466SOL     OW40030   3.773   3.877  15.537 -0.3321  0.0772 -0.3788
 9466SOL    HW140031   3.803   3.933  15.609  0.0609  0.3025 -0.7180
 9466SOL    HW240032   3.842   3.812  15.524  0.9870  0.8389  2.6875
 9467SOL     OW40033   2.525   0.666  12.766  0.2864  0.0210  0.3732
 9467SOL    HW140034   2.585   0.595  12.789  1.5120  1.5073  1.7499
 9467SOL    HW240035   2.477   0.679  12.848 -0.2453 -0.8568  0.2103
 9468SOL     OW40036   3.891   0.314   1.971  0.6881 -0.3849 -0.0423
 9468SOL    HW140037   3.850   0.359   1.898  1.2491 -0.3109 -0.3133
 9468SOL    HW240038   3.950   0.381   2.007  2.0659 -1.4620 -0.3003
 9469SOL     OW40039   3.317   3.236   8.314  0.2188  0.0401  0.2877
 9469SOL    HW140040   3.301   3.221   8.221  1.9722 -1.5340  0.2504
 9469SOL    HW240041   3.317   3.332   8.312  2.0422  0.0102 -0.7720
 9470SOL     OW40042   0.237   2.729   7.711  0.2653  0.4350 -0.1925
 9470SOL    HW140043   0.214   2.647   7.668  0.9239  1.1388 -1.8775
 9470SOL    HW240044   0.196   2.795   7.656  1.3706  0.6300 -0.7751
 9471SOL     OW40045   3.632   2.112   4.691 -0.1809  0.5809 -0.0147
 9471SOL    HW140046   3.579   2.109   4.771  0.6982  2.0384  0.6301
 9471SOL    HW240047   3.566   2.126   4.623 -0.7473 -0.1634  0.3699
 9472SOL     OW40048   2.882   2.140   0.781 -0.3128 -0.3086 -0.2360
 9472SOL    HW140049   2.887   2.073   0.850  2.2773 -0.8757 -0.9981
 9472SOL    HW240050   2.972   2.140   0.750 -0.7275  2.2993 -1.4144
 9473SOL     OW40051   3.825   1.272   1.647  0.1939 -0.9099 -0.2566
 9473SOL    HW140052   3.733   1.286   1.623 -0.8364 -0.0635  4.1698
 9473SOL    HW240053   3.842   1.343   1.709  0.6385 -0.8380 -0.4607
 9474SOL     OW40054   2.611   4.013   3.487  0.3713  0.4715 -0.2441
 9474SOL    HW140055   2.684   3.986   3.431  0.3299 -2.7534  1.2399
 9474SOL    HW240056   2.628   4.107   3.479 -1.0974  0.8790  1.3923
 9475SOL     OW40057   2.121   0.003  17.243 -0.1110 -0.0283  0.0880
 9475SOL    HW140058   2.176   4.693  17.305 -0.3239 -0.6181 -0.1653
 9475SOL    HW240059   2.069   0.042  17.313 -0.4187  1.2446 -0.8409
 9476SOL     OW40060   1.735   2.288  12.785 -0.6059  0.6695 -0.1728
 9476SOL    HW140061   1.723   2.340  12.705 -0.2604 -0.6963 -1.0968
 9476SOL    HW240062   1.641   2.272  12.800 -0.6898  0.7060 -0.6743
 9477SOL     OW40063   3.561   2.579   2.416 -0.5798  0.1208  0.4677
 9477SOL    HW140064   3.645   2.534   2.418  0.3667  1.8714 -0.0307
 9477SOL    HW240065   3.516   2.502   2.382 -0.5980  0.3273  0.0299
 9478SOL     OW40066   2.888   2.372   8.579 -0.5475  0.9446 -0.1614
 9478SOL    HW140067   2.983   2.376   8.591 -0.4983  1.7484 -0.8492
 9478SOL    HW240068   2.847   2.378   8.665 -0.6018  1.5730 -0.2314
 9479SOL     OW40069   0.836   3.146   3.491  0.1361  0.2151 -0.1104
 9479SOL    HW140070   0.847   3.179   3.581  3.0845 -3.3938  0.8572
 9479SOL    HW240071   0.900   3.205   3.449  1.1233  0.5257  1.8184
 9480SOL     OW40072   0.095   3.608   6.487 -0.3564 -0.6279 -0.1863
 9480SOL    HW140073   0.097   3.685   6.545  1.5336 -1.0910  0.3388
 9480SOL    HW240074   0.018   3.622   6.431 -1.0143 -0.6714  0.7253
 9481SOL     OW40075   3.410   1.534   6.750  0.2364 -0.3529 -0.1832
 9481SOL    HW140076   3.383   1.483   6.674  0.0673  1.0058 -1.0167
 9481SOL    HW240077   3.423   1.620   6.712  2.3897 -0.1870  0.9216
 9482SOL     OW40078   4.585   3.836   9.066  0.3883  0.8910  0.0729
 9482SOL    HW140079   4.604   3.881   8.984  0.7901 -1.1592 -0.9411
 9482SOL    HW240080   4.543   3.911   9.110 -0.4140  1.6978 -2.0321
 9483SOL     OW40081   0.384   1.912  17.344 -0.1047  0.1113  0.0770
 9483SOL    HW140082   0.401   1.818  17.331  1.5633  1.0277 -4.4640
 9483SOL    HW240083   0.329   1.926  17.267 -0.6661 -0.6592  0.3319
 9484SOL     OW40084   1.828   0.740   2.918  0.5692 -0.0373 -0.3448
 9484SOL    HW140085   1.813   0.830   2.945 -0.6917 -0.6071  0.8236
 9484SOL    HW240086   1.826   0.748   2.822  1.4101  0.9061 -0.2867
 9485SOL     OW40087   0.797   4.232   7.497  0.4337  0.1104 -0.1075
 9485SOL    HW140088   0.875   4.183   7.472  0.3660  0.1716 -0.4393
 9485SOL    HW240089   0.829   4.274   7.577  0.8205 -0.3613 -0.0183
 9486SOL     OW40090   3.829   1.418   1.865  0.1046  0.1542 -0.5216
 9486SOL    HW140091   3.843   1.342   1.921 -1.3876 -0.9632 -1.6618
 9486SOL    HW240092   3.856   1.486   1.927 -1.7884  0.5122 -0.0830
 9487SOL     OW40093   2.988   0.848   6.649  0.4690  0.1128 -0.1772
 9487SOL    HW140094   3.036   0.928   6.629  1.2974 -0.0256  1.2479
 9487SOL    HW240095   2.917   0.884   6.702  1.7983  1.0663  0.9412
 9488SOL     OW40096   3.768   2.727  15.739 -0.1440 -0.2893  0.4555
 9488SOL    HW140097   3.780   2.805  15.685 -1.4550 -1.2753 -1.2543
 9488SOL    HW240098   3.680   2.733  15.776  0.1878  1.5346  0.9592
 9489SOL     OW40099   2.769   4.702   6.439 -0.5248  0.3792  0.3658
 9489SOL    HW140100   2.816   4.718   6.356 -1.0162 -1.7526 -0.3367
 9489SOL    HW240101   2.692   4.660   6.401 -0.4532 -0.3442  1.0352
 9490SOL     OW40102   3.268   1.802   1.742 -0.2904 -1.0973  0.3831
 9490SOL    HW140103   3.278   1.707   1.749  0.2441 -1.1365 -0.9225
 9490SOL    HW240104   3.198   1.800   1.676  0.9920 -1.2213 -0.9629
 9491SOL     OW40105   2.890   4.560   1.865 -0.1082 -0.1681  0.1279
 9491SOL    HW140106   2.908   4.637   1.920  1.2792  1.5019 -2.6428
 9491SOL    HW240107   2.801   4.544   1.896 -1.0578  1.6480 -1.7115
 9492SOL     OW40108   3.055   0.914   0.443  0.1109  0.6108  0.0919
 9492SOL    HW140109   2.993   0.966   0.392  1.5352 -0.3634 -2.6604
 9492SOL    HW240110   3.015   0.828   0.429 -1.0857  1.5098 -2.1179
 9493SOL     OW40111   2.762   4.311   1.639  0.7697 -0.0307 -0.4526
 9493SOL    HW140112   2.847   4.281   1.607  1.0881  1.9373 -1.4367
 9493SOL    HW240113   2.778   4.327   1.732  1.0189  3.8687 -1.1617
 9494SOL     OW40114   2.238   3.167  14.570  0.3439  0.2841 -0.0398
 9494SOL    HW140115   2.200   3.101  14.512  0.3319 -0.7583  1.1660
 9494SOL    HW240116   2.193   3.248  14.543 -0.6717 -0.5341 -0.8067
 9495SOL     OW40117   2.945   4.003   7.580 -0.2833  0.1524 -0.9911
 9495SOL    HW140118   2.935   3.938   7.511  3.7249 -3.2685  1.6249
 9495SOL    HW240119   2.857   4.004   7.617  1.6995 -1.8306  3.8408
 9496SOL     OW40120   4.661   2.227   5.382 -0.0980  0.0833 -0.3933
 9496SOL    HW140121   4.653   2.320   5.405  0.3019  0.6177 -2.4531
 9496SOL    HW240122   4.643   2.176   5.461 -2.1750  0.8599 -0.3792
 9497SOL     OW40123   3.977   1.980   6.854  0.1142 -0.0395  0.4286
 9497SOL    HW140124   3.883   1.971   6.870  0.4061 -0.7127  1.7128
 9497SOL    HW240125   3.995   1.911   6.789  1.7974  0.3415  0.4918
 9498SOL     OW40126   3.896   2.394   4.820  0.1262 -0.3575  0.0954
 9498SOL    HW140127   3.821   2.335   4.830  1.9745 -2.7463 -0.1676
 9498SOL    HW240128   3.858   2.467   4.770 -0.9631 -1.9815 -1.4445
 9499SOL     OW40129   2.359   0.043   9.219 -0.5738  0.3228 -0.2271
 9499SOL    HW140130   2.412   4.701   9.206 -0.3161  0.4265  0.1828
 9499SOL    HW240131   2.401   0.072   9.300 -0.4900  0.1050 -0.1906
 9500SOL     OW40132   2.140   3.420   3.657  0.3870 -0.6048  0.4204
 9500SOL    HW140133   2.207   3.392   3.596 -0.8956 -1.9681 -0.3782
 9500SOL    HW240134   2.192   3.491   3.692 -1.4041  0.4503  0.9688
 9501SOL     OW40135   3.364   1.784  13.209  0.1971  0.5937  0.2928
 9501SOL    HW140136   3.341   1.728  13.283  0.2223  0.7551  0.4220
 9501SOL    HW240137   3.386   1.720  13.141 -1.8166 -0.5033  0.6476
 9502SOL     OW40138   4.077   4.289  15.196  0.0805 -0.5702 -0.5756
 9502SOL    HW140139   3.998   4.253  15.156 -1.7177  1.8130  0.7841
 9502SOL    HW240140   4.143   4.261  15.133 -1.4634  0.4732 -2.6647
 9503SOL     OW40141   0.733   2.246  17.735  0.0457 -0.7461  0.0591
 9503SOL    HW140142   0.810   2.291   0.024 -0.8028  1.3408 -0.7786
 9503SOL    HW240143   0.676   2.316  17.705  0.6767 -0.2116  0.1060
 9504SOL     OW40144   2.386   0.074  14.315 -0.2786 -0.0293 -0.5609
 9504SOL    HW140145   2.476   0.067  14.283  0.2153  0.2323  0.7825
 9504SOL    HW240146   2.390   0.168  14.334  0.7279  0.2412 -2.1340
 9505SOL     OW40147   3.011   4.623  16.622  0.1808  0.1685 -0.2438
 9505SOL    HW140148   2.972   4.587  16.542 -1.3308 -0.3539  0.7383
 9505SOL    HW240149   3.096   4.658  16.593  0.6054 -1.4478 -0.9612
 9506SOL     OW40150   0.555   0.792  16.302 -0.2782  0.2335 -0.3896
 9506SOL    HW140151   0.587   0.743  16.378 -2.1255  1.2027  1.0171
 9506SOL    HW240152   0.623   0.760  16.243 -2.5193  0.8411 -3.2625
 9507SOL     OW40153   1.559   1.023   4.916 -0.3851  0.4913 -0.2305
 9507SOL    HW140154   1.587   1.115   4.917  1.3405 -0.0392 -0.9236
 9507SOL    HW240155   1.643   0.990   4.886  0.3793  1.6537  0.6506
 9508SOL     OW40156   0.204   0.789   3.741 -0.6211  0.2620 -0.1621
 9508SOL    HW140157   0.126   0.740   3.714 -1.8991  2.9917 -1.3709
 9508SOL    HW240158   0.261   0.753   3.673  1.2934  0.5398  1.2924
 9509SOL     OW40159   1.308   3.119   5.599  0.1980 -0.2842  0.1244
 9509SOL    HW140160   1.290   3.187   5.534  1.2210 -0.7245 -0.6434
 9509SOL    HW240161   1.259   3.049   5.557 -0.7353  0.4247  0.0352
 9510SOL     OW40162   1.060   1.564   6.955 -0.1292 -0.5261 -0.3055
 9510SOL    HW140163   0.990   1.599   7.008 -0.1441 -2.5049  0.9781
 9510SOL    HW240164   1.129   1.547   7.019 -0.8098 -1.1497  0.2575
 9511SOL     OW40165   1.882   2.354   2.216  0.0648 -0.4627  0.5552
 9511SOL    HW140166   1.872   2.446   2.191  0.4133 -0.7616 -0.7307
 9511SOL    HW240167   1.795   2.327   2.246 -0.7134  0.7948 -0.5601
 9512SOL     OW40168   0.621   3.019   5.844 -0.6828 -0.2002 -0.5318
 9512SOL    HW140169   0.601   3.102   5.888  1.0685  0.2618 -0.5843
 9512SOL    HW240170   0.715   3.019   5.861 -1.1431  1.7179  2.1440
 9513SOL     OW40171   3.223   4.502  11.862  0.3022 -0.6306 -0.2106
 9513SOL    HW140172   3.158   4.546  11.915  0.8885 -0.4302  0.3404
 9513SOL    HW240173   3.258   4.438  11.924  2.4347  1.9099  1.1713
 9514SOL     OW40174   4.260   2.087   5.278  0.0656  0.5816 -0.3062
 9514SOL    HW140175   4.268   2.175   5.240  0.5855  0.3625 -0.7017
 9514SOL    HW240176   4.337   2.079   5.333  1.5323  2.2819 -2.0983
 9515SOL     OW40177   2.777   3.051   7.959  0.6914  0.7901 -0.5029
 9515SOL    HW140178   2.779   3.006   7.875 -1.4791  0.8221 -0.5783
 9515SOL    HW240179   2.782   3.139   7.923  2.2984  0.2564 -1.5424
 9516SOL     OW40180   0.162   4.541  14.160 -0.2195  0.4006 -0.1268
 9516SOL    HW140181   0.186   4.455  14.195 -2.5834  0.3902  1.4612
 9516SOL    HW240182   0.138   4.587  14.241  3.3872 -1.2938  1.9160
 9517SOL     OW40183   2.675   3.934   7.650  0.4346 -0.0755 -0.5282
 9517SOL    HW140184   2.626   3.907   7.728  3.5425  0.1603  1.5232
 9517SOL    HW240185   2.644   3.870   7.587 -0.8331 -0.3600  0.3749
 9518SOL     OW40186   4.444   4.603   4.967 -0.3873 -0.5248 -0.3691
 9518SOL    HW140187   4.471   4.679   5.018 -5.0608  0.4441  0.6834
 9518SOL    HW240188   4.510   4.541   4.998 -0.5129 -0.1698  0.5841
 9519SOL     OW40189   2.384   0.499   8.792 -0.6012 -0.3465 -0.3316
 9519SOL    HW140190   2.350   0.518   8.880 -1.2007 -0.4503 -0.5420
 9519SOL    HW240191   2.357   0.572   8.736  0.5086  0.6596  0.4426
 9520SOL     OW40192   0.192   1.593  17.341 -0.2972 -0.1155 -1.0533
 9520SOL    HW140193   0.286   1.595  17.322 -0.1701  0.2550 -0.3738
 9520SOL    HW240194   0.181   1.658  17.410 -2.9686  0.3141 -1.8884
 9521SOL     OW40195   3.540   1.591   6.345 -0.2437  0.3575 -0.1498
 9521SOL    HW140196   3.494   1.630   6.271  1.7572  0.5118 -1.3259
 9521SOL    HW240197   3.631   1.606   6.319 -0.5808 -1.4458 -2.4351
 9522SOL     OW40198   3.447   2.252   3.008  0.2145  1.0488 -0.2322
 9522SOL    HW140199   3.476   2.284   2.923  2.7011  0.6611  0.4822
 9522SOL    HW240200   3.368   2.208   2.976 -0.0692  2.9807 -2.1370
 9523SOL     OW40201   0.777   0.394   6.348 -0.0949  0.3406  0.6035
 9523SOL    HW140202   0.858   0.445   6.350 -0.2003  0.5284 -0.1360
 9523SOL    HW240203   0.820   0.310   6.368  1.1100  0.6336 -0.7980
 9524SOL     OW40204   2.962   0.156   2.291  0.3099 -0.4434  0.4696
 9524SOL    HW140205   3.045   0.200   2.310  0.1283  0.0834  0.0599
 9524SOL    HW240206   2.964   0.086   2.356 -2.1823 -0.8809  0.0701
 9525SOL     OW40207   2.465   2.142   7.230 -0.6886 -0.2763 -0.4793
 9525SOL    HW140208   2.385   2.121   7.182  0.1614 -0.6597 -1.7426
 9525SOL    HW240209   2.461   2.076   7.299  1.2116 -1.0186 -1.0822
 9526SOL     OW40210   3.369   3.478   1.999 -0.2321 -0.9804 -0.8036
 9526SOL    HW140211   3.377   3.422   2.076 -0.4796  0.5648  0.3431
 9526SOL    HW240212   3.291   3.529   2.024  0.0723  0.0978 -2.0226
 9527SOL     OW40213   4.239   1.213   6.200  0.0179 -0.8682 -0.6702
 9527SOL    HW140214   4.278   1.297   6.175  0.3258 -0.7588  0.1898
 9527SOL    HW240215   4.210   1.231   6.290  1.3596 -0.5626 -0.3065
 9528SOL     OW40216   4.159   1.164   7.022  0.5129  0.1790  0.0888
 9528SOL    HW140217   4.171   1.075   6.990 -1.1550  0.2642 -0.7567
 9528SOL    HW240218   4.234   1.168   7.081  0.1013  0.2258  0.6110
 9529SOL     OW40219   4.525   2.373   4.569  0.0934 -0.2847 -0.1311
 9529SOL    HW140220   4.593   2.379   4.502 -2.2246 -0.5142 -2.4971
 9529SOL    HW240221   4.479   2.292   4.547 -0.0686  0.3803 -2.1823
 9530SOL     OW40222   3.303   3.024  10.667  0.4631 -0.2037  0.2886
 9530SOL    HW140223   3.328   2.973  10.744  3.0279  0.8535  0.1818
 9530SOL    HW240224   3.231   2.971  10.633  0.0008 -0.0215  0.9849
 9531SOL     OW40225   2.252   2.912   0.150  0.6362 -0.0959 -0.1682
 9531SOL    HW140226   2.260   2.842   0.084  1.9116  0.4942 -0.6440
 9531SOL    HW240227   2.193   2.972   0.105  0.0828  0.0497  0.7577
 9532SOL     OW40228   3.557   0.480   3.911  0.4449  0.3680 -0.0948
 9532SOL    HW140229   3.577   0.450   3.999  0.6363  1.7137  0.3119
 9532SOL    HW240230   3.488   0.543   3.929 -0.4548 -0.5773 -0.2282
 9533SOL     OW40231   1.717   1.870   9.634  0.1988 -0.2817  0.1665
 9533SOL    HW140232   1.788   1.873   9.570  1.5313  0.1558  1.6483
 9533SOL    HW240233   1.681   1.957   9.617 -2.0048 -1.5691 -1.6941
 9534SOL     OW40234   0.162   4.253  13.263 -0.4282  0.4270  0.0205
 9534SOL    HW140235   0.224   4.309  13.310  1.0830 -0.4923 -0.8702
 9534SOL    HW240236   0.107   4.318  13.220 -0.8774 -1.1700 -1.7944
 9535SOL     OW40237   0.065   3.862   7.912 -0.1307  0.4829  0.6154
 9535SOL    HW140238   4.731   3.815   7.867 -0.7406  0.3964  1.6653
 9535SOL    HW240239   0.014   3.933   7.952  1.4408  1.6088  0.5954
 9536SOL     OW40240   0.594   0.687   2.489 -0.0307 -0.2768 -0.1697
 9536SOL    HW140241   0.554   0.638   2.417  0.6062 -0.9259 -0.0908
 9536SOL    HW240242   0.677   0.639   2.496 -0.1817 -0.5213 -0.0833
 9537SOL     OW40243   0.887   4.674   6.753 -0.6049  0.7695  0.0962
 9537SOL    HW140244   0.891   4.582   6.782  0.1461  0.6930 -0.2595
 9537SOL    HW240245   0.959   4.670   6.690  0.5107  0.7536  1.3518
 9538SOL     OW40246   1.491   2.474   4.665 -0.1211 -0.0790 -0.0609
 9538SOL    HW140247   1.406   2.483   4.623  0.0528  1.5578 -0.0522
 9538SOL    HW240248   1.554   2.525   4.613  0.2531  2.6467  3.0697
 9539SOL     OW40249   0.972   3.080   8.473 -0.0741  0.2215 -0.2094
 9539SOL    HW140250   0.909   3.093   8.402  1.2869 -0.0166 -1.4734
 9539SOL    HW240251   0.948   2.995   8.509 -0.1263  0.4250  0.2352
 9540SOL     OW40252   4.575   1.341   4.882 -0.8410  0.1162 -0.4236
 9540SOL    HW140253   4.589   1.382   4.968  0.0081 -2.7708  0.8195
 9540SOL    HW240254   4.564   1.423   4.834  0.2146 -0.6641 -1.9868
 9541SOL     OW40255   3.258   2.449  12.208  0.2758  0.3359  0.7464
 9541SOL    HW140256   3.248   2.466  12.114  0.7024  1.0847  0.8366
 9541SOL    HW240257   3.206   2.369  12.214  0.3787  0.3139  1.3367
 9542SOL     OW40258   3.252   0.571   1.777  0.1447 -0.1625  0.3281
 9542SOL    HW140259   3.334   0.596   1.820  0.0097 -1.1113  1.1367
 9542SOL    HW240260   3.276   0.479   1.771 -0.3601 -0.3065  0.5629
 9543SOL     OW40261   1.305   3.570   1.329 -0.0600  0.1622  0.3089
 9543SOL    HW140262   1.380   3.534   1.281 -0.6881 -2.7026  1.4847
 9543SOL    HW240263   1.253   3.621   1.266  0.1407 -1.0307 -0.8350
 9544SOL     OW40264   3.274   3.430  14.326 -0.1320 -0.2291 -0.4123
 9544SOL    HW140265   3.329   3.504  14.352  0.2598 -1.1444  1.3757
 9544SOL    HW240266   3.315   3.360  14.378 -1.1541 -0.8028 -0.3843
 9545SOL     OW40267   0.675   1.647   6.801  0.0299 -0.0848 -0.0227
 9545SOL    HW140268   0.729   1.714   6.843  1.9443 -1.0613 -0.8913
 9545SOL    HW240269   0.593   1.696   6.796  1.1128  1.8398  0.9954
 9546SOL     OW40270   0.701   1.843   7.646  0.5515  0.2948 -0.4303
 9546SOL    HW140271   0.710   1.797   7.562  3.1628  0.2175 -0.1157
 9546SOL    HW240272   0.719   1.773   7.709 -1.1750 -1.5726 -2.0204
 9547SOL     OW40273   2.992   3.012   5.427  0.5035 -0.3445  0.2215
 9547SOL    HW140274   3.020   3.021   5.518  1.2285 -0.0985 -0.0303
 9547SOL    HW240275   3.054   2.941   5.408  0.3344 -0.3250 -0.3974
 9548SOL     OW40276   2.258   3.006   7.378 -0.0611 -0.1070  0.0129
 9548SOL    HW140277   2.254   3.101   7.393 -0.4732 -0.1223 -0.0182
 9548SOL    HW240278   2.167   2.993   7.354 -0.4508  0.7807  1.0014
 9549SOL     OW40279   0.144   1.344   3.563  0.4472  0.2521  0.0478
 9549SOL    HW140280   0.103   1.428   3.539  0.3117 -0.2845 -1.6463
 9549SOL    HW240281   0.100   1.283   3.504  1.5542 -0.9780  0.5112
 9550SOL     OW40282   0.480   2.360   3.206  0.2272  0.6095  0.1320
 9550SOL    HW140283   0.486   2.445   3.162  2.3389  0.7199  0.6642
 9550SOL    HW240284   0.533   2.375   3.284 -1.6669  1.6076  1.2582
 9551SOL     OW40285   2.884   0.263   9.657 -0.6212  0.0312 -0.6850
 9551SOL    HW140286   2.870   0.201   9.729  1.6445 -0.0206 -0.2826
 9551SOL    HW240287   2.803   0.312   9.670  0.9579  2.2552  0.7157
 9552SOL     OW40288   2.968   3.730   4.113  0.3050 -0.0481 -0.0012
 9552SOL    HW140289   2.970   3.681   4.031 -3.4631  1.6249 -1.0798
 9552SOL    HW240290   2.937   3.815   4.081  0.7238  0.2593  0.3981
 9553SOL     OW40291   3.239   3.315   7.174 -0.1844  0.4577  0.6432
 9553SOL    HW140292   3.260   3.408   7.171  1.1316  0.2182  2.2422
 9553SOL    HW240293   3.250   3.313   7.269  1.4454  0.5597  0.4624
 9554SOL     OW40294   3.243   3.621  11.931  0.0968  0.3286 -0.1548
 9554SOL    HW140295   3.166   3.669  11.900  1.3646  2.5373  0.1017
 9554SOL    HW240296   3.285   3.684  11.990 -2.5307  1.6037  0.3603
 9555SOL     OW40297   2.631   3.471   3.658  0.3637  0.0244  0.0044
 9555SOL    HW140298   2.725   3.484   3.670  0.7807 -1.2773 -1.9504
 9555SOL    HW240299   2.603   3.497   3.746 -0.9156 -1.4392  0.0348
 9556SOL     OW40300   3.375   4.345   0.192  0.1010  0.2144  0.2365
 9556SOL    HW140301   3.332   4.340   0.107  0.9042 -1.0074 -0.1074
 9556SOL    HW240302   3.447   4.406   0.178  1.9007 -1.4993  1.9317
 9557SOL     OW40303   2.921   1.274   5.558 -0.0975  0.1749 -0.0042
 9557SOL    HW140304   2.832   1.274   5.521 -0.1607  0.1392  0.1464
 9557SOL    HW240305   2.900   1.342   5.622 -3.1075  1.0845 -1.9697
 9558SOL     OW40306   0.419   2.369  16.385 -0.4881  0.0544 -0.1961
 9558SOL    HW140307   0.432   2.418  16.466  0.3885 -0.5917  0.0586
 9558SOL    HW240308   0.390   2.435  16.323 -2.4048 -0.0437  0.5920
 9559SOL     OW40309   2.175   2.477   4.359 -1.1377 -0.0317 -0.9645
 9559SOL    HW140310   2.161   2.420   4.435  1.6218  1.9780  1.0419
 9559SOL    HW240311   2.189   2.401   4.302  0.0649 -1.1538  0.8232
 9560SOL     OW40312   2.530   2.582   7.272  0.4145 -0.1773  0.0242
 9560SOL    HW140313   2.534   2.678   7.264  2.2467 -0.1723  1.0023
 9560SOL    HW240314   2.465   2.579   7.342  0.4255  1.6504  0.1229
 9561SOL     OW40315   1.168   4.133   1.716 -0.0671 -0.1156 -0.1688
 9561SOL    HW140316   1.199   4.224   1.713  1.4758 -0.6233  0.4435
 9561SOL    HW240317   1.172   4.106   1.807 -1.1892 -3.6296 -1.1794
 9562SOL     OW40318   2.841   4.555   5.417  0.2257 -0.0838 -0.0940
 9562SOL    HW140319   2.764   4.532   5.364 -0.0291 -0.1883  0.3172
 9562SOL    HW240320   2.906   4.547   5.347 -0.0109  1.7670 -0.5067
 9563SOL     OW40321   2.257   2.061   1.942  0.3735  1.1281  0.0578
 9563SOL    HW140322   2.283   2.068   2.034 -0.1067 -0.4479  0.3070
 9563SOL    HW240323   2.166   2.084   1.962  0.6639  0.4660  2.0471
 9564SOL     OW40324   4.146   1.447   8.943  0.4777 -0.6520  0.3492
 9564SOL    HW140325   4.124   1.415   9.030 -1.5595  0.0653  0.1087
 9564SOL    HW240326   4.220   1.503   8.963  0.5720 -0.6543  0.0073
 9565SOL     OW40327   1.684   1.797   5.888 -0.0036  0.4058  0.1154
 9565SOL    HW140328   1.617   1.733   5.863 -0.4997  1.3944 -1.0895
 9565SOL    HW240329   1.639   1.875   5.855  0.5611 -0.5699 -3.0435
 9566SOL     OW40330   4.345   0.955   9.486  0.1170 -0.3889  0.0862
 9566SOL    HW140331   4.421   0.947   9.429 -1.5864  1.0258 -2.3980
 9566SOL    HW240332   4.387   1.013   9.550 -1.5371 -0.3386  1.1213
 9567SOL     OW40333   0.856   1.187   5.402 -0.0292  0.0322 -0.0654
 9567SOL    HW140334   0.779   1.225   5.444  0.8024  2.2994 -0.6074
 9567SOL    HW240335   0.892   1.268   5.367  0.3768  0.6494  1.7562
 9568SOL     OW40336   4.181   0.620   9.305 -0.5478 -0.1507 -0.3194
 9568SOL    HW140337   4.139   0.584   9.226 -0.5694 -0.7073 -0.0542
 9568SOL    HW240338   4.271   0.596   9.282 -0.4386 -0.8560  0.8474
 9569SOL     OW40339   3.382   2.548   6.517  0.1297 -0.5914  0.5933
 9569SOL    HW140340   3.414   2.482   6.456  0.7319  0.9121 -0.7094
 9569SOL    HW240341   3.416   2.636   6.499  0.7961 -0.6273  1.6642
 9570SOL     OW40342   2.797   4.027   7.266 -0.2958  0.1083 -0.4056
 9570SOL    HW140343   2.724   4.066   7.220 -0.5706 -1.0220 -0.9345
 9570SOL    HW240344   2.766   3.937   7.278  2.6353 -0.7575  0.8880
 9571SOL     OW40345   3.972   1.425   9.415  0.4281  0.1653  0.3651
 9571SOL    HW140346   3.907   1.361   9.446  0.6643 -1.2376 -2.0492
 9571SOL    HW240347   4.015   1.450   9.497 -0.1225 -2.9798  1.6392
   4.73683   4.73683  17.74574
