Membrane in water
40347
    1TMC1    C1    1   3.215   2.605  10.922  0.0761 -0.0387 -0.3237
    1TMC1    C2    2   3.331   2.652  10.863 -0.1543 -0.2971  0.1527
    1TMC1    C3    3   3.321   2.760  10.776  0.1259  0.4233  0.0488
    1TMC1    C4    4   3.087   2.651  10.888 -0.4460  0.2917 -0.5829
    1TMC1    C5    5   3.084   2.749  10.792 -0.3816  0.1101 -0.2957
    1TMC1    C6    6   3.200   2.804  10.730  0.4797 -0.7448  0.0487
    1TMC1     C    7   3.229   2.511  11.033  0.1897 -0.3792 -0.1539
    1TMC1     O    8   3.141   2.514  11.115  0.0098  0.3374  0.0543
    1TMC1     H    9   3.430   2.621  10.896 -0.1275 -0.1986  0.1667
    1TMC1    H1   10   3.002   2.633  10.954  1.7590  1.1340  2.4743
    1TMC1    H2   11   3.191   2.876  10.649  0.4993 -0.7446  0.0467
    1TMC1    C7   12   2.969   2.797  10.731 -0.5385  0.0395  0.3748
    1TMC1    C8   13   3.438   2.780  10.696 -0.7284 -0.0763  0.9009
    1TMC1    O1   14   2.963   2.891  10.649 -0.0787  0.0326 -0.0432
    1TMC1    O2   15   3.531   2.702  10.713  0.0742 -0.3693  0.4911
    1TMC1    O3   16   2.874   2.710  10.745 -0.0419 -0.2283  0.6387
    1TMC1    H3   17   2.905   2.634  10.798 -0.4607 -0.9195 -0.1078
    1TMC1    O5   18   3.437   2.895  10.637 -0.5853 -0.2246 -0.2498
    1TMC1    H5   19   3.345   2.924  10.655 -0.9828 -0.8547 -1.2181
    2MPD2     C   20   3.402   2.069  11.251 -0.3063  0.4121 -0.1885
    2MPD2    C1   21   3.303   2.159  11.286  0.5668  0.0430 -0.1639
    2MPD2    C2   22   3.283   2.278  11.216  0.3309  0.2266 -0.8390
    2MPD2    C3   23   3.360   2.314  11.109 -0.1629 -0.3680  0.6075
    2MPD2    C4   24   3.471   2.230  11.085 -0.8051 -0.5732 -0.2899
    2MPD2    C5   25   3.494   2.113  11.156  0.3874 -0.1460 -0.1464
    2MPD2     H   26   3.192   2.332  11.238  2.1865  3.5792 -1.3238
    2MPD2    H1   27   3.543   2.244  11.006  1.1608  1.4717  1.8873
    2MPD2    H2   28   3.414   1.975  11.303 -1.2672  1.7978  2.5757
    2MPD2    H3   29   3.579   2.050  11.133 -0.3729 -1.6262  1.0576
    2MPD2     N   30   3.337   2.426  11.020  0.4917 -0.0565  0.2168
    2MPD2    H5   31   3.404   2.432  10.944 -2.7431 -1.0463 -2.6629
    2MPD2    N1   32   3.230   2.140  11.403 -0.0091  0.3557  0.4329
    2MPD2    H7   33   3.187   2.223  11.441 -2.2954 -0.3193 -0.7189
    3TMC1    C1   34   3.351   3.290  10.489  0.3692  0.2287 -0.2231
    3TMC1    C2   35   3.405   3.415  10.456 -0.1099 -0.3531 -0.1747
    3TMC1    C3   36   3.511   3.417  10.368  0.0954  0.7329  0.0719
    3TMC1    C4   37   3.400   3.175  10.426 -0.3488  0.4638 -0.0718
    3TMC1    C5   38   3.504   3.186  10.332 -1.0525  0.9707 -0.8129
    3TMC1    C6   39   3.557   3.309  10.298 -0.0256  0.1004 -0.1581
    3TMC1     C   40   3.250   3.263  10.585  0.1952 -0.3037 -0.5185
    3TMC1     O   41   3.229   3.149  10.621 -0.5595 -0.3469 -0.0437
    3TMC1     H   42   3.365   3.511  10.487  1.5033  0.3416 -0.2176
    3TMC1    H1   43   3.367   3.076  10.455  0.7982 -0.6886 -2.7235
    3TMC1    H2   44   3.623   3.326  10.214  1.5408  1.9467  1.4324
    3TMC1    C7   45   3.572   3.063  10.299  0.7239 -0.2998 -0.1536
    3TMC1    C8   46   3.534   3.544  10.305 -0.0059  0.9787 -0.0263
    3TMC1    O1   47   3.501   2.963  10.293  0.3089  0.3893 -0.4771
    3TMC1    O2   48   3.640   3.602  10.337 -0.9751 -0.3181  0.0546
    3TMC1    O3   49   3.686   3.083  10.236  0.0639  0.2807  0.3060
    3TMC1    H3   50   3.728   3.172  10.242 -0.8170  0.5985  2.0214
    3TMC1    O5   51   3.477   3.537  10.178 -0.0157 -0.0219 -0.5417
    3TMC1    H5   52   3.385   3.506  10.181 -1.3184  3.8138 -0.5932
    4MPD2     C   53   2.910   3.395  10.952 -0.1379  0.0108  0.2361
    4MPD2    C1   54   2.977   3.506  10.910  0.4848 -0.3441  0.9999
    4MPD2    C2   55   3.068   3.496  10.804 -0.2276 -0.1619 -0.0998
    4MPD2    C3   56   3.093   3.376  10.736  0.4719 -0.0924 -0.1331
    4MPD2    C4   57   3.030   3.262  10.784 -0.2873 -0.5156  0.3077
    4MPD2    C5   58   2.931   3.277  10.882 -0.2561  0.6145  0.0186
    4MPD2     H   59   3.118   3.586  10.770 -1.3588  0.4816 -0.0901
    4MPD2    H1   60   3.049   3.167  10.736 -1.8805 -1.1603  0.9573
    4MPD2    H2   61   2.832   3.392  11.027 -0.9701  0.0964 -0.6168
    4MPD2    H3   62   2.867   3.192  10.906  0.3152  0.0259 -0.5249
    4MPD2     N   63   3.186   3.370  10.632 -0.3673 -0.0063 -0.1158
    4MPD2    H5   64   3.215   3.460  10.596  0.0493  0.0133  0.2574
    4MPD2    N1   65   2.953   3.630  10.965 -0.1273  0.5285  0.1339
    4MPD2    H7   66   3.012   3.706  10.932  0.6126  0.8544  2.1788
    5TCq1    O1   67   4.489   0.437  11.813  0.2894  0.5551 -0.4933
    5TCq1    C1   68   4.486   0.456  11.679 -0.2098 -0.7057 -1.6976
    5TCq1    O2   69   4.559   0.395  11.606 -0.0382 -0.4099  0.1480
    5TCq1    C2   70   4.340   0.476  11.646 -0.1873 -0.4892  0.0635
    5TCq1    C3   71   4.252   0.542  11.720  0.1551 -0.1392  0.7374
    5TCq1    C4   72   4.122   0.553  11.682  0.2528  0.7938  0.0220
    5TCq1    C5   73   4.080   0.487  11.566  0.0645 -0.6886  0.1885
    5TCq1    C6   74   4.171   0.415  11.499 -0.6205  0.4410  0.5409
    5TCq1    C7   75   4.307   0.410  11.528  1.5306  0.5116  0.3697
    5TCq1    C8   76   4.122   0.318  11.401 -0.3744  0.8209  0.3972
    5TCq1    O4   77   4.200   0.230  11.371  0.1539  0.4162 -0.5338
    5TCq1    C9   78   4.035   0.633  11.756 -0.4369  0.4767 -0.7234
    5TCq1    O5   79   4.077   0.695  11.853  0.0563 -0.0340  0.0629
    5TCq1    O6   80   3.917   0.645  11.711 -0.2745  0.1020  0.9071
    5TCq1    H1   81   4.414   0.470  11.868 -0.0180 -1.3084  0.1939
    5TCq1    H2   82   4.285   0.603  11.804  0.6171  1.4699 -0.6059
    5TCq1    H3   83   3.975   0.480  11.539  0.0406  0.5795 -0.0644
    5TCq1    H4   84   4.376   0.366  11.457 -1.0593  0.2218 -1.9809
    6MPD2     C   85   3.844   0.342  11.154 -0.4196  0.4009  0.1870
    6MPD2    C1   86   3.946   0.278  11.229  0.1105  0.5475 -0.7456
    6MPD2    C2   87   3.982   0.152  11.187 -0.2920  1.0310  0.4214
    6MPD2    C3   88   3.915   0.099  11.076 -0.0707  0.7527 -0.5229
    6MPD2    C4   89   3.797   0.157  11.026  0.0549  0.4029  0.1366
    6MPD2    C5   90   3.770   0.284  11.060 -0.5784 -0.2498 -0.0089
    6MPD2     H   91   4.057   0.093  11.238 -1.1749  1.6233  2.4240
    6MPD2    H1   92   3.725   0.112  10.958 -1.9912  0.5133  2.2613
    6MPD2    H2   93   3.820   0.444  11.181  0.7567  0.7984 -0.2644
    6MPD2    H3   94   3.687   0.336  11.012 -1.0886 -1.2633 -0.2231
    6MPD2     N   95   3.966   4.723  11.029  0.0483  0.0617  0.4576
    6MPD2    H5   96   4.049   4.682  11.071  0.2379 -2.0570 -2.0573
    6MPD2    N1   97   4.013   0.355  11.326  0.1852  0.3796 -0.1270
    6MPD2    H7   98   3.966   0.442  11.349 -1.5273 -0.3578 -0.8838
    7TCq1    O1   99   0.959   0.207  13.033  0.5484  0.3596  0.4436
    7TCq1    C1  100   1.052   0.114  13.066 -0.2906  0.0410 -0.4056
    7TCq1    O2  101   1.167   0.134  13.088  0.0759  0.2222  0.2922
    7TCq1    C2  102   1.000   4.720  13.049 -0.2991 -0.8617 -0.2022
    7TCq1    C3  103   0.868   4.693  13.079 -0.1162  0.4986  0.4788
    7TCq1    C4  104   0.844   4.559  13.098  0.1096  0.2101 -0.0229
    7TCq1    C5  105   0.934   4.464  13.067 -0.8274 -0.2300  1.0342
    7TCq1    C6  106   1.062   4.502  13.055 -0.3077  0.6379 -0.5885
    7TCq1    C7  107   1.100   4.629  13.045  0.1300 -0.2194 -0.6804
    7TCq1    C8  108   1.162   4.417  13.115  0.1859  0.2227 -0.0834
    7TCq1    O4  109   1.160   4.297  13.090 -0.0386  0.0575 -0.0660
    7TCq1    C9  110   0.713   4.525  13.138  0.0065 -0.2591 -0.8042
    7TCq1    O5  111   0.698   4.413  13.200  0.2532 -0.5871  0.5466
    7TCq1    O6  112   0.630   4.617  13.128  0.4730 -0.0379 -0.7679
    7TCq1    H1  113   0.882   0.168  12.988 -0.0623 -1.1211  2.8045
    7TCq1    H2  114   0.798   0.033  13.093 -0.0024  0.9083 -1.3555
    7TCq1    H3  115   0.899   4.361  13.069  0.8912 -0.8311 -0.6488
    7TCq1    H4  116   1.202   4.647  13.014  0.2458 -1.6395 -1.1435
    8MPD2     C  117   1.505   4.378  13.489 -0.2488 -0.4084  0.6270
    8MPD2    C1  118   1.454   4.274  13.411 -0.2058 -0.7802 -0.4651
    8MPD2    C2  119   1.365   4.302  13.304 -0.3703 -1.2828  0.4303
    8MPD2    C3  120   1.331   4.440  13.294 -0.5607 -0.5398  0.0109
    8MPD2    C4  121   1.372   4.538  13.381 -1.1532  0.0992  0.1098
    8MPD2    C5  122   1.473   4.504  13.469  1.8212 -0.0858  0.0502
    8MPD2     H  123   1.308   4.223  13.257 -0.0054 -0.4406 -1.4663
    8MPD2    H1  124   1.343   4.642  13.365  0.7783  0.5826 -0.2536
    8MPD2    H2  125   1.577   4.351  13.566  0.5382  0.8268  0.3298
    8MPD2    H3  126   1.517   4.577  13.536 -0.0705  2.8586 -1.9405
    8MPD2     N  127   1.232   4.482  13.207  0.6276  0.1463  0.1622
    8MPD2    H5  128   1.210   4.581  13.214 -4.4943 -0.9325 -0.7321
    8MPD2    N1  129   1.474   4.148  13.468  0.2142  0.2049  0.2484
    8MPD2    H7  130   1.504   4.141  13.565 -0.3985  1.5727  0.5354
    9TMC1    C1  131   3.988   2.964  10.868 -0.0676  0.0737 -0.0474
    9TMC1    C2  132   3.886   2.876  10.858 -0.3223  0.2971  0.1852
    9TMC1    C3  133   3.931   2.753  10.833 -0.6763 -0.0447 -0.0194
    9TMC1    C4  134   4.117   2.933  10.858 -0.5167 -0.4405  0.7792
    9TMC1    C5  135   4.164   2.805  10.847 -0.1033 -0.3274  0.2820
    9TMC1    C6  136   4.064   2.710  10.836 -0.3003  0.0166  0.3384
    9TMC1     C  137   3.960   3.093  10.931 -0.0848 -0.1386 -0.5375
    9TMC1     O  138   4.049   3.177  10.928 -0.1963  0.4890 -0.6314
    9TMC1     H  139   3.786   2.910  10.832 -0.8018 -1.3500 -0.1330
    9TMC1    H1  140   4.196   3.007  10.874 -1.1684  0.7737 -1.6913
    9TMC1    H2  141   4.090   2.610  10.804  1.6859  0.2376  1.2340
    9TMC1    C7  142   4.281   2.795  10.768  0.2244  0.3017  0.3648
    9TMC1    C8  143   3.828   2.655  10.805  0.2204 -0.1634  0.8265
    9TMC1    O1  144   4.311   2.712  10.685  0.0864 -0.5151  0.5741
    9TMC1    O2  145   3.869   2.550  10.762 -0.4637 -0.1041  0.0568
    9TMC1    O3  146   4.384   2.857  10.841 -0.1969  0.5204 -0.0982
    9TMC1    H3  147   4.342   2.889  10.924 -0.5549  0.2974 -0.1933
    9TMC1    O5  148   3.769   2.660  10.921 -0.2629 -0.2154 -0.0309
    9TMC1    H5  149   3.732   2.746  10.952  0.1922 -0.4721  1.2356
   10MPD2     C  150   3.811   3.331  11.014  0.4723 -0.2356 -0.4001
   10MPD2    C1  151   3.780   3.208  11.059  0.0034 -0.0133  0.5117
   10MPD2    C2  152   3.683   3.190  11.155  0.2522 -0.5279  0.2364
   10MPD2    C3  153   3.621   3.306  11.215 -0.2617 -0.5389 -0.3435
   10MPD2    C4  154   3.657   3.434  11.165  0.0853  0.7335 -0.2151
   10MPD2    C5  155   3.750   3.445  11.066 -0.6709  0.4677 -0.5454
   10MPD2     H  156   3.660   3.092  11.195  1.1727 -1.3030 -1.1713
   10MPD2    H1  157   3.602   3.519  11.203 -0.5154 -0.3008  1.2151
   10MPD2    H2  158   3.890   3.348  10.941  0.9946 -2.1777 -0.2756
   10MPD2    H3  159   3.778   3.539  11.020  1.7554 -0.7038 -1.4775
   10MPD2     N  160   3.529   3.305  11.315 -0.3709 -0.5874 -0.9048
   10MPD2    H5  161   3.525   3.389  11.372  3.9482 -1.5801  0.8917
   10MPD2    N1  162   3.836   3.090  10.999 -0.3283  0.4530  0.8575
   10MPD2    H7  163   3.786   3.003  11.011  0.0971  0.2414  1.1176
   11TCq1    O1  164   4.321   3.465  12.481  0.2309  0.1187 -0.5892
   11TCq1    C1  165   4.210   3.432  12.554  0.0697  0.0447  0.1881
   11TCq1    O2  166   4.098   3.400  12.512 -0.1919 -0.0985 -0.0761
   11TCq1    C2  167   4.233   3.470  12.693  0.1063 -0.5294  0.8027
   11TCq1    C3  168   4.340   3.423  12.758 -1.2356  0.6134 -0.8851
   11TCq1    C4  169   4.334   3.402  12.892 -0.2876  0.4257 -0.3322
   11TCq1    C5  170   4.214   3.428  12.965 -0.5092 -0.6067 -0.0930
   11TCq1    C6  171   4.105   3.460  12.893  0.2878 -0.1456  0.0051
   11TCq1    C7  172   4.113   3.478  12.761 -0.1645 -0.3141 -0.5179
   11TCq1    C8  173   3.976   3.456  12.964 -0.4367  0.0068 -0.0723
   11TCq1    O4  174   3.899   3.546  12.936 -0.3766  0.3867 -0.0006
   11TCq1    C9  175   4.447   3.350  12.966  0.5860  0.5107  0.4055
   11TCq1    O5  176   4.559   3.339  12.901 -0.0977 -0.2460 -0.6086
   11TCq1    O6  177   4.425   3.332  13.090  0.2040  0.2840 -0.0558
   11TCq1    H1  178   4.390   3.506  12.537 -0.5979  0.4971  0.1575
   11TCq1    H2  179   4.425   3.387  12.701 -0.5481  0.7878  0.0368
   11TCq1    H3  180   4.206   3.404  13.070 -2.7944  0.9397  0.0919
   11TCq1    H4  181   4.019   3.501  12.712 -0.3047  1.5980  0.6719
   12MPD2     C  182   3.727   3.351  13.077 -0.2911 -0.3652 -0.0073
   12MPD2    C1  183   3.845   3.276  13.069 -0.1301  0.7015  0.6805
   12MPD2    C2  184   3.841   3.152  13.115  0.2385 -0.0400 -0.4938
   12MPD2    C3  185   3.725   3.089  13.153 -0.0661 -1.0663  0.2368
   12MPD2    C4  186   3.604   3.160  13.144  0.2869  0.1463  0.2335
   12MPD2    C5  187   3.606   3.294  13.116 -0.1459  0.5212  0.0626
   12MPD2     H  188   3.928   3.088  13.110 -0.2173 -0.8137  1.7999
   12MPD2    H1  189   3.511   3.105  13.155 -0.7122  1.7354 -0.3071
   12MPD2    H2  190   3.728   3.452  13.037  0.0872  0.0045  0.9475
   12MPD2    H3  191   3.520   3.359  13.106 -0.9783 -0.6110 -0.1140
   12MPD2     N  192   3.722   2.954  13.200 -0.3088  0.1704  0.1959
   12MPD2    H5  193   3.631   2.914  13.220  0.9038 -2.1484  1.1643
   12MPD2    N1  194   3.965   3.332  13.027  0.3658 -0.2548  0.3338
   12MPD2    H7  195   4.051   3.278  13.021  0.2460 -0.2132 -1.7870
   13TCq1    O1  196   4.319   3.377  11.440 -0.0925  0.0652 -0.3960
   13TCq1    C1  197   4.224   3.295  11.492  0.1792  0.0580  0.5335
   13TCq1    O2  198   4.148   3.316  11.587 -0.1103  0.0488  0.0053
   13TCq1    C2  199   4.188   3.192  11.398 -1.0398 -0.3471  0.3361
   13TCq1    C3  200   4.275   3.149  11.306  0.6255 -0.2871 -0.8469
   13TCq1    C4  201   4.245   3.037  11.232  0.4915 -0.0973  0.2632
   13TCq1    C5  202   4.133   2.965  11.253 -0.1454 -0.6528 -0.2133
   13TCq1    C6  203   4.039   3.013  11.342  0.5286  0.3590 -0.1603
   13TCq1    C7  204   4.063   3.128  11.415 -0.4651 -0.4223  0.0394
   13TCq1    C8  205   3.902   2.961  11.358  0.0131 -0.9706 -0.4327
   13TCq1    O4  206   3.819   3.026  11.414 -0.4301 -0.2836 -0.3478
   13TCq1    C9  207   4.343   2.998  11.142 -0.6019  0.7140  0.5257
   13TCq1    O5  208   4.428   3.078  11.093 -0.7382 -0.4347  0.3514
   13TCq1    O6  209   4.325   2.884  11.087  0.0509 -0.2528  0.2202
   13TCq1    H1  210   4.349   3.373  11.346 -0.1606 -0.2449 -0.4030
   13TCq1    H2  211   4.374   3.191  11.294  0.3918  0.7621  0.8708
   13TCq1    H3  212   4.114   2.881  11.186  2.5637 -1.3299 -0.1534
   13TCq1    H4  213   3.990   3.174  11.481  0.1681 -0.9132  1.0708
   14MPD2     C  214   3.758   2.633  11.261  0.4754  0.0795  0.3092
   14MPD2    C1  215   3.768   2.767  11.300  0.2137  0.5930 -1.0278
   14MPD2    C2  216   3.640   2.828  11.328  0.7353 -0.1918  0.0831
   14MPD2    C3  217   3.521   2.752  11.328  0.1408 -0.4391 -0.3835
   14MPD2    C4  218   3.522   2.617  11.302 -0.0586  0.0370 -0.1163
   14MPD2    C5  219   3.643   2.561  11.265  0.0244  0.0045 -0.1357
   14MPD2     H  220   3.626   2.935  11.338  1.9049  0.0137 -0.5794
   14MPD2    H1  221   3.432   2.559  11.294  0.1650 -0.4644  1.0076
   14MPD2    H2  222   3.843   2.576  11.225  0.2005  0.6842 -1.3002
   14MPD2    H3  223   3.653   2.459  11.229 -0.2503 -0.4333  1.0326
   14MPD2     N  224   3.395   2.823  11.351  0.0763 -0.5037  0.3266
   14MPD2    H5  225   3.394   2.924  11.347  0.3671 -0.5674 -1.5657
   14MPD2    N1  226   3.887   2.835  11.305 -0.0336 -0.3285 -0.4207
   14MPD2    H7  227   3.966   2.782  11.270  0.5932  0.3239  0.0228
   15TCq1    O1  228   0.063   1.082   2.058  0.1360 -0.0527 -0.1723
   15TCq1    C1  229   0.086   1.205   2.007 -0.5093  0.3574  1.2259
   15TCq1    O2  230   0.196   1.249   1.990 -0.3990  0.0104  0.9793
   15TCq1    C2  231   4.733   1.235   1.902 -0.3510  0.3542 -0.2366
   15TCq1    C3  232   4.601   1.201   1.916  0.8773  0.0449 -0.1081
   15TCq1    C4  233   4.521   1.219   1.811 -0.4857  0.1945  0.3982
   15TCq1    C5  234   4.571   1.265   1.693  0.2274 -0.6529  0.2099
   15TCq1    C6  235   4.698   1.292   1.688  0.4400 -0.2814 -0.2466
   15TCq1    C7  236   0.052   1.271   1.785  0.2240 -0.7063 -0.7079
   15TCq1    C8  237   0.014   1.317   1.561 -0.9863  0.4054 -0.4932
   15TCq1    O4  238   0.135   1.309   1.561 -0.7826 -0.0738 -0.1891
   15TCq1    C9  239   4.384   1.195   1.816  0.7114  0.3836  0.5713
   15TCq1    O5  240   4.356   1.110   1.897 -0.0544  0.2628 -0.2910
   15TCq1    O6  241   4.316   1.223   1.714 -0.5523 -0.2929 -0.1771
   15TCq1    H1  242   4.728   1.032   2.024 -0.0686 -0.5889  1.1066
   15TCq1    H2  243   4.560   1.166   2.010  0.3579  3.1731  0.8198
   15TCq1    H3  244   4.501   1.262   1.610 -0.4024  1.4258  0.6788
   15TCq1    H4  245   0.156   1.302   1.781  0.1851 -0.6227 -1.1225
   16MPD2     C  246   4.634   1.455   1.246 -0.0445  0.0092  0.0253
   16MPD2    C1  247   4.716   1.390   1.332  0.5448  0.3829  0.0251
   16MPD2    C2  248   0.088   1.332   1.269  0.4504 -0.3999 -0.4620
   16MPD2    C3  249   0.107   1.357   1.133  0.0414  0.6988 -0.4352
   16MPD2    C4  250   0.018   1.420   1.054 -0.0162  0.3505 -0.0777
   16MPD2    C5  251   4.655   1.484   1.118 -0.5117 -0.3515 -0.8087
   16MPD2     H  252   0.152   1.273   1.333 -1.0275  0.6366  1.9667
   16MPD2    H1  253   0.036   1.436   0.949  2.3195  0.6260  0.3785
   16MPD2    H2  254   4.543   1.500   1.284 -0.1805 -1.0264  0.8936
   16MPD2    H3  255   4.577   1.536   1.064 -0.6163  1.6082  1.2171
   16MPD2     N  256   0.238   1.328   1.083  0.0219  0.3467  0.2698
   16MPD2    H5  257   0.311   1.316   1.152  1.0100 -1.5113 -1.0872
   16MPD2    N1  258   4.675   1.379   1.468  0.8906  0.4817  0.0102
   16MPD2    H7  259   4.580   1.405   1.495  0.2458  0.1238 -1.9195
   17TMC1    C1  260   3.501   1.424  11.100  0.0588  0.6137  0.0346
   17TMC1    C2  261   3.583   1.531  11.140  0.1711  0.0398  0.1147
   17TMC1    C3  262   3.540   1.606  11.248  0.2414  0.1048 -0.3556
   17TMC1    C4  263   3.385   1.395  11.171 -0.4425  0.2101 -0.4338
   17TMC1    C5  264   3.357   1.468  11.279  0.7630 -0.2945 -0.0174
   17TMC1    C6  265   3.424   1.574  11.317 -0.2450  0.4020 -0.0627
   17TMC1     C  266   3.531   1.346  10.979 -0.9036  0.1240  0.4835
   17TMC1     O  267   3.473   1.236  10.969  0.4234  0.6957  0.2392
   17TMC1     H  268   3.672   1.559  11.085  0.6518  1.8474  1.8090
   17TMC1    H1  269   3.329   1.304  11.153 -0.0058 -0.2747  0.6610
   17TMC1    H2  270   3.404   1.645  11.397  2.5392 -0.4064  1.3562
   17TMC1    C7  271   3.234   1.452  11.346  0.5421  0.5190 -0.2696
   17TMC1    C8  272   3.606   1.733  11.275  0.5049  0.0315  0.2856
   17TMC1    O1  273   3.138   1.413  11.279  0.1260 -0.3694 -0.4783
   17TMC1    O2  274   3.591   1.788  11.381  0.9198  0.2802  0.0660
   17TMC1    O3  275   3.260   1.418  11.477  0.1254  0.5421 -0.0038
   17TMC1    H3  276   3.357   1.425  11.490  0.2292 -1.5317  0.3121
   17TMC1    O5  277   3.614   1.812  11.166  0.2229  0.0274 -0.2027
   17TMC1    H5  278   3.591   1.750  11.093 -0.0294  0.5615 -0.5702
   18MPD2     C  279   3.576   1.272  10.690 -0.0078 -0.8852  0.1282
   18MPD2    C1  280   3.646   1.376  10.757 -0.7062 -0.2750  0.1829
   18MPD2    C2  281   3.744   1.443  10.682  0.0645  0.3127 -0.2148
   18MPD2    C3  282   3.768   1.407  10.549 -0.2826  0.7991 -0.0102
   18MPD2    C4  283   3.703   1.297  10.491 -0.2075  0.2109 -0.3986
   18MPD2    C5  284   3.605   1.242  10.562  0.1430  0.1593  0.3901
   18MPD2     H  285   3.802   1.526  10.723  0.7777  0.9289 -2.4961
   18MPD2    H1  286   3.724   1.271  10.388 -1.1339 -2.0424 -0.0181
   18MPD2    H2  287   3.493   1.223  10.739 -0.5010  1.5296  1.6947
   18MPD2    H3  288   3.557   1.159  10.510  0.8236  0.5166 -0.8174
   18MPD2     N  289   3.860   1.472  10.461 -0.1965 -0.0582 -0.3284
   18MPD2    H5  290   3.866   1.423  10.372 -0.9148  1.3223 -1.1382
   18MPD2    N1  291   3.621   1.413  10.892 -0.0616  0.1102  0.1686
   18MPD2    H7  292   3.674   1.489  10.934 -0.4968 -0.3272  1.5117
   19TMC2    C1  293   0.022   3.338  13.643 -0.1149  0.2180  0.5283
   19TMC2    C2  294   4.717   3.331  13.513  0.3132 -0.0628  0.7467
   19TMC2    C3  295   4.644   3.221  13.474 -0.1869  0.0924 -1.0383
   19TMC2    C4  296   4.728   3.243  13.744  0.5695 -0.4930 -0.4807
   19TMC2    C5  297   4.650   3.141  13.699 -0.1325  0.1898 -0.6441
   19TMC2    C6  298   4.612   3.130  13.569 -0.2350  0.2692  0.0814
   19TMC2     C  299   0.108   3.444  13.683  0.0026  0.4416  0.1471
   19TMC2     O  300   0.101   3.550  13.620  0.1095  0.3888  0.3085
   19TMC2     H  301   4.738   3.414  13.445  1.1884 -2.7743 -2.2981
   19TMC2    H1  302   0.024   3.250  13.845  0.2926  1.3557 -0.4964
   19TMC2    H2  303   4.552   3.049  13.530 -1.9371  2.2402 -1.3639
   19TMC2    C7  304   4.612   3.030  13.785 -0.4107  0.7109 -0.6626
   19TMC2    C8  305   4.592   3.210  13.339 -0.3688 -0.3413  0.1959
   19TMC2    O1  306   4.537   2.942  13.741 -0.0151 -0.2555  0.7563
   19TMC2    O2  307   4.521   3.117  13.312 -0.2111  0.0393  0.7384
   19TMC2    O5  308   4.585   3.338  13.297  0.1381  0.8599  0.4333
   19TMC2    H5  309   4.527   3.345  13.218  0.7754  1.6359  0.0298
   20MPD2     C  310   0.333   3.609  13.808 -0.2965 -0.1448  0.0257
   20MPD2    C1  311   0.309   3.476  13.828  0.1500  0.0162 -0.1980
   20MPD2    C2  312   0.399   3.420  13.918 -0.1996  1.0135  0.0704
   20MPD2    C3  313   0.506   3.483  13.981  0.4238  0.6652  0.0746
   20MPD2    C4  314   0.528   3.616  13.949  0.3821 -1.0355  0.4465
   20MPD2    C5  315   0.440   3.669  13.862  0.8294 -0.6218  0.2895
   20MPD2     H  316   0.378   3.319  13.950 -1.8541  1.2475 -0.2543
   20MPD2    H1  317   0.603   3.681  13.992 -0.0291  0.0982 -0.5670
   20MPD2    H2  318   0.272   3.662  13.735 -0.6997 -0.3215  0.2347
   20MPD2    H3  319   0.449   3.775  13.844  2.3908 -0.9403 -0.7943
   20MPD2     N  320   0.596   3.412  14.069  0.0648  0.8799 -0.1573
   20MPD2    H5  321   0.684   3.458  14.090  1.1704 -1.2524 -0.0134
   20MPD2    N1  322   0.199   3.404  13.782  1.4231  0.5255  0.5038
   20MPD2    H7  323   0.190   3.309  13.816  2.1336  0.1817 -0.2651
   21TMC2    C1  324   2.639   3.248  14.653  0.0824  0.3791  0.0949
   21TMC2    C2  325   2.664   3.158  14.753  0.1034  0.5479  1.1596
   21TMC2    C3  326   2.593   3.158  14.862 -0.1800  0.7041  0.4417
   21TMC2    C4  327   2.542   3.347  14.654 -0.0966  0.1970  0.0075
   21TMC2    C5  328   2.470   3.338  14.772  0.5170  0.1454 -0.4753
   21TMC2    C6  329   2.499   3.253  14.873 -0.4217 -0.4701 -0.2062
   21TMC2     C  330   2.723   3.235  14.540 -0.1171 -0.0706  0.4733
   21TMC2     O  331   2.831   3.180  14.570  0.2382  0.0311  0.5750
   21TMC2     H  332   2.733   3.074  14.749 -0.4791  0.1141  0.2922
   21TMC2    H1  333   2.514   3.407  14.568 -1.1349 -2.1440 -1.2775
   21TMC2    H2  334   2.440   3.247  14.964  0.4912 -4.1544  0.1635
   21TMC2    C7  335   2.355   3.424  14.800 -0.5896 -0.0652 -0.2051
   21TMC2    C8  336   2.617   3.057  14.964 -0.1451 -0.3447 -0.3677
   21TMC2    O1  337   2.274   3.386  14.880 -0.6102 -0.1106  0.0038
   21TMC2    O2  338   2.729   3.023  14.993  0.7835  0.4175  0.5835
   21TMC2    O5  339   2.500   3.004  15.008  0.3023  0.3661  0.2552
   21TMC2    H5  340   2.418   3.039  14.967  0.0814  0.5234  0.8392
   22MPD2     C  341   2.840   3.284  14.039  0.3048 -0.4469  0.1572
   22MPD2    C1  342   2.927   3.267  14.148  0.4391  0.4219 -0.3079
   22MPD2    C2  343   2.879   3.270  14.281 -0.3246  0.2969  0.2330
   22MPD2    C3  344   2.746   3.282  14.298 -0.2992  0.2284  0.5199
   22MPD2    C4  345   2.658   3.311  14.195 -0.0232 -0.5374  0.1125
   22MPD2    C5  346   2.709   3.320  14.062 -0.1557 -0.2449  0.3706
   22MPD2     H  347   2.944   3.252  14.366 -2.7577 -0.1125  1.9822
   22MPD2    H1  348   2.553   3.335  14.204  0.3813  1.1087  0.5539
   22MPD2    H2  349   2.872   3.286  13.936  1.5481  0.1158  0.5612
   22MPD2    H3  350   2.635   3.336  13.984 -1.4722  1.0762  1.8883
   22MPD2     N  351   2.681   3.280  14.417  0.3764  0.0363 -0.0650
   22MPD2    H5  352   2.582   3.305  14.414  0.6786  1.2835  0.4463
   22MPD2    N1  353   3.063   3.249  14.133  0.2356 -0.5128 -0.3604
   22MPD2    H7  354   3.121   3.216  14.210  0.0204 -0.7452 -0.2938
   23TMC2    C1  355   3.932   4.216  14.402  1.5021  0.3790 -0.3862
   23TMC2    C2  356   3.973   4.125  14.310 -0.2771 -0.1385  0.3175
   23TMC2    C3  357   3.882   4.064  14.230 -0.5565  0.2779  0.3923
   23TMC2    C4  358   3.804   4.229  14.441 -0.1380 -0.4427 -0.6312
   23TMC2    C5  359   3.713   4.161  14.372  0.1021  0.2437  0.3572
   23TMC2    C6  360   3.753   4.069  14.278  0.9183  0.4217  0.1149
   23TMC2     C  361   4.032   4.303  14.457  0.2794 -0.1958 -0.1962
   23TMC2     O  362   4.011   4.340  14.572  0.0753  0.0152  0.4397
   23TMC2     H  363   4.079   4.102  14.314 -0.1435  0.8475  2.2775
   23TMC2    H1  364   3.791   4.294  14.527  0.3847 -1.3637  0.1477
   23TMC2    H2  365   3.688   3.994  14.234 -0.6461  1.6480  0.3417
   23TMC2    C7  366   3.581   4.160  14.416 -0.1316  0.0335 -0.0954
   23TMC2    C8  367   3.917   3.936  14.188  0.5033 -0.4032  0.3857
   23TMC2    O1  368   3.557   4.218  14.524 -0.1379 -0.6669 -0.3818
   23TMC2    O2  369   4.022   3.888  14.217 -0.0272  0.2493  0.2375
   23TMC2    O5  370   3.838   3.908  14.079  0.9276 -0.1829 -0.5805
   23TMC2    H5  371   3.765   3.974  14.077  2.0661  1.0677 -1.5104
   24MPD2     C  372   4.504   4.485  14.422 -0.3808  0.3569  0.0362
   24MPD2    C1  373   4.437   4.435  14.535 -0.9776 -0.3188  0.8005
   24MPD2    C2  374   4.308   4.395  14.515  0.5443  0.3543 -1.1539
   24MPD2    C3  375   4.249   4.404  14.384  0.0860  0.0981 -0.8499
   24MPD2    C4  376   4.317   4.451  14.276  0.6928  0.3999 -0.1134
   24MPD2    C5  377   4.451   4.484  14.296  0.7823 -0.1566 -0.3608
   24MPD2     H  378   4.249   4.365  14.602 -0.0277  0.3277 -1.5489
   24MPD2    H1  379   4.266   4.446  14.180 -2.9775 -0.0501  1.8732
   24MPD2    H2  380   4.604   4.525  14.425 -0.1006 -0.4864  1.9064
   24MPD2    H3  381   4.505   4.515  14.207 -1.5255  0.3662 -1.5751
   24MPD2     N  382   4.119   4.349  14.357  0.1219 -0.1158  0.6832
   24MPD2    H5  383   4.088   4.331  14.262  0.5033  0.8391  0.3784
   24MPD2    N1  384   4.488   4.422  14.667  0.0918  0.3063  0.1320
   24MPD2    H7  385   4.428   4.386  14.740 -1.0677 -0.6911 -1.3196
   25TMC2    C1  386   2.332   2.161  11.609  0.3204  0.5608  0.0574
   25TMC2    C2  387   2.262   2.268  11.572  0.6478  0.0241  0.5337
   25TMC2    C3  388   2.230   2.353  11.670 -0.7166 -0.1218 -0.0733
   25TMC2    C4  389   2.387   2.142  11.735 -0.2600 -0.6896 -0.0566
   25TMC2    C5  390   2.347   2.228  11.836 -0.5813 -0.1117 -0.0234
   25TMC2    C6  391   2.263   2.335  11.803  0.9897  0.3025 -0.3567
   25TMC2     C  392   2.371   2.078  11.496  0.4752  1.0027 -0.2215
   25TMC2     O  393   2.366   2.117  11.381 -0.1292  0.0197 -0.2727
   25TMC2     H  394   2.237   2.286  11.468  0.9395 -0.5599  0.3617
   25TMC2    H1  395   2.459   2.064  11.759  0.1877 -0.3999 -0.4533
   25TMC2    H2  396   2.235   2.411  11.874 -2.0708 -0.6769 -0.5382
   25TMC2    C7  397   2.382   2.209  11.973  0.2467 -0.7957  0.0508
   25TMC2    C8  398   2.182   2.485  11.634  0.3926 -0.0137 -0.3557
   25TMC2    O1  399   2.426   2.098  12.000  0.0060 -0.6619  0.3082
   25TMC2    O2  400   2.215   2.541  11.530 -0.4804  0.1706 -0.5149
   25TMC2    O5  401   2.100   2.532  11.730  0.2156 -0.2565 -0.5213
   25TMC2    H5  402   2.074   2.467  11.799  1.0814  1.3490  1.3117
   26MPD2     C  403   2.539   1.676  11.253 -0.4023 -0.0053  1.0595
   26MPD2    C1  404   2.477   1.631  11.365 -0.1284  0.0034 -0.0388
   26MPD2    C2  405   2.421   1.718  11.453  0.3056 -0.1247  0.5173
   26MPD2    C3  406   2.442   1.851  11.428 -0.3436 -0.3931 -0.5279
   26MPD2    C4  407   2.516   1.893  11.326  0.5860 -0.4474  0.0517
   26MPD2    C5  408   2.571   1.807  11.239  0.3133 -0.2345 -0.0056
   26MPD2     H  409   2.349   1.681  11.526  0.0550  0.2311  0.4520
   26MPD2    H1  410   2.557   1.993  11.322  1.3295 -0.7556 -0.1387
   26MPD2    H2  411   2.566   1.608  11.173 -1.9236  0.2582  0.3381
   26MPD2    H3  412   2.643   1.842  11.166 -0.8467  2.7443  0.2748
   26MPD2     N  413   2.391   1.946  11.520  0.1393 -0.1345 -0.5012
   26MPD2    H5  414   2.379   1.905  11.613 -1.2590 -0.3845 -0.7945
   26MPD2    N1  415   2.452   1.496  11.379 -0.0243  0.0852  0.3800
   26MPD2    H7  416   2.486   1.435  11.305 -0.4493 -2.2970  2.1249
   27TMC2    C1  417   2.077   3.781  11.830  0.0216  0.4953  0.1868
   27TMC2    C2  418   2.067   3.859  11.717 -0.7179 -0.2390 -0.5670
   27TMC2    C3  419   2.090   3.994  11.725 -0.0442  0.4956 -1.8866
   27TMC2    C4  420   2.106   3.845  11.951 -0.3667 -0.8146  0.3105
   27TMC2    C5  421   2.122   3.978  11.955  0.3541 -0.2085  0.1900
   27TMC2    C6  422   2.118   4.053  11.840 -0.3703  0.3891  0.3451
   27TMC2     C  423   2.000   3.654  11.830  1.0750  0.5794 -0.3823
   27TMC2     O  424   1.980   3.598  11.721 -0.0636  0.3833  0.1473
   27TMC2     H  425   2.044   3.808  11.624  1.6946 -0.4219 -1.0487
   27TMC2    H1  426   2.122   3.796  12.046  1.5041  1.1267  0.9795
   27TMC2    H2  427   2.141   4.159  11.833 -1.0454  0.5273  0.1805
   27TMC2    C7  428   2.076   4.043  12.078  0.6983  0.4159 -0.9364
   27TMC2    C8  429   2.108   4.075  11.605 -0.0349  0.0040 -0.3166
   27TMC2    O1  430   2.106   3.988  12.181 -0.4835  0.6043 -0.3135
   27TMC2    O2  431   2.180   4.173  11.606 -0.5522 -0.3390  0.6549
   27TMC2    O5  432   2.076   4.002  11.500  0.9957 -0.4244 -0.3654
   27TMC2    H5  433   1.993   3.950  11.507  0.6599  0.1621  0.0033
   28MPD2     C  434   1.649   3.362  12.062  0.3078 -0.2026 -0.3990
   28MPD2    C1  435   1.683   3.467  12.142 -0.2263 -0.4237  0.1574
   28MPD2    C2  436   1.793   3.549  12.112 -0.5399  0.3811 -0.5125
   28MPD2    C3  437   1.840   3.538  11.984 -0.1025 -1.0452 -0.0030
   28MPD2    C4  438   1.816   3.431  11.909 -0.9530  0.6880  0.5337
   28MPD2    C5  439   1.724   3.337  11.950  0.2629  0.1116 -0.9683
   28MPD2     H  440   1.823   3.637  12.169 -2.5246  0.1628  0.8950
   28MPD2    H1  441   1.858   3.427  11.810 -0.1040 -2.2928  0.9884
   28MPD2    H2  442   1.570   3.291  12.085  0.4211 -0.4985 -0.9205
   28MPD2    H3  443   1.694   3.248  11.895 -0.5187 -0.9395  1.1681
   28MPD2     N  444   1.925   3.643  11.948  0.2137  0.9421 -0.0914
   28MPD2    H5  445   1.954   3.708  12.020  0.7743  0.1403  0.4155
   28MPD2    N1  446   1.612   3.483  12.262  0.1373  0.3933 -0.1657
   28MPD2    H7  447   1.527   3.427  12.268  0.0974  0.4619 -0.0869
   29TMC2    C1  448   1.726   1.808  14.171  0.2357 -1.0229  0.0302
   29TMC2    C2  449   1.652   1.896  14.254 -0.3159  0.4844  0.2518
   29TMC2    C3  450   1.710   2.014  14.287 -0.0505  0.0323  0.4820
   29TMC2    C4  451   1.851   1.849  14.121 -0.6612 -0.4802  0.0995
   29TMC2    C5  452   1.897   1.978  14.152 -0.1969 -0.2874  0.1394
   29TMC2    C6  453   1.831   2.059  14.241 -0.5803 -0.1673 -0.1796
   29TMC2     C  454   1.674   1.684  14.120 -0.1621 -0.3079 -0.7531
   29TMC2     O  455   1.754   1.607  14.067 -0.7453  0.9991  0.1357
   29TMC2     H  456   1.556   1.873  14.299  0.1887  0.9973  1.5794
   29TMC2    H1  457   1.911   1.781  14.061  1.6552  1.1781  0.5395
   29TMC2    H2  458   1.853   2.164  14.254  2.0806 -0.6539 -0.7258
   29TMC2    C7  459   2.034   1.999  14.109  0.5296  0.2383  0.1049
   29TMC2    C8  460   1.645   2.112  14.385 -0.5190 -0.0169 -0.6962
   29TMC2    O1  461   2.085   1.916  14.034  0.0454  0.3753  0.3785
   29TMC2    O2  462   1.591   2.069  14.488  0.9368  0.6518  0.7212
   29TMC2    O5  463   1.569   2.183  14.292 -0.1134  0.4342 -0.1263
   29TMC2    H5  464   1.606   2.189  14.202  0.8243 -3.0036  0.0476
   30MPD2     C  465   1.292   1.379  13.952 -0.2322 -0.2907  0.3385
   30MPD2    C1  466   1.427   1.355  13.974 -0.0285  0.2053  0.0346
   30MPD2    C2  467   1.507   1.454  14.028 -0.0883  1.3108 -0.1455
   30MPD2    C3  468   1.456   1.573  14.056 -0.0100 -0.6887  0.1924
   30MPD2    C4  469   1.322   1.602  14.040  0.0271  0.6602  0.5723
   30MPD2    C5  470   1.242   1.501  13.989 -0.1147  0.3250 -0.7254
   30MPD2     H  471   1.612   1.441  14.051 -0.1384 -0.8653 -1.1586
   30MPD2    H1  472   1.276   1.697  14.065 -0.8124  0.1137  1.1238
   30MPD2    H2  473   1.226   1.314  13.896 -0.1778  0.8074 -0.9907
   30MPD2    H3  474   1.138   1.525  13.969 -0.8762 -0.9931  1.6021
   30MPD2     N  475   1.534   1.680  14.107  0.0846 -0.2261 -0.0742
   30MPD2    H5  476   1.482   1.764  14.130  0.7077  0.7171 -2.0145
   30MPD2    N1  477   1.492   1.231  13.944 -0.3120  0.3178 -0.3824
   30MPD2    H7  478   1.592   1.231  13.962 -0.5621 -0.8815  0.9779
   31TMC2    C1  479   3.888   0.452  15.259  0.2275 -0.0812 -0.3035
   31TMC2    C2  480   3.759   0.482  15.213  0.4944  0.0740 -0.1771
   31TMC2    C3  481   3.645   0.440  15.278 -0.3220 -0.5999 -0.0274
   31TMC2    C4  482   3.893   0.382  15.379 -0.0199  0.7403 -0.1123
   31TMC2    C5  483   3.777   0.344  15.444 -0.4327 -0.2142  0.0510
   31TMC2    C6  484   3.654   0.371  15.396  0.8070 -0.7438  0.1066
   31TMC2     C  485   3.998   0.462  15.160 -0.0270 -0.0025  0.1066
   31TMC2     O  486   3.969   0.484  15.045  0.3159  0.4432  0.1136
   31TMC2     H  487   3.743   0.526  15.115 -1.2586  0.8007  0.4204
   31TMC2    H1  488   3.987   0.345  15.420 -0.4689 -0.8262 -0.4722
   31TMC2    H2  489   3.564   0.331  15.440  1.2487  0.3015  1.9638
   31TMC2    C7  490   3.797   0.267  15.564 -0.4064 -0.6347 -1.5686
   31TMC2    C8  491   3.513   0.452  15.216  0.4005  0.1356  0.4924
   31TMC2    O1  492   3.895   0.194  15.570  0.2839 -0.1029 -0.1325
   31TMC2    O2  493   3.419   0.378  15.241  0.3017  0.3698 -0.7761
   31TMC2    O5  494   3.510   0.565  15.133  0.3854 -0.5582 -0.3310
   31TMC2    H5  495   3.580   0.627  15.163  1.5753 -2.4711  0.8743
   32MPD2     C  496   4.471   0.633  15.037  0.7416  0.2976 -0.4077
   32MPD2    C1  497   4.352   0.654  14.982 -0.2178 -0.2039 -0.2599
   32MPD2    C2  498   4.238   0.584  15.024  0.1054 -0.5919  0.1225
   32MPD2    C3  499   4.239   0.510  15.140 -0.0487  0.0223 -0.3615
   32MPD2    C4  500   4.363   0.495  15.202  0.3451 -0.2043  0.7830
   32MPD2    C5  501   4.475   0.554  15.148  0.5120  0.1103 -0.0079
   32MPD2     H  502   4.150   0.613  14.968 -0.4818 -1.1470  0.7703
   32MPD2    H1  503   4.376   0.449  15.299  1.3018  0.6401  1.0542
   32MPD2    H2  504   4.560   0.671  14.987 -0.7470  0.9190 -2.5661
   32MPD2    H3  505   4.570   0.529  15.195 -0.5037 -0.8309  1.5836
   32MPD2     N  506   4.128   0.471  15.215  0.3891  0.3094 -0.2013
   32MPD2    H5  507   4.143   0.448  15.313  1.1831 -0.8179 -0.5839
   32MPD2    N1  508   4.356   0.738  14.872 -0.2172 -0.5364 -0.2481
   32MPD2    H7  509   4.446   0.769  14.839 -0.9692  1.2813 -0.6148
   33TMC2    C1  510   4.085   2.566   9.986 -0.0918  1.0973 -0.5712
   33TMC2    C2  511   3.967   2.586   9.925  0.2771  0.0102 -0.1492
   33TMC2    C3  512   3.964   2.687   9.837  0.2690 -0.6942 -0.3294
   33TMC2    C4  513   4.199   2.644   9.966  0.3847 -0.4828 -0.8361
   33TMC2    C5  514   4.188   2.748   9.873 -0.2901 -0.4465 -0.3943
   33TMC2    C6  515   4.069   2.769   9.813 -0.3097 -0.3977  0.2182
   33TMC2     C  516   4.094   2.458  10.087 -0.1326 -0.3862 -0.7772
   33TMC2     O  517   4.017   2.363  10.063  0.5140 -0.4815  0.1023
   33TMC2     H  518   3.877   2.534   9.955 -1.2083  2.7034  0.0344
   33TMC2    H1  519   4.293   2.624  10.017 -0.4319 -2.1883  0.0147
   33TMC2    H2  520   4.049   2.858   9.755 -1.4519 -0.3025  0.7624
   33TMC2    C7  521   4.291   2.846   9.851  0.1613  0.2698 -0.3107
   33TMC2    C8  522   3.835   2.718   9.771  0.2131 -0.2502 -0.1050
   33TMC2    O1  523   4.252   2.949   9.800  0.6400 -0.2218  0.5896
   33TMC2    O2  524   3.799   2.830   9.741  0.0375  0.5974 -0.4806
   33TMC2    O5  525   3.757   2.608   9.741 -0.1109  0.4302 -0.5109
   33TMC2    H5  526   3.810   2.528   9.763 -1.4002  0.0782  1.3031
   34MPD2     C  527   4.303   2.225  10.486  0.2775  0.0564 -0.1184
   34MPD2    C1  528   4.230   2.173  10.380 -0.2705 -0.2552 -0.0498
   34MPD2    C2  529   4.182   2.261  10.279 -0.4236 -0.6155  0.1561
   34MPD2    C3  530   4.218   2.393  10.286  0.2131  0.2101  0.3587
   34MPD2    C4  531   4.290   2.441  10.393 -0.1727 -0.3643 -0.6674
   34MPD2    C5  532   4.319   2.362  10.496 -0.0837  0.6009 -0.6150
   34MPD2     H  533   4.143   2.223  10.185 -4.2118 -0.6266  1.7633
   34MPD2    H1  534   4.307   2.548  10.390  1.5003 -0.5922  0.3451
   34MPD2    H2  535   4.330   2.167  10.574  0.3767 -0.6628 -0.6311
   34MPD2    H3  536   4.370   2.394  10.586  0.5299  0.1698 -0.8083
   34MPD2     N  537   4.182   2.481  10.186  0.0737  0.2222  0.6197
   34MPD2    H5  538   4.229   2.570  10.192  2.4940 -1.0922  1.1551
   34MPD2    N1  539   4.224   2.034  10.382  0.4355 -0.2097 -0.1247
   34MPD2    H7  540   4.294   1.986  10.438  1.4750  1.7478  0.2629
   35TMC2    C1  541   0.902   4.048  11.400  0.7887 -0.3373  0.2474
   35TMC2    C2  542   0.878   4.117  11.286  0.9542 -0.3296 -0.2655
   35TMC2    C3  543   0.770   4.079  11.212  0.4866 -0.4380  0.3296
   35TMC2    C4  544   0.842   3.925  11.423  0.1184  0.8252 -0.6410
   35TMC2    C5  545   0.735   3.886  11.342  0.3122  0.1348 -0.2999
   35TMC2    C6  546   0.694   3.973  11.248  0.3843  0.1071 -0.0073
   35TMC2     C  547   1.041   4.058  11.449 -0.1273 -0.0821  0.0355
   35TMC2     O  548   1.129   4.105  11.378 -0.0344  0.7082  1.0767
   35TMC2     H  549   0.946   4.195  11.254  0.4827 -1.3090 -3.6969
   35TMC2    H1  550   0.869   3.857  11.503 -1.7192  1.2082  0.3051
   35TMC2    H2  551   0.615   3.937  11.184 -1.9155  2.0318  1.7355
   35TMC2    C7  552   0.686   3.754  11.365 -0.3656 -0.1994 -0.0866
   35TMC2    C8  553   0.752   4.113  11.073 -0.1972 -0.0780  0.0041
   35TMC2    O1  554   0.566   3.736  11.350 -0.6394 -0.2640 -0.4412
   35TMC2    O2  555   0.706   4.039  10.988 -0.1518  0.6642  0.5429
   35TMC2    O5  556   0.797   4.237  11.051  0.1474  0.3075 -0.0894
   35TMC2    H5  557   0.812   4.288  11.134  1.2682 -1.3583  0.7194
   36MPD2     C  558   1.366   3.938  11.818 -0.2085 -0.8153  0.0832
   36MPD2    C1  559   1.242   3.961  11.881  0.0736 -0.6075 -0.0427
   36MPD2    C2  560   1.130   3.980  11.805 -0.4946  0.1217  0.2136
   36MPD2    C3  561   1.156   3.996  11.668  0.4747 -0.1895 -0.8454
   36MPD2    C4  562   1.279   3.985  11.608  0.0617  0.0405  0.2913
   36MPD2    C5  563   1.382   3.948  11.680 -0.6916 -0.8532  0.2865
   36MPD2     H  564   1.030   3.997  11.842  0.2108 -0.3460  2.3825
   36MPD2    H1  565   1.292   4.020  11.506 -0.9926  0.3924  0.2820
   36MPD2    H2  566   1.460   3.930  11.872  0.0846  3.9931  0.3295
   36MPD2    H3  567   1.483   3.937  11.642 -1.0445 -1.0569 -0.5918
   36MPD2     N  568   1.045   4.025  11.585 -0.2603 -0.0092 -0.3492
   36MPD2    H5  569   0.953   4.021  11.626  0.3514 -2.7058  0.7812
   36MPD2    N1  570   1.238   3.968  12.024  0.4304  0.9389  0.5982
   36MPD2    H7  571   1.320   3.943  12.078  0.9262  0.6117 -0.3107
   37TMC2    C1  572   3.350   4.653  11.458  0.6308 -0.2274 -0.3264
   37TMC2    C2  573   3.391   4.709  11.342  0.0997 -1.1587 -0.4927
   37TMC2    C3  574   3.524   4.701  11.299 -0.1138  0.2339  0.4835
   37TMC2    C4  575   3.444   4.591  11.533  0.4117  0.1731  0.3058
   37TMC2    C5  576   3.575   4.592  11.498  0.4055 -0.5045  0.0650
   37TMC2    C6  577   3.620   4.634  11.374 -0.3410 -0.5528  0.4447
   37TMC2     C  578   3.224   4.695  11.519  0.8442  0.3909  0.5901
   37TMC2     O  579   3.158   0.022  11.449 -0.3400 -0.0623  0.1940
   37TMC2     H  580   3.315   0.009  11.278  0.9998  0.3892 -0.5506
   37TMC2    H1  581   3.415   4.548  11.629 -1.2036  0.1361 -0.1928
   37TMC2    H2  582   3.716   4.607  11.332 -0.4380  0.8840 -0.6868
   37TMC2    C7  583   3.673   4.557  11.597 -0.2002  0.4219 -0.8627
   37TMC2    C8  584   3.546   4.729  11.162  0.9574  0.3085  0.7677
   37TMC2    O1  585   3.629   4.528  11.709  0.4332 -0.3850  0.2585
   37TMC2    O2  586   3.575   4.644  11.080  0.4790  0.5338  0.4495
   37TMC2    O5  587   3.480   0.096  11.129 -0.2413  0.0203 -0.2255
   37TMC2    H5  588   3.463   0.153  11.207 -2.5137  0.1311 -0.7810
   38MPD2     C  589   2.931   4.692  11.945 -0.1998  0.0384 -0.1546
   38MPD2    C1  590   3.049   4.623  11.971 -0.5531  0.8850 -0.6393
   38MPD2    C2  591   3.133   4.615  11.864  0.2197 -0.3203 -0.0346
   38MPD2    C3  592   3.113   4.668  11.742  0.2311 -0.2067 -0.5482
   38MPD2    C4  593   2.996   4.737  11.716 -0.2973 -0.4363  0.3671
   38MPD2    C5  594   2.912   0.012  11.818 -0.5777  0.0075  0.5367
   38MPD2     H  595   3.220   4.555  11.890  0.8426  0.0405 -1.3242
   38MPD2    H1  596   2.973   0.047  11.623 -1.3638  0.0802  0.9213
   38MPD2    H2  597   2.861   4.711  12.025 -0.9654  0.2589 -0.8845
   38MPD2    H3  598   2.821   0.071  11.810  0.3957  1.2131 -1.5759
   38MPD2     N  599   3.212   4.652  11.650 -0.0900 -0.3174  0.0964
   38MPD2    H5  600   3.291   4.598  11.684  0.2953  1.0173  1.3144
   38MPD2    N1  601   3.081   4.563  12.092  0.3505  0.4414  0.0136
   38MPD2    H7  602   3.167   4.511  12.100  0.7535  1.1876  0.6334
   39TMC2    C1  603   0.866   0.963   1.668  0.2940  0.4680 -0.3547
   39TMC2    C2  604   0.793   0.902   1.767 -0.1903 -0.2332 -0.5388
   39TMC2    C3  605   0.830   0.925   1.898  0.4333  0.0177  0.4057
   39TMC2    C4  606   0.974   1.042   1.695 -0.7212  0.5393 -0.4203
   39TMC2    C5  607   1.014   1.048   1.827  0.0351  0.5382 -0.7969
   39TMC2    C6  608   0.949   0.986   1.929  0.0298  0.5269  0.7679
   39TMC2     C  609   0.805   0.972   1.541 -0.6115  0.4594 -0.6568
   39TMC2     O  610   0.684   0.986   1.539  0.0070  0.1363 -1.0120
   39TMC2     H  611   0.701   0.851   1.739  0.4725 -1.4838 -0.4288
   39TMC2    H1  612   1.023   1.100   1.617 -1.3926  2.9257  0.9244
   39TMC2    H2  613   0.988   0.996   2.030 -2.5540 -1.5167  1.9881
   39TMC2    C7  614   1.123   1.130   1.862 -0.4005 -0.2628 -0.1093
   39TMC2    C8  615   0.727   0.912   1.996 -0.9449 -0.3729  1.1145
   39TMC2    O1  616   1.190   1.087   1.953  0.0251  0.2108 -0.2954
   39TMC2    O2  617   0.643   0.822   1.991  0.1909 -0.4220  0.0523
   39TMC2    O5  618   0.709   1.038   2.037 -0.3651 -0.8387  0.2147
   39TMC2    H5  619   0.785   1.093   2.010 -1.4108  1.5730  2.1780
   40MPD2     C  620   1.001   0.947   1.220  0.5464  0.3767 -1.2842
   40MPD2    C1  621   0.888   0.953   1.304 -0.2879 -0.4217  0.0129
   40MPD2    C2  622   0.763   0.944   1.247 -0.2146  0.6919  0.3211
   40MPD2    C3  623   0.749   0.935   1.109  0.5154  0.4695 -0.1700
   40MPD2    C4  624   0.860   0.921   1.029  0.5556  0.5770 -0.0361
   40MPD2    C5  625   0.989   0.929   1.085 -0.3147 -0.1740  0.5800
   40MPD2     H  626   0.680   0.957   1.315 -1.3484 -0.7807 -0.7738
   40MPD2    H1  627   0.856   0.935   0.921 -1.2785  0.7347  0.0481
   40MPD2    H2  628   1.100   0.978   1.252  0.9036 -0.8940 -1.1642
   40MPD2    H3  629   1.073   0.927   1.016 -0.9666  1.3611 -0.2613
   40MPD2     N  630   0.621   0.930   1.043 -0.1286 -0.4469 -0.2095
   40MPD2    H5  631   0.625   0.923   0.942 -1.0417 -0.7424 -0.2229
   40MPD2    N1  632   0.903   0.964   1.445  0.3761 -0.5088  0.1119
   40MPD2    H7  633   0.999   0.962   1.477  1.3324 -0.0123 -2.6946
   41TMC2    C1  634   4.384   4.639  13.641 -0.1461  0.5460  0.3434
   41TMC2    C2  635   4.282   4.724  13.636 -0.4751  0.3786 -0.5664
   41TMC2    C3  636   4.284   0.078  13.544 -0.0797 -0.0334 -0.0881
   41TMC2    C4  637   4.498   4.648  13.565  1.0499  0.0205 -0.1059
   41TMC2    C5  638   4.498   0.013  13.476 -0.2612  0.2455 -0.3352
   41TMC2    C6  639   4.390   0.093  13.457 -0.0531  0.3014  0.3151
   41TMC2     C  640   4.360   4.524  13.725  0.0780  0.0566  0.4458
   41TMC2     O  641   4.248   4.482  13.747 -0.3762  0.5772  0.1190
   41TMC2     H  642   4.203   4.719  13.710 -1.6435  0.7362 -1.7773
   41TMC2    H1  643   4.579   4.575  13.562 -1.6311 -2.9468 -0.4870
   41TMC2    H2  644   4.400   0.192  13.413 -1.7512  0.4356  0.2270
   41TMC2    C7  645   4.600   0.037  13.375 -0.1687  0.2354  0.7326
   41TMC2    C8  646   4.187   0.182  13.534 -0.3616  0.1616  0.3499
   41TMC2    O1  647   4.574   0.128  13.292  0.2451 -0.1926 -0.0518
   41TMC2    O2  648   4.217   0.288  13.491  0.0915 -0.4491  0.2537
   41TMC2    O5  649   4.070   0.145  13.595  0.2079 -0.0526 -0.3192
   41TMC2    H5  650   4.057   0.048  13.600 -1.2291  0.2362  1.4929
   42MPD2     C  651   4.406   4.315  13.931  0.2942 -0.3336 -0.1942
   42MPD2    C1  652   4.503   4.399  13.891  0.1927 -0.5797  0.6945
   42MPD2    C2  653   4.622   4.402  13.952 -0.2887 -0.9801  0.4370
   42MPD2    C3  654   4.651   4.314  14.048  0.5825 -0.3280 -0.2915
   42MPD2    C4  655   4.550   4.233  14.101  0.3783  0.6509  0.3059
   42MPD2    C5  656   4.429   4.239  14.046  0.6626  0.6651 -0.9269
   42MPD2     H  657   4.705   4.452  13.903  0.3926 -2.5796 -0.0572
   42MPD2    H1  658   4.571   4.169  14.186  1.5496  1.6379  0.7670
   42MPD2    H2  659   4.315   4.312  13.871 -1.0117  1.5118  1.7177
   42MPD2    H3  660   4.359   4.164  14.082 -0.4438  2.2864  0.3304
   42MPD2     N  661   0.034   4.298  14.109 -0.0424 -0.1029 -0.7019
   42MPD2    H5  662   0.040   4.212  14.162 -2.6176 -0.1016 -0.4220
   42MPD2    N1  663   4.479   4.493  13.785  1.0852  0.4435  0.2123
   42MPD2    H7  664   4.565   4.535  13.753  1.1568  0.6375  0.6693
   43TMC2    C1  665   1.446   2.419   0.819  0.2719  0.0334 -0.7011
   43TMC2    C2  666   1.337   2.499   0.796 -0.4315  0.1351  0.1723
   43TMC2    C3  667   1.346   2.626   0.833  0.3600  0.0224 -0.0454
   43TMC2    C4  668   1.553   2.460   0.892 -0.2782  0.2109  0.2787
   43TMC2    C5  669   1.554   2.587   0.940 -0.1840 -0.1392  0.1169
   43TMC2    C6  670   1.449   2.672   0.914 -0.3469  0.0442 -0.5332
   43TMC2     C  671   1.471   2.307   0.727 -0.9301  0.1975 -0.1496
   43TMC2     O  672   1.551   2.224   0.763  0.1391  0.1156 -0.6924
   43TMC2     H  673   1.248   2.441   0.773 -1.9881  2.5062  0.1937
   43TMC2    H1  674   1.622   2.385   0.928 -0.5063  0.2212  0.7465
   43TMC2    H2  675   1.458   2.777   0.941 -1.8273  0.2871 -0.9797
   43TMC2    C7  676   1.669   2.628   1.020 -0.2114  0.6530 -0.2631
   43TMC2    C8  677   1.222   2.700   0.858  0.4111  0.0585 -0.1632
   43TMC2    O1  678   1.773   2.564   1.012 -0.4686  0.2004  0.1347
   43TMC2    O2  679   1.223   2.787   0.944 -0.3256  0.3602  0.1170
   43TMC2    O5  680   1.121   2.613   0.836 -0.4599  0.7082 -0.4755
   43TMC2    H5  681   1.110   2.576   0.746 -1.3238 -2.1172  0.7977
   44MPD2     C  682   1.631   2.211   0.254 -0.2627  0.1499  0.2795
   44MPD2    C1  683   1.639   2.136   0.365  0.4455 -0.4863 -0.3763
   44MPD2    C2  684   1.572   2.186   0.474  0.7502  0.1093 -0.6491
   44MPD2    C3  685   1.502   2.303   0.482  0.8334  0.2685  0.0438
   44MPD2    C4  686   1.498   2.373   0.353  0.0465  0.5357 -0.1466
   44MPD2    C5  687   1.559   2.320   0.246  0.0759 -0.1072  0.3621
   44MPD2     H  688   1.587   2.128   0.564 -2.8509 -0.0541 -0.1741
   44MPD2    H1  689   1.452   2.470   0.334 -1.4364 -0.7181 -3.0365
   44MPD2    H2  690   1.674   2.188   0.157  0.7286  0.6662  0.5869
   44MPD2    H3  691   1.561   2.374   0.151 -1.0348  0.6781  0.7822
   44MPD2     N  692   1.458   2.362   0.603  0.2838 -0.1252  0.1661
   44MPD2    H5  693   1.412   2.451   0.590  1.4969  0.1886 -1.9551
   44MPD2    N1  694   1.738   2.035   0.383  0.4931 -0.6763  0.2441
   44MPD2    H7  695   1.753   1.985   0.471 -0.7831 -0.7630  0.4147
   45TMC2    C1  696   3.262   4.422  10.148 -0.0304 -0.2152  0.0062
   45TMC2    C2  697   3.253   4.315  10.237 -1.1839  0.8459  0.1327
   45TMC2    C3  698   3.338   4.318  10.342  0.2317  0.0265 -0.7431
   45TMC2    C4  699   3.350   4.527  10.161  0.8492  0.0780 -0.0310
   45TMC2    C5  700   3.420   4.527  10.281 -0.0721 -1.0955 -0.5873
   45TMC2    C6  701   3.421   4.422  10.367  0.1634  0.1139 -0.4465
   45TMC2     C  702   3.165   4.431  10.036  0.1890  0.4035  0.3719
   45TMC2     O  703   3.124   4.542  10.013  0.2264 -0.1367 -0.1176
   45TMC2     H  704   3.195   4.227  10.215  0.2101 -0.0286 -0.0531
   45TMC2    H1  705   3.336   4.620  10.108 -2.6571 -0.0983  0.5397
   45TMC2    H2  706   3.473   4.439  10.461 -2.0736 -1.8287  1.1411
   45TMC2    C7  707   3.436   4.660  10.342 -0.8243 -0.3474  0.6818
   45TMC2    C8  708   3.296   4.234  10.454 -0.2041 -0.6823 -0.4273
   45TMC2    O1  709   3.433   4.672  10.466 -0.2742  0.0156  0.0249
   45TMC2    O2  710   3.185   4.194  10.472 -0.3192  0.4586  0.5960
   45TMC2    O5  711   3.404   4.204  10.528  0.2704 -0.0587  0.1594
   45TMC2    H5  712   3.494   4.228  10.497 -0.3510  1.3207 -0.5769
   46MPD2     C  713   2.986   4.147   9.873  0.2217 -0.5441  0.4421
   46MPD2    C1  714   3.008   4.276   9.919  0.2786  0.4089  0.1493
   46MPD2    C2  715   2.901   4.363   9.904  0.0618  0.3473  0.4041
   46MPD2    C3  716   2.779   4.325   9.841 -0.7234  0.6192  0.6572
   46MPD2    C4  717   2.764   4.195   9.802  0.4201 -0.0359 -0.1575
   46MPD2    C5  718   2.870   4.104   9.815  0.1526 -0.1443 -0.1293
   46MPD2     H  719   2.896   4.461   9.951  2.3597  1.1982 -1.1459
   46MPD2    H1  720   2.671   4.160   9.759  1.1887 -1.3539 -0.7324
   46MPD2    H2  721   3.063   4.072   9.886 -0.0358 -0.9665 -0.4837
   46MPD2    H3  722   2.846   4.001   9.792  0.2489 -0.4194  1.0128
   46MPD2     N  723   2.684   4.427   9.828 -0.1975 -0.8640  0.6360
   46MPD2    H5  724   2.713   4.523   9.846  0.4754 -0.6704 -1.4643
   46MPD2    N1  725   3.123   4.303   9.993  0.5881  0.2236  0.0729
   46MPD2    H7  726   3.167   4.213  10.013  0.3030  0.4681  1.8275
   47TMC2    C1  727   0.206   4.642   8.893 -0.4761  0.2728 -0.0138
   47TMC2    C2  728   0.239   4.634   8.759  0.3934  0.1783 -0.4193
   47TMC2    C3  729   0.149   4.563   8.682  1.3839  0.8172 -0.2161
   47TMC2    C4  730   0.093   4.589   8.952 -0.1856  0.0261 -0.2408
   47TMC2    C5  731   0.017   4.513   8.874 -0.2001 -0.3848  0.6028
   47TMC2    C6  732   0.040   4.501   8.737 -0.3464  0.3313 -0.5143
   47TMC2     C  733   0.309   4.706   8.978 -0.2586  0.4142  0.4653
   47TMC2     O  734   0.378   0.053   8.932 -0.2540 -0.5591 -0.5032
   47TMC2     H  735   0.337   4.653   8.717  0.7118 -1.2887 -0.3444
   47TMC2    H1  736   0.084   4.601   9.060  1.5962  0.9434 -0.1789
   47TMC2    H2  737   4.707   4.449   8.679  1.1119 -1.8940 -0.3885
   47TMC2    C7  738   4.673   4.419   8.941 -0.3853  0.1907  0.0723
   47TMC2    C8  739   0.193   4.514   8.559 -0.3127 -0.0590  0.1827
   47TMC2    O1  740   4.662   4.425   9.061  0.3627  0.2063  0.3418
   47TMC2    O2  741   0.312   4.501   8.524 -0.0707  0.3535 -0.0123
   47TMC2    O5  742   0.087   4.522   8.475 -0.1452  0.2069 -0.4915
   47TMC2    H5  743   0.009   4.565   8.516 -0.2640  0.7002 -1.2247
   48MPD2     C  744   0.416   0.085   9.226 -0.1112 -0.4717 -0.3325
   48MPD2    C1  745   0.384   4.696   9.216  0.3173 -0.3812  0.6443
   48MPD2    C2  746   0.418   4.605   9.314  0.0753 -0.0650 -0.3182
   48MPD2    C3  747   0.484   4.649   9.425  0.1319 -0.7989  0.5199
   48MPD2    C4  748   0.508   0.039   9.441 -0.7044 -0.4298 -0.1617
   48MPD2    C5  749   0.471   0.127   9.343  0.3401  0.7124  0.6555
   48MPD2     H  750   0.396   4.499   9.308  1.6105 -0.4032  0.0001
   48MPD2    H1  751   0.561   0.079   9.526 -1.6067 -1.5354  0.9325
   48MPD2    H2  752   0.399   0.151   9.142 -0.4555  0.3259  0.3633
   48MPD2    H3  753   0.495   0.232   9.353  0.8017  0.5198  1.6109
   48MPD2     N  754   0.493   4.555   9.528 -0.2316 -0.0895  0.2220
   48MPD2    H5  755   0.465   4.461   9.501  0.1564 -0.1058 -0.1200
   48MPD2    N1  756   0.309   4.648   9.104  0.1594 -0.4387  0.1184
   48MPD2    H7  757   0.273   4.553   9.112 -2.1977  0.2044 -2.7073
   49TMC2    C1  758   2.946   2.156   9.951  1.1192  0.4129 -0.0303
   49TMC2    C2  759   2.902   2.246   9.857 -0.3708  0.6516  0.3386
   49TMC2    C3  760   2.783   2.218   9.805 -1.3351 -0.1905  0.0313
   49TMC2    C4  761   2.881   2.038   9.973 -0.7460 -0.9688 -0.0260
   49TMC2    C5  762   2.768   2.016   9.903 -0.4943  0.3181 -0.1607
   49TMC2    C6  763   2.717   2.101   9.819  0.2839 -0.3995  0.0546
   49TMC2     C  764   3.087   2.174  10.002 -0.7542  0.2380 -0.3209
   49TMC2     O  765   3.166   2.240   9.944  0.1064 -0.3593 -0.6712
   49TMC2     H  766   2.947   2.345   9.849 -2.1934  1.4829  0.4028
   49TMC2    H1  767   2.920   1.967  10.045  0.0502 -1.8515 -1.3350
   49TMC2    H2  768   2.617   2.082   9.783  0.5492  0.1069 -0.9541
   49TMC2    C7  769   2.684   1.907   9.941  0.4734  0.4056  0.2459
   49TMC2    C8  770   2.708   2.307   9.717  0.2079  0.3642  0.7139
   49TMC2    O1  771   2.597   1.876   9.864 -0.4329 -0.2203 -0.1842
   49TMC2    O2  772   2.759   2.383   9.640 -0.5873  0.3452 -0.3765
   49TMC2    O5  773   2.599   2.330   9.795  0.5347 -0.3090  0.3413
   49TMC2    H5  774   2.593   2.276   9.877 -1.3940 -0.4735  0.0934
   50MPD2     C  775   3.341   2.137  10.166  0.1925 -0.8119  0.1631
   50MPD2    C1  776   3.210   2.126  10.212 -0.4412  0.0285  0.3205
   50MPD2    C2  777   3.188   2.107  10.347  0.2867 -0.6526  0.7991
   50MPD2    C3  778   3.289   2.087  10.435  0.3364 -0.5271 -0.2321
   50MPD2    C4  779   3.415   2.107  10.394 -0.1108 -0.1927 -0.0035
   50MPD2    C5  780   3.447   2.126  10.257 -0.2138 -0.3508  0.0083
   50MPD2     H  781   3.083   2.099  10.373  0.2167  0.0298  0.7251
   50MPD2    H1  782   3.496   2.094  10.466 -1.3200 -1.9612  1.0541
   50MPD2    H2  783   3.374   2.154  10.065 -1.9578  0.9456 -0.2492
   50MPD2    H3  784   3.548   2.139  10.222 -0.4995 -3.0024 -1.8301
   50MPD2     N  785   3.271   2.046  10.572 -0.6092 -0.0007  0.5666
   50MPD2    H5  786   3.355   2.036  10.627  0.9339  1.2261 -1.5715
   50MPD2    N1  787   3.096   2.120  10.129  0.2287 -0.3556 -0.2018
   50MPD2    H7  788   3.011   2.076  10.163  0.5745 -3.3354 -3.1389
   51TMC2    C1  789   2.520   0.534   1.234 -0.3389 -0.8436  0.1495
   51TMC2    C2  790   2.536   0.406   1.184  0.8394  0.1593  0.1222
   51TMC2    C3  791   2.513   0.385   1.049  0.1725 -0.1809 -0.0515
   51TMC2    C4  792   2.446   0.618   1.157 -0.6982 -0.2129 -0.6561
   51TMC2    C5  793   2.422   0.591   1.023  0.1174  0.3394  0.0862
   51TMC2    C6  794   2.454   0.472   0.966  0.7948  0.6278  0.0793
   51TMC2     C  795   2.640   0.583   1.292  0.0883 -0.0956 -0.1417
   51TMC2     O  796   2.723   0.505   1.339 -0.2331  0.1915  0.0360
   51TMC2     H  797   2.593   0.338   1.246 -0.8305  0.3021  1.7949
   51TMC2    H1  798   2.420   0.712   1.203  2.0452  0.5639 -0.7541
   51TMC2    H2  799   2.446   0.462   0.858  0.5453 -2.0519  0.3574
   51TMC2    C7  800   2.467   0.712   0.942 -0.0433 -0.3626  0.3584
   51TMC2    C8  801   2.551   0.259   0.999 -0.2961  0.0353  0.7785
   51TMC2    O1  802   2.534   0.698   0.842  0.0139  0.1129 -0.0170
   51TMC2    O2  803   2.542   0.157   1.068 -0.2341 -0.1893  0.5015
   51TMC2    O5  804   2.581   0.262   0.867 -0.0524 -0.1960 -0.0157
   51TMC2    H5  805   2.613   0.350   0.838  2.8851 -1.2389  0.0855
   52MPD2     C  806   2.997   0.951   1.382  0.3492  0.8550  0.0461
   52MPD2    C1  807   3.004   0.814   1.356 -0.8681 -0.3572 -0.5867
   52MPD2    C2  808   2.892   0.733   1.346  0.5137  0.1955  0.2937
   52MPD2    C3  809   2.761   0.784   1.332  0.0376  0.1535  0.0320
   52MPD2    C4  810   2.749   0.925   1.352 -0.1173 -0.3683 -0.6528
   52MPD2    C5  811   2.866   0.998   1.381 -0.2729 -0.4853  0.6255
   52MPD2     H  812   2.910   0.628   1.330 -0.7067  0.0537 -0.1313
   52MPD2    H1  813   2.651   0.971   1.359 -0.0576 -0.9953  3.9629
   52MPD2    H2  814   3.075   1.025   1.390  0.5405  0.6652 -0.0666
   52MPD2    H3  815   2.859   1.105   1.395 -0.0222 -0.2590 -0.9856
   52MPD2     N  816   2.647   0.716   1.302 -0.3473 -0.4562 -0.4747
   52MPD2    H5  817   2.559   0.766   1.299  0.2368  0.6228  0.6975
   52MPD2    N1  818   3.128   0.741   1.341 -0.4212  0.0038 -0.1879
   52MPD2    H7  819   3.126   0.641   1.327  0.1899 -0.1256  0.6987
   53TMC2    C1  820   4.105   4.639  12.209  0.4825 -0.3817 -0.4023
   53TMC2    C2  821   4.202   4.714  12.273  0.1390  0.4194  0.0570
   53TMC2    C3  822   4.190   4.706  12.411  0.0789 -0.0434  0.6873
   53TMC2    C4  823   4.008   4.562  12.266 -0.2963 -0.3304 -0.0819
   53TMC2    C5  824   3.996   4.570  12.404  0.0566 -0.8125 -0.3040
   53TMC2    C6  825   4.090   4.632  12.473 -0.1292 -0.3763  0.0064
   53TMC2     C  826   4.132   4.606  12.068 -0.0804 -0.7682  0.2224
   53TMC2     O  827   4.250   4.597  12.043 -0.0079  0.0783 -0.0858
   53TMC2     H  828   4.283   0.019  12.218  0.8021  1.5592  2.0033
   53TMC2    H1  829   3.937   4.494  12.219  0.8390 -0.1838 -1.9713
   53TMC2    H2  830   4.088   4.633  12.582 -2.1820  0.5062 -0.0368
   53TMC2    C7  831   3.866   4.567  12.457 -1.4550 -0.6475  0.1728
   53TMC2    C8  832   4.255   0.058  12.498  0.0432  0.0474  0.5216
   53TMC2    O1  833   3.776   4.609  12.389 -0.0380  0.3461  0.0531
   53TMC2    O2  834   4.244   0.041  12.619 -0.0360 -0.7930 -0.4992
   53TMC2    O5  835   4.252   0.178  12.434  0.0877 -0.6212  0.5516
   53TMC2    H5  836   4.208   0.178  12.346  0.6080 -0.5913  0.2944
   54MPD2     C  837   4.136   4.523  11.791 -0.2039 -0.2152  0.6564
   54MPD2    C1  838   4.019   4.557  11.854  0.0341  0.1643  0.4559
   54MPD2    C2  839   3.910   4.563  11.773 -0.1320 -0.3435  0.3276
   54MPD2    C3  840   3.911   4.547  11.636 -0.3115 -0.1715 -0.6243
   54MPD2    C4  841   4.033   4.538  11.578  0.4932  0.1129 -0.8868
   54MPD2    C5  842   4.141   4.522  11.654  0.4720  0.0247 -0.1580
   54MPD2     H  843   3.817   4.587  11.824 -1.6995 -0.3689 -2.5348
   54MPD2    H1  844   4.049   4.521  11.472  2.2922  0.6868 -0.6950
   54MPD2    H2  845   4.232   4.515  11.840  0.8854 -2.7610 -1.9019
   54MPD2    H3  846   4.232   4.517  11.597 -1.0553  0.5907 -2.6209
   54MPD2     N  847   3.797   4.557  11.550 -0.1067 -0.4667  0.2327
   54MPD2    H5  848   3.821   4.557  11.452 -0.6978 -1.7722  0.0962
   54MPD2    N1  849   4.016   4.599  11.986 -0.1823  0.8337 -0.3185
   54MPD2    H7  850   3.929   4.640  12.018 -0.6919 -0.5916  0.1424
   55TMC2    C1  851   4.697   2.502  17.730 -0.5268  0.4347 -0.6722
   55TMC2    C2  852   0.084   2.544  17.714 -0.0352  0.4670 -0.0138
   55TMC2    C3  853   0.188   2.455  17.728 -0.2357  0.0963 -0.0812
   55TMC2    C4  854   4.667   2.374   0.005 -0.4993  0.0966 -0.2524
   55TMC2    C5  855   0.032   2.285   0.019  0.7631  0.1433 -0.1091
   55TMC2    C6  856   0.159   2.324  17.760 -0.4077 -0.5207 -0.0767
   55TMC2     C  857   4.602   2.602   0.001  0.3508 -0.6858 -0.4226
   55TMC2     O  858   4.523   2.564   0.087  0.5797 -0.5617 -0.8956
   55TMC2     H  859   0.109   2.649  17.701 -1.7130  1.0181  1.2396
   55TMC2    H1  860   4.563   2.343   0.016 -0.1772 -1.6853 -2.2498
   55TMC2    H2  861   0.241   2.253   0.006  0.3373  0.4216  0.5085
   55TMC2    C7  862   0.018   2.139   0.037 -0.1538  0.4359  0.6657
   55TMC2    C8  863   0.325   2.494  17.727 -0.2015 -0.1423 -0.4025
   55TMC2    O1  864   0.104   2.057  17.764 -0.5587 -0.2986  0.2344
   55TMC2    O2  865   0.365   2.566   0.055 -0.2115  0.4765 -0.0022
   55TMC2    O5  866   0.399   2.398  17.664  0.4022  0.9922  0.2407
   55TMC2    H5  867   0.344   2.343  17.604  0.7463  0.4750  0.4018
   56MPD2     C  868   4.575   2.955  17.659 -0.1677 -0.3761 -0.4942
   56MPD2    C1  869   4.531   2.836  17.706 -0.1244 -0.0879  0.0754
   56MPD2    C2  870   4.425   2.830   0.032 -0.1744 -0.2781  0.7155
   56MPD2    C3  871   4.349   2.942   0.047 -0.9942 -1.0446 -0.8787
   56MPD2    C4  872   4.387   3.059  17.750  0.5590  0.0230 -0.8371
   56MPD2    C5  873   4.500   3.069  17.673 -0.9510 -0.0155  0.2240
   56MPD2     H  874   4.386   2.740   0.079 -0.7382 -0.5341 -0.2648
   56MPD2    H1  875   4.346   3.155   0.016  3.2691  2.5688 -5.1724
   56MPD2    H2  876   4.673   2.945  17.615  0.1677 -1.8489  0.5808
   56MPD2    H3  877   4.518   3.168  17.633  0.7441 -0.6691 -0.6368
   56MPD2     N  878   4.243   2.936   0.139 -0.2617  0.0123  0.0219
   56MPD2    H5  879   4.226   2.843   0.176 -0.2889 -0.5629 -1.4696
   56MPD2    N1  880   4.615   2.717  17.693  0.0583  0.0512  0.3696
   56MPD2    H7  881   4.683   2.726  17.618 -1.9978  1.7898 -1.2763
   57TMC2    C1  882   2.871   3.427  12.641 -0.2193 -0.5218 -0.2959
   57TMC2    C2  883   2.798   3.544  12.606  0.3182 -0.3667 -0.4638
   57TMC2    C3  884   2.830   3.604  12.492 -0.1303  0.4561  0.7714
   57TMC2    C4  885   2.980   3.389  12.578 -0.4232 -0.2295  0.2404
   57TMC2    C5  886   3.017   3.466  12.466 -0.2688  0.3005 -0.3349
   57TMC2    C6  887   2.941   3.577  12.421  0.4604 -0.4644  0.0344
   57TMC2     C  888   2.869   3.390  12.778 -0.1354 -0.0216  0.2983
   57TMC2     O  889   2.788   3.454  12.845  0.5911  0.0006  0.2195
   57TMC2     H  890   2.716   3.587  12.663  0.9247 -1.5885  1.3318
   57TMC2    H1  891   3.053   3.317  12.613  0.8158 -0.4401 -2.7945
   57TMC2    H2  892   2.970   3.645  12.341 -2.5844  2.4060  1.3692
   57TMC2    C7  893   3.149   3.444  12.404  0.5497  0.3980 -0.2313
   57TMC2    C8  894   2.758   3.724  12.461 -0.4219  0.3261  0.1927
   57TMC2    O1  895   3.204   3.535  12.354 -0.2655  0.1063 -0.1595
   57TMC2    O2  896   2.636   3.721  12.469 -0.3015  0.2598 -0.4318
   57TMC2    O5  897   2.838   3.815  12.522 -0.3477  0.4904  0.1020
   57TMC2    H5  898   2.931   3.785  12.522 -0.1732  1.0432 -1.3081
   58MPD2     C  899   2.889   3.016  13.148  0.0513 -0.4268  0.1694
   58MPD2    C1  900   2.885   3.151  13.171  0.0493 -0.3339 -0.3110
   58MPD2    C2  901   2.891   3.237  13.056  0.5112  0.2194  0.0047
   58MPD2    C3  902   2.898   3.181  12.923  0.4804  0.0717 -0.3190
   58MPD2    C4  903   2.917   3.044  12.912  1.1236 -0.4378  0.2793
   58MPD2    C5  904   2.899   2.964  13.018  0.4875  0.2424 -0.0786
   58MPD2     H  905   2.886   3.343  13.078 -0.0645  0.5434 -1.6501
   58MPD2    H1  906   2.920   3.012  12.809  0.8452  2.1832 -0.5349
   58MPD2    H2  907   2.870   2.945  13.229 -0.3852  0.3147  0.7173
   58MPD2    H3  908   2.903   2.856  13.010 -0.0390  0.3533 -1.9544
   58MPD2     N  909   2.914   3.261  12.804  0.3160 -0.5894 -0.3067
   58MPD2    H5  910   2.955   3.215  12.723 -1.2606 -1.1492 -0.7929
   58MPD2    N1  911   2.878   3.218  13.299  0.2504  0.9344  0.4340
   58MPD2    H7  912   2.893   3.318  13.298  1.7323  0.7224  1.3608
   59TMC2    C1  913   1.325   2.964  12.693 -0.1433  0.0475 -0.0765
   59TMC2    C2  914   1.432   2.883  12.650  0.1899  0.8177  0.4186
   59TMC2    C3  915   1.426   2.827  12.525  0.5119  0.3102 -0.0333
   59TMC2    C4  916   1.220   2.993  12.610 -0.6474  0.1841  0.6562
   59TMC2    C5  917   1.230   2.940  12.488  0.3013  0.2632  0.6287
   59TMC2    C6  918   1.324   2.853  12.444  0.0993 -0.0757 -0.9427
   59TMC2     C  919   1.309   2.979  12.834 -0.2170 -0.2649  0.0130
   59TMC2     O  920   1.195   2.947  12.869 -0.7285 -0.0565 -0.6251
   59TMC2     H  921   1.517   2.878  12.717  0.5680 -2.7514 -0.3204
   59TMC2    H1  922   1.139   3.052  12.651 -2.7465 -0.8042 -2.0691
   59TMC2    H2  923   1.317   2.824  12.340 -1.3685 -3.7013  0.1774
   59TMC2    C7  924   1.137   2.982  12.379  0.3217 -0.5055  0.2077
   59TMC2    C8  925   1.509   2.726  12.465  0.3987  0.5858  0.1891
   59TMC2    O1  926   1.104   2.903  12.292 -0.0928 -0.2618  0.4979
   59TMC2    O2  927   1.495   2.676  12.357  0.0656 -0.3374  0.2417
   59TMC2    O5  928   1.616   2.699  12.550  0.2351 -0.6614 -0.5103
   59TMC2    H5  929   1.602   2.735  12.640 -1.3123  1.7221 -1.6783
   60MPD2     C  930   1.327   3.063  13.122 -0.3006  0.7770  0.4462
   60MPD2    C1  931   1.426   3.077  13.030  0.2996  0.0736  0.4067
   60MPD2    C2  932   1.537   3.153  13.061  0.3117 -0.0975  0.7217
   60MPD2    C3  933   1.547   3.227  13.182 -0.7457  0.2415 -0.1165
   60MPD2    C4  934   1.446   3.209  13.274  0.3097  0.4623  0.4250
   60MPD2    C5  935   1.339   3.124  13.244  0.0705  0.3047 -0.3818
   60MPD2     H  936   1.614   3.178  12.988  1.0154  1.0977  1.8779
   60MPD2    H1  937   1.449   3.258  13.371 -0.2074  0.9468  0.1984
   60MPD2    H2  938   1.243   2.996  13.104  0.9121 -0.9711  1.3462
   60MPD2    H3  939   1.266   3.105  13.322 -0.0943  1.2098 -0.3173
   60MPD2     N  940   1.648   3.326  13.208  0.0344 -0.3042  0.0724
   60MPD2    H5  941   1.663   3.362  13.302 -1.3827  0.0700  0.1485
   60MPD2    N1  942   1.418   3.039  12.893 -0.5520  0.4138  0.3915
   60MPD2    H7  943   1.503   3.057  12.840  0.8846  2.9305  3.5514
   61TMC2    C1  944   0.710   0.182  15.444  0.3630  0.1546  0.7107
   61TMC2    C2  945   0.738   0.115  15.551 -0.6599  0.1146 -0.4818
   61TMC2    C3  946   0.756   0.180  15.671  0.4016 -0.4081 -0.9610
   61TMC2    C4  947   0.676   0.313  15.446  0.4894  0.1036  0.0473
   61TMC2    C5  948   0.690   0.385  15.563  0.6902  0.4283  0.7882
   61TMC2    C6  949   0.737   0.317  15.672 -0.1087 -0.4278  0.5278
   61TMC2     C  950   0.706   0.108  15.317  0.2798  0.0001 -0.3456
   61TMC2     O  951   0.691   4.729  15.329 -1.0231  0.4096  0.3158
   61TMC2     H  952   0.752   0.007  15.546 -1.6332  0.0089 -0.9222
   61TMC2    H1  953   0.633   0.354  15.355 -0.6095  0.4304  0.7166
   61TMC2    H2  954   0.770   0.375  15.758 -1.1301 -1.0663  1.3469
   61TMC2    C7  955   0.674   0.525  15.549 -0.4600  0.2874  0.2776
   61TMC2    C8  956   0.709   0.111  15.785  0.3806  0.8539  0.1681
   61TMC2    O1  957   0.697   0.570  15.436  0.1828 -0.4841 -0.0881
   61TMC2    O2  958   0.672   0.174  15.877  0.3159  0.0143 -0.0783
   61TMC2    O5  959   0.784   0.002  15.791  0.2296 -0.1391 -0.3930
   61TMC2    H5  960   0.843   4.727  15.715  1.0758  1.7016 -0.1350
   62MPD2     C  961   0.619   0.017  15.045 -0.0733 -0.9969  0.2015
   62MPD2    C1  962   0.682   0.132  15.069 -0.2398 -0.4506  0.0934
   62MPD2    C2  963   0.730   0.205  14.965 -0.5440 -0.0250 -0.3192
   62MPD2    C3  964   0.698   0.180  14.833  0.1131 -0.2852 -0.2474
   62MPD2    C4  965   0.638   0.059  14.806  0.7102  0.0870  0.1565
   62MPD2    C5  966   0.600   4.723  14.915  0.3647  0.5463  0.1139
   62MPD2     H  967   0.800   0.286  14.982  0.5487 -1.4045  1.6685
   62MPD2    H1  968   0.616   0.028  14.705  0.0959 -3.1162  1.2649
   62MPD2    H2  969   0.578   4.694  15.121 -0.8726 -0.2096  0.4317
   62MPD2    H3  970   0.568   4.622  14.889  0.2346 -0.0011  2.4127
   62MPD2     N  971   0.738   0.266  14.718 -0.0748 -0.1935 -0.0561
   62MPD2    H5  972   0.684   0.245  14.635  1.8442 -3.5553 -0.4425
   62MPD2    N1  973   0.704   0.184  15.199  0.0225 -0.2546  0.2054
   62MPD2    H7  974   0.744   0.277  15.210 -0.7906  0.2032 -0.7140
   63TMC2    C1  975   0.044   4.365  11.192 -0.1944 -0.0640  0.3813
   63TMC2    C2  976   0.059   4.465  11.293 -0.0531 -0.2427 -0.7373
   63TMC2    C3  977   0.108   4.583  11.258  0.9030 -0.5291  0.3157
   63TMC2    C4  978   0.107   4.379  11.073  0.6361 -0.7574  0.5983
   63TMC2    C5  979   0.175   4.498  11.048 -0.5686 -0.8260 -0.2000
   63TMC2    C6  980   0.169   4.603  11.139 -0.0025  0.6935  0.1734
   63TMC2     C  981   0.006   4.236  11.234  0.3612  0.2175 -0.3103
   63TMC2     O  982   0.010   4.225  11.354 -0.6078 -0.1151  0.3685
   63TMC2     H  983   0.015   4.458  11.392  0.4286  0.3054 -0.4785
   63TMC2    H1  984   0.118   4.298  11.002 -0.5851  0.0906 -0.5745
   63TMC2    H2  985   0.208   4.699  11.110 -0.7610  1.5715  2.0377
   63TMC2    C7  986   0.205   4.521  10.907 -0.3611  0.0307  0.4389
   63TMC2    C8  987   0.128   4.687  11.357 -0.2270  0.3491 -0.5572
   63TMC2    O1  988   0.127   4.477  10.820  0.9970  0.1184  0.4953
   63TMC2    O2  989   0.059   4.688  11.455  1.1009  0.1510  0.3136
   63TMC2    O5  990   0.263   4.702  11.356  0.1571  0.1862  0.5260
   63TMC2    H5  991   0.305   4.693  11.268  0.6394 -0.0417  0.7805
   64MPD2     C  992   4.637   3.744  11.184 -0.0082  0.9138  0.5616
   64MPD2    C1  993   4.653   3.787  11.055 -0.2645 -0.5297  0.2711
   64MPD2    C2  994   4.684   3.922  11.042  0.1887 -0.1385  0.2384
   64MPD2    C3  995   4.682   4.007  11.150 -0.2515 -1.0457  0.2401
   64MPD2    C4  996   4.656   3.960  11.274 -0.2155  0.1775 -0.0495
   64MPD2    C5  997   4.634   3.826  11.290  0.1338 -0.0814  0.2294
   64MPD2     H  998   4.714   3.975  10.952 -1.3251  0.8262  0.3013
   64MPD2    H1  999   4.670   4.014  11.367 -2.1952 -0.0438  0.3986
   64MPD2    H2 1000   4.616   3.639  11.204 -0.0094  0.4726 -1.8159
   64MPD2    H3 1001   4.621   3.777  11.386  1.1132 -1.3483 -0.2815
   64MPD2     N 1002   4.724   4.143  11.132 -0.3204  0.1430  0.0181
   64MPD2    H5 1003   4.733   4.178  11.037  0.7567 -1.5622 -0.4947
   64MPD2    N1 1004   4.669   3.696  10.948  0.0129 -0.0877  0.4012
   64MPD2    H7 1005   4.694   3.732  10.857 -0.5596  0.8079  0.6028
   65TMC2    C1 1006   1.117   4.704  15.446  0.1049  0.0008  0.2177
   65TMC2    C2 1007   1.229   4.658  15.389  0.6217  0.3842 -1.6970
   65TMC2    C3 1008   1.282   4.725  15.278  0.0209 -0.5607  0.5466
   65TMC2    C4 1009   1.070   0.087  15.417  0.7837  0.4283  0.8362
   65TMC2    C5 1010   1.127   0.158  15.314  0.5055 -0.4555  0.3838
   65TMC2    C6 1011   1.228   0.105  15.238  0.4347 -0.2537 -0.3277
   65TMC2     C 1012   1.076   4.646  15.573  0.2922  0.2543  0.9722
   65TMC2     O 1013   0.987   4.706  15.632  0.4457 -0.1080 -0.3687
   65TMC2     H 1014   1.277   4.569  15.427  1.7279  1.7576  0.1027
   65TMC2    H1 1015   1.010   0.136  15.493  2.3594  1.4618  1.4321
   65TMC2    H2 1016   1.248   0.156  15.145 -1.3007 -0.6713 -0.9284
   65TMC2    C7 1017   1.101   0.295  15.291 -0.0121 -0.0887  0.2079
   65TMC2    C8 1018   1.364   4.649  15.185 -0.7907  0.2868 -0.6343
   65TMC2    O1 1019   1.106   0.337  15.178 -0.0095 -0.2667  0.0796
   65TMC2    O2 1020   1.478   4.615  15.219  0.1650  0.1803 -0.3389
   65TMC2    O5 1021   1.323   4.679  15.055 -0.2563  0.7448 -0.0328
   65TMC2    H5 1022   1.230   4.707  15.043 -0.5765 -0.4670 -0.3329
   66MPD2     C 1023   1.043   4.493  15.820  0.8149  0.0236 -0.4743
   66MPD2    C1 1024   1.090   4.442  15.699 -0.6531 -0.2150 -0.3217
   66MPD2    C2 1025   1.116   4.304  15.686  0.3353  0.0400  0.5346
   66MPD2    C3 1026   1.101   4.217  15.791  0.5264  0.4647 -0.0489
   66MPD2    C4 1027   1.064   4.276  15.915 -0.2797  0.7387  0.2168
   66MPD2    C5 1028   1.038   4.409  15.934 -0.3776  0.2401 -0.0154
   66MPD2     H 1029   1.146   4.273  15.587 -1.0352  0.0507  0.1169
   66MPD2    H1 1030   1.062   4.213  16.003  0.9607 -1.3862 -1.2803
   66MPD2    H2 1031   1.010   4.595  15.832  0.3320  0.1064 -2.4539
   66MPD2    H3 1032   1.003   4.450  16.028  0.4919  0.2776  0.2914
   66MPD2     N 1033   1.119   4.074  15.779 -0.8642  0.7679 -0.1557
   66MPD2    H5 1034   1.079   4.019  15.855 -1.3868 -0.8896 -1.6164
   66MPD2    N1 1035   1.104   4.515  15.581 -0.2303 -0.0016  0.3488
   66MPD2    H7 1036   1.132   4.465  15.497  1.6533 -1.4627  1.8203
   67TMC2    C1 1037   1.157   3.801  14.290  0.0422  0.7520  0.2656
   67TMC2    C2 1038   1.037   3.810  14.347 -0.4491  0.4815 -0.3537
   67TMC2    C3 1039   1.038   3.798  14.486  0.3695  0.2692 -0.3627
   67TMC2    C4 1040   1.274   3.776  14.355  0.2937 -0.8006  0.1598
   67TMC2    C5 1041   1.268   3.751  14.488 -0.1655 -0.7651  0.2951
   67TMC2    C6 1042   1.146   3.764  14.554  0.0275  0.5330  0.1242
   67TMC2     C 1043   1.176   3.808  14.141  0.2422 -0.2097  0.2816
   67TMC2     O 1044   1.285   3.768  14.099 -0.8026 -0.4664  0.1852
   67TMC2     H 1045   0.944   3.833  14.296  0.9563  1.1823 -2.5959
   67TMC2    H1 1046   1.371   3.779  14.307  1.9172 -0.9100  3.4268
   67TMC2    H2 1047   1.133   3.730  14.656  3.6800 -1.9081 -0.2098
   67TMC2    C7 1048   1.394   3.729  14.558 -0.0971 -1.0431 -0.1162
   67TMC2    C8 1049   0.909   3.778  14.551 -0.2024 -0.4489 -0.4532
   67TMC2    O1 1050   1.489   3.681  14.498 -0.0375 -0.4837  0.5466
   67TMC2    O2 1051   0.814   3.740  14.487  0.3049  0.4205  0.4122
   67TMC2    O5 1052   0.896   3.858  14.654 -0.5157  0.8115  0.1951
   67TMC2    H5 1053   0.967   3.922  14.676  1.9862 -1.1226 -2.3227
   68MPD2     C 1054   1.148   3.833  13.849  0.3017  0.5863  0.2787
   68MPD2    C1 1055   1.050   3.861  13.936 -0.0226  0.5976  0.6046
   68MPD2    C2 1056   0.928   3.905  13.878  0.2919  0.0998  0.3516
   68MPD2    C3 1057   0.908   3.917  13.743 -1.0149  0.0271 -0.0818
   68MPD2    C4 1058   1.007   3.879  13.663 -0.0273  0.4150  0.3716
   68MPD2    C5 1059   1.127   3.837  13.711 -0.4865 -0.1105  0.2242
   68MPD2     H 1060   0.839   3.932  13.934 -0.4368  0.9089 -1.1990
   68MPD2    H1 1061   0.995   3.871  13.556  1.5512  1.4666  0.1101
   68MPD2    H2 1062   1.247   3.807  13.886  0.1836 -1.1917 -0.6594
   68MPD2    H3 1063   1.196   3.792  13.641  0.1491 -0.5900  1.1686
   68MPD2     N 1064   0.785   3.946  13.678 -0.5033  0.8104 -0.1500
   68MPD2    H5 1065   0.776   3.955  13.577  0.6322  1.4600 -0.1930
   68MPD2    N1 1066   1.066   3.850  14.074 -0.0866 -0.3514  1.1029
   68MPD2    H7 1067   0.979   3.857  14.127 -1.2855 -0.8949 -0.7950
   69TMC2    C1 1068   3.626   0.302  12.419  1.0566  0.0169  0.5073
   69TMC2    C2 1069   3.506   0.364  12.395 -0.0076  0.3520  0.0253
   69TMC2    C3 1070   3.482   0.396  12.266  0.0160 -0.4321  0.0351
   69TMC2    C4 1071   3.692   0.235  12.321  0.6253 -0.0632 -0.2157
   69TMC2    C5 1072   3.666   0.263  12.190 -0.8108  0.4873  0.4558
   69TMC2    C6 1073   3.563   0.348  12.161  0.5381 -0.0557 -0.3365
   69TMC2     C 1074   3.623   0.246  12.546 -0.0240 -0.8771  0.0604
   69TMC2     O 1075   3.531   0.167  12.561 -0.4488  0.3350  0.3453
   69TMC2     H 1076   3.449   0.384  12.485 -0.7716  1.2016 -0.6452
   69TMC2    H1 1077   3.783   0.184  12.348  0.4719  0.3246  1.0819
   69TMC2    H2 1078   3.544   0.368  12.056  1.6191  0.8837 -0.3509
   69TMC2    C7 1079   3.761   0.226  12.088 -0.2677  0.5688  0.5411
   69TMC2    C8 1080   3.355   0.463  12.240  0.2824  0.4302  0.7506
   69TMC2    O1 1081   3.867   0.178  12.126  0.0084  0.0579 -0.7690
   69TMC2    O2 1082   3.266   0.449  12.323 -0.0987  0.3583 -0.4988
   69TMC2    O5 1083   3.333   0.477  12.112  0.6283  0.1082  0.3627
   69TMC2    H5 1084   3.410   0.507  12.060  1.4980 -1.5961  0.6802
   70MPD2     C 1085   3.931   0.162  12.730  0.5394  0.2266 -0.3787
   70MPD2    C1 1086   3.791   0.179  12.718 -0.2595  1.0033  0.0594
   70MPD2    C2 1087   3.703   0.117  12.805  0.9623  0.3740 -0.1510
   70MPD2    C3 1088   3.756   0.036  12.902  0.5715  0.1037  0.2435
   70MPD2    C4 1089   3.893   0.018  12.911 -0.2617 -0.0202 -0.2355
   70MPD2    C5 1090   3.979   0.085  12.830  0.3223 -0.4007 -0.8050
   70MPD2     H 1091   3.597   0.130  12.786  1.0730  1.3456 -0.0938
   70MPD2    H1 1092   3.930   4.690  12.984 -0.2285  2.1160  1.8014
   70MPD2    H2 1093   3.997   0.199  12.652 -0.2713  1.5264 -0.4539
   70MPD2    H3 1094   4.086   0.069  12.839  0.0834 -0.9224  1.2302
   70MPD2     N 1095   3.674   4.698  12.982 -0.1188  0.2521  0.5122
   70MPD2    H5 1096   3.714   4.615  13.023 -3.4473 -1.5597  0.0371
   70MPD2    N1 1097   3.747   0.249  12.605 -0.2511  0.3715 -0.0242
   70MPD2    H7 1098   3.827   0.287  12.554  1.0375 -3.3205 -0.7094
   71TMC2    C1 1099   0.621   0.169   1.415  0.4807  0.0591  0.5208
   71TMC2    C2 1100   0.728   0.116   1.478  0.6925 -0.2208  0.3629
   71TMC2    C3 1101   0.731   0.119   1.616 -0.0584  0.1723  0.2790
   71TMC2    C4 1102   0.507   0.210   1.488  0.0472 -0.2137 -0.4216
   71TMC2    C5 1103   0.517   0.206   1.625  0.5132  0.5736 -0.6670
   71TMC2    C6 1104   0.620   0.145   1.694 -0.1338 -0.1685  0.2886
   71TMC2     C 1105   0.621   0.193   1.268  0.8553 -0.1826 -0.1177
   71TMC2     O 1106   0.735   0.187   1.217 -0.3014  0.2339  0.0026
   71TMC2     H 1107   0.810   0.075   1.421 -0.9108 -2.5897 -0.2751
   71TMC2    H1 1108   0.427   0.264   1.438 -0.4095 -0.4622  0.0440
   71TMC2    H2 1109   0.626   0.153   1.802 -0.8693  3.6587  0.0472
   71TMC2    C7 1110   0.409   0.255   1.704 -0.2021  0.1835  0.2541
   71TMC2    C8 1111   0.853   0.078   1.682  0.5833  0.1934 -0.5039
   71TMC2    O1 1112   0.427   0.290   1.821 -0.3125 -0.3588  0.1316
   71TMC2    O2 1113   0.932   0.005   1.624  0.0066 -0.1086 -0.2419
   71TMC2    O5 1114   0.892   0.161   1.779 -0.0662 -0.2011  0.3865
   71TMC2    H5 1115   0.833   0.239   1.791  0.1556 -0.4560  3.1006
   72MPD2     C 1116   0.410   0.200   0.801  0.3615  0.1966 -0.1573
   72MPD2    C1 1117   0.537   0.229   0.839  0.2470  0.1074  0.7862
   72MPD2    C2 1118   0.570   0.215   0.969  0.5531 -1.0602  0.4994
   72MPD2    C3 1119   0.481   0.176   1.063 -0.3298  0.3252  0.1510
   72MPD2    C4 1120   0.350   0.144   1.023  0.7527 -0.0391 -0.2078
   72MPD2    C5 1121   0.313   0.163   0.892  0.2370  0.0949 -0.0229
   72MPD2     H 1122   0.664   0.260   0.998  1.4569 -1.5101 -1.7374
   72MPD2    H1 1123   0.278   0.127   1.103  1.7796  0.0585  0.7385
   72MPD2    H2 1124   0.383   0.213   0.696  0.4154 -0.9069 -0.3079
   72MPD2    H3 1125   0.210   0.148   0.862  0.1168 -0.2223  0.5447
   72MPD2     N 1126   0.504   0.179   1.199 -1.0872  0.7184 -0.0030
   72MPD2    H5 1127   0.415   0.160   1.243 -1.2730  0.6205 -0.4221
   72MPD2    N1 1128   0.638   0.283   0.758 -1.3178  0.0400  0.7964
   72MPD2    H7 1129   0.721   0.317   0.805 -0.5156  0.2260 -0.7558
   73TMC2    C1 1130   0.162   2.644  13.910  0.6490  0.1782  0.1365
   73TMC2    C2 1131   0.182   2.540  13.826  1.0411  0.5718 -0.9682
   73TMC2    C3 1132   0.257   2.438  13.866 -0.6679 -0.5774  0.4938
   73TMC2    C4 1133   0.224   2.662  14.032 -0.3876  0.5781  0.1604
   73TMC2    C5 1134   0.307   2.553  14.068 -0.3985 -0.1949 -0.4461
   73TMC2    C6 1135   0.317   2.439  13.991  0.0676  0.7389 -0.6401
   73TMC2     C 1136   0.172   2.771  13.844  0.2808 -0.2668 -0.2752
   73TMC2     O 1137   0.265   2.838  13.888 -0.6738 -0.4068  0.4519
   73TMC2     H 1138   0.128   2.531  13.732  1.5388  0.7284 -1.2668
   73TMC2    H1 1139   0.216   2.757  14.082  2.0432  1.1943 -0.6452
   73TMC2    H2 1140   0.389   2.363  14.018 -1.0584 -0.5600 -1.2739
   73TMC2    C7 1141   0.444   2.598  14.090 -0.5364 -0.5982 -0.0661
   73TMC2    C8 1142   0.294   2.341  13.763  1.1466 -0.0311  0.3082
   73TMC2    O1 1143   0.527   2.516  14.120 -0.0153  0.4842  0.2532
   73TMC2    O2 1144   0.377   2.378  13.679  0.5187  0.2970 -0.0928
   73TMC2    O5 1145   0.306   2.231  13.832  0.4139  0.9253  0.5398
   73TMC2    H5 1146   0.218   2.214  13.872  0.7905 -1.6462  0.2951
   74MPD2     C 1147   0.185   3.025  13.410  0.2227 -0.4453  0.2357
   74MPD2    C1 1148   0.248   3.048  13.529 -0.1213 -0.2710 -0.1550
   74MPD2    C2 1149   0.235   2.956  13.625  0.1615  0.1526 -0.0245
   74MPD2    C3 1150   0.137   2.855  13.621  0.1325 -0.2648 -0.8833
   74MPD2    C4 1151   0.074   2.836  13.503  0.7183  0.3146  0.1785
   74MPD2    C5 1152   0.107   2.913  13.397  0.2345 -0.6175  0.3586
   74MPD2     H 1153   0.295   2.974  13.713  0.1575  0.8538 -0.1671
   74MPD2    H1 1154   4.733   2.767  13.491  1.5914 -0.7668  0.3719
   74MPD2    H2 1155   0.217   3.084  13.324  0.7502  0.7047  1.2276
   74MPD2    H3 1156   0.055   2.883  13.306 -1.4834  0.5194  0.9714
   74MPD2     N 1157   0.104   2.772  13.726  0.1451  0.3898  0.0906
   74MPD2    H5 1158   0.025   2.710  13.713  1.1744 -0.6622 -1.2410
   74MPD2    N1 1159   0.346   3.151  13.530 -0.3095 -0.7169 -0.0529
   74MPD2    H7 1160   0.351   3.219  13.455  1.5722 -0.8276 -0.0310
   75TMC2    C1 1161   0.581   4.060  13.653  0.1991  0.7930  0.3964
   75TMC2    C2 1162   0.491   4.149  13.702 -0.2319  0.0509 -0.2828
   75TMC2    C3 1163   0.363   4.158  13.654  0.0675 -0.4106  0.5244
   75TMC2    C4 1164   0.532   3.955  13.564 -0.3389  0.3005 -0.7588
   75TMC2    C5 1165   0.396   3.959  13.525  0.5290 -0.1755 -1.0234
   75TMC2    C6 1166   0.316   4.061  13.568 -0.1010  0.1444 -0.4968
   75TMC2     C 1167   0.685   4.020  13.738  0.0695 -0.3527 -0.3055
   75TMC2     O 1168   0.686   4.080  13.841 -0.2816  0.5417  0.7256
   75TMC2     H 1169   0.529   4.221  13.773  0.6251 -0.0295 -0.6599
   75TMC2    H1 1170   0.608   3.882  13.534 -0.2129 -0.2207  0.8468
   75TMC2    H2 1171   0.214   4.071  13.532 -1.1087 -1.9661  1.6958
   75TMC2    C7 1172   0.352   3.856  13.434 -0.5068  0.1871 -0.7232
   75TMC2    C8 1173   0.265   4.247  13.713  0.0812 -0.0202  0.5070
   75TMC2    O1 1174   0.433   3.771  13.408 -0.1597 -0.5393  0.6006
   75TMC2    O2 1175   0.150   4.218  13.738 -0.1471 -0.4707  0.0204
   75TMC2    O5 1176   0.327   4.361  13.743  0.5297  0.2473 -0.0085
   75TMC2    H5 1177   0.421   4.361  13.712  0.7703 -0.8910  0.7361
   76TMC2    C1 1178   0.191   3.939  12.167  0.0705 -0.0079  0.4630
   76TMC2    C2 1179   0.232   3.891  12.041  0.6624  0.3932  0.8971
   76TMC2    C3 1180   0.326   3.792  12.046  0.4972 -0.1897 -0.2046
   76TMC2    C4 1181   0.234   3.887  12.284 -0.2652  0.0103  0.5877
   76TMC2    C5 1182   0.330   3.793  12.279 -0.2783 -0.7729  0.1746
   76TMC2    C6 1183   0.379   3.747  12.159  0.5178 -0.3426  0.2852
   76TMC2     C 1184   0.109   4.061  12.159 -0.2874 -0.0199 -0.3252
   76TMC2     O 1185   0.087   4.091  12.042  0.0933 -0.0993 -0.6695
   76TMC2     H 1186   0.186   3.933  11.953  2.4509 -0.1223 -0.2751
   76TMC2    H1 1187   0.189   3.921  12.377 -0.6594 -0.0433  0.4157
   76TMC2    H2 1188   0.437   3.657  12.147  2.7564  1.2248 -0.4682
   76TMC2    C7 1189   0.372   3.726  12.397  0.4550 -1.3551  0.2049
   76TMC2    C8 1190   0.391   3.765  11.917 -0.1239  0.3550  0.0403
   76TMC2    O1 1191   0.419   3.614  12.390  0.6118  0.5384 -1.0649
   76TMC2    O2 1192   0.445   3.662  11.878 -0.1345 -0.0758  0.0589
   76TMC2    O5 1193   0.392   3.872  11.836 -0.1927 -0.1602  0.6153
   76TMC2    H5 1194   0.362   3.955  11.880  1.7083  1.1600 -0.6065
   77MPD2     C 1195   0.015   4.550  12.274 -0.1233 -0.2523 -0.9961
   77MPD2    C1 1196   4.703   4.473  12.174 -0.2723 -0.5326  0.3060
   77MPD2    C2 1197   4.729   4.333  12.178  0.2193 -0.0981  0.2803
   77MPD2    C3 1198   0.061   4.273  12.277  0.4009  0.2642  0.0994
   77MPD2    C4 1199   0.117   4.356  12.376  0.4744  0.1417  0.5656
   77MPD2    C5 1200   0.091   4.490  12.367 -0.1319 -0.3287 -0.0341
   77MPD2     H 1201   4.685   4.269  12.103 -2.3632  0.0155  1.7121
   77MPD2    H1 1202   0.165   4.319  12.466 -0.9954 -0.0627  1.2656
   77MPD2    H2 1203   0.002   4.657  12.289  0.5862 -0.3348  0.2161
   77MPD2    H3 1204   0.130   4.554  12.446 -1.7476  0.6956 -0.0665
   77MPD2     N 1205   0.108   4.136  12.274  0.1562 -0.4480 -0.1064
   77MPD2    H5 1206   0.161   4.112  12.357 -0.3058 -0.0106  0.3082
   77MPD2    N1 1207   4.632   4.531  12.065  0.2620  0.4362  0.1874
   77MPD2    H7 1208   4.599   4.480  11.983 -2.1270  2.3829 -0.0801
   78TMC2    C1 1209   0.250   3.900   0.814 -0.0256 -0.6657  0.0134
   78TMC2    C2 1210   0.116   3.926   0.831  0.2229  0.1668  0.0125
   78TMC2    C3 1211   0.081   4.059   0.834  0.6617  0.3048 -0.5940
   78TMC2    C4 1212   0.347   3.995   0.794 -0.1204 -0.8071  0.2566
   78TMC2    C5 1213   0.303   4.120   0.810 -0.1129  0.2711 -0.1491
   78TMC2    C6 1214   0.176   4.155   0.832  0.2679 -0.5045 -0.2877
   78TMC2     C 1215   0.272   3.762   0.785  0.5653  0.5857  0.7289
   78TMC2     O 1216   0.182   3.717   0.719  0.0784  0.4959 -0.0765
   78TMC2     H 1217   0.044   3.849   0.857 -1.3514  0.8967 -2.2057
   78TMC2    H1 1218   0.452   3.976   0.778 -0.0853  0.6422 -1.2074
   78TMC2    H2 1219   0.154   4.261   0.839 -1.0057 -0.8851  1.4622
   78TMC2    C7 1220   0.402   4.217   0.833  1.2029 -0.1998  0.4166
   78TMC2    C8 1221   4.690   4.101   0.880 -0.3631  0.4150 -0.1946
   78TMC2    O1 1222   0.504   4.205   0.767 -0.0693  0.0108 -0.0730
   78TMC2    O2 1223   4.676   4.204   0.946  0.1189  0.7580  0.1565
   78TMC2    O5 1224   4.595   4.025   0.813 -0.1028 -0.2474 -0.1825
   78TMC2    H5 1225   4.622   3.979   0.731 -0.5243 -0.3673 -0.2576
   79MPD1     C 1226   0.636   3.436   0.623 -0.0659  0.0931 -0.1676
   79MPD1    C1 1227   0.503   3.443   0.597 -0.6070 -0.5549  0.7710
   79MPD1    C2 1228   0.418   3.536   0.653  0.2437 -0.0245 -0.5202
   79MPD1    C3 1229   0.469   3.627   0.745 -0.2185 -0.3527 -0.4942
   79MPD1    C4 1230   0.603   3.617   0.777  0.1720  0.7592  0.1245
   79MPD1    C5 1231   0.680   3.514   0.729  0.0399 -0.0275 -0.5217
   79MPD1     H 1232   0.315   3.543   0.621  0.0318  0.7734  0.3401
   79MPD1    H1 1233   0.645   3.682   0.853 -2.1574  1.6185  0.6591
   79MPD1    H2 1234   0.706   3.367   0.577 -0.7571 -0.9709  0.3684
   79MPD1    H3 1235   0.782   3.505   0.762 -0.3436  1.7179  1.1259
   79MPD1     N 1236   0.403   3.736   0.804  0.0130 -0.6377 -0.1045
   79MPD1    H5 1237   0.459   3.789   0.870  0.6668 -0.4171 -0.8447
   79MPD1    N1 1238   0.456   3.374   0.481 -0.0840 -0.0390  0.0217
   79MPD1    H6 1239   0.361   3.339   0.476 -0.2707  0.5590 -0.5132
   79MPD1    H7 1240   0.515   3.293   0.463  0.1776  0.7302 -2.4830
   80TMC2    C1 1241   3.994   4.209  11.902  0.5377  0.0525  0.3229
   80TMC2    C2 1242   4.123   4.179  11.860  0.0958  0.6885  0.4530
   80TMC2    C3 1243   4.140   4.148  11.728 -0.0214  0.1988 -0.3119
   80TMC2    C4 1244   3.891   4.202  11.812 -0.3896  0.0596 -0.0769
   80TMC2    C5 1245   3.909   4.180  11.678 -0.8200 -0.4502  0.3197
   80TMC2    C6 1246   4.040   4.155  11.639  0.1320 -0.4882 -0.4842
   80TMC2     C 1247   3.978   4.197  12.049 -0.3129 -0.0969 -0.1128
   80TMC2     O 1248   4.067   4.132  12.105  0.2442 -0.5131  0.6331
   80TMC2     H 1249   4.203   4.195  11.931  0.0551 -1.6168  0.9905
   80TMC2    H1 1250   3.793   4.225  11.852 -0.5511 -0.4841 -0.1464
   80TMC2    H2 1251   4.063   4.134  11.535 -0.7012  0.0264 -0.7748
   80TMC2    C7 1252   3.803   4.154  11.591 -0.6658  0.1841 -0.1107
   80TMC2    C8 1253   4.270   4.096  11.695 -0.4913 -0.0521 -0.2696
   80TMC2    O1 1254   3.816   4.179  11.474  0.1935  0.5090 -0.2533
   80TMC2    O2 1255   4.369   4.111  11.760 -0.0966 -0.0641  0.6752
   80TMC2    O5 1256   4.243   3.974  11.634 -0.0508  0.4192 -0.1428
   80TMC2    H5 1257   4.145   3.970  11.627 -0.0335  2.1919 -1.3769
   81MPD2     C 1258   3.884   4.190  12.330 -0.4172 -0.0414 -0.2854
   81MPD2    C1 1259   3.806   4.229  12.225 -0.1047  0.1197 -0.0401
   81MPD2    C2 1260   3.677   4.273  12.250 -0.0442 -0.2432  0.2641
   81MPD2    C3 1261   3.623   4.256  12.378  0.0918 -0.8094 -0.6354
   81MPD2    C4 1262   3.698   4.195  12.473  0.1862 -0.9524  0.4065
   81MPD2    C5 1263   3.829   4.162  12.448 -0.1390 -0.0179  0.0075
   81MPD2     H 1264   3.617   4.312  12.169  1.6689  2.2931  0.2305
   81MPD2    H1 1265   3.658   4.187  12.574  2.3520 -1.4440  1.2374
   81MPD2    H2 1266   3.992   4.177  12.325 -0.3180  0.7223 -0.1277
   81MPD2    H3 1267   3.880   4.117  12.532 -1.3432  0.9969  1.2788
   81MPD2     N 1268   3.492   4.302  12.414 -0.3758 -0.3982  0.0934
   81MPD2    H5 1269   3.450   4.282  12.504 -0.2567 -0.0976  0.2162
   81MPD2    N1 1270   3.854   4.239  12.091  0.1868  0.1260 -0.3022
   81MPD2    H7 1271   3.798   4.284  12.019 -0.7011 -0.1778  0.2126
   82TMC2    C1 1272   2.083   2.971  10.897 -0.0810  0.0159  0.1506
   82TMC2    C2 1273   2.212   2.964  10.951 -1.1453  0.0749 -0.1904
   82TMC2    C3 1274   2.258   2.845  11.007 -0.2411 -0.2872  0.2156
   82TMC2    C4 1275   1.994   2.870  10.903  0.0257 -0.0683 -0.2497
   82TMC2    C5 1276   2.042   2.760  10.974 -0.3097 -0.2857 -0.1026
   82TMC2    C6 1277   2.169   2.743  11.015 -0.4307  0.2049 -0.6848
   82TMC2     C 1278   2.022   3.103  10.865  0.0040 -0.2118  0.0132
   82TMC2     O 1279   1.953   3.115  10.768 -0.4785  0.0732  0.1805
   82TMC2     H 1280   2.282   3.047  10.939 -0.1708 -0.6453  0.4718
   82TMC2    H1 1281   1.890   2.897  10.890  0.1839  0.1671 -1.0556
   82TMC2    H2 1282   2.187   2.648  11.066 -0.2687  0.0380 -1.0562
   82TMC2    C7 1283   1.949   2.655  10.998 -0.3031  0.5169 -0.9549
   82TMC2    C8 1284   2.395   2.818  10.991 -0.3667 -0.4945 -0.4382
   82TMC2    O1 1285   1.972   2.596  11.103 -0.1786 -0.5347 -0.9520
   82TMC2    O2 1286   2.464   2.861  10.899 -0.1794  0.4314 -0.1784
   82TMC2    O5 1287   2.410   2.690  11.031 -0.4238 -0.1234 -0.0097
   82TMC2    H5 1288   2.361   2.688  11.116  0.0730  0.9825  0.3083
   83MPD2     C 1289   1.818   3.506  11.091  0.1432  0.6617 -0.1221
   83MPD2    C1 1290   1.765   3.429  10.996 -0.4684  0.1629  0.0754
   83MPD2    C2 1291   1.844   3.331  10.939  0.0406 -0.0609 -0.2188
   83MPD2    C3 1292   1.974   3.302  10.993  0.5146 -1.1827  0.4817
   83MPD2    C4 1293   2.019   3.372  11.102  0.1814 -0.7695  0.3082
   83MPD2    C5 1294   1.944   3.481  11.146  0.1504  0.1696  0.2148
   83MPD2     H 1295   1.808   3.255  10.870  0.5448 -0.5754  0.0826
   83MPD2    H1 1296   2.118   3.370  11.147  0.2043  0.3308  0.3074
   83MPD2    H2 1297   1.756   3.588  11.126 -0.4929 -1.9664  4.9671
   83MPD2    H3 1298   1.989   3.548  11.219 -0.0223 -0.9448  1.3487
   83MPD2     N 1299   2.041   3.189  10.967  0.2725  0.2257  0.2752
   83MPD2    H5 1300   2.105   3.170  11.044 -1.0269 -1.1107  1.0263
   83MPD2    N1 1301   1.630   3.449  10.963  0.1916  0.2247  0.3509
   83MPD2    H7 1302   1.578   3.504  11.031  2.6486  0.4313  2.0694
   84TMC2    C1 1303   3.061   2.042  10.984 -0.4551  0.3669  0.7808
   84TMC2    C2 1304   3.160   1.971  11.045  0.3170  0.6861 -0.3533
   84TMC2    C3 1305   3.243   1.902  10.958  1.2487 -0.5766 -0.0205
   84TMC2    C4 1306   3.057   2.063  10.845 -0.4709 -0.1238  0.0708
   84TMC2    C5 1307   3.147   1.997  10.763 -0.3099  0.0853 -0.1319
   84TMC2    C6 1308   3.248   1.927  10.824 -0.6825 -0.1915  0.0668
   84TMC2     C 1309   2.984   2.127  11.075  0.8364 -0.3341  0.9268
   84TMC2     O 1310   2.945   2.235  11.030  0.4643 -0.2439  0.2125
   84TMC2     H 1311   3.170   1.966  11.153  0.8840  3.6768 -0.2671
   84TMC2    H1 1312   2.972   2.125  10.818 -0.9322 -0.3902  0.9084
   84TMC2    H2 1313   3.335   1.892  10.769 -2.0577 -1.3388 -1.3760
   84TMC2    C7 1314   3.144   2.039  10.626 -0.1797 -0.3635  0.1257
   84TMC2    C8 1315   3.339   1.812  11.009  0.0805 -0.6016 -0.4217
   84TMC2    O1 1316   3.036   2.090  10.593  0.2929  0.0776  0.3607
   84TMC2    O2 1317   3.425   1.757  10.938 -0.6994  0.7043  0.2208
   84TMC2    O5 1318   3.271   1.745  11.095 -0.2080 -0.7530 -0.2282
   84TMC2    H5 1319   3.191   1.791  11.128  1.3411  0.3050  2.0047
   85TMC2    C1 1320   3.410   1.014  16.040  0.0402 -0.2975  0.5418
   85TMC2    C2 1321   3.280   1.013  16.007 -0.1123  0.3039  0.3555
   85TMC2    C3 1322   3.250   1.088  15.891 -0.2917 -0.0292 -0.0041
   85TMC2    C4 1323   3.505   1.091  15.976  0.2728  0.3748  0.5249
   85TMC2    C5 1324   3.467   1.161  15.865 -0.1664  0.2641  0.4701
   85TMC2    C6 1325   3.342   1.162  15.819  0.2118 -0.5546  0.0071
   85TMC2     C 1326   3.460   0.893  16.104 -0.1418 -0.3734 -0.2713
   85TMC2     O 1327   3.576   0.892  16.144 -0.5671 -0.0861 -0.4041
   85TMC2     H 1328   3.201   0.962  16.062  0.1695  0.2330  0.6951
   85TMC2    H1 1329   3.607   1.088  16.012  0.2775  1.0203  0.5698
   85TMC2    H2 1330   3.321   1.198  15.719  0.2741  1.0124  0.5605
   85TMC2    C7 1331   3.576   1.229  15.789  0.0097 -0.2037  0.5119
   85TMC2    C8 1332   3.120   1.067  15.839  0.4635 -0.3738 -0.4493
   85TMC2    O1 1333   3.691   1.197  15.812 -0.0573 -0.4795  0.8425
   85TMC2    O2 1334   3.060   0.963  15.869  0.0644 -0.2134 -0.1909
   85TMC2    O5 1335   3.078   1.196  15.833  0.5083 -0.2745 -0.2234
   85TMC2    H5 1336   3.153   1.255  15.814 -0.5028  0.7091 -1.1638
   86MPD2     C 1337   3.440   0.414  16.299  0.2352  0.0176 -0.8447
   86MPD2    C1 1338   3.322   0.440  16.225 -0.3213 -0.0397 -0.5481
   86MPD2    C2 1339   3.303   0.561  16.162  0.2406  0.2552  0.2520
   86MPD2    C3 1340   3.394   0.667  16.173 -0.2438 -0.4105  0.0705
   86MPD2    C4 1341   3.508   0.638  16.252 -0.0782  0.2163  0.4644
   86MPD2    C5 1342   3.531   0.516  16.307  0.4588  0.4406  0.1368
   86MPD2     H 1343   3.211   0.567  16.104 -1.0534 -0.7425  2.1752
   86MPD2    H1 1344   3.594   0.704  16.264 -0.0782  0.1008  1.0908
   86MPD2    H2 1345   3.472   0.314  16.326  0.6013  0.5017  0.4947
   86MPD2    H3 1346   3.630   0.489  16.341 -0.1047 -1.8396 -0.0305
   86MPD2     N 1347   3.368   0.790  16.109  0.1774 -0.4709  0.1217
   86MPD2    H5 1348   3.280   0.806  16.061  0.0773 -1.3475  0.0263
   86MPD2    N1 1349   3.226   0.341  16.218  0.4819 -0.1063  0.6730
   86MPD2    H7 1350   3.151   0.344  16.149  0.5210 -1.9492  0.5469
   87TMC2    C1 1351   0.959   3.625   0.549 -0.2826  0.2174  0.1449
   87TMC2    C2 1352   1.040   3.647   0.660  0.1593  0.5403  0.3962
   87TMC2    C3 1353   1.010   3.751   0.748 -0.1915 -0.2848 -0.0016
   87TMC2    C4 1354   0.846   3.692   0.525  0.1199  0.3514  0.1125
   87TMC2    C5 1355   0.813   3.792   0.615 -0.3917 -0.4134  0.0278
   87TMC2    C6 1356   0.894   3.815   0.727  0.6343  0.0597  0.6399
   87TMC2     C 1357   0.973   3.498   0.495  0.6421  0.2260 -0.0753
   87TMC2     O 1358   1.018   3.415   0.567  0.3342 -0.2020 -0.2966
   87TMC2     H 1359   1.115   3.574   0.687 -1.1447 -0.5020  1.2397
   87TMC2    H1 1360   0.781   3.666   0.441 -0.1683  0.4426  0.3107
   87TMC2    H2 1361   0.884   3.908   0.782  0.0313 -0.3654  1.2523
   87TMC2    C7 1362   0.710   3.887   0.584 -0.1422 -0.4935 -0.0579
   87TMC2    C8 1363   1.087   3.768   0.862  0.1127 -0.0976 -1.3351
   87TMC2    O1 1364   0.729   4.004   0.617 -0.2877 -0.5632  0.0137
   87TMC2    O2 1365   1.045   3.835   0.953 -0.0422  0.2087 -0.0423
   87TMC2    O5 1366   1.214   3.756   0.815  0.0390  0.3415  0.0661
   87TMC2    H5 1367   1.206   3.743   0.719  0.3096  0.1640  0.0686
   88MPD2     C 1368   0.374   3.842   0.450  0.0389 -0.1516  0.0482
   88MPD2    C1 1369   0.492   3.907   0.474 -0.7309  0.4176 -0.6149
   88MPD2    C2 1370   0.492   4.046   0.472  0.1780  0.4056 -0.4515
   88MPD2    C3 1371   0.375   4.118   0.456 -0.3779 -0.0106  0.2808
   88MPD2    C4 1372   0.258   4.049   0.425 -0.2841 -0.2976  0.0698
   88MPD2    C5 1373   0.260   3.908   0.426  0.0035  0.2567 -0.2617
   88MPD2     H 1374   0.582   4.103   0.492 -0.4837  1.5764 -0.8220
   88MPD2    H1 1375   0.159   4.094   0.417  0.6400  1.8981  1.0073
   88MPD2    H2 1376   0.371   3.735   0.463 -2.1949 -0.1560 -0.4908
   88MPD2    H3 1377   0.161   3.863   0.428 -0.3121  1.0241  1.6682
   88MPD2     N 1378   0.372   4.261   0.443  0.3131  0.1426 -0.0080
   88MPD2    H5 1379   0.286   4.299   0.405  0.6737  1.9785  1.0269
   88MPD2    N1 1380   0.609   3.833   0.506  0.2391  0.5544 -0.1672
   88MPD2    H7 1381   0.604   3.732   0.497 -0.8928  0.4911  1.2368
   89TMC2    C1 1382   1.349   1.850   1.512  0.0264 -0.3061 -0.3810
   89TMC2    C2 1383   1.233   1.820   1.454 -0.0003 -0.5074  0.7752
   89TMC2    C3 1384   1.155   1.924   1.415 -0.1972  0.2265 -0.0957
   89TMC2    C4 1385   1.398   1.976   1.534  0.2808  0.3923 -0.8076
   89TMC2    C5 1386   1.307   2.080   1.510 -0.3399  0.0632 -0.0862
   89TMC2    C6 1387   1.185   2.055   1.439  0.2486 -0.4963 -1.0348
   89TMC2     C 1388   1.406   1.735   1.585 -0.3278 -0.8627 -0.0090
   89TMC2     O 1389   1.509   1.758   1.647 -0.0325  0.0947 -0.1445
   89TMC2     H 1390   1.217   1.721   1.413 -2.0102  0.7747 -1.5204
   89TMC2    H1 1391   1.475   1.993   1.608  0.3773 -0.1246 -0.7925
   89TMC2    H2 1392   1.110   2.131   1.421 -0.0878 -0.6580 -0.3243
   89TMC2    C7 1393   1.350   2.216   1.525  0.2478 -0.2845 -0.5045
   89TMC2    C8 1394   1.061   1.892   1.309 -0.2381 -0.6372  0.2701
   89TMC2    O1 1395   1.266   2.304   1.524 -0.4681  0.2072 -0.4672
   89TMC2    O2 1396   1.100   1.804   1.227 -0.1237 -0.1268  0.3297
   89TMC2    O5 1397   0.986   1.999   1.276 -0.7336  0.0822  0.5032
   89TMC2    H5 1398   0.943   2.040   1.354  0.2718  1.6024  0.2719
   90MPD2     C 1399   1.367   1.285   1.806 -0.0449  0.0024  0.0712
   90MPD2    C1 1400   1.241   1.327   1.776 -0.8872 -0.4483  0.0477
   90MPD2    C2 1401   1.220   1.451   1.720  0.0935  0.3663  0.7147
   90MPD2    C3 1402   1.335   1.519   1.683  0.3882 -0.1834 -0.4823
   90MPD2    C4 1403   1.462   1.475   1.715 -0.0166 -0.1971 -0.0782
   90MPD2    C5 1404   1.482   1.359   1.778 -0.1308 -0.5656 -0.4264
   90MPD2     H 1405   1.120   1.486   1.701  0.7967  2.5515  1.0614
   90MPD2    H1 1406   1.549   1.536   1.695 -1.4582  1.4266 -1.3923
   90MPD2    H2 1407   1.372   1.184   1.846  1.9399  0.0782  0.0054
   90MPD2    H3 1408   1.579   1.315   1.796  0.8936  1.8110 -0.1883
   90MPD2     N 1409   1.312   1.640   1.617 -0.2799 -0.1149  0.3629
   90MPD2    H5 1410   1.217   1.676   1.606 -0.0524  0.3423 -0.1135
   90MPD2    N1 1411   1.123   1.248   1.799 -0.5321  0.2730  0.4363
   90MPD2    H7 1412   1.036   1.279   1.757 -1.0967  2.3334  3.1744
   91TMC2    C1 1413   2.992   1.621  16.081 -0.5694 -0.1244  0.2575
   91TMC2    C2 1414   2.947   1.640  16.209 -0.1747  0.6917 -0.4976
   91TMC2    C3 1415   2.845   1.564  16.252 -0.5216 -0.5832  0.3830
   91TMC2    C4 1416   2.922   1.553  15.987 -0.4948  0.1661 -0.5746
   91TMC2    C5 1417   2.821   1.471  16.037 -0.3549  0.3192 -0.7542
   91TMC2    C6 1418   2.772   1.482  16.165 -0.1358 -0.6889  0.5905
   91TMC2     C 1419   3.122   1.680  16.051  1.1454  0.2622  0.3613
   91TMC2     O 1420   3.166   1.672  15.939 -0.0206  0.2592  0.1019
   91TMC2     H 1421   2.982   1.718  16.275  1.2297 -0.7226  0.4559
   91TMC2    H1 1422   2.953   1.557  15.883  0.5765 -0.2440 -0.2699
   91TMC2    H2 1423   2.699   1.416  16.211  0.2124 -1.4672  0.0229
   91TMC2    C7 1424   2.726   1.405  15.946  0.9021  0.1730  0.9291
   91TMC2    C8 1425   2.809   1.552  16.389  0.8794 -0.0518 -0.3849
   91TMC2    O1 1426   2.710   1.445  15.828 -0.1121  0.0774 -0.3308
   91TMC2    O2 1427   2.710   1.493  16.420 -0.5457 -0.4940 -0.6927
   91TMC2    O5 1428   2.896   1.604  16.478 -0.2873 -0.0281 -0.4641
   91TMC2    H5 1429   2.980   1.637  16.440 -2.4919  2.4990 -3.1398
   92MPD2     C 1430   3.380   1.834  16.044 -0.1200  0.1161 -0.1500
   92MPD2    C1 1431   3.342   1.758  16.153  0.5635  0.8419  0.2529
   92MPD2    C2 1432   3.432   1.743  16.257  0.3076  0.3825 -0.0815
   92MPD2    C3 1433   3.559   1.807  16.259 -0.6387 -0.2972  0.2469
   92MPD2    C4 1434   3.598   1.873  16.144  0.9686 -0.0838  0.6516
   92MPD2    C5 1435   3.512   1.879  16.036  0.1085  0.9971 -0.3381
   92MPD2     H 1436   3.419   1.670  16.337  0.2175 -1.0673 -1.4238
   92MPD2    H1 1437   3.704   1.897  16.137  1.5481 -1.9669  2.9962
   92MPD2    H2 1438   3.314   1.847  15.958  1.0286  0.5317 -0.9763
   92MPD2    H3 1439   3.553   1.923  15.946 -1.3756  0.4087 -1.3138
   92MPD2     N 1440   3.650   1.810  16.369  0.1291 -0.0178 -0.2989
   92MPD2    H5 1441   3.736   1.863  16.363  1.0019 -1.4494 -0.1624
   92MPD2    N1 1442   3.211   1.699  16.157 -0.3847 -0.1585  0.5310
   92MPD2    H7 1443   3.189   1.665  16.250 -0.1354  0.0364  0.6595
   93TMC2    C1 1444   0.583   2.098  14.112  0.6001  0.1839  0.4351
   93TMC2    C2 1445   0.612   2.215  14.181 -0.2370 -0.1955 -0.8149
   93TMC2    C3 1446   0.724   2.286  14.131 -0.1626  0.6079  0.7412
   93TMC2    C4 1447   0.651   2.045  14.010  0.3987  1.0019  0.8330
   93TMC2    C5 1448   0.756   2.125  13.957 -0.0735  0.5738 -0.1417
   93TMC2    C6 1449   0.792   2.241  14.024 -0.2564 -0.3606  0.0189
   93TMC2     C 1450   0.455   2.033  14.145 -0.3812 -0.6141  0.1404
   93TMC2     O 1451   0.410   2.059  14.256 -0.0713  0.6960  0.4928
   93TMC2     H 1452   0.551   2.245  14.265  0.8042 -1.0052  0.2180
   93TMC2    H1 1453   0.640   1.942  13.980  1.9476  0.9107  0.5758
   93TMC2    H2 1454   0.874   2.296  13.980  0.1733 -0.8529  0.1972
   93TMC2    C7 1455   0.850   2.074  13.863 -0.1214 -0.3928  0.5003
   93TMC2    C8 1456   0.799   2.360  14.231 -0.2022 -0.4110 -0.0033
   93TMC2    O1 1457   0.968   2.091  13.882  0.3737 -0.0593  0.4953
   93TMC2    O2 1458   0.916   2.390  14.216 -0.1905 -0.3257 -0.1980
   93TMC2    O5 1459   0.703   2.431  14.294 -0.1291 -0.1985  0.2363
   93TMC2    H5 1460   0.616   2.438  14.249 -0.1761 -0.3891  0.2950
   94MPD2     C 1461   0.216   1.879  14.173 -0.2416  0.3865  0.2179
   94MPD2    C1 1462   0.264   1.912  14.053  0.1110  0.4128  0.6660
   94MPD2    C2 1463   0.199   1.889  13.939  0.5713 -0.1409  0.2981
   94MPD2    C3 1464   0.072   1.833  13.947 -0.2452 -0.8739 -0.3639
   94MPD2    C4 1465   0.025   1.794  14.065 -0.4561 -0.5557 -0.6772
   94MPD2    C5 1466   0.097   1.811  14.183  0.8117 -0.9170 -0.8125
   94MPD2     H 1467   0.232   1.921  13.841 -0.2401  1.0113  0.3928
   94MPD2    H1 1468   4.670   1.746  14.063 -1.1437  0.8126  0.5629
   94MPD2    H2 1469   0.262   1.895  14.270  0.4011  0.1587 -0.0499
   94MPD2    H3 1470   0.045   1.787  14.275 -1.8803  2.2126 -1.4760
   94MPD2     N 1471   4.724   1.829  13.841 -0.4288  0.3752 -0.0771
   94MPD2    H5 1472   4.630   1.798  13.868  0.3006 -0.8422  1.0752
   94MPD2    N1 1473   0.393   1.966  14.042  0.8886 -0.2580 -0.1374
   94MPD2    H7 1474   0.435   1.970  13.949  0.6649  0.0017 -0.2262
   95TMC2    C1 1475   0.800   3.454  16.541  0.4019 -0.8096 -0.0294
   95TMC2    C2 1476   0.696   3.380  16.592 -0.2393  0.8001  0.0095
   95TMC2    C3 1477   0.679   3.386  16.726 -0.1103  0.3196 -0.2605
   95TMC2    C4 1478   0.875   3.538  16.616 -0.1965 -0.5428 -0.1275
   95TMC2    C5 1479   0.854   3.537  16.751 -0.6257  0.1347  0.8413
   95TMC2    C6 1480   0.758   3.459  16.807  0.2233  0.7832 -0.3116
   95TMC2     C 1481   0.820   3.468  16.402 -0.2649 -0.1489 -0.0384
   95TMC2     O 1482   0.872   3.568  16.360  0.1618 -0.1340  0.4008
   95TMC2     H 1483   0.638   3.311  16.531 -0.0163  0.2298  0.4480
   95TMC2    H1 1484   0.955   3.596  16.570  0.0248 -0.6141  0.1650
   95TMC2    H2 1485   0.738   3.455  16.913 -0.2720  1.0085 -0.3974
   95TMC2    C7 1486   0.914   3.627  16.848 -0.0445  0.1959  0.5901
   95TMC2    C8 1487   0.599   3.283  16.779 -0.6136  0.3537  0.1193
   95TMC2    O1 1488   0.846   3.652  16.948  0.4356 -0.3956 -0.1059
   95TMC2    O2 1489   0.605   3.172  16.734 -0.2051 -0.2220 -0.0783
   95TMC2    O5 1490   0.521   3.336  16.875 -0.1081 -0.1513  0.2000
   95TMC2    H5 1491   0.520   3.433  16.865  2.9042 -0.0014  1.0930
   96MPD2     C 1492   0.809   3.286  15.927  0.0418 -0.3385  0.8984
   96MPD2    C1 1493   0.856   3.402  15.969 -0.1697 -0.2015  1.0719
   96MPD2    C2 1494   0.858   3.429  16.103 -0.0392 -0.1041 -0.0469
   96MPD2    C3 1495   0.802   3.335  16.196  0.8101  0.2109 -0.2355
   96MPD2    C4 1496   0.756   3.221  16.146 -0.3720  0.7338 -0.3370
   96MPD2    C5 1497   0.771   3.190  16.015 -0.0293 -0.4170 -0.0455
   96MPD2     H 1498   0.909   3.518  16.138  0.4501 -1.0535  1.6283
   96MPD2    H1 1499   0.707   3.147  16.208  1.7773 -0.8758 -0.5670
   96MPD2    H2 1500   0.807   3.258  15.822  0.0672  0.6059  0.6471
   96MPD2    H3 1501   0.725   3.097  15.985  0.4615 -0.5003 -0.5434
   96MPD2     N 1502   0.794   3.349  16.335  0.5212  0.4854 -0.0892
   96MPD2    H5 1503   0.763   3.268  16.388 -2.5074  0.7132 -1.5370
   96MPD2    N1 1504   0.900   3.495  15.869  0.3006 -0.9606 -0.2218
   96MPD2    H7 1505   0.875   3.472  15.774  1.3063  1.2916 -1.0534
   97TMC2    C1 1506   2.760   1.132   0.007 -0.2154  0.0918 -0.4662
   97TMC2    C2 1507   2.705   1.098  17.651 -0.5263  0.1130  1.2714
   97TMC2    C3 1508   2.722   1.183  17.546 -0.5573 -0.3531 -0.8626
   97TMC2    C4 1509   2.820   1.251   0.022  0.4286  0.0734  0.4904
   97TMC2    C5 1510   2.829   1.340  17.681 -0.1404 -0.4343  0.2627
   97TMC2    C6 1511   2.792   1.303  17.553  0.2341  0.3247  0.6042
   97TMC2     C 1512   2.714   1.053   0.131  0.1499 -0.2616  0.1183
   97TMC2     O 1513   2.606   1.002   0.113  0.0180  0.2758  0.4122
   97TMC2     H 1514   2.658   1.001  17.642 -0.6891  0.2912  0.2806
   97TMC2    H1 1515   2.825   1.292   0.122  1.1619 -0.7194  0.7743
   97TMC2    H2 1516   2.800   1.354  17.458 -0.7893  1.3513  1.0866
   97TMC2    C7 1517   2.859   1.472  17.709 -0.0432 -0.4048  0.7596
   97TMC2    C8 1518   2.693   1.136  17.409  0.3222 -0.1289  0.7446
   97TMC2    O1 1519   2.901   1.493   0.059 -0.1575  0.7624 -0.1212
   97TMC2    O2 1520   2.575   1.110  17.389 -0.3740  0.8230  0.8214
   97TMC2    O5 1521   2.790   1.049  17.387 -0.0872  0.4401  0.0126
   97TMC2    H5 1522   2.878   1.076  17.422  0.3582 -2.1500  0.9306
   98MPD2     C 1523   2.704   0.949   0.633 -0.2574  0.0091 -0.4455
   98MPD2    C1 1524   2.624   0.899   0.527  0.9382  0.8998 -0.0436
   98MPD2    C2 1525   2.649   0.936   0.395 -0.0682  0.3909  0.0731
   98MPD2    C3 1526   2.756   1.027   0.371  0.9284 -0.0103  0.5503
   98MPD2    C4 1527   2.833   1.074   0.482  1.1746  0.3043  0.3119
   98MPD2    C5 1528   2.804   1.045   0.614 -0.5921  0.0623  0.2364
   98MPD2     H 1529   2.578   0.903   0.319  1.0299 -0.4118 -0.5959
   98MPD2    H1 1530   2.908   1.146   0.452  0.2524  1.4236  0.7402
   98MPD2    H2 1531   2.681   0.934   0.738 -0.5695 -0.1538 -0.5380
   98MPD2    H3 1532   2.860   1.082   0.699 -0.0831 -0.4912  0.1353
   98MPD2     N 1533   2.786   1.081   0.244  0.3290 -1.0255 -0.4581
   98MPD2    H5 1534   2.871   1.135   0.242  0.3188 -0.9111  1.5412
   98MPD2    N1 1535   2.519   0.813   0.572  0.0675  0.0258  0.2962
   98MPD2    H7 1536   2.514   0.785   0.670  2.0218  1.2348  0.7526
   99TMC2    C1 1537   1.655   3.116   1.688  0.0826  0.0224  0.1135
   99TMC2    C2 1538   1.686   3.135   1.820  0.2163 -0.4764  0.2296
   99TMC2    C3 1539   1.610   3.224   1.888  0.0753  0.8634  0.0209
   99TMC2    C4 1540   1.554   3.185   1.625 -0.5798 -0.2799  0.0923
   99TMC2    C5 1541   1.482   3.278   1.696  0.6499  0.2241 -0.2242
   99TMC2    C6 1542   1.507   3.297   1.834 -0.1267  0.4776  0.0284
   99TMC2     C 1543   1.751   3.039   1.613  0.7615  0.2640  0.0854
   99TMC2     O 1544   1.865   3.037   1.662  0.0945  0.3460  0.5144
   99TMC2     H 1545   1.767   3.082   1.868  1.5835  0.9555 -0.5085
   99TMC2    H1 1546   1.533   3.185   1.518 -1.4366  1.2980  0.2498
   99TMC2    H2 1547   1.449   3.361   1.900  0.9226  1.1251  0.3242
   99TMC2    C7 1548   1.349   3.332   1.653 -1.0096  0.1743  0.9908
   99TMC2    C8 1549   1.612   3.206   2.034 -0.1694 -0.6956  0.0267
   99TMC2    O1 1550   1.317   3.424   1.724 -0.4732  0.7311 -0.8909
   99TMC2    O2 1551   1.722   3.193   2.088  0.3907 -0.1791  0.8236
   99TMC2    O5 1552   1.499   3.255   2.089  0.1295 -0.5022 -0.2497
   99TMC2    H5 1553   1.421   3.228   2.036 -0.4462  3.1385 -1.2812
  100MPD2     C 1554   1.902   2.922   1.380  0.5468 -0.9210 -0.3600
  100MPD2    C1 1555   1.765   2.928   1.396  0.1709 -0.2811 -0.7019
  100MPD2    C2 1556   1.683   2.869   1.299 -0.0672  0.2897 -0.9112
  100MPD2    C3 1557   1.734   2.796   1.192 -0.6975 -0.6263 -0.6614
  100MPD2    C4 1558   1.867   2.793   1.177  0.5367  0.0586  0.4500
  100MPD2    C5 1559   1.952   2.850   1.272  0.2130  0.2324  0.6003
  100MPD2     H 1560   1.574   2.870   1.302 -0.0026 -1.2115  1.4113
  100MPD2    H1 1561   1.911   2.735   1.096 -1.8564 -1.8624  0.5339
  100MPD2    H2 1562   1.966   2.945   1.464  1.5224  0.2951 -1.4288
  100MPD2    H3 1563   2.058   2.840   1.251  0.5726  1.8779  1.5361
  100MPD2     N 1564   1.637   2.727   1.113  0.4705  0.1574  0.4316
  100MPD2    H5 1565   1.540   2.748   1.133  0.3413 -1.2695  1.3414
  100MPD2    N1 1566   1.698   2.991   1.500 -0.0300  0.2893  0.0675
  100MPD2    H7 1567   1.597   2.977   1.500 -0.0082  0.0598 -1.0118
  101TMC2    C1 1568   2.032   4.476  12.829 -0.0314 -0.7269 -0.3972
  101TMC2    C2 1569   1.966   4.547  12.925  0.6615 -0.3694 -0.2958
  101TMC2    C3 1570   2.018   4.672  12.949 -0.2953  0.6698 -0.1063
  101TMC2    C4 1571   2.146   4.518  12.767  0.1778  0.2422  0.7526
  101TMC2    C5 1572   2.197   4.641  12.802  0.0636  0.3526  0.0984
  101TMC2    C6 1573   2.128   4.725  12.881  0.2802 -0.1422  0.3190
  101TMC2     C 1574   2.023   4.336  12.852 -0.1573 -0.9091 -0.4509
  101TMC2     O 1575   1.985   4.307  12.964  0.4111 -0.2628  0.3974
  101TMC2     H 1576   1.868   4.515  12.958  1.2853 -1.7103  0.2563
  101TMC2    H1 1577   2.220   4.451  12.726 -0.9602 -0.7629  0.3597
  101TMC2    H2 1578   2.162   0.079  12.920  0.9783  0.2243 -1.1938
  101TMC2    C7 1579   2.315   4.698  12.736  0.1316  0.2378  0.1932
  101TMC2    C8 1580   1.923   0.040  12.993  0.4260  0.0407  0.3835
  101TMC2    O1 1581   2.393   0.042  12.780  0.2394  0.2456 -0.1583
  101TMC2    O2 1582   1.948   0.141  13.056 -0.3245  0.1425 -0.7974
  101TMC2    O5 1583   1.830   0.042  12.893  0.2906 -0.0100  0.1137
  101TMC2    H5 1584   1.829   4.699  12.844 -0.4483  0.7320 -1.1582
  102MPD2     C 1585   2.103   4.074  12.626 -0.5402 -0.0177  0.4358
  102MPD2    C1 1586   2.068   4.127  12.748 -0.3183 -0.2294 -0.2407
  102MPD2    C2 1587   2.047   4.049  12.861 -0.0342 -1.0810  0.2949
  102MPD2    C3 1588   2.063   3.913  12.852  0.2796  0.4138 -0.4854
  102MPD2    C4 1589   2.111   3.861  12.735  0.7034 -0.0603 -0.0487
  102MPD2    C5 1590   2.127   3.937  12.620 -0.0109  1.1127 -0.1581
  102MPD2     H 1591   2.028   4.082  12.963 -2.4997  1.4696 -1.0050
  102MPD2    H1 1592   2.137   3.756  12.727  1.8764  0.3683 -1.9300
  102MPD2    H2 1593   2.123   4.133  12.537 -1.5070 -1.2269 -0.5878
  102MPD2    H3 1594   2.159   3.901  12.523 -1.2848  0.0795 -0.1981
  102MPD2     N 1595   2.034   3.829  12.959 -0.2912  0.3736  0.4702
  102MPD2    H5 1596   1.986   3.873  13.037 -0.0888 -2.9538  2.4903
  102MPD2    N1 1597   2.056   4.268  12.741 -0.1230 -1.3640  0.1482
  102MPD2    H7 1598   2.088   4.312  12.655  0.5977 -2.0104  0.0909
  103TMC2    C1 1599   0.433   3.996  13.149 -1.0939 -0.9919 -0.3465
  103TMC2    C2 1600   0.568   4.004  13.195 -0.5575 -0.3455 -0.3138
  103TMC2    C3 1601   0.603   4.100  13.279  0.1669 -0.0430  0.0188
  103TMC2    C4 1602   0.344   4.099  13.192  0.4501 -0.3281  0.0886
  103TMC2    C5 1603   0.397   4.205  13.256  0.0916 -0.3401  0.2687
  103TMC2    C6 1604   0.522   4.209  13.315  0.0272 -0.0907 -0.0297
  103TMC2     C 1605   0.423   3.946  13.010 -0.0657  0.2430 -0.0767
  103TMC2     O 1606   0.333   4.003  12.948  0.0877  0.3085  0.3183
  103TMC2     H 1607   0.644   3.930  13.169  1.4554  2.5630 -2.6307
  103TMC2    H1 1608   0.241   4.100  13.158  0.2039  1.8949  0.9064
  103TMC2    H2 1609   0.570   4.282  13.379  2.1141 -2.0410  0.6185
  103TMC2    C7 1610   0.304   4.303  13.291 -0.2449 -0.1684 -0.6653
  103TMC2    C8 1611   0.732   4.099  13.334 -0.0249  0.2561  0.2161
  103TMC2    O1 1612   0.198   4.260  13.337  0.5504  0.5251 -0.1804
  103TMC2    O2 1613   0.789   4.000  13.381  0.4839 -0.1281 -0.0688
  103TMC2    O5 1614   0.791   4.216  13.317  0.0644  0.2176  0.1966
  103TMC2    H5 1615   0.733   4.280  13.270 -0.7548 -0.2892  0.5275
  104MPD2     C 1616   0.668   3.761  12.810  0.4194 -0.6791  0.9838
  104MPD2    C1 1617   0.557   3.833  12.834  0.4990 -0.0535  0.2241
  104MPD2    C2 1618   0.463   3.847  12.734 -0.0967 -0.1253  0.3253
  104MPD2    C3 1619   0.485   3.788  12.612  0.1993 -0.1555 -0.3336
  104MPD2    C4 1620   0.601   3.722  12.582 -0.2726  0.0790 -0.5795
  104MPD2    C5 1621   0.694   3.721  12.678  0.2077 -0.2554 -0.4794
  104MPD2     H 1622   0.366   3.895  12.743  0.1060  0.4170 -0.4408
  104MPD2    H1 1623   0.633   3.681  12.486  2.7559 -1.2993  1.0025
  104MPD2    H2 1624   0.745   3.741  12.884  0.8420  0.2802  0.8088
  104MPD2    H3 1625   0.788   3.672  12.655  0.6576  0.0633  0.6822
  104MPD2     N 1626   0.390   3.807  12.508  0.2208  0.0747 -0.3860
  104MPD2    H5 1627   0.323   3.881  12.527 -0.1500 -0.2624 -0.3774
  104MPD2    N1 1628   0.539   3.883  12.965 -0.2947 -0.8379 -0.2843
  104MPD2    H7 1629   0.604   3.851  13.036  0.4442 -0.5494 -0.8280
  105TMC2    C1 1630   1.586   2.873   0.219  0.2666 -0.3471 -0.8777
  105TMC2    C2 1631   1.536   2.781   0.312 -0.7540 -0.1817 -0.7142
  105TMC2    C3 1632   1.409   2.786   0.353 -0.4551  0.2984  0.3949
  105TMC2    C4 1633   1.499   2.949   0.143  0.6584  0.3124 -0.0804
  105TMC2    C5 1634   1.373   2.950   0.192  0.7263  0.6505 -0.1734
  105TMC2    C6 1635   1.326   2.871   0.290  0.3704  0.5738  0.0626
  105TMC2     C 1636   1.704   2.827   0.139 -0.2701  0.0980 -0.3128
  105TMC2     O 1637   1.728   2.710   0.140 -0.4857  0.3016  0.3184
  105TMC2     H 1638   1.593   2.705   0.364 -0.3847  0.1115 -0.6947
  105TMC2    H1 1639   1.530   3.024   0.071 -1.6402  0.2164 -1.1956
  105TMC2    H2 1640   1.221   2.860   0.312  0.1147 -0.5024 -1.7878
  105TMC2    C7 1641   1.273   3.043   0.131 -0.5400 -0.2314  0.4193
  105TMC2    C8 1642   1.361   2.711   0.469 -0.2936  0.3427 -0.1097
  105TMC2    O1 1643   1.304   3.093   0.023 -0.1436  0.2765  0.0803
  105TMC2    O2 1644   1.438   2.680   0.561  0.0195  0.3692 -0.2009
  105TMC2    O5 1645   1.276   2.626   0.411 -0.3886 -0.0551 -0.2721
  105TMC2    H5 1646   1.249   2.652   0.320  0.8032 -0.4879 -0.7427
  106MPD2     C 1647   2.070   2.865  17.554  0.7686 -0.2424 -0.5667
  106MPD2    C1 1648   1.992   2.984  17.550  0.2221 -0.5539 -0.0046
  106MPD2    C2 1649   1.907   3.009  17.657 -0.9411  0.5014  0.1886
  106MPD2    C3 1650   1.873   2.910  17.748 -0.1653  0.2946 -0.2683
  106MPD2    C4 1651   1.951   2.799  17.751  0.9268  0.6840  1.1504
  106MPD2    C5 1652   2.049   2.781  17.660  0.1054 -0.6539 -0.4335
  106MPD2     H 1653   1.856   3.104  17.663 -2.2497 -0.2865  1.4692
  106MPD2    H1 1654   1.940   2.727   0.067 -1.3608 -0.9265 -0.5890
  106MPD2    H2 1655   2.154   2.839  17.491  0.4342  0.1817 -1.1994
  106MPD2    H3 1656   2.115   2.696  17.674 -1.9518 -2.7317 -3.5210
  106MPD2     N 1657   1.762   2.929   0.070  0.0028 -0.1674 -0.1250
  106MPD2    H5 1658   1.712   3.018   0.067 -0.8984 -0.6111  1.7770
  106MPD2    N1 1659   2.000   3.073  17.443  0.1968  0.9393 -0.3003
  106MPD2    H7 1660   1.941   3.154  17.458 -0.3226  0.0100  2.6086
  107TMC2    C1 1661   2.476   2.773  11.593  0.3234 -0.2704  0.6011
  107TMC2    C2 1662   2.508   2.844  11.478  0.6625 -0.4228 -0.2635
  107TMC2    C3 1663   2.578   2.778  11.378 -0.1974 -0.3306  0.1570
  107TMC2    C4 1664   2.500   2.638  11.602  0.4678  0.8243 -0.1173
  107TMC2    C5 1665   2.579   2.580  11.502  0.4242 -0.4259  0.2555
  107TMC2    C6 1666   2.628   2.648  11.395 -0.2723 -0.1979 -0.0571
  107TMC2     C 1667   2.389   2.829  11.691  0.0552 -0.3478 -0.7011
  107TMC2     O 1668   2.324   2.759  11.767  0.0844 -0.0846  0.5624
  107TMC2     H 1669   2.456   2.937  11.461 -2.0636 -1.8197  0.3816
  107TMC2    H1 1670   2.461   2.574  11.681  1.8619  1.3668  1.0176
  107TMC2    H2 1671   2.677   2.606  11.308  0.1850 -1.7317  0.9419
  107TMC2    C7 1672   2.617   2.439  11.518 -0.2795  0.4753 -0.3328
  107TMC2    C8 1673   2.635   2.865  11.274 -0.5524  0.0628  0.3169
  107TMC2    O1 1674   2.549   2.379  11.603  0.0331  0.6448 -0.1950
  107TMC2    O2 1675   2.753   2.885  11.267  0.1022  0.2484 -0.1394
  107TMC2    O5 1676   2.538   2.944  11.220  0.0769  0.4840 -0.1216
  107TMC2    H5 1677   2.450   2.933  11.263  0.1602  2.4733  0.5491
  108MPD2     C 1678   2.309   3.185  11.718 -0.6375 -0.1319  0.1578
  108MPD2    C1 1679   2.298   3.054  11.752 -0.3460  0.1306  0.1685
  108MPD2    C2 1680   2.206   3.017  11.849 -0.4414 -0.2797 -0.2535
  108MPD2    C3 1681   2.121   3.106  11.897  0.2865  0.0251 -0.4065
  108MPD2    C4 1682   2.126   3.237  11.850 -0.5383  0.1317 -0.1512
  108MPD2    C5 1683   2.210   3.269  11.750 -0.5472  0.6491  0.1303
  108MPD2     H 1684   2.199   2.910  11.864 -1.1726 -0.1430  0.4085
  108MPD2    H1 1685   2.052   3.310  11.880 -2.2354 -2.7200  2.6072
  108MPD2    H2 1686   2.373   3.204  11.633  0.7816 -2.2957  0.7554
  108MPD2    H3 1687   2.208   3.371  11.713  2.6662  1.5411  2.3239
  108MPD2     N 1688   2.021   3.078  11.984  0.6297  0.4100 -0.5488
  108MPD2    H5 1689   1.947   3.148  11.983 -1.2630 -1.6045 -0.6783
  108MPD2    N1 1690   2.385   2.967  11.676 -0.7636 -0.3423  0.2425
  108MPD2    H7 1691   2.450   3.011  11.611 -0.3454 -0.6896  0.4236
  109TMC2    C1 1692   1.711   4.507  17.724  0.6671  0.2740  0.7282
  109TMC2    C2 1693   1.780   4.464  17.611  1.0695 -0.4351 -0.0939
  109TMC2    C3 1694   1.866   4.554  17.558 -0.0570 -0.4279 -0.0179
  109TMC2    C4 1695   1.754   4.621   0.026  0.6875  0.5028 -0.3811
  109TMC2    C5 1696   1.846   4.707  17.734  0.3601  0.0644  0.4804
  109TMC2    C6 1697   1.900   4.675  17.615 -0.1587 -0.3602 -0.6015
  109TMC2     C 1698   1.583   4.443  17.760 -0.2435 -0.5090  0.2735
  109TMC2     O 1699   1.543   4.366  17.674  0.3399 -0.2982 -0.1811
  109TMC2     H 1700   1.758   4.368  17.565  1.7948 -1.7914  2.3719
  109TMC2    H1 1701   1.699   4.657   0.112  1.5388  1.5635 -0.2784
  109TMC2    H2 1702   1.977   4.731  17.563  0.7581 -0.4794  0.6277
  109TMC2    C7 1703   1.883   0.089   0.037  0.8862 -0.7628  0.1490
  109TMC2    C8 1704   1.922   4.538  17.426 -0.3617  0.5526  0.6065
  109TMC2    O1 1705   1.864   0.095   0.159  0.4568  0.0118  0.6173
  109TMC2    O2 1706   1.907   4.627  17.342  0.3272  0.1043 -0.0526
  109TMC2    O5 1707   1.960   4.413  17.407 -0.6744  0.1277  0.3397
  109TMC2    H5 1708   1.973   4.359  17.488 -1.8034 -0.3978  0.1733
  110MPD2     C 1709   1.114   4.410   0.238  0.5561 -0.5410  0.1218
  110MPD2    C1 1710   1.205   4.471   0.316  0.0127  0.0630 -0.8897
  110MPD2    C2 1711   1.333   4.499   0.270 -0.3111 -0.4559 -0.5902
  110MPD2    C3 1712   1.378   4.455   0.147  0.4821 -0.3845 -0.5058
  110MPD2    C4 1713   1.289   4.378   0.073  0.4075  0.0814  0.0551
  110MPD2    C5 1714   1.162   4.355   0.119  0.0059 -0.2895  0.1996
  110MPD2     H 1715   1.400   4.542   0.343 -0.0382 -2.5370  0.3829
  110MPD2    H1 1716   1.313   4.342  17.737 -3.3414 -1.5761 -0.2426
  110MPD2    H2 1717   1.016   4.382   0.272  0.5509 -0.4254  0.2002
  110MPD2    H3 1718   1.090   4.306   0.054  0.8296  0.0710 -0.9926
  110MPD2     N 1719   1.513   4.488   0.106 -0.0222 -0.5692 -0.8656
  110MPD2    H5 1720   1.561   4.554   0.167 -0.8947 -1.5875  0.9012
  110MPD2    N1 1721   1.165   4.506   0.447 -0.0943 -0.3103  0.2634
  110MPD2    H7 1722   1.076   4.472   0.483  1.0320 -2.0365  1.3547
  111TMC2    C1 1723   2.869   0.390  11.471  0.8900  0.3052  0.1491
  111TMC2    C2 1724   2.953   0.435  11.369  0.4576 -0.8583 -0.1038
  111TMC2    C3 1725   3.083   0.455  11.402  0.0628 -0.0744 -0.0367
  111TMC2    C4 1726   2.927   0.360  11.590  0.0257  1.0152 -0.4491
  111TMC2    C5 1727   3.063   0.371  11.609 -0.3736  0.3473  0.0607
  111TMC2    C6 1728   3.145   0.419  11.518 -0.0721 -0.3909  0.0196
  111TMC2     C 1729   2.746   0.317  11.419 -0.2805  0.0263  0.0724
  111TMC2     O 1730   2.747   0.275  11.302  0.0192  0.5733 -0.0422
  111TMC2     H 1731   2.916   0.455  11.269 -2.2460 -1.9741  0.6736
  111TMC2    H1 1732   2.868   0.313  11.668  0.7208 -1.0686 -1.1683
  111TMC2    H2 1733   3.242   0.465  11.536 -0.7943  1.5921 -1.1010
  111TMC2    C7 1734   3.106   0.333  11.740  1.1055 -0.0536  0.5541
  111TMC2    C8 1735   3.168   0.446  11.288  0.2607  0.6263  0.2605
  111TMC2    O1 1736   3.021   0.338  11.827  1.1220 -0.3629  0.3641
  111TMC2    O2 1737   3.139   0.511  11.188 -0.2154 -0.0849 -0.4681
  111TMC2    O5 1738   3.213   0.322  11.294 -0.0793  0.2723  0.3528
  111TMC2    H5 1739   3.257   0.289  11.375 -1.2207 -0.0864  0.8295
  112MPD2     C 1740   2.273   0.106  11.488  0.3117  0.5216 -0.1914
  112MPD2    C1 1741   2.338   0.136  11.372  0.0604  0.2002  0.4039
  112MPD2    C2 1742   2.466   0.191  11.379 -0.0177 -0.1786  0.0920
  112MPD2    C3 1743   2.518   0.232  11.501 -0.0502 -0.7909  0.0027
  112MPD2    C4 1744   2.445   0.205  11.613  0.2365 -0.0636  1.0502
  112MPD2    C5 1745   2.323   0.145  11.605 -0.6152  1.2451 -0.4627
  112MPD2     H 1746   2.515   0.205  11.283  1.2446  2.7633  1.1800
  112MPD2    H1 1747   2.482   0.230  11.712 -0.8351  0.4831  1.3163
  112MPD2    H2 1748   2.174   0.063  11.496 -0.4224  1.8433 -2.1477
  112MPD2    H3 1749   2.269   0.122  11.696 -0.7822  1.0723 -0.6056
  112MPD2     N 1750   2.645   0.298  11.514  0.1593  0.0034 -0.3977
  112MPD2    H5 1751   2.653   0.334  11.609  2.5363 -2.2430  0.2624
  112MPD2    N1 1752   2.290   0.105  11.240 -0.5248  0.3170  0.6745
  112MPD2    H7 1753   2.344   0.132  11.158  0.9543  0.0819  1.5766
  113TMC2    C1 1754   4.494   2.499   0.621 -0.1340 -0.7936  0.3421
  113TMC2    C2 1755   4.427   2.493   0.501 -0.1571  0.4365  0.3118
  113TMC2    C3 1756   4.345   2.388   0.488 -0.6674 -0.1745 -0.5800
  113TMC2    C4 1757   4.482   2.396   0.710  0.3739 -0.6907 -1.1312
  113TMC2    C5 1758   4.390   2.293   0.692 -0.4583  0.5177  0.2056
  113TMC2    C6 1759   4.316   2.289   0.575  0.8324 -0.1079 -0.3229
  113TMC2     C 1760   4.608   2.587   0.624  0.1319 -0.5989  0.3073
  113TMC2     O 1761   4.588   2.686   0.557 -0.5196  0.2460  0.1933
  113TMC2     H 1762   4.439   2.562   0.418  2.8444  1.0380  1.2481
  113TMC2    H1 1763   4.535   2.405   0.804  1.4932  0.4649 -1.8792
  113TMC2    H2 1764   4.244   2.211   0.557  3.1783 -2.2008 -0.5846
  113TMC2    C7 1765   4.383   2.179   0.781 -0.4048  0.2602 -0.4593
  113TMC2    C8 1766   4.269   2.375   0.370 -0.7374  0.1859  0.2657
  113TMC2    O1 1767   4.314   2.084   0.747 -0.4218 -0.2090 -0.4427
  113TMC2    O2 1768   4.169   2.310   0.363 -0.1389  0.4514 -0.5748
  113TMC2    O5 1769   4.367   2.380   0.279  0.5415  0.3029 -0.3743
  113TMC2    H5 1770   4.455   2.403   0.315  0.9663 -2.0550  0.0946
  114MPD2     C 1771   0.322   2.773   0.761 -0.0141 -0.0364  0.1930
  114MPD2    C1 1772   0.205   2.837   0.735 -0.8557 -0.0551  0.0566
  114MPD2    C2 1773   0.091   2.766   0.706 -0.6632 -0.1694 -0.5684
  114MPD2    C3 1774   0.091   2.625   0.715  0.1414 -0.1445  0.0358
  114MPD2    C4 1775   0.205   2.561   0.753 -0.2014  0.4879  0.6758
  114MPD2    C5 1776   0.317   2.634   0.775 -0.5954 -0.3592  0.6435
  114MPD2     H 1777   0.004   2.822   0.675  0.4837  0.8702 -1.9091
  114MPD2    H1 1778   0.210   2.454   0.770  0.7375  0.6864  1.6681
  114MPD2    H2 1779   0.419   2.820   0.773  0.8643 -2.1151  1.3650
  114MPD2    H3 1780   0.408   2.581   0.802 -0.7306 -1.4539 -1.0478
  114MPD2     N 1781   4.722   2.542   0.682 -0.2634 -0.4910  0.0893
  114MPD2    H5 1782   4.734   2.445   0.710  0.3034  0.0143  1.6034
  114MPD2    N1 1783   0.196   2.978   0.732  0.1794 -0.2243 -0.0576
  114MPD2    H7 1784   0.104   3.021   0.734  0.2999  0.1050 -1.9622
  115TMC2    C1 1785   1.521   0.788  17.591  0.4554 -0.6120  0.6488
  115TMC2    C2 1786   1.567   0.736  17.706 -0.7216  0.0352 -0.0073
  115TMC2    C3 1787   1.626   0.819   0.036 -0.1189  0.2138 -0.4842
  115TMC2    C4 1788   1.519   0.927  17.568 -0.0830  0.0518  0.1195
  115TMC2    C5 1789   1.573   1.008  17.668 -0.9871  0.2246 -0.4569
  115TMC2    C6 1790   1.635   0.953   0.022  0.1360  0.0999 -0.3150
  115TMC2     C 1791   1.470   0.700  17.489  0.0049  0.3225 -0.5592
  115TMC2     O 1792   1.521   0.592  17.474  0.2282  0.4452  0.0230
  115TMC2     H 1793   1.573   0.628  17.712  1.3518  0.1642  0.3318
  115TMC2    H1 1794   1.465   0.966  17.483 -1.8864 -1.7977  0.4277
  115TMC2    H2 1795   1.685   1.013   0.097  0.7724  0.2961 -0.8849
  115TMC2    C7 1796   1.566   1.156  17.670 -0.3692  0.2320 -0.7139
  115TMC2    C8 1797   1.659   0.755   0.161 -0.3897 -0.8762 -0.1021
  115TMC2    O1 1798   1.615   1.210   0.006  0.2151 -0.3099 -0.1266
  115TMC2    O2 1799   1.569   0.699   0.217 -0.0152 -0.2696 -0.5966
  115TMC2    O5 1800   1.761   0.823   0.219  0.2391  0.0703  0.0897
  115TMC2    H5 1801   1.821   0.843   0.144  1.1568 -0.6613  0.6414
  116MPD2     C 1802   1.072   0.580  17.184  0.0904 -0.2838 -0.6394
  116MPD2    C1 1803   1.183   0.501  17.221 -0.0738 -0.0814 -0.0921
  116MPD2    C2 1804   1.287   0.558  17.295  0.2812  0.0537  0.4534
  116MPD2    C3 1805   1.274   0.690  17.346 -0.3508 -0.1335 -0.1455
  116MPD2    C4 1806   1.164   0.756  17.314  0.0483  0.0970 -0.5873
  116MPD2    C5 1807   1.064   0.703  17.233  0.2170  0.3749  0.0360
  116MPD2     H 1808   1.380   0.504  17.307  1.4159  1.7647 -0.5355
  116MPD2    H1 1809   1.140   0.854  17.352 -2.0162 -0.2741 -0.9327
  116MPD2    H2 1810   0.985   0.543  17.132  0.5214 -0.0141 -1.5480
  116MPD2    H3 1811   0.979   0.767  17.215  0.3178 -0.2061 -2.5625
  116MPD2     N 1812   1.363   0.758  17.430  0.0774  0.1509 -0.2225
  116MPD2    H5 1813   1.327   0.842  17.474 -0.8945  0.0203 -0.7830
  116MPD2    N1 1814   1.182   0.362  17.184 -0.1880 -0.1643  0.2163
  116MPD2    H7 1815   1.103   0.333  17.129  1.3686 -3.4854 -0.2787
  117TMC2    C1 1816   4.409   2.200  13.904  0.9005 -0.1101  0.5857
  117TMC2    C2 1817   4.531   2.148  13.932 -0.2612  0.2178 -1.0053
  117TMC2    C3 1818   4.628   2.221  14.004  0.2849  0.5252  0.2210
  117TMC2    C4 1819   4.381   2.334  13.940 -0.7136  0.4021 -0.5089
  117TMC2    C5 1820   4.486   2.401  14.005 -0.3309 -0.4785 -0.4715
  117TMC2    C6 1821   4.599   2.346  14.046 -0.1619  0.6070  0.0197
  117TMC2     C 1822   4.329   2.126  13.812 -0.6147 -0.9748 -0.0296
  117TMC2     O 1823   4.365   2.015  13.789  0.1832 -0.0198  0.0832
  117TMC2     H 1824   4.557   2.047  13.902 -4.0190 -1.1112  0.1918
  117TMC2    H1 1825   4.286   2.385  13.927 -0.2099  1.1440 -1.2457
  117TMC2    H2 1826   4.684   2.404  14.079  1.4122 -0.2241 -2.5666
  117TMC2    C7 1827   4.484   2.545  14.003 -0.3377  0.1601  0.3773
  117TMC2    C8 1828   0.022   2.189  13.975  0.2062 -0.2508  0.7158
  117TMC2    O1 1829   4.432   2.592  13.906 -0.0358 -0.3394 -0.0630
  117TMC2    O2 1830   0.114   2.225  14.049  0.2328  0.7722  0.3566
  117TMC2    O5 1831   0.027   2.171  13.844  0.0953  0.0846 -0.2916
  117TMC2    H5 1832   4.684   2.173  13.794  0.2110 -1.0328 -0.5258
  118MPD2     C 1833   4.646   2.780  14.226  1.0949 -0.2188  0.2478
  118MPD2    C1 1834   4.597   2.739  14.109 -0.0573  0.8454  0.1796
  118MPD2    C2 1835   4.600   2.820  14.000 -0.0098  0.0184  0.3507
  118MPD2    C3 1836   4.661   2.943  14.014 -0.3255 -0.4632 -0.6435
  118MPD2    C4 1837   4.715   2.990  14.134  0.0875  0.2538 -0.3176
  118MPD2    C5 1838   4.708   2.904  14.239 -0.7877 -1.0550 -0.3262
  118MPD2     H 1839   4.568   2.796  13.899  5.7721 -1.2624 -1.1994
  118MPD2    H1 1840   0.027   3.083  14.152  0.4119 -0.1436  0.7001
  118MPD2    H2 1841   4.642   2.715  14.313  0.5374  1.6214  1.6004
  118MPD2    H3 1842   0.010   2.934  14.333 -0.3667  0.4842 -1.0121
  118MPD2     N 1843   4.669   3.040  13.911  0.6977  0.4361 -0.3979
  118MPD2    H5 1844   4.731   3.119  13.926 -2.1424  2.9520 -1.9443
  118MPD2    N1 1845   4.560   2.598  14.104  0.2582 -0.0754 -0.2979
  118MPD2    H7 1846   4.576   2.539  14.185  0.1338 -0.1090 -0.2969
  119TMC2    C1 1847   2.495   3.519  13.094  0.2498  0.1363  0.3138
  119TMC2    C2 1848   2.488   3.542  12.957 -0.2871  1.1140 -0.0710
  119TMC2    C3 1849   2.384   3.487  12.886  0.1237 -0.3023  0.0896
  119TMC2    C4 1850   2.401   3.445  13.160  0.3576  1.2786  0.0979
  119TMC2    C5 1851   2.296   3.392  13.090 -0.2588 -0.0252  0.4300
  119TMC2    C6 1852   2.283   3.415  12.952 -0.2860  0.2252  0.2294
  119TMC2     C 1853   2.623   3.516  13.156 -0.6068  0.4493  0.4856
  119TMC2     O 1854   2.623   3.466  13.271 -0.3426  0.3951 -0.1610
  119TMC2     H 1855   2.567   3.598  12.909 -0.4277 -0.6924 -2.4147
  119TMC2    H1 1856   2.406   3.435  13.268 -1.5282 -1.9515 -0.1137
  119TMC2    H2 1857   2.200   3.366  12.902 -0.6403  0.1601  0.8940
  119TMC2    C7 1858   2.224   3.277  13.138 -0.2197  0.4689  0.4497
  119TMC2    C8 1859   2.381   3.511  12.747  0.1167 -0.1155  0.4549
  119TMC2    O1 1860   2.116   3.267  13.084  0.2269  0.2000 -0.5874
  119TMC2    O2 1861   2.472   3.571  12.689 -0.1873  1.1770 -0.2416
  119TMC2    O5 1862   2.247   3.509  12.705  0.1363 -0.1485  0.3184
  119TMC2    H5 1863   2.176   3.516  12.773  0.4855  1.0957  0.5542
  120MPD2     C 1864   3.086   3.696  13.244  0.0320  0.9356 -0.1851
  120MPD2    C1 1865   2.991   3.654  13.326  0.3413  0.3908  0.1932
  120MPD2    C2 1866   2.875   3.622  13.267 -0.1114 -0.3343  0.0539
  120MPD2    C3 1867   2.850   3.614  13.130 -0.5116  0.0026  0.5173
  120MPD2    C4 1868   2.954   3.649  13.048 -0.2365 -0.1466 -0.1067
  120MPD2    C5 1869   3.069   3.685  13.111  0.1197 -0.3739  1.0325
  120MPD2     H 1870   2.790   3.619  13.335  0.3669  2.9536  0.7934
  120MPD2    H1 1871   2.950   3.626  12.942 -1.5285 -4.2597  0.8432
  120MPD2    H2 1872   3.183   3.731  13.277  0.0460  1.1828 -0.4869
  120MPD2    H3 1873   3.152   3.695  13.041  1.5067 -2.4940  2.3668
  120MPD2     N 1874   2.726   3.571  13.078  0.2667 -0.0550  0.6065
  120MPD2    H5 1875   2.720   3.568  12.977  1.3932 -2.0657  0.6101
  120MPD2    N1 1876   3.018   3.657  13.469  0.3369 -0.1652 -0.5501
  120MPD2    H7 1877   3.102   3.711  13.485  0.3070  0.2861 -1.8673
  121TMC2    C1 1878   4.734   0.364  14.412  0.0990  0.6867  0.6447
  121TMC2    C2 1879   0.034   0.285  14.522 -0.1223 -0.2091  0.4731
  121TMC2    C3 1880   4.729   0.161  14.526  0.4248  0.2111  0.1386
  121TMC2    C4 1881   4.641   0.314  14.325 -0.2071 -0.4235 -0.1624
  121TMC2    C5 1882   4.594   0.184  14.336 -0.2957 -0.8433  0.2898
  121TMC2    C6 1883   4.645   0.105  14.433  0.6786 -0.5095 -0.6128
  121TMC2     C 1884   0.027   0.504  14.419  0.4923 -0.5229  0.4016
  121TMC2     O 1885   0.090   0.532  14.521 -0.5917 -0.5227  0.0505
  121TMC2     H 1886   0.097   0.324  14.601 -1.7238  1.3292  0.9985
  121TMC2    H1 1887   4.600   0.375  14.245 -0.2304  0.4178  0.4923
  121TMC2    H2 1888   4.598   0.010  14.457  2.5196 -1.1778  0.2733
  121TMC2    C7 1889   4.535   0.124  14.220  0.2727  0.5822 -0.5385
  121TMC2    C8 1890   0.005   0.084  14.648  0.0581  0.3021 -0.0305
  121TMC2    O1 1891   4.576   0.013  14.196 -1.0498 -0.1820 -0.6332
  121TMC2    O2 1892   0.098   0.109  14.722 -0.2236 -0.4950 -0.4579
  121TMC2    O5 1893   4.623   0.072  14.701 -0.8309 -0.2483 -0.0395
  121TMC2    H5 1894   4.550   0.057  14.638  0.0198 -0.2226 -1.0317
  122MPD2     C 1895   0.105   0.774  14.352 -0.3584 -0.0735  0.1913
  122MPD2    C1 1896   0.042   0.696  14.263  0.0654 -0.1070  0.8021
  122MPD2    C2 1897   0.029   0.739  14.133 -0.1954  0.0601 -0.4653
  122MPD2    C3 1898   0.082   0.855  14.087 -0.0736  0.1217 -0.2310
  122MPD2    C4 1899   0.141   0.937  14.185  0.1081  0.0221  1.4277
  122MPD2    C5 1900   0.155   0.891  14.310  0.4031 -0.2769 -1.3704
  122MPD2     H 1901   4.727   0.675  14.057  0.9880 -0.9654 -0.2954
  122MPD2    H1 1902   0.201   1.023  14.157  3.3999 -2.8948 -0.4759
  122MPD2    H2 1903   0.123   0.759  14.458 -0.2316  0.2007  0.2085
  122MPD2    H3 1904   0.198   0.950  14.390 -2.2508 -1.1022  0.6537
  122MPD2     N 1905   0.068   0.903  13.952 -0.4312 -0.0878  0.2051
  122MPD2    H5 1906   0.007   0.847  13.894  1.7311 -0.5461 -1.6131
  122MPD2    N1 1907   4.732   0.572  14.301  0.3055 -0.1763 -0.5287
  122MPD2    H7 1908   4.678   0.528  14.227  1.4181 -0.3780 -1.2104
  123TMC2    C1 1909   3.630   2.614  10.258 -0.2040  0.6094 -0.2247
  123TMC2    C2 1910   3.760   2.652  10.285 -0.1308  0.4344  0.2265
  123TMC2    C3 1911   3.815   2.743  10.202 -0.0722 -0.9572 -0.2835
  123TMC2    C4 1912   3.569   2.660  10.146  0.4159 -0.1760  0.1506
  123TMC2    C5 1913   3.625   2.756  10.067  0.0489 -0.3509  0.1675
  123TMC2    C6 1914   3.753   2.799  10.094  0.1480  0.2421 -0.7326
  123TMC2     C 1915   3.554   2.563  10.369  0.6279  0.2542  0.4330
  123TMC2     O 1916   3.609   2.488  10.450 -0.1314 -0.1832  0.4515
  123TMC2     H 1917   3.808   2.620  10.377  1.6054 -0.1258 -0.8882
  123TMC2    H1 1918   3.472   2.624  10.113  0.2868  0.6481 -0.3827
  123TMC2    H2 1919   3.798   2.891  10.057 -2.3849  1.5435 -0.6186
  123TMC2    C7 1920   3.531   2.815   9.973  0.8118 -0.0269  0.0676
  123TMC2    C8 1921   3.943   2.798  10.239  0.7052  0.2984  0.6637
  123TMC2    O1 1922   3.439   2.746   9.933  1.0414  0.1435 -0.9523
  123TMC2    O2 1923   4.031   2.813  10.158 -0.3069 -0.1312 -0.2420
  123TMC2    O5 1924   3.951   2.799  10.372  0.2038  0.5091 -0.0957
  123TMC2    H5 1925   3.859   2.802  10.405  0.5655 -0.3854  1.0302
  124MPD2     C 1926   3.099   2.450  10.616 -0.8013  0.4527  0.3258
  124MPD2    C1 1927   3.079   2.538  10.509 -0.4710 -0.0107 -0.0295
  124MPD2    C2 1928   3.184   2.585  10.434 -0.7717  0.3417  0.5614
  124MPD2    C3 1929   3.318   2.537  10.445  0.4672 -0.2382 -0.2091
  124MPD2    C4 1930   3.330   2.440  10.545  0.4573 -0.4623 -0.2224
  124MPD2    C5 1931   3.227   2.399  10.625 -0.3986  0.4556  0.1213
  124MPD2     H 1932   3.166   2.642  10.344 -0.1399 -0.0721  0.1763
  124MPD2    H1 1933   3.423   2.387  10.565  1.5036  0.6405 -2.1985
  124MPD2    H2 1934   3.022   2.406  10.678  0.7966 -1.9837  0.5728
  124MPD2    H3 1935   3.243   2.317  10.694 -1.3696 -0.4416 -0.7227
  124MPD2     N 1936   3.421   2.596  10.359 -0.3580 -0.4751  0.0258
  124MPD2    H5 1937   3.389   2.656  10.284  0.1923 -0.2257 -0.0079
  124MPD2    N1 1938   2.940   2.565  10.476  0.0336  0.5949 -1.0116
  124MPD2    H7 1939   2.872   2.517  10.535 -0.8427  3.6930  0.4687
  125TMC2    C1 1940   4.134   4.113   9.544  0.1097  0.5646 -0.4528
  125TMC2    C2 1941   4.113   4.007   9.627 -0.1059 -0.3167 -0.0328
  125TMC2    C3 1942   4.164   3.888   9.579  0.4338  0.3402 -0.0728
  125TMC2    C4 1943   4.209   4.118   9.428  0.0300  0.3771  0.7011
  125TMC2    C5 1944   4.269   3.996   9.399  0.0485 -0.9516  0.1199
  125TMC2    C6 1945   4.246   3.876   9.470 -0.5578 -0.1975 -0.7347
  125TMC2     C 1946   4.090   4.243   9.585 -0.3281  0.5164  0.2048
  125TMC2     O 1947   4.084   4.328   9.495  0.3098  0.5427 -0.1261
  125TMC2     H 1948   4.040   4.009   9.707  0.1882  1.2268  0.2136
  125TMC2    H1 1949   4.204   4.207   9.366 -1.2131 -1.1058 -1.3241
  125TMC2    H2 1950   4.297   3.784   9.444 -2.0610 -0.8092 -1.4999
  125TMC2    C7 1951   4.325   3.967   9.267 -0.1531 -0.5061  0.6038
  125TMC2    C8 1952   4.114   3.769   9.643  0.3239 -0.1782  0.0924
  125TMC2    O1 1953   4.320   3.851   9.231 -1.0668  0.0272 -0.4946
  125TMC2    O2 1954   3.998   3.766   9.672  0.3243  0.2548  0.0002
  125TMC2    O5 1955   4.210   3.674   9.657  0.1234  0.3261 -0.3983
  125TMC2    H5 1956   4.295   3.710   9.626 -0.6165  1.0381 -1.6212
  126MPD1     C 1957   4.074   4.598   9.936 -0.5698 -1.0546 -0.2423
  126MPD1    C1 1958   4.125   4.486   9.989  0.4618  0.0627 -0.7083
  126MPD1    C2 1959   4.118   4.368   9.922 -0.0192 -0.2554 -0.3280
  126MPD1    C3 1960   4.063   4.370   9.796 -0.1111  0.8910  0.9929
  126MPD1    C4 1961   4.016   4.487   9.733  0.2201 -0.8207 -0.0246
  126MPD1    C5 1962   4.023   4.599   9.808 -0.3152  0.7035  0.6615
  126MPD1     H 1963   4.166   4.279   9.961  1.2029  1.4857  2.1123
  126MPD1    H1 1964   3.965   4.496   9.638 -1.8231 -2.0806  0.9409
  126MPD1    H2 1965   4.075   4.696   9.983  0.3868 -1.5217  0.7004
  126MPD1    H3 1966   3.977   4.692   9.775  0.4093 -0.1049 -2.6049
  126MPD1     N 1967   4.096   4.256   9.720  0.0881 -0.4008  0.1277
  126MPD1    H5 1968   4.120   4.176   9.778  1.3408  0.6451  1.0433
  126MPD1    N1 1969   4.194   4.482  10.109  0.0519  0.2857  0.5349
  126MPD1    H6 1970   4.232   4.573  10.136  1.7662 -0.3778  0.3298
  126MPD1    H7 1971   4.268   4.412  10.113 -0.4596 -0.1969  1.5085
  127TMC2    C1 1972   0.070   3.569   9.551  0.5195  0.2801  0.5010
  127TMC2    C2 1973   4.739   3.543   9.441 -0.1669  0.4807  0.2726
  127TMC2    C3 1974   4.643   3.451   9.463  0.1591 -0.1639  0.2128
  127TMC2    C4 1975   0.049   3.522   9.670 -0.3232  0.0950 -0.3299
  127TMC2    C5 1976   4.693   3.426   9.689  0.4074  0.9085 -0.0267
  127TMC2    C6 1977   4.617   3.380   9.582 -0.3782  0.9254  1.0399
  127TMC2     C 1978   0.154   3.684   9.552 -0.2463 -0.8308  0.5954
  127TMC2     O 1979   0.170   3.748   9.654 -0.1390  0.0066  0.2909
  127TMC2     H 1980   4.734   3.601   9.350 -1.5633  2.0322  1.3428
  127TMC2    H1 1981   0.122   3.547   9.746 -0.5821  0.2316 -0.1227
  127TMC2    H2 1982   4.532   3.314   9.589  0.5557 -0.1766  2.0315
  127TMC2    C7 1983   4.727   3.323   9.783 -0.2426  0.3045  0.5072
  127TMC2    C8 1984   4.531   3.473   9.377 -0.2019  0.2120  0.5028
  127TMC2    O1 1985   0.108   3.325   9.806  0.1030 -0.7174 -0.3746
  127TMC2    O2 1986   4.506   3.577   9.316 -0.0153 -0.4782  0.0391
  127TMC2    O5 1987   4.479   3.349   9.359  0.4928 -0.2822 -0.3929
  127TMC2    H5 1988   4.530   3.273   9.396  1.1445  0.2558 -0.1846
  128MPD2     C 1989   0.384   3.744   9.273  0.5534  0.3408  0.4972
  128MPD2    C1 1990   0.318   3.778   9.388  0.3827 -0.3386 -0.2541
  128MPD2    C2 1991   0.363   3.879   9.472  0.1734 -0.0003  0.0865
  128MPD2    C3 1992   0.472   3.955   9.433  0.6464 -0.5089  0.7722
  128MPD2    C4 1993   0.539   3.921   9.314  0.2659  0.8106 -0.3859
  128MPD2    C5 1994   0.488   3.819   9.232  0.3850  0.1996  0.5131
  128MPD2     H 1995   0.309   3.900   9.563  1.4658  0.4646  0.7475
  128MPD2    H1 1996   0.629   3.972   9.280  0.6152  0.2554 -0.2859
  128MPD2    H2 1997   0.340   3.671   9.205 -1.7585  0.8542  1.4538
  128MPD2    H3 1998   0.529   3.803   9.133  0.7646  0.7851  0.5719
  128MPD2     N 1999   0.529   4.056   9.520  0.4962 -0.4350  0.0890
  128MPD2    H5 2000   0.615   4.097   9.486  0.2180  1.3056  1.4791
  128MPD2    N1 2001   0.209   3.693   9.430 -0.1925 -0.4239  0.2870
  128MPD2    H7 2002   0.193   3.619   9.363  0.6769 -0.2943 -0.0622
  129TMC2    C1 2003   2.699   4.674   1.580 -0.5409  0.4014 -0.3386
  129TMC2    C2 2004   2.649   0.038   1.509 -0.0153 -1.2063 -0.7286
  129TMC2    C3 2005   2.512   0.046   1.513  0.0375  0.0402  0.4074
  129TMC2    C4 2006   2.625   4.583   1.658  0.4108 -0.6802 -0.4864
  129TMC2    C5 2007   2.492   4.599   1.651  0.4450  0.3925  0.3454
  129TMC2    C6 2008   2.434   4.697   1.571  0.8035 -1.4287 -0.0833
  129TMC2     C 2009   2.846   4.665   1.589  1.7898  0.1757  0.6404
  129TMC2     O 2010   2.894   4.570   1.652  0.1905 -0.0622  0.6211
  129TMC2     H 2011   2.706   0.107   1.448  0.5882 -0.8743  0.2269
  129TMC2    H1 2012   2.671   4.489   1.684  2.4028  0.6116  0.6265
  129TMC2    H2 2013   2.326   4.708   1.563  0.8154  0.0337  1.5890
  129TMC2    C7 2014   2.414   4.488   1.702  0.4081  0.2710 -0.3355
  129TMC2    C8 2015   2.457   0.161   1.440 -1.2481  0.4742 -0.3139
  129TMC2    O1 2016   2.298   4.467   1.657 -0.5926 -0.2753 -0.2679
  129TMC2    O2 2017   2.341   0.163   1.413  0.5105 -0.0606 -0.1333
  129TMC2    O5 2018   2.534   0.265   1.474 -0.0845  0.1927 -0.0945
  129TMC2    H5 2019   2.618   0.228   1.509 -1.8662 -1.2304  2.6548
  130MPD2     C 2020   3.135   4.671   1.513 -0.0210  0.4095 -0.8199
  130MPD2    C1 2021   3.057   0.040   1.530  0.1888  0.5463 -0.1768
  130MPD2    C2 2022   3.119   0.162   1.504 -1.2408 -0.6229  0.3035
  130MPD2    C3 2023   3.254   0.175   1.468 -0.1532  0.2244  0.4285
  130MPD2    C4 2024   3.330   0.066   1.470  0.0462 -0.6060  1.2433
  130MPD2    C5 2025   3.264   4.689   1.483 -0.0426 -0.0607 -1.1986
  130MPD2     H 2026   3.060   0.252   1.490  0.1165 -0.0571 -1.6580
  130MPD2    H1 2027   3.435   0.080   1.444 -0.4647 -1.0181 -1.0684
  130MPD2    H2 2028   3.096   4.571   1.529 -0.3658  0.4468 -1.4278
  130MPD2    H3 2029   3.334   4.607   1.467  1.2034  0.5884  0.9650
  130MPD2     N 2030   3.301   0.309   1.427  0.4185  0.8762 -0.9036
  130MPD2    H5 2031   3.231   0.382   1.432 -0.5811 -0.0535 -1.0797
  130MPD2    N1 2032   2.919   0.041   1.562 -0.3581  0.2213 -0.1414
  130MPD2    H7 2033   2.871   0.131   1.558 -0.8223 -0.1221 -2.5112
  131TMC2    C1 2034   2.806   3.585  10.460  0.7190 -0.0780  0.7091
  131TMC2    C2 2035   2.722   3.691  10.451 -0.1210  0.5761  0.3631
  131TMC2    C3 2036   2.783   3.817  10.460  0.5011  0.3514  0.4643
  131TMC2    C4 2037   2.940   3.604  10.485 -0.6895 -0.3763  0.9074
  131TMC2    C5 2038   2.995   3.733  10.490 -0.4005 -0.0101 -0.4559
  131TMC2    C6 2039   2.917   3.845  10.476  0.1893  0.2110  0.2371
  131TMC2     C 2040   2.762   3.464  10.403  0.3016 -0.8910 -0.1334
  131TMC2     O 2041   2.832   3.368  10.436 -0.3598  0.3926  0.8635
  131TMC2     H 2042   2.614   3.683  10.447 -0.2260  1.1281  2.4632
  131TMC2    H1 2043   3.007   3.519  10.494 -1.5832 -1.1389  0.3179
  131TMC2    H2 2044   2.958   3.944  10.460 -0.2994  0.3523 -0.1348
  131TMC2    C7 2045   3.141   3.737  10.486  0.0707 -0.0063 -0.6302
  131TMC2    C8 2046   2.690   3.922  10.442  0.8424  0.1523 -0.2640
  131TMC2    O1 2047   3.200   3.650  10.549  0.1319 -0.8442  0.2888
  131TMC2    O2 2048   2.586   3.916  10.373  0.6824  0.1213 -0.8013
  131TMC2    O5 2049   2.697   3.996  10.556  0.0290  0.2177 -0.0719
  131TMC2    H5 2050   2.788   3.997  10.592 -0.8498 -2.6603  2.2228
  132MPD2     C 2051   2.474   3.403  10.187  0.0802  0.1642  0.4140
  132MPD2    C1 2052   2.589   3.373  10.253 -0.1244 -0.7220 -0.1141
  132MPD2    C2 2053   2.611   3.239  10.287  0.3191 -0.4168 -0.2088
  132MPD2    C3 2054   2.531   3.144  10.248  0.0371  0.0423  0.0133
  132MPD2    C4 2055   2.421   3.173  10.177  0.3528 -0.1111 -0.3461
  132MPD2    C5 2056   2.401   3.300  10.137  0.0254 -0.0135 -0.3992
  132MPD2     H 2057   2.707   3.204  10.325  1.9511  2.4778 -1.6569
  132MPD2    H1 2058   2.365   3.101  10.118  0.2792 -0.7986  0.5635
  132MPD2    H2 2059   2.442   3.502  10.158 -0.2894  0.0226  0.3349
  132MPD2    H3 2060   2.325   3.320  10.063 -1.1060 -1.3711  0.4037
  132MPD2     N 2061   2.567   3.016  10.275 -0.0438  0.1371  0.2929
  132MPD2    H5 2062   2.661   3.002  10.312 -0.1397  0.6375  0.7273
  132MPD2    N1 2063   2.659   3.476  10.313 -0.9624 -0.1299 -0.1508
  132MPD2    H7 2064   2.627   3.571  10.300  2.1207  0.8630 -0.5356
  133TMC2    C1 2065   2.547   0.745   9.972 -0.0351 -0.6632 -0.0815
  133TMC2    C2 2066   2.503   0.783   9.847 -0.3026  0.3394 -0.2523
  133TMC2    C3 2067   2.544   0.905   9.794  0.0573 -0.1606  0.1596
  133TMC2    C4 2068   2.661   0.802  10.023  0.1994 -0.1376 -0.3146
  133TMC2    C5 2069   2.710   0.909   9.957  0.1173  0.1309 -0.1197
  133TMC2    C6 2070   2.663   0.966   9.836 -0.0788  0.5550  0.5032
  133TMC2     C 2071   2.521   0.602   9.998  0.2355  0.5007 -0.0454
  133TMC2     O 2072   2.445   0.540   9.919 -0.2132 -0.0174  0.6474
  133TMC2     H 2073   2.424   0.726   9.799 -0.9014 -0.1612  1.2878
  133TMC2    H1 2074   2.709   0.760  10.111 -1.0019  0.1761  0.4890
  133TMC2    H2 2075   2.694   1.067   9.814 -2.2075  0.9950 -0.4802
  133TMC2    C7 2076   2.815   0.987  10.027  0.2487  1.1871  0.4880
  133TMC2    C8 2077   2.508   0.942   9.658 -0.8226  0.0534  0.0791
  133TMC2    O1 2078   2.821   0.979  10.150  0.4634 -0.2940  0.2195
  133TMC2    O2 2079   2.497   1.062   9.629 -0.3303  0.4333  0.2320
  133TMC2    O5 2080   2.566   0.845   9.584 -1.0073  0.0302  0.1969
  133TMC2    H5 2081   2.601   0.772   9.639 -0.4288  0.3071  0.1871
  134MPD2     C 2082   2.642   0.394  10.278  0.0338 -0.5721 -0.8257
  134MPD2    C1 2083   2.583   0.423  10.164  0.5271  0.6049  0.0178
  134MPD2    C2 2084   2.530   0.318  10.097  0.1778 -0.9432  0.3093
  134MPD2    C3 2085   2.524   0.193  10.153 -0.1794 -0.1651  0.3020
  134MPD2    C4 2086   2.565   0.166  10.280  0.1994  0.3902  0.3419
  134MPD2    C5 2087   2.632   0.272  10.343 -0.0996  0.1961  0.0596
  134MPD2     H 2088   2.485   0.337  10.001 -0.2016 -2.9535  0.0830
  134MPD2    H1 2089   2.576   0.065  10.319 -1.7463 -0.3566 -1.0163
  134MPD2    H2 2090   2.692   0.468  10.339 -1.6986  0.6960 -0.9408
  134MPD2    H3 2091   2.689   0.263  10.435  2.1745 -0.3359 -1.3854
  134MPD2     N 2092   2.477   0.077  10.089  0.1268 -0.1937 -0.4973
  134MPD2    H5 2093   2.498   4.726  10.125 -1.0364 -0.1543  0.3038
  134MPD2    N1 2094   2.579   0.559  10.114  0.1278 -0.5911 -0.0690
  134MPD2    H7 2095   2.628   0.627  10.171 -0.2819  0.0920 -0.5345
  135TMC2    C1 2096   4.191   0.786   9.478  0.3525  0.5216  0.4764
  135TMC2    C2 2097   4.074   0.835   9.528 -0.2825  0.4275 -0.5457
  135TMC2    C3 2098   4.014   0.750   9.618 -0.2836  0.0359 -0.3012
  135TMC2    C4 2099   4.245   0.663   9.501  0.0824  0.5408  0.7775
  135TMC2    C5 2100   4.179   0.583   9.593  0.3474  0.5599  0.5516
  135TMC2    C6 2101   4.063   0.627   9.650 -0.7005 -0.4164 -0.3246
  135TMC2     C 2102   4.271   0.881   9.402  0.2791  0.0355  0.1820
  135TMC2     O 2103   4.236   0.997   9.398  0.1127 -0.0632  0.0887
  135TMC2     H 2104   4.043   0.938   9.512 -0.4456  0.7643  1.9270
  135TMC2    H1 2105   4.325   0.626   9.438 -2.6143 -1.2333 -1.6318
  135TMC2    H2 2106   4.024   0.565   9.730  1.4818 -0.8690  0.3968
  135TMC2    C7 2107   4.242   0.454   9.621 -0.6924  0.5599  0.3849
  135TMC2    C8 2108   3.893   0.801   9.681  0.7030 -0.5252  0.2734
  135TMC2    O1 2109   4.310   0.398   9.536  0.0224 -0.2386  0.4058
  135TMC2    O2 2110   3.866   0.920   9.675  0.2162 -0.1508 -0.7565
  135TMC2    O5 2111   3.802   0.702   9.683 -0.7377 -0.4142 -0.0293
  135TMC2    H5 2112   3.830   0.617   9.642 -0.6101 -0.0727 -0.6646
  136MPD2     C 2113   4.388   1.000   9.155  1.2100  0.2303 -0.6035
  136MPD2    C1 2114   4.439   0.890   9.221 -0.2749  0.3030 -0.3272
  136MPD2    C2 2115   4.550   0.834   9.177  0.1399 -0.2611  0.1690
  136MPD2    C3 2116   4.627   0.894   9.080 -0.6342 -0.8227 -1.1237
  136MPD2    C4 2117   4.569   1.004   9.015  0.0176  0.2824 -0.1230
  136MPD2    C5 2118   4.450   1.055   9.043 -0.2630 -0.3737  0.1780
  136MPD2     H 2119   4.585   0.745   9.228 -1.0978 -0.4601  0.6571
  136MPD2    H1 2120   4.616   1.041   8.925  0.4216 -1.7250 -0.7341
  136MPD2    H2 2121   4.285   1.029   9.175  1.0198 -0.1210 -1.0819
  136MPD2    H3 2122   4.410   1.139   8.988  0.0242 -0.2267  0.1940
  136MPD2     N 2123   0.016   0.852   9.031 -0.7128 -0.7162 -0.3845
  136MPD2    H5 2124   0.050   0.908   8.954  0.9222 -1.8786 -0.5111
  136MPD2    N1 2125   4.368   0.822   9.321  0.4275 -0.1385 -0.0742
  136MPD2    H7 2126   4.398   0.727   9.338 -0.1126 -0.3218 -0.1391
  137TMC2    C1 2127   3.987   3.357   9.437  1.1760  0.0436  0.4450
  137TMC2    C2 2128   4.068   3.279   9.366 -0.4073 -0.8990  0.1970
  137TMC2    C3 2129   4.111   3.330   9.247  0.3102 -0.3810  0.4578
  137TMC2    C4 2130   3.942   3.486   9.396 -0.3782 -0.3348 -0.7324
  137TMC2    C5 2131   3.982   3.522   9.269 -0.6218  0.5988  0.3537
  137TMC2    C6 2132   4.066   3.449   9.197  0.3319  0.4151 -0.6664
  137TMC2     C 2133   3.998   3.333   9.578 -0.1564 -0.1795 -0.3759
  137TMC2     O 2134   4.099   3.293   9.628  0.3928  0.0034 -0.1800
  137TMC2     H 2135   4.111   3.187   9.404 -0.0380 -1.7557 -2.3048
  137TMC2    H1 2136   3.883   3.543   9.466  0.8482 -1.8941  1.5832
  137TMC2    H2 2137   4.091   3.486   9.098 -0.3437 -1.9975 -1.7456
  137TMC2    C7 2138   3.972   3.663   9.228 -0.3081  0.5170  0.5129
  137TMC2    C8 2139   4.215   3.259   9.174  0.2616  0.9602  0.5084
  137TMC2    O1 2140   4.014   3.703   9.118 -0.3478 -0.0862 -0.6092
  137TMC2    O2 2141   4.214   3.140   9.169 -0.0526  0.5040  0.7534
  137TMC2    O5 2142   4.295   3.341   9.099  0.0905 -0.4858 -0.0691
  137TMC2    H5 2143   4.294   3.434   9.133  3.1543  0.0628 -1.4784
  138MPD2     C 2144   3.729   3.406   9.813 -0.4263  0.2496  0.4649
  138MPD2    C1 2145   3.854   3.395   9.765 -0.0550  0.2074  0.3378
  138MPD2    C2 2146   3.957   3.427   9.851 -0.4687 -0.7320 -0.4632
  138MPD2    C3 2147   3.939   3.471   9.976 -0.5677 -0.7734 -0.2709
  138MPD2    C4 2148   3.812   3.478  10.017 -0.2275 -0.0755  0.3937
  138MPD2    C5 2149   3.702   3.447   9.940 -0.4912  0.5121  0.4292
  138MPD2     H 2150   4.059   3.427   9.816  0.5540 -0.3400  2.5129
  138MPD2    H1 2151   3.788   3.524  10.113 -0.4445 -0.8398  0.7059
  138MPD2    H2 2152   3.651   3.400   9.738 -1.4079  3.6696  1.1847
  138MPD2    H3 2153   3.601   3.471   9.973 -0.9890 -1.0388  0.0430
  138MPD2     N 2154   4.049   3.524  10.043  0.1656 -0.1886 -0.6962
  138MPD2    H5 2155   4.145   3.506  10.016 -0.0773 -0.3111 -1.4800
  138MPD2    N1 2156   3.875   3.371   9.633 -0.6301  0.6060  0.6063
  138MPD2    H7 2157   3.795   3.377   9.571  1.2400 -0.4175 -1.9152
  139TMC2    C1 2158   3.646   3.250  12.752  0.4162 -0.1594  0.3762
  139TMC2    C2 2159   3.694   3.380  12.755 -0.0853  0.1200 -0.1365
  139TMC2    C3 2160   3.602   3.480  12.752  0.8576  1.0789  0.1592
  139TMC2    C4 2161   3.513   3.232  12.742  0.3098  0.1215 -0.1101
  139TMC2    C5 2162   3.423   3.336  12.741  0.5796  0.1704 -0.4757
  139TMC2    C6 2163   3.469   3.463  12.754 -0.1011  0.1524  0.4012
  139TMC2     C 2164   3.742   3.144  12.782  0.0932 -0.3061  0.2770
  139TMC2     O 2165   3.862   3.172  12.774 -0.1754  0.2811  0.3143
  139TMC2     H 2166   3.799   3.403  12.761  0.1087 -0.5874 -0.7519
  139TMC2    H1 2167   3.466   3.135  12.754  1.5995 -0.4320  0.4206
  139TMC2    H2 2168   3.399   3.545  12.745  0.0990  0.1218 -1.5422
  139TMC2    C7 2169   3.305   3.293  12.815 -0.8181 -0.1151 -0.0528
  139TMC2    C8 2170   3.643   3.615  12.758  0.0550 -0.0555 -0.9647
  139TMC2    O1 2171   3.257   3.191  12.774 -0.4230  0.2597 -0.0719
  139TMC2    O2 2172   3.579   3.707  12.807  0.3359 -0.0326  0.3370
  139TMC2    O5 2173   3.751   3.630  12.684 -0.1565 -0.0582 -0.3720
  139TMC2    H5 2174   3.782   3.548  12.639  2.2620  0.4359  0.3852
  140MPD2     C 2175   3.660   2.776  12.822 -0.1930  0.0575  0.2682
  140MPD2    C1 2176   3.739   2.890  12.812 -0.8003  0.0324 -0.0413
  140MPD2    C2 2177   3.871   2.866  12.800 -0.5545  0.7370 -0.2374
  140MPD2    C3 2178   3.929   2.732  12.818 -0.6475  0.1843 -0.1173
  140MPD2    C4 2179   3.840   2.628  12.824 -0.0718 -0.0602 -0.1216
  140MPD2    C5 2180   3.704   2.648  12.827  0.2033 -0.2888 -0.6496
  140MPD2     H 2181   3.939   2.949  12.786  1.0069 -0.6985 -1.2199
  140MPD2    H1 2182   3.866   2.523  12.819 -0.3382 -0.0185 -2.3322
  140MPD2    H2 2183   3.552   2.788  12.823 -0.2108 -0.1026  0.2916
  140MPD2    H3 2184   3.632   2.567  12.823 -1.9207  1.4921  1.5089
  140MPD2     N 2185   4.066   2.707  12.816 -0.3924  0.1058  0.5680
  140MPD2    H5 2186   4.122   2.791  12.822 -0.7710  0.5203 -1.7921
  140MPD2    N1 2187   3.680   3.021  12.799  0.3644 -0.3925 -0.2524
  140MPD2    H7 2188   3.579   3.028  12.806  0.4989  0.3019  1.0131
  141TMC2    C1 2189   0.273   4.304  14.123  1.0136  0.3774  0.4850
  141TMC2    C2 2190   0.282   4.170  14.091  0.7251 -0.4520  0.0421
  141TMC2    C3 2191   0.410   4.122  14.067 -0.1611  0.0036 -0.5621
  141TMC2    C4 2192   0.381   4.392  14.135 -0.1282 -0.3726  0.1291
  141TMC2    C5 2193   0.503   4.333  14.118  1.0783  0.7466 -0.3738
  141TMC2    C6 2194   0.521   4.203  14.080  0.1590 -0.4356 -0.7774
  141TMC2     C 2195   0.148   4.372  14.080  0.3731 -0.3265  0.3284
  141TMC2     O 2196   0.159   4.483  14.031  0.1782  0.1895  0.5020
  141TMC2     H 2197   0.196   4.104  14.090  1.0037 -0.7914 -1.4243
  141TMC2    H1 2198   0.364   4.497  14.154 -1.0020 -0.5964  0.5862
  141TMC2    H2 2199   0.618   4.160  14.057 -0.9863 -2.4690 -1.9083
  141TMC2    C7 2200   0.609   4.423  14.086 -0.1950  0.0635 -0.1946
  141TMC2    C8 2201   0.415   3.979  14.020  0.4034  0.0751  0.1623
  141TMC2    O1 2202   0.694   4.384  14.009 -0.3837  0.1002  0.6544
  141TMC2    O2 2203   0.318   3.916  13.991 -0.0963 -0.4704 -0.2648
  141TMC2    O5 2204   0.532   3.922  14.041 -0.4707  0.5840 -0.0686
  141TMC2    H5 2205   0.605   3.973  14.083  0.3282 -0.7114  0.1314
  142TMC2    C1 2206   2.735   2.787   9.849  0.1796  0.4757 -0.0513
  142TMC2    C2 2207   2.662   2.896   9.894 -0.1419  0.0742 -0.1622
  142TMC2    C3 2208   2.701   3.031   9.879  0.1251 -0.3337  0.8370
  142TMC2    C4 2209   2.858   2.812   9.800  0.0723 -0.2912  0.0000
  142TMC2    C5 2210   2.902   2.940   9.786  0.1980  0.4298 -0.6424
  142TMC2    C6 2211   2.832   3.052   9.832 -0.5982 -0.2620  0.9065
  142TMC2     C 2212   2.706   2.670   9.920  0.8042 -0.0612 -0.6581
  142TMC2     O 2213   2.592   2.635   9.944  0.2068  0.3892 -0.6660
  142TMC2     H 2214   2.563   2.868   9.928 -0.3424 -0.0776 -0.8702
  142TMC2    H1 2215   2.899   2.726   9.748 -0.1742 -0.6428  0.3825
  142TMC2    H2 2216   2.872   3.149   9.806 -0.7284 -0.3881  0.2415
  142TMC2    C7 2217   3.049   2.937   9.777  0.0999  0.3644 -0.1867
  142TMC2    C8 2218   2.594   3.127   9.849  0.4874 -0.6780  0.3208
  142TMC2    O1 2219   3.108   2.834   9.758 -0.0646  0.1355  0.1995
  142TMC2    O2 2220   2.477   3.102   9.818  0.0415  0.4261  0.5807
  142TMC2    O5 2221   2.655   3.247   9.824  0.4516  0.1443 -0.4409
  142TMC2    H5 2222   2.731   3.271   9.882  0.7093  0.2532 -0.8232
  143MPD2     C 2223   2.894   2.312  10.238  0.2412 -0.0490 -0.4752
  143MPD2    C1 2224   2.769   2.309  10.173  0.7935 -0.1521  0.1456
  143MPD2    C2 2225   2.742   2.413  10.085 -0.3932 -0.2947 -0.2275
  143MPD2    C3 2226   2.836   2.509  10.059 -0.5926 -0.4034 -0.8056
  143MPD2    C4 2227   2.959   2.502  10.118 -0.2617  0.4748 -0.5073
  143MPD2    C5 2228   2.987   2.405  10.208 -0.2884 -0.2282  0.3097
  143MPD2     H 2229   2.644   2.420  10.040  0.4236  2.1797 -1.6332
  143MPD2    H1 2230   3.039   2.572  10.097  0.4389  0.1368  1.0660
  143MPD2    H2 2231   2.919   2.243  10.318 -1.6912  0.7942  0.8682
  143MPD2    H3 2232   3.080   2.410  10.264 -0.9559  4.3375  1.0670
  143MPD2     N 2233   2.825   2.621   9.975  0.0419  0.4568 -0.1496
  143MPD2    H5 2234   2.907   2.680   9.964 -0.3155  1.3585  1.9627
  143MPD2    N1 2235   2.666   2.216  10.206  0.1884  0.5210  0.0395
  143MPD2    H7 2236   2.694   2.175  10.295  4.0829 -0.2669 -1.5458
  144TMC2    C1 2237   1.154   1.757   0.840  0.0893  0.0123 -0.0421
  144TMC2    C2 2238   1.225   1.743   0.724 -0.4749 -0.0402  0.6698
  144TMC2    C3 2239   1.336   1.827   0.705  0.5280  0.1859  0.0540
  144TMC2    C4 2240   1.188   1.856   0.924  0.0631 -0.2229  0.2012
  144TMC2    C5 2241   1.298   1.934   0.897  0.3255  0.0673 -0.3521
  144TMC2    C6 2242   1.379   1.920   0.792 -0.4428 -0.1572  0.4671
  144TMC2     C 2243   1.040   1.671   0.857 -0.2503 -0.0782  0.4820
  144TMC2     O 2244   1.010   1.599   0.762 -0.3311 -0.0700  0.0604
  144TMC2     H 2245   1.196   1.666   0.655 -0.1979  1.1291 -0.7487
  144TMC2    H1 2246   1.133   1.878   1.014  1.0265 -1.4038  1.0775
  144TMC2    H2 2247   1.451   1.995   0.763  0.5972 -1.9607 -1.6451
  144TMC2    C7 2248   1.335   2.030   0.995  0.8017 -0.1299 -0.3419
  144TMC2    C8 2249   1.404   1.808   0.587 -0.1521  0.0428  0.6203
  144TMC2    O1 2250   1.456   2.056   0.990  0.1043  0.7930 -0.5790
  144TMC2    O2 2251   1.352   1.768   0.483  0.5843 -0.3377  0.4225
  144TMC2    O5 2252   1.534   1.818   0.609  0.4578 -0.0331  0.1983
  144TMC2    H5 2253   1.561   1.845   0.700  1.2668 -0.3368  0.0552
  145MPD2     C 2254   0.546   1.728   0.998 -0.5310 -0.2459 -0.4803
  145MPD2    C1 2255   0.601   1.671   0.883  0.4045  0.2221 -1.0517
  145MPD2    C2 2256   0.742   1.656   0.876 -0.5247  0.6909  0.5025
  145MPD2    C3 2257   0.825   1.701   0.980 -0.7888  1.3319  0.4050
  145MPD2    C4 2258   0.770   1.752   1.089  0.4079 -1.1711  0.6971
  145MPD2    C5 2259   0.633   1.758   1.098  0.2187  0.1245 -0.2639
  145MPD2     H 2260   0.784   1.616   0.784  1.0946 -0.7104  1.8391
  145MPD2    H1 2261   0.814   1.791   1.179  3.8041 -0.3239 -1.3381
  145MPD2    H2 2262   0.439   1.740   1.009 -0.4265  0.9104 -0.7462
  145MPD2    H3 2263   0.590   1.803   1.187 -0.1033  0.5506 -0.6337
  145MPD2     N 2264   0.967   1.705   0.970 -0.2860  0.4554 -0.0042
  145MPD2    H5 2265   1.020   1.757   1.039 -1.3949  1.4666  0.0723
  145MPD2    N1 2266   0.526   1.621   0.783 -0.2539  0.0841  0.0578
  145MPD2    H7 2267   0.555   1.576   0.697  0.1569  1.5494 -0.5531
  146TMC2    C1 2268   1.495   0.493  12.553 -0.0277 -0.2484  0.4148
  146TMC2    C2 2269   1.397   0.465  12.459 -0.4907 -1.0029  0.3442
  146TMC2    C3 2270   1.420   0.360  12.381  0.2331 -0.0413  0.5208
  146TMC2    C4 2271   1.629   0.448  12.533  0.1786  0.4543 -0.4317
  146TMC2    C5 2272   1.647   0.348  12.443  0.3994  0.1425 -0.1981
  146TMC2    C6 2273   1.543   0.301  12.375 -0.5891  0.1574  0.0942
  146TMC2     C 2274   1.476   0.591  12.661 -0.2879  0.7371  0.1294
  146TMC2     O 2275   1.400   0.684  12.637  0.4757 -0.1242  0.1325
  146TMC2     H 2276   1.297   0.503  12.478 -0.3476 -0.6120  0.3295
  146TMC2    H1 2277   1.711   0.488  12.591 -0.9644  1.6466  0.3621
  146TMC2    H2 2278   1.571   0.231  12.297 -0.3032 -0.2426  0.5552
  146TMC2    C7 2279   1.781   0.292  12.418 -0.5807 -0.3638 -0.9413
  146TMC2    C8 2280   1.306   0.297  12.311  1.1208  0.6087 -0.4227
  146TMC2    O1 2281   1.805   0.252  12.304 -0.6639 -0.3740 -0.0829
  146TMC2    O2 2282   1.201   0.350  12.291  0.1279  0.1320  0.3574
  146TMC2    O5 2283   1.331   0.166  12.336 -0.1528  0.1954 -0.2490
  146TMC2    H5 2284   1.408   0.152  12.396 -0.7060  0.2416  0.4744
  147MPD2     C 2285   2.271   0.257  12.565 -0.2642 -0.3016 -0.0298
  147MPD2    C1 2286   2.199   0.293  12.674 -0.8550 -0.5737  0.1000
  147MPD2    C2 2287   2.059   0.303  12.663 -0.4114 -0.3504  0.1179
  147MPD2    C3 2288   1.999   0.296  12.541 -0.6135  0.0234  0.3668
  147MPD2    C4 2289   2.074   0.259  12.429  0.1016 -0.8476 -0.2051
  147MPD2    C5 2290   2.211   0.234  12.447  0.6815  0.2911 -0.9027
  147MPD2     H 2291   1.994   0.332  12.744 -0.5662  1.3008 -0.6072
  147MPD2    H1 2292   2.037   0.250  12.328 -1.9221  0.4711  0.4155
  147MPD2    H2 2293   2.378   0.238  12.574 -0.4405 -1.2034  0.1195
  147MPD2    H3 2294   2.279   0.208  12.367 -0.5686  0.8404 -2.1382
  147MPD2     N 2295   1.859   0.310  12.533 -0.4591 -0.2453 -0.1290
  147MPD2    H5 2296   1.808   0.327  12.620  2.1653  2.4302  0.8617
  147MPD2    N1 2297   2.270   0.298  12.794 -0.1855  0.7776  0.3061
  147MPD2    H7 2298   2.356   0.245  12.798 -1.2138 -0.9208 -0.1843
  148TMC2    C1 2299   2.183   4.137  10.435  0.0674  0.0749  0.2778
  148TMC2    C2 2300   2.280   4.232  10.460 -0.4834  0.4649  0.3586
  148TMC2    C3 2301   2.396   4.197  10.529 -0.1761 -0.2046 -0.7998
  148TMC2    C4 2302   2.193   4.012  10.485 -0.1555  0.0966 -0.1688
  148TMC2    C5 2303   2.302   3.982  10.559 -0.1874 -0.1163 -0.6406
  148TMC2    C6 2304   2.404   4.076  10.582  0.2174  0.5946 -0.9088
  148TMC2     C 2305   2.053   4.192  10.393  0.0590  0.0932 -0.0163
  148TMC2     O 2306   2.021   4.309  10.421  0.2112  0.3069  0.6685
  148TMC2     H 2307   2.277   4.332  10.417 -1.4743  0.7819  1.1626
  148TMC2    H1 2308   2.115   3.937  10.476  1.2702 -1.0867 -3.0475
  148TMC2    H2 2309   2.487   4.046  10.646  0.2855 -0.5402 -1.5307
  148TMC2    C7 2310   2.322   3.836  10.575  0.4653  0.3879  0.2485
  148TMC2    C8 2311   2.494   4.300  10.517 -0.7749  0.0407  0.0281
  148TMC2    O1 2312   2.247   3.763  10.508  0.3080 -0.0188  0.1582
  148TMC2    O2 2313   2.471   4.408  10.470  0.1769  0.2797  0.3223
  148TMC2    O5 2314   2.614   4.245  10.540 -0.2080 -0.0572 -0.1691
  148TMC2    H5 2315   2.611   4.147  10.543 -2.3353  0.0114  0.0385
  149MPD2     C 2316   1.774   4.214  10.275 -0.4321  0.6124 -0.0876
  149MPD2    C1 2317   1.857   4.112  10.249  0.3714 -0.5494 -0.1192
  149MPD2    C2 2318   1.808   4.008  10.170  0.2167 -0.3258  0.4913
  149MPD2    C3 2319   1.673   4.008  10.122  0.1245  0.2929  0.1500
  149MPD2    C4 2320   1.593   4.115  10.154  0.6655 -1.0874 -1.0137
  149MPD2    C5 2321   1.644   4.217  10.226  0.3405 -0.1085  0.1349
  149MPD2     H 2322   1.862   3.914  10.155 -0.2614 -0.7467  1.3562
  149MPD2    H1 2323   1.488   4.118  10.125 -0.0194 -2.6139  1.3032
  149MPD2    H2 2324   1.807   4.284  10.351 -2.5576  3.3548 -1.6802
  149MPD2    H3 2325   1.569   4.287  10.264 -0.1381  0.6119 -2.1679
  149MPD2     N 2326   1.621   3.899  10.043 -0.3937 -0.2211  0.1735
  149MPD2    H5 2327   1.521   3.893  10.025 -0.0712 -1.7287 -1.0530
  149MPD2    N1 2328   1.989   4.103  10.314 -0.8802 -0.1648  0.7823
  149MPD2    H7 2329   2.032   4.016  10.285 -2.8860 -0.0632 -2.5276
  150TMC2    C1 2330   4.488   3.237  11.816 -0.4517  0.5280 -0.2271
  150TMC2    C2 2331   4.436   3.354  11.764  0.4688  0.8839 -0.3208
  150TMC2    C3 2332   4.522   3.453  11.718  0.5210  0.5879 -0.9997
  150TMC2    C4 2333   4.622   3.227  11.831 -0.2655  0.5920 -0.5939
  150TMC2    C5 2334   4.705   3.327  11.773 -0.4607  0.0419 -0.2000
  150TMC2    C6 2335   4.658   3.442  11.728  0.4926 -0.3785 -0.4346
  150TMC2     C 2336   4.408   3.125  11.849 -0.4050 -0.2574 -0.0562
  150TMC2     O 2337   4.463   3.031  11.905  0.0833  0.0791 -0.1210
  150TMC2     H 2338   4.330   3.379  11.765  0.2492 -0.0106 -0.9871
  150TMC2    H1 2339   4.659   3.125  11.837  2.3882  1.6495  1.0869
  150TMC2    H2 2340   4.725   3.520  11.693 -1.1853 -0.5280 -3.9753
  150TMC2    C7 2341   0.097   3.330  11.823 -0.8839  0.8397 -0.5646
  150TMC2    C8 2342   4.473   3.571  11.650  0.2195  0.4342  0.2287
  150TMC2    O1 2343   0.171   3.410  11.764  0.7831  0.6016 -0.0531
  150TMC2    O2 2344   4.361   3.619  11.678  0.8865 -0.2536  0.1259
  150TMC2    O5 2345   4.543   3.589  11.536  0.1306  0.2314 -0.0446
  150TMC2    H5 2346   4.587   3.508  11.502 -1.1644 -0.8465  0.8830
  151MPD2     C 2347   3.970   2.857  11.807  0.0734 -0.5959  0.4936
  151MPD2    C1 2348   3.949   2.985  11.776  0.2133 -0.0418  0.0071
  151MPD2    C2 2349   4.054   3.081  11.779  0.3071  0.1578  0.2173
  151MPD2    C3 2350   4.178   3.044  11.825 -0.5530 -0.6265 -0.7061
  151MPD2    C4 2351   4.202   2.907  11.864  0.4239 -0.0576 -0.2040
  151MPD2    C5 2352   4.096   2.817  11.855 -0.0052  0.6772 -0.3809
  151MPD2     H 2353   4.036   3.181  11.741  0.0646 -0.2130 -0.6477
  151MPD2    H1 2354   4.296   2.861  11.888  0.4531  1.5785  2.7528
  151MPD2    H2 2355   3.893   2.781  11.814 -1.3446  1.1382  3.1898
  151MPD2    H3 2356   4.119   2.717  11.889 -2.9110  1.6603  4.4701
  151MPD2     N 2357   4.279   3.144  11.810 -0.0898  0.0962 -0.1498
  151MPD2    H5 2358   4.253   3.235  11.773 -1.5447  0.2991  1.3288
  151MPD2    N1 2359   3.820   3.014  11.737  0.4717  0.0885  0.5105
  151MPD2    H7 2360   3.759   2.933  11.743 -1.9268  1.8308 -0.0326
  152TMC2    C1 2361   4.084   3.154  12.185 -0.8238  0.3310 -0.3246
  152TMC2    C2 2362   4.104   3.073  12.298 -0.4305  0.7179  0.2921
  152TMC2    C3 2363   4.217   3.088  12.372  0.2023 -0.1331 -0.1829
  152TMC2    C4 2364   4.185   3.239  12.142  0.0432  0.1039 -0.7253
  152TMC2    C5 2365   4.282   3.262  12.233 -0.0216  0.2413 -0.7178
  152TMC2    C6 2366   4.305   3.182  12.343  0.3208 -0.4755 -0.2156
  152TMC2     C 2367   3.960   3.155  12.113 -0.1418  0.0480 -0.4917
  152TMC2     O 2368   3.939   3.259  12.059 -0.6559  0.1573 -0.0981
  152TMC2     H 2369   4.019   3.015  12.333 -0.7817  0.5663 -0.8151
  152TMC2    H1 2370   4.171   3.271  12.039  0.2094  3.6336  0.3266
  152TMC2    H2 2371   4.382   3.205  12.416 -0.1633  2.2729 -0.5525
  152TMC2    C7 2372   4.392   3.336  12.180  0.9052 -0.6912 -0.1303
  152TMC2    C8 2373   4.215   3.056  12.512  0.2351 -0.8410  0.1540
  152TMC2    O1 2374   4.371   3.403  12.074 -0.5657 -0.5105 -0.1817
  152TMC2    O2 2375   4.247   3.132  12.606 -0.4014 -0.0873 -0.4437
  152TMC2    O5 2376   4.132   2.953  12.531 -0.0575  0.3566 -1.2807
  152TMC2    H5 2377   4.170   2.887  12.469 -1.4365 -0.2022 -1.5377
  153MPD2     C 2378   3.675   2.928  12.103  0.3570 -0.3353  0.2792
  153MPD2    C1 2379   3.743   3.040  12.090 -1.0252  0.3212  0.1315
  153MPD2    C2 2380   3.676   3.154  12.047  0.0108  0.6462 -0.1791
  153MPD2    C3 2381   3.538   3.149  12.015  0.3057 -0.4026  0.2130
  153MPD2    C4 2382   3.472   3.031  12.019  0.1161  0.2159  0.0203
  153MPD2    C5 2383   3.545   2.924  12.069  0.2254  0.1617  0.0953
  153MPD2     H 2384   3.717   3.253  12.034  0.0892  0.7078  0.5050
  153MPD2    H1 2385   3.367   3.026  11.994 -0.2247 -2.3167  1.9445
  153MPD2    H2 2386   3.733   2.838  12.125  1.8490  0.8904  1.3274
  153MPD2    H3 2387   3.506   2.825  12.089 -1.4373  0.5054 -1.4125
  153MPD2     N 2388   3.469   3.276  11.999  0.7309 -0.2323 -0.1419
  153MPD2    H5 2389   3.522   3.362  11.985 -0.5138  0.3944 -0.9324
  153MPD2    N1 2390   3.882   3.041  12.118  0.0712 -0.3430 -0.1752
  153MPD2    H7 2391   3.933   2.964  12.161  1.4747 -0.1093 -1.4253
  154TMC2    C1 2392   0.779   3.059   0.520  0.4562  0.0087  0.3217
  154TMC2    C2 2393   0.717   3.102   0.634  0.4418 -0.0693  0.6277
  154TMC2    C3 2394   0.795   3.143   0.737 -0.5660  0.1998  0.2450
  154TMC2    C4 2395   0.916   3.051   0.508  1.1098  0.7394  0.1574
  154TMC2    C5 2396   0.991   3.083   0.619  0.0610 -0.5350 -0.4115
  154TMC2    C6 2397   0.931   3.129   0.736 -0.0099  0.3884 -0.3235
  154TMC2     C 2398   0.707   3.090   0.400 -0.5404 -0.8270  0.0929
  154TMC2     O 2399   0.606   3.151   0.418 -0.0833 -0.0703 -0.6551
  154TMC2     H 2400   0.610   3.118   0.643  0.4257  2.5068 -3.8710
  154TMC2    H1 2401   0.960   3.016   0.415  0.2122 -1.4735  0.5707
  154TMC2    H2 2402   0.989   3.197   0.798  0.2650 -0.1820  0.0466
  154TMC2    C7 2403   1.137   3.080   0.608  0.1900 -0.1904  0.8139
  154TMC2    C8 2404   0.729   3.134   0.859  0.0465  0.4313 -0.3342
  154TMC2    O1 2405   1.165   3.045   0.495  0.0741 -0.1665 -0.0316
  154TMC2    O2 2406   0.661   3.224   0.912  0.2557  0.2336 -0.5350
  154TMC2    O5 2407   0.802   3.053   0.936  0.4154  0.0171  0.3417
  154TMC2    H5 2408   0.847   2.983   0.884 -2.0436 -0.5628 -0.9975
  155MPD2     C 2409   0.789   2.985   0.059 -0.0939 -0.2120  0.9265
  155MPD2    C1 2410   0.727   3.064   0.157  0.1843 -0.5433  0.1122
  155MPD2    C2 2411   0.638   3.166   0.126  0.6427  0.3003  0.0925
  155MPD2    C3 2412   0.620   3.189  17.761  0.0467  0.7074  0.0669
  155MPD2    C4 2413   0.686   3.119  17.663  0.1789  0.1057  0.0493
  155MPD2    C5 2414   0.767   3.015  17.693 -0.1387 -0.3952 -0.3300
  155MPD2     H 2415   0.582   3.212   0.207  2.1979  0.8192  0.8801
  155MPD2    H1 2416   0.681   3.137  17.557  1.4573  0.7607  0.0986
  155MPD2    H2 2417   0.851   2.898   0.081  1.2101  0.3611 -0.5260
  155MPD2    H3 2418   0.805   2.956  17.610 -0.9054 -1.5365  0.1384
  155MPD2     N 2419   0.526   3.288  17.722 -0.0757 -0.2548 -0.0335
  155MPD2    H5 2420   0.481   3.341   0.033  1.4432  0.0959  0.6251
  155MPD2    N1 2421   0.763   3.028   0.291 -0.5501  0.1468  0.0041
  155MPD2    H7 2422   0.841   2.965   0.303  1.1162  1.7938 -2.0717
  156TMC2    C1 2423   3.496   1.018  12.292  0.5331 -0.5036 -0.8078
  156TMC2    C2 2424   3.364   1.044  12.317 -0.8033  0.1078 -0.0809
  156TMC2    C3 2425   3.272   1.014  12.219 -0.0512  0.0677  0.7298
  156TMC2    C4 2426   3.535   0.978  12.163 -0.3741 -0.5391 -0.2093
  156TMC2    C5 2427   3.438   0.951  12.070  0.4769  0.3747 -0.6623
  156TMC2    C6 2428   3.306   0.962  12.098  0.4653  0.5774 -0.9609
  156TMC2     C 2429   3.585   1.070  12.392 -0.2626  0.5932  0.1694
  156TMC2     O 2430   3.542   1.136  12.481  0.1691  0.4452  0.0557
  156TMC2     H 2431   3.340   1.082  12.416 -0.0790  2.0328 -0.6482
  156TMC2    H1 2432   3.638   0.960  12.135 -0.5036 -3.2475  1.0857
  156TMC2    H2 2433   3.231   0.955  12.021 -1.4805  2.7000  0.7589
  156TMC2    C7 2434   3.484   0.921  11.937  0.4612  0.3917  0.9257
  156TMC2    C8 2435   3.137   1.038  12.246  0.1433 -0.3279 -0.0145
  156TMC2    O1 2436   3.602   0.947  11.913  0.0243  0.0203  0.0725
  156TMC2    O2 2437   3.054   1.099  12.177  0.1898 -0.7903 -0.6345
  156TMC2    O5 2438   3.108   0.965  12.352  0.3605 -0.5355  0.2579
  156TMC2    H5 2439   3.173   0.915  12.406  0.0474 -0.2070  0.9414
  157MPD2     C 2440   3.926   0.949  12.476  0.0581 -0.0729  0.7076
  157MPD2    C1 2441   3.812   1.035  12.486  0.2691 -0.3005  0.4822
  157MPD2    C2 2442   3.817   1.139  12.575 -0.0601  0.0519 -0.7372
  157MPD2    C3 2443   3.922   1.155  12.662  0.7238  1.5730 -0.1922
  157MPD2    C4 2444   4.025   1.065  12.657  0.0674  0.2976  0.5892
  157MPD2    C5 2445   4.028   0.964  12.564 -0.3901  0.1287 -0.2956
  157MPD2     H 2446   3.736   1.211  12.587 -2.6807 -2.7379 -1.7818
  157MPD2    H1 2447   4.106   1.077  12.728 -0.5031 -0.1879  1.3263
  157MPD2    H2 2448   3.939   0.867  12.407 -2.2868  1.0254 -1.0370
  157MPD2    H3 2449   4.112   0.896  12.567 -0.1838  0.4651  1.7922
  157MPD2     N 2450   3.919   1.275  12.738  0.3339  0.3496 -1.0709
  157MPD2    H5 2451   3.833   1.328  12.733  1.3126  2.2659  2.5046
  157MPD2    N1 2452   3.708   1.004  12.394  0.0841  0.4121  0.4754
  157MPD2    H7 2453   3.735   0.929  12.332  0.0737  0.7099  0.1126
  158TMC2    C1 2454   4.210   4.084  13.259  0.0682  0.0575  0.2126
  158TMC2    C2 2455   4.320   4.155  13.288 -0.0555  0.3418  0.1730
  158TMC2    C3 2456   4.290   4.291  13.312 -0.3592 -0.0842  0.1013
  158TMC2    C4 2457   4.077   4.125  13.255 -0.6857  0.4946  0.3539
  158TMC2    C5 2458   4.058   4.252  13.309  1.0046  0.2483 -0.5879
  158TMC2    C6 2459   4.158   4.340  13.323 -0.5395 -0.3493 -0.2205
  158TMC2     C 2460   4.212   3.939  13.260  0.7773  0.5817  0.7268
  158TMC2     O 2461   4.117   3.872  13.217  0.1812 -0.1870 -0.5924
  158TMC2     H 2462   4.419   4.112  13.290  0.6243  2.0870  3.8689
  158TMC2    H1 2463   3.992   4.063  13.229 -0.3780 -0.1949  1.0072
  158TMC2    H2 2464   4.138   4.441  13.356 -2.2616  0.0913 -2.5701
  158TMC2    C7 2465   3.931   4.274  13.388  0.0517  1.0862 -0.1295
  158TMC2    C8 2466   4.398   4.379  13.333  0.1809 -0.5356 -0.2750
  158TMC2    O1 2467   3.923   4.390  13.436 -0.0969  0.1210  0.0368
  158TMC2    O2 2468   4.507   4.334  13.368 -0.6684 -0.2709  0.0146
  158TMC2    O5 2469   4.368   4.503  13.290 -0.2437  0.0196 -0.6798
  158TMC2    H5 2470   4.277   4.503  13.255 -0.0959  0.1431 -1.0662
  159MPD2     C 2471   4.347   3.490  13.481  0.5955 -0.9670 -0.4452
  159MPD2    C1 2472   4.385   3.598  13.556 -0.3320 -0.3415  0.2959
  159MPD2    C2 2473   4.380   3.730  13.512  0.2081 -0.1442 -0.4234
  159MPD2    C3 2474   4.320   3.755  13.387 -0.1504 -0.0667  0.6579
  159MPD2    C4 2475   4.277   3.648  13.314  0.6979  0.4970 -0.3618
  159MPD2    C5 2476   4.303   3.519  13.350  0.1324  0.2187  0.2898
  159MPD2     H 2477   4.415   3.813  13.573  1.1526 -0.1383 -0.9743
  159MPD2    H1 2478   4.234   3.669  13.217  2.1177 -0.0532 -1.1054
  159MPD2    H2 2479   4.371   3.386  13.501  1.3670 -0.9408 -1.2196
  159MPD2    H3 2480   4.279   3.445  13.275 -1.8287  1.8239 -0.6649
  159MPD2     N 2481   4.310   3.890  13.339 -0.2071 -0.5563  0.0850
  159MPD2    H5 2482   4.349   3.957  13.404  1.3123 -0.5307 -0.8578
  159MPD2    N1 2483   4.426   3.562  13.687  0.4542 -0.2995 -0.8764
  159MPD2    H7 2484   4.402   3.470  13.723 -0.5109  1.2611  2.4869
  160TMC2    C1 2485   3.531   2.344   1.372  0.8201 -0.1129 -0.0728
  160TMC2    C2 2486   3.481   2.330   1.497 -0.5292  0.8278 -0.5590
  160TMC2    C3 2487   3.558   2.265   1.592 -0.1430 -0.0418 -0.1943
  160TMC2    C4 2488   3.655   2.291   1.335 -0.0564  0.2258  0.3851
  160TMC2    C5 2489   3.719   2.223   1.431  0.0687  0.4662 -0.2096
  160TMC2    C6 2490   3.679   2.211   1.562  0.2768 -0.3161 -0.6142
  160TMC2     C 2491   3.466   2.434   1.277  0.4943  0.4881 -0.9870
  160TMC2     O 2492   3.534   2.439   1.172 -0.2784  0.1716 -0.7383
  160TMC2     H 2493   3.384   2.357   1.536 -0.7623  0.6722 -1.0296
  160TMC2    H1 2494   3.690   2.292   1.232 -0.0883  1.5128  0.3788
  160TMC2    H2 2495   3.727   2.147   1.636 -3.7895 -0.8836  1.5203
  160TMC2    C7 2496   3.863   2.201   1.410  0.5245 -0.1950 -0.1720
  160TMC2    C8 2497   3.529   2.271   1.737 -0.7235 -0.1125 -0.0826
  160TMC2    O1 2498   3.924   2.145   1.499  0.3575  0.8745  0.3157
  160TMC2    O2 2499   3.615   2.269   1.821  0.7908  0.1740 -0.1306
  160TMC2    O5 2500   3.401   2.226   1.757 -0.6324 -0.7415 -0.0786
  160TMC2    H5 2501   3.369   2.202   1.667 -0.5481  2.8881 -1.0665
  161MPD2     C 2502   3.257   2.550   1.107  0.1193  0.2650  0.9571
  161MPD2    C1 2503   3.263   2.574   1.243 -0.3520  0.2203 -0.3861
  161MPD2    C2 2504   3.163   2.647   1.299 -0.1591 -0.2577  0.5671
  161MPD2    C3 2505   3.068   2.709   1.220 -0.0453  1.2180  1.0019
  161MPD2    C4 2506   3.061   2.679   1.083  0.1887  0.1635 -0.0691
  161MPD2    C5 2507   3.155   2.598   1.033  0.0668  0.1399 -0.6535
  161MPD2     H 2508   3.158   2.651   1.408  0.0369  1.8792  0.5140
  161MPD2    H1 2509   2.974   2.696   1.021 -0.6130  1.7453  1.5118
  161MPD2    H2 2510   3.331   2.496   1.049 -0.5430  0.5239 -0.1241
  161MPD2    H3 2511   3.157   2.563   0.930  2.1562 -0.6739 -0.3353
  161MPD2     N 2512   2.960   2.788   1.267 -0.6137 -0.1161  0.1124
  161MPD2    H5 2513   2.879   2.798   1.206 -0.3141 -1.2660 -0.4887
  161MPD2    N1 2514   3.359   2.514   1.326 -0.0772  0.2316 -0.2194
  161MPD2    H7 2515   3.355   2.522   1.427 -0.7406 -0.0035 -0.2223
  162TMC2    C1 2516   1.441   4.459   1.128 -0.0936 -0.4072  1.1374
  162TMC2    C2 2517   1.310   4.423   1.098 -0.9097 -0.1452  0.1654
  162TMC2    C3 2518   1.212   4.454   1.188  0.0655 -0.4874 -0.6234
  162TMC2    C4 2519   1.476   4.518   1.247 -0.1090 -0.0228 -0.4067
  162TMC2    C5 2520   1.382   4.538   1.340 -0.1828 -0.2557 -0.3242
  162TMC2    C6 2521   1.253   4.502   1.308 -0.6452 -0.2305  0.2061
  162TMC2     C 2522   1.536   4.462   1.012  0.0911  0.9434  0.4058
  162TMC2     O 2523   1.487   4.449   0.903  0.2498 -0.1291 -0.4420
  162TMC2     H 2524   1.288   4.394   0.996  0.0831  0.5752 -0.2538
  162TMC2    H1 2525   1.580   4.535   1.274  0.3336 -0.3505 -1.8886
  162TMC2    H2 2526   1.177   4.513   1.384 -1.0950 -1.2781 -0.0980
  162TMC2    C7 2527   1.417   4.545   1.481 -0.2569  0.1779 -0.0878
  162TMC2    C8 2528   1.104   4.361   1.179 -0.5069 -0.2681  0.1095
  162TMC2    O1 2529   1.381   4.644   1.543  0.3786  0.2245 -0.2952
  162TMC2    O2 2530   1.111   4.252   1.123 -0.0018 -0.7760 -0.0948
  162TMC2    O5 2531   0.992   4.430   1.203 -0.2750  0.1065 -0.7702
  162TMC2    H5 2532   1.005   4.525   1.221  0.0444  0.1954 -1.4571
  163MPD2     C 2533   1.974   4.549   0.798 -0.1870 -0.5240 -0.1347
  163MPD2    C1 2534   1.853   4.545   0.738  0.0741 -0.0944 -0.2524
  163MPD2    C2 2535   1.748   4.523   0.827  0.2052  0.2846 -0.4869
  163MPD2    C3 2536   1.769   4.504   0.959  0.1895 -0.8086  0.0491
  163MPD2    C4 2537   1.895   4.513   1.013  0.4551  0.3087  0.0319
  163MPD2    C5 2538   1.994   4.537   0.929  0.3074 -0.2018 -0.7411
  163MPD2     H 2539   1.649   4.507   0.783  0.4518 -0.6028 -0.7147
  163MPD2    H1 2540   1.918   4.499   1.118 -0.7997  2.4264  0.5926
  163MPD2    H2 2541   2.062   4.575   0.741  0.6915  0.3845  1.6552
  163MPD2    H3 2542   2.094   4.541   0.971 -0.5560  0.6454  1.2056
  163MPD2     N 2543   1.669   4.478   1.049  0.5660  0.4186  0.4011
  163MPD2    H5 2544   1.693   4.478   1.148  0.8666  0.9322  0.3267
  163MPD2    N1 2545   1.851   4.546   0.595 -0.0179  0.3932 -0.1707
  163MPD2    H7 2546   1.940   4.525   0.550  0.7376  1.5815  0.7819
  164TMC2    C1 2547   2.851   3.800  11.075 -0.7663  0.0845  0.0873
  164TMC2    C2 2548   2.974   3.869  11.083 -0.2398  0.0639  0.2266
  164TMC2    C3 2549   2.966   4.007  11.058 -0.5980  0.5238  0.4662
  164TMC2    C4 2550   2.732   3.861  11.057  0.1036  0.0838  0.3310
  164TMC2    C5 2551   2.730   3.995  11.051 -0.2340 -0.2710 -0.1822
  164TMC2    C6 2552   2.846   4.072  11.054  0.0524  0.3571 -0.2453
  164TMC2     C 2553   2.844   3.662  11.051 -0.3850 -0.4582 -0.2045
  164TMC2     O 2554   2.751   3.604  11.111  0.0786  0.4807  0.4831
  164TMC2     H 2555   3.067   3.818  11.108 -0.2021  0.4332  0.8294
  164TMC2    H1 2556   2.646   3.797  11.044 -0.8985  1.5899 -0.3892
  164TMC2    H2 2557   2.840   4.177  11.028  2.3504 -0.0095 -2.2324
  164TMC2    C7 2558   2.610   4.051  10.976  0.9524  0.6489 -0.3796
  164TMC2    C8 2559   3.080   4.086  11.104 -0.2929 -0.6844  0.3650
  164TMC2    O1 2560   2.535   3.979  10.912 -0.4007 -0.4429  1.1902
  164TMC2    O2 2561   3.195   4.041  11.107 -0.6419 -0.6680 -0.6292
  164TMC2    O5 2562   3.026   4.160  11.201  0.5229  0.0089  0.3801
  164TMC2    H5 2563   2.929   4.173  11.199  0.5975  0.5234  0.0218
  165TMC2    C1 2564   3.090   0.912   0.877  0.1052  0.6609 -0.3241
  165TMC2    C2 2565   3.124   0.819   0.776 -0.5293  0.1960 -0.0208
  165TMC2    C3 2566   3.256   0.825   0.740 -0.7345  0.0337 -0.0918
  165TMC2    C4 2567   3.174   1.006   0.931 -0.6106 -0.7213 -0.5396
  165TMC2    C5 2568   3.304   1.003   0.882  0.3822  0.9791  0.0715
  165TMC2    C6 2569   3.349   0.916   0.782 -0.1929  0.1280  0.9185
  165TMC2     C 2570   2.960   0.893   0.925  0.8286 -0.1287  0.2741
  165TMC2     O 2571   2.920   0.781   0.913  0.2949  0.1749 -0.3838
  165TMC2     H 2572   3.054   0.755   0.725  0.1697  1.0774 -2.0684
  165TMC2    H1 2573   3.141   1.079   1.003  1.0154 -0.5604  0.0474
  165TMC2    H2 2574   3.452   0.907   0.749 -0.1205  0.0723  1.1581
  165TMC2    C7 2575   3.401   1.090   0.946  0.4664 -0.7347 -0.5484
  165TMC2    C8 2576   3.298   0.715   0.654 -0.2172  0.4044  0.5865
  165TMC2    O1 2577   3.510   1.094   0.893  0.1202 -0.1761  0.2474
  165TMC2    O2 2578   3.380   0.729   0.567  0.0085 -0.0111 -0.4719
  165TMC2    O5 2579   3.243   0.599   0.685  0.0404 -0.0946 -0.1767
  165TMC2    H5 2580   3.199   0.601   0.773  1.8008  1.4063  0.6528
  166MPD2     C 2581   2.492   1.050   1.066  0.3907  0.0065  0.4753
  166MPD2    C1 2582   2.537   0.932   1.010 -0.2135  0.8079  0.2474
  166MPD2    C2 2583   2.668   0.911   0.988 -0.7331  0.1250 -0.2226
  166MPD2    C3 2584   2.759   1.018   1.001 -0.5253  0.2040  0.3717
  166MPD2    C4 2585   2.711   1.139   1.049 -0.3818 -0.7986  0.4945
  166MPD2    C5 2586   2.584   1.153   1.082  0.2990 -0.3647  0.5664
  166MPD2     H 2587   2.703   0.812   0.962  0.8736  0.7659 -0.5502
  166MPD2    H1 2588   2.772   1.226   1.071 -2.5587  0.6964  0.7003
  166MPD2    H2 2589   2.386   1.068   1.079  0.8562  2.3206  1.0051
  166MPD2    H3 2590   2.549   1.247   1.124 -1.4800 -0.7084 -0.1201
  166MPD2     N 2591   2.900   1.011   0.970  0.2740  0.2476 -0.3221
  166MPD2    H5 2592   2.955   1.096   0.975  0.2029  0.2231  0.8946
  166MPD2    N1 2593   2.440   0.828   1.002  0.1494 -0.0119  0.2668
  166MPD2    H7 2594   2.357   0.828   1.061 -0.1276  0.2438 -0.1197
  167TMC2    C1 2595   1.712   4.115  12.718  0.8860 -0.1081  0.1429
  167TMC2    C2 2596   1.697   4.174  12.842 -0.4179 -0.0802  0.4234
  167TMC2    C3 2597   1.678   4.083  12.942  0.1033 -0.2251  0.2697
  167TMC2    C4 2598   1.703   3.978  12.694 -0.2776  0.1160 -0.2786
  167TMC2    C5 2599   1.676   3.898  12.799  0.0272 -0.0220 -0.6056
  167TMC2    C6 2600   1.668   3.946  12.931 -0.0989  0.3368 -0.6705
  167TMC2     C 2601   1.724   4.214  12.610 -0.0302  0.5650 -0.3114
  167TMC2     O 2602   1.681   4.324  12.624 -0.7939 -0.8300  0.5973
  167TMC2     H 2603   1.700   4.280  12.864 -1.5441  0.1159 -0.4337
  167TMC2    H1 2604   1.702   3.929  12.597 -0.9760 -0.6923  0.1360
  167TMC2    H2 2605   1.665   3.891  13.024 -0.9630 -0.2434 -1.0463
  167TMC2    C7 2606   1.706   3.758  12.796 -0.0675 -0.4091 -0.2807
  167TMC2    C8 2607   1.739   4.121  13.068 -0.3387  0.3159  0.8822
  167TMC2    O1 2608   1.660   3.684  12.879 -0.0339 -0.5658  0.1372
  167TMC2    O2 2609   1.817   4.046  13.127  0.3578 -0.0254  1.0839
  167TMC2    O5 2610   1.648   4.199  13.131 -0.0487  0.7013 -0.5971
  167TMC2    H5 2611   1.570   4.215  13.073  0.1467 -0.4295 -1.1785
  168MPD2     C 2612   1.758   4.349  12.338  0.1058 -0.1213 -0.1218
  168MPD2    C1 2613   1.818   4.234  12.377 -0.2704  0.6373 -0.9942
  168MPD2    C2 2614   1.900   4.169  12.280  0.1372  0.4777 -0.3775
  168MPD2    C3 2615   1.923   4.216  12.151  0.0669  0.1500  0.0515
  168MPD2    C4 2616   1.862   4.342  12.126  0.9175  0.2619 -0.5507
  168MPD2    C5 2617   1.784   4.402  12.218  0.2283  0.3428 -0.2350
  168MPD2     H 2618   1.943   4.074  12.311  0.0422  0.8163  0.7841
  168MPD2    H1 2619   1.868   4.394  12.031 -1.2026 -0.4492 -1.0574
  168MPD2    H2 2620   1.697   4.412  12.401  2.3295  1.1034  0.8089
  168MPD2    H3 2621   1.729   4.493  12.200  1.3414  0.9534 -0.5795
  168MPD2     N 2622   2.003   4.157  12.047 -0.5196  0.5286  0.1371
  168MPD2    H5 2623   1.993   4.192  11.953  1.1301 -0.7135 -0.5054
  168MPD2    N1 2624   1.791   4.160  12.498  0.1589  0.3450  0.1441
  168MPD2    H7 2625   1.835   4.073  12.524  1.0765  1.1627  1.3087
  169MPD1     C 2626   0.541   2.797  10.192  0.1766 -0.2067  0.3959
  169MPD1    C1 2627   0.557   2.926  10.164  0.1884  0.5268  0.4811
  169MPD1    C2 2628   0.486   2.971  10.056  0.4555  0.4798 -0.3433
  169MPD1    C3 2629   0.422   2.890   9.959 -0.2336  0.3426  0.5079
  169MPD1    C4 2630   0.425   2.762   9.990  0.1080  0.4164  0.3520
  169MPD1    C5 2631   0.478   2.714  10.109  0.0461  0.3577  0.2726
  169MPD1     H 2632   0.493   3.079  10.050  0.4316  0.4524 -0.8656
  169MPD1    H1 2633   0.376   2.691   9.925  1.6713 -0.9773  0.7083
  169MPD1    H2 2634   0.579   2.761  10.287  1.0061 -2.2345 -0.7222
  169MPD1    H3 2635   0.490   2.608  10.126  3.7153  1.3016  3.5413
  169MPD1     N 2636   0.346   2.942   9.855  0.0760 -0.7789 -0.1877
  169MPD1    H5 2637   0.359   3.040   9.832 -0.2694 -0.7025 -0.0592
  169MPD1    N1 2638   0.604   3.014  10.263  0.1904  0.0469  0.4245
  169MPD1    H6 2639   0.619   3.102  10.214 -0.0271  0.3467  0.8974
  169MPD1    H7 2640   0.691   2.979  10.302  1.1350  1.4463 -0.4036
  170MPD1     C 2641   2.804   1.004  13.173 -0.4503  0.2535 -0.0508
  170MPD1    C1 2642   2.852   1.134  13.160 -0.4126  0.8586 -1.5283
  170MPD1    C2 2643   2.890   1.200  13.276 -0.4183  0.3905 -0.3314
  170MPD1    C3 2644   2.880   1.149  13.397 -1.3638 -0.3118  0.6046
  170MPD1    C4 2645   2.844   1.011  13.403  0.7046 -0.7152 -0.3848
  170MPD1    C5 2646   2.802   0.942  13.293 -0.5874 -0.0137  0.9577
  170MPD1     H 2647   2.940   1.296  13.268 -0.7977  0.7826  1.9942
  170MPD1    H1 2648   2.842   0.951  13.493  0.8349 -1.0651 -0.6152
  170MPD1    H2 2649   2.775   0.950  13.083 -1.2332 -0.6316  0.7308
  170MPD1    H3 2650   2.771   0.838  13.303 -3.4926  0.6111 -1.5174
  170MPD1     N 2651   2.928   1.220  13.508  0.2619 -0.0746 -0.0150
  170MPD1    H5 2652   2.967   1.311  13.487 -0.6524  0.3992  0.3676
  170MPD1    N1 2653   2.852   1.189  13.035  0.3178  0.7293 -0.0341
  170MPD1    H6 2654   2.890   1.283  13.040  1.2570  0.5107 -2.6718
  170MPD1    H7 2655   2.922   1.138  12.980 -0.2495 -1.6631  1.4550
  171MPD1     C 2656   0.948   2.168  15.972  0.2618  0.0152  0.1138
  171MPD1    C1 2657   0.973   2.259  15.870  0.0649  0.3278 -0.1794
  171MPD1    C2 2658   1.091   2.258  15.797  0.2163  0.2759 -0.0061
  171MPD1    C3 2659   1.188   2.165  15.832 -0.1519 -0.4257  0.1115
  171MPD1    C4 2660   1.162   2.073  15.936  0.3155 -0.2959 -0.1893
  171MPD1    C5 2661   1.045   2.074  16.007  0.0716  0.7183  0.0187
  171MPD1     H 2662   1.099   2.323  15.710  0.3392 -0.4944 -0.5675
  171MPD1    H1 2663   1.242   2.002  15.953  1.9960  1.0755 -2.4218
  171MPD1    H2 2664   0.856   2.168  16.030 -0.1049  1.0026 -0.4687
  171MPD1    H3 2665   1.028   1.997  16.081 -1.4477 -0.6943 -1.8107
  171MPD1     N 2666   1.319   2.155  15.772 -0.6262 -0.2169 -0.4767
  171MPD1    H5 2667   1.385   2.082  15.799 -1.5182 -1.1360 -0.7822
  171MPD1    N1 2668   0.872   2.344  15.826 -0.5679  0.0140  0.4571
  171MPD1    H6 2669   0.916   2.421  15.777 -0.3005 -0.8230 -0.6329
  171MPD1    H7 2670   0.808   2.356  15.904 -2.3257 -1.9020 -0.7023
  172MPD1     C 2671   0.467   1.094   0.275  0.9370 -0.5455  0.0886
  172MPD1    C1 2672   0.462   1.151   0.402  0.3915 -0.2262  0.0293
  172MPD1    C2 2673   0.557   1.247   0.433  0.0673 -0.4404  0.0469
  172MPD1    C3 2674   0.659   1.281   0.340  0.2611  0.3033 -0.2421
  172MPD1    C4 2675   0.664   1.224   0.217 -0.1663  0.8331 -0.3702
  172MPD1    C5 2676   0.570   1.123   0.181  0.2102  0.1279  0.1899
  172MPD1     H 2677   0.549   1.303   0.526  1.1013  0.5517 -0.4779
  172MPD1    H1 2678   0.734   1.253   0.139  0.5077 -0.9200 -0.4232
  172MPD1    H2 2679   0.396   1.021   0.240 -0.2694  1.4500 -1.6374
  172MPD1    H3 2680   0.580   1.079   0.083  1.8204  1.9003 -0.4345
  172MPD1     N 2681   0.751   1.386   0.368 -0.4989 -0.2892 -0.3192
  172MPD1    H5 2682   0.805   1.411   0.286 -0.9537  3.0176  0.3816
  172MPD1    N1 2683   0.363   1.115   0.491  0.9171  0.3262 -0.3961
  172MPD1    H6 2684   0.314   1.200   0.519 -1.1339 -0.2840 -2.0893
  172MPD1    H7 2685   0.298   1.049   0.448  0.0433  0.9499 -0.0314
  173MPD1     C 2686   2.875   2.119  13.761  0.2965 -0.2620 -0.1644
  173MPD1    C1 2687   2.739   2.096  13.750 -0.4132  0.2485  0.0218
  173MPD1    C2 2688   2.678   2.025  13.850 -0.7309 -0.2722  0.0457
  173MPD1    C3 2689   2.751   1.975  13.965  0.3100 -0.0639  0.3310
  173MPD1    C4 2690   2.885   1.995  13.969  0.1610  0.2274  0.8317
  173MPD1    C5 2691   2.945   2.063  13.864  0.2805 -1.5090 -0.0448
  173MPD1     H 2692   2.572   2.007  13.847 -0.8123  0.5305 -1.6294
  173MPD1    H1 2693   2.948   1.951  14.045 -0.5534 -1.9020  0.2100
  173MPD1    H2 2694   2.931   2.188  13.699 -0.3551  0.6101  0.2220
  173MPD1    H3 2695   3.053   2.075  13.858 -0.1580  2.2714 -0.1068
  173MPD1     N 2696   2.679   1.905  14.059  0.4394  0.3762 -0.7989
  173MPD1    H5 2697   2.580   1.889  14.043  0.3187  1.8051 -1.4702
  173MPD1    N1 2698   2.657   2.173  13.664 -0.1823 -0.2038  0.1795
  173MPD1    H6 2699   2.587   2.113  13.620  1.2117 -2.1980  0.6929
  173MPD1    H7 2700   2.717   2.207  13.589 -0.5633 -0.6370 -0.3174
  174MPD1     C 2701   2.446   1.026  14.656  0.6772  0.0489 -0.3843
  174MPD1    C1 2702   2.564   1.098  14.638  0.4327 -0.5411  0.1519
  174MPD1    C2 2703   2.567   1.204  14.556 -0.1333  0.4909  0.0122
  174MPD1    C3 2704   2.454   1.243  14.488 -0.1433  0.2983 -0.6501
  174MPD1    C4 2705   2.339   1.171  14.507 -0.2524 -0.0493  0.4519
  174MPD1    C5 2706   2.341   1.064  14.583 -0.7381  0.2161  0.4525
  174MPD1     H 2707   2.661   1.257  14.546 -1.2855  2.3711 -0.9447
  174MPD1    H1 2708   2.243   1.202  14.467  1.1885  1.3912 -1.9187
  174MPD1    H2 2709   2.442   0.941  14.722 -0.2414 -0.6671 -1.3661
  174MPD1    H3 2710   2.249   1.007  14.588 -1.5967  1.7931  2.5897
  174MPD1     N 2711   2.460   1.365  14.407  0.7485  0.3722  0.3938
  174MPD1    H5 2712   2.376   1.376  14.352  0.0920 -3.5758  0.6178
  174MPD1    N1 2713   2.679   1.069  14.715  0.3431 -0.3215 -0.1401
  174MPD1    H6 2714   2.693   0.969  14.727 -1.5935 -0.5462  0.2432
  174MPD1    H7 2715   2.763   1.102  14.670 -0.6940  1.3067 -0.8802
  175MPD1     C 2716   4.476   3.466  15.770 -0.6669  0.2135  0.7893
  175MPD1    C1 2717   4.477   3.460  15.905  0.1732  0.2504  0.0090
  175MPD1    C2 2718   4.560   3.365  15.963 -0.2037  0.0451 -0.1215
  175MPD1    C3 2719   4.631   3.270  15.895 -0.1510 -0.4498 -0.5204
  175MPD1    C4 2720   4.632   3.279  15.760 -1.0202  0.0912 -0.6466
  175MPD1    C5 2721   4.557   3.378  15.704  0.6735 -0.2725  1.0104
  175MPD1     H 2722   4.555   3.366  16.072  0.6326  0.1722 -0.0839
  175MPD1    H1 2723   4.699   3.223  15.696 -1.0796  2.0681 -2.4452
  175MPD1    H2 2724   4.421   3.545  15.720 -0.9986  0.1887  1.1146
  175MPD1    H3 2725   4.554   3.403  15.599  1.2435  0.5742  1.2025
  175MPD1     N 2726   4.703   3.170  15.958  0.1272 -0.4784 -0.5219
  175MPD1    H5 2727   4.718   3.092  15.895  0.6661 -1.5962  0.9843
  175MPD1    N1 2728   4.437   3.569  15.978 -0.1560  0.1798 -0.5847
  175MPD1    H6 2729   4.358   3.621  15.942 -1.7083 -0.4658  1.9278
  175MPD1    H7 2730   4.419   3.557  16.077 -0.8996  0.5109 -0.6762
  176MPD1     C 2731   2.540   0.493  17.718  0.0878 -0.2094 -0.1207
  176MPD1    C1 2732   2.494   0.494  17.585 -0.0298 -0.2232  0.2958
  176MPD1    C2 2733   2.429   0.609  17.535 -0.0777  0.4064 -0.0425
  176MPD1    C3 2734   2.401   0.713  17.620  0.7119 -0.2334 -0.8846
  176MPD1    C4 2735   2.448   0.702  17.748 -0.1560  0.5006 -0.1316
  176MPD1    C5 2736   2.521   0.602   0.031  0.5203 -0.5416  0.3720
  176MPD1     H 2737   2.402   0.618  17.431  1.5407  2.5281 -0.2844
  176MPD1    H1 2738   2.457   0.790   0.047  0.3570 -1.1748  2.1228
  176MPD1    H2 2739   2.590   0.406  17.758 -0.1745 -1.2152 -2.0107
  176MPD1    H3 2740   2.551   0.601   0.136 -0.4459  1.8163  0.6648
  176MPD1     N 2741   2.343   0.832  17.566 -0.4150 -0.3427 -0.5421
  176MPD1    H5 2742   2.340   0.851  17.466  0.3799  2.6233  0.0006
  176MPD1    N1 2743   2.516   0.387  17.500 -0.0576  0.2230  0.1292
  176MPD1    H6 2744   2.444   0.378  17.428  1.7188 -2.2446 -1.3622
  176MPD1    H7 2745   2.545   0.303  17.550  1.6161  1.0604  0.5524
  177MPD1     C 2746   0.974   4.526  10.322  0.2100 -0.5274 -0.1516
  177MPD1    C1 2747   0.960   4.605  10.215  0.4363  0.1236  0.2939
  177MPD1    C2 2748   0.860   4.570  10.120  0.1119  0.0937 -0.0112
  177MPD1    C3 2749   0.766   4.469  10.144  0.4826  0.0541  0.0301
  177MPD1    C4 2750   0.785   4.391  10.254 -0.6386 -0.2236 -0.5364
  177MPD1    C5 2751   0.886   4.423  10.338  0.4011 -0.2320 -0.3459
  177MPD1     H 2752   0.875   4.611  10.021  3.8163 -1.7517 -0.1801
  177MPD1    H1 2753   0.721   4.308  10.283  3.4635 -2.7176  1.4183
  177MPD1    H2 2754   1.054   4.540  10.394  0.9457  1.0299 -1.2658
  177MPD1    H3 2755   0.895   4.350  10.418 -2.4642 -0.8229 -0.5415
  177MPD1     N 2756   0.672   4.443  10.039  0.0559 -0.7473 -0.4375
  177MPD1    H5 2757   0.671   4.510   9.963  0.6934 -2.5039 -1.9955
  177MPD1    N1 2758   1.054   4.702  10.180 -0.9384 -0.3323  0.0173
  177MPD1    H6 2759   1.018   0.038  10.125  0.1005 -0.4084 -0.7657
  177MPD1    H7 2760   1.092   4.737  10.268  1.0776 -3.3429  0.3725
  178MPD1     C 2761   2.789   0.447   0.333  0.7748  0.3830  0.1172
  178MPD1    C1 2762   2.784   0.582   0.321  0.5711 -0.8068 -0.2301
  178MPD1    C2 2763   2.808   0.645   0.197  0.1301  0.5013 -0.4473
  178MPD1    C3 2764   2.845   0.566   0.084 -0.1101 -0.7945  0.4465
  178MPD1    C4 2765   2.853   0.430   0.106 -0.4122 -0.6898  0.4673
  178MPD1    C5 2766   2.827   0.373   0.225  0.1771  0.9855  0.5295
  178MPD1     H 2767   2.807   0.753   0.190 -0.5181  0.6223  1.5844
  178MPD1    H1 2768   2.877   0.362   0.025 -0.5034  0.5667 -0.6091
  178MPD1    H2 2769   2.771   0.390   0.424  0.3112 -0.7567 -0.6893
  178MPD1    H3 2770   2.835   0.266   0.238  1.6957  1.1531  0.9947
  178MPD1     N 2771   2.876   0.624  17.718 -0.2084  0.2671  0.4836
  178MPD1    H5 2772   2.863   0.560  17.641 -0.8729  1.8258 -0.7137
  178MPD1    N1 2773   2.799   0.657   0.435  0.5927 -0.0411  0.2878
  178MPD1    H6 2774   2.739   0.740   0.436  1.9422  0.9259  1.5294
  178MPD1    H7 2775   2.796   0.609   0.525 -0.1492 -1.6264 -0.5965
  179MPD1     C 2776   3.051   3.437  15.480 -0.7857 -0.1701  0.5879
  179MPD1    C1 2777   2.936   3.442  15.395 -0.2128  0.1903  0.1837
  179MPD1    C2 2778   2.814   3.406  15.460  0.0502 -0.1515  0.4522
  179MPD1    C3 2779   2.814   3.343  15.588 -0.0036  0.2026  0.0972
  179MPD1    C4 2780   2.934   3.317  15.648 -0.3631 -0.6996  0.1286
  179MPD1    C5 2781   3.055   3.368  15.597 -0.3422 -0.1553 -0.6192
  179MPD1     H 2782   2.727   3.409  15.395 -0.7581  1.9554  1.6669
  179MPD1    H1 2783   2.937   3.262  15.741 -0.2921 -0.6286  0.1682
  179MPD1    H2 2784   3.143   3.487  15.454 -0.0827 -1.0933  1.2961
  179MPD1    H3 2785   3.139   3.354  15.664 -0.0006 -0.0596 -1.0345
  179MPD1     N 2786   2.698   3.313  15.656  0.9033  0.2559  0.6351
  179MPD1    H5 2787   2.710   3.274  15.749  1.6007 -1.9454 -0.3635
  179MPD1    N1 2788   2.946   3.509  15.277  0.1131  0.3790  0.5756
  179MPD1    H6 2789   3.038   3.506  15.234 -0.1078  1.9588 -0.0116
  179MPD1    H7 2790   2.871   3.491  15.211  0.4063  1.3194 -0.0163
  180MPD1     C 2791   3.144   0.102  15.202  0.6162 -0.3507 -0.7126
  180MPD1    C1 2792   3.171   0.164  15.082  0.1168 -0.0819  0.4525
  180MPD1    C2 2793   3.083   0.148  14.977 -0.1634  0.0025 -0.1856
  180MPD1    C3 2794   2.958   0.085  14.994  0.1467  0.0003 -0.6922
  180MPD1    C4 2795   2.929   0.032  15.119  0.0747  0.7764  0.1036
  180MPD1    C5 2796   3.023   0.045  15.213  0.1198 -0.2476  0.2145
  180MPD1     H 2797   3.113   0.189  14.881 -1.7366  1.8493  0.1068
  180MPD1    H1 2798   2.848   4.703  15.137  1.8349 -1.6801 -1.5587
  180MPD1    H2 2799   3.218   0.104  15.282 -1.4308 -0.8123  1.2004
  180MPD1    H3 2800   2.997   0.000  15.308 -0.4592  1.4373  0.8501
  180MPD1     N 2801   2.870   0.096  14.882 -0.4728 -0.3360 -0.1640
  180MPD1    H5 2802   2.906   0.142  14.799 -1.6994  2.3888  0.8270
  180MPD1    N1 2803   3.305   0.198  15.060 -0.5434 -0.1804  0.5204
  180MPD1    H6 2804   3.318   0.249  14.973 -0.6462 -1.1833 -0.0784
  180MPD1    H7 2805   3.336   0.252  15.141 -3.4702  0.7143  1.0522
  181MPD1     C 2806   3.482   1.019  10.074 -0.3586 -0.0005  0.4888
  181MPD1    C1 2807   3.504   1.128  10.155  0.6326 -0.1987 -0.0088
  181MPD1    C2 2808   3.612   1.211  10.134  0.8552  0.1776 -0.1585
  181MPD1    C3 2809   3.700   1.183  10.034  0.5214 -0.4625 -0.2454
  181MPD1    C4 2810   3.684   1.071   9.953 -0.3021 -0.2606  0.1538
  181MPD1    C5 2811   3.563   0.998   9.968  0.3836  0.6908 -0.0775
  181MPD1     H 2812   3.629   1.300  10.194  1.8867  0.6079 -1.0900
  181MPD1    H1 2813   3.758   1.043   9.879  0.7360 -0.4049  1.2598
  181MPD1    H2 2814   3.406   0.943  10.087  1.3070 -1.5293  1.2822
  181MPD1    H3 2815   3.533   0.918   9.902  0.2982 -1.9384  3.1385
  181MPD1     N 2816   3.815   1.259  10.008  0.1211  0.3719  0.1267
  181MPD1    H5 2817   3.879   1.228   9.934  1.1401  1.0913  0.7038
  181MPD1    N1 2818   3.432   1.139  10.278  0.4220  0.4303 -0.7425
  181MPD1    H6 2819   3.337   1.107  10.260 -0.0996  1.7528 -0.3746
  181MPD1    H7 2820   3.423   1.235  10.311 -2.7853 -0.1986  0.1912
  182MPD1     C 2821   0.634   0.571   1.357 -0.0743  0.4499 -0.7907
  182MPD1    C1 2822   0.662   0.597   1.226 -0.1207  0.2403 -0.4297
  182MPD1    C2 2823   0.567   0.560   1.132 -0.3128 -0.3600  0.0090
  182MPD1    C3 2824   0.437   0.528   1.169 -0.8116  0.1261  0.1401
  182MPD1    C4 2825   0.405   0.528   1.303 -0.5302 -0.3591  0.0333
  182MPD1    C5 2826   0.508   0.530   1.393 -0.1852 -0.4816 -0.2119
  182MPD1     H 2827   0.596   0.549   1.028  1.0814 -0.6797  0.4448
  182MPD1    H1 2828   0.299   0.522   1.320 -0.4836  0.4148  0.6053
  182MPD1    H2 2829   0.709   0.592   1.432  0.3359  0.7572 -1.2907
  182MPD1    H3 2830   0.482   0.521   1.498 -0.5934  1.7637 -0.1311
  182MPD1     N 2831   0.338   0.513   1.072 -0.3520  0.3502  0.0660
  182MPD1    H5 2832   0.242   0.504   1.104 -0.1893 -0.3454  0.3457
  182MPD1    N1 2833   0.792   0.634   1.186 -0.8658 -0.1081  0.0137
  182MPD1    H6 2834   0.850   0.676   1.258  0.3256 -1.9822  0.1438
  182MPD1    H7 2835   0.797   0.689   1.100 -2.9008 -1.3025 -0.8742
  183MPD1     C 2836   0.570   1.480   8.698 -0.1590  0.1460 -0.0024
  183MPD1    C1 2837   0.594   1.498   8.834  0.5029 -0.5257 -0.5140
  183MPD1    C2 2838   0.502   1.563   8.919  0.3484 -0.1958 -0.6635
  183MPD1    C3 2839   0.381   1.595   8.865 -0.0909 -0.1442 -0.4090
  183MPD1    C4 2840   0.361   1.590   8.728 -0.7604 -0.1646  0.9995
  183MPD1    C5 2841   0.459   1.532   8.652 -0.2160 -0.9764 -0.2080
  183MPD1     H 2842   0.526   1.579   9.024 -0.3391 -0.7882 -0.4134
  183MPD1    H1 2843   0.266   1.614   8.682  1.0488  1.7463 -1.7248
  183MPD1    H2 2844   0.634   1.416   8.638 -2.2229 -0.5023 -1.5241
  183MPD1    H3 2845   0.439   1.521   8.546  1.8855 -1.6994 -0.5352
  183MPD1     N 2846   0.273   1.619   8.956 -0.7195 -0.4672 -0.3156
  183MPD1    H5 2847   0.299   1.619   9.055  0.5846  0.9421 -0.6518
  183MPD1    N1 2848   0.719   1.458   8.877  0.0980  0.0429 -0.1067
  183MPD1    H6 2849   0.721   1.459   8.979  2.8168  1.8307 -0.1991
  183MPD1    H7 2850   0.755   1.369   8.843  1.5963  1.1304 -1.4009
  184MPD1     C 2851   4.535   3.568  10.086 -0.1570 -0.1049 -0.1011
  184MPD1    C1 2852   4.466   3.539   9.974 -0.5563  0.0372  0.6144
  184MPD1    C2 2853   4.476   3.627   9.873  0.0175 -0.6475  0.0113
  184MPD1    C3 2854   4.573   3.730   9.874  0.2688  0.1746  0.1162
  184MPD1    C4 2855   4.654   3.735   9.981 -0.1892 -0.4582 -0.3736
  184MPD1    C5 2856   4.635   3.656  10.088  0.2128 -0.0674  0.3181
  184MPD1     H 2857   4.413   3.615   9.785 -2.8561  0.0039  1.9661
  184MPD1    H1 2858   4.735   3.806   9.991 -0.3609 -0.4905  1.2351
  184MPD1    H2 2859   4.523   3.498  10.168  1.9584 -0.3027  0.0490
  184MPD1    H3 2860   4.713   3.654  10.163 -1.2355  0.1522  1.8095
  184MPD1     N 2861   4.600   3.826   9.778 -0.1210 -0.5009 -0.1864
  184MPD1    H5 2862   4.667   3.897   9.806  1.5447 -2.1706  0.0320
  184MPD1    N1 2863   4.360   3.442   9.977  0.2408  0.2646  0.3141
  184MPD1    H6 2864   4.359   3.374  10.052 -0.8030  1.1626  1.1163
  184MPD1    H7 2865   4.344   3.389   9.892  2.0755 -0.5814  0.5134
  185MPD1     C 2866   0.062   3.647   8.828  0.4876  0.0140 -0.5507
  185MPD1    C1 2867   0.149   3.740   8.877 -0.2748  0.3147 -0.2388
  185MPD1    C2 2868   0.113   3.796   8.999 -0.0371 -0.4010 -0.3498
  185MPD1    C3 2869   4.737   3.775   9.062  0.0851  0.3769  0.0234
  185MPD1    C4 2870   4.653   3.679   9.006 -0.5416  0.2386  0.0307
  185MPD1    C5 2871   4.691   3.621   8.893 -0.5213  0.5870  0.0782
  185MPD1     H 2872   0.182   3.862   9.050 -0.0648 -1.3969  1.0003
  185MPD1    H1 2873   4.566   3.641   9.058  0.7186 -1.6836  0.7192
  185MPD1    H2 2874   0.073   3.603   8.729 -0.3440  1.1687 -1.1565
  185MPD1    H3 2875   4.624   3.541   8.865  1.2150 -0.8721  0.0460
  185MPD1     N 2876   4.688   3.841   9.178  1.1629  0.1227  0.4164
  185MPD1    H5 2877   4.600   3.800   9.210  0.7421  1.9540  1.5978
  185MPD1    N1 2878   0.274   3.762   8.822  0.2929 -0.4848  0.3303
  185MPD1    H6 2879   0.328   3.842   8.853  1.1536 -0.4742 -1.2250
  185MPD1    H7 2880   0.286   3.755   8.721  2.1810 -1.7398  0.6360
  186MPD1     C 2881   2.702   0.114  15.735 -0.6315 -0.0242  0.4170
  186MPD1    C1 2882   2.637   0.097  15.852 -0.6117 -0.2110  1.1550
  186MPD1    C2 2883   2.649   4.720  15.919 -0.1657 -0.3331  0.1025
  186MPD1    C3 2884   2.702   4.606  15.863 -0.1333 -1.1550 -0.5852
  186MPD1    C4 2885   2.756   4.619  15.739 -0.4421 -0.8860  0.8140
  186MPD1    C5 2886   2.761   0.007  15.677  0.3878  0.1546 -0.3064
  186MPD1     H 2887   2.604   4.712  16.018 -4.5178  0.6582 -1.8017
  186MPD1    H1 2888   2.819   4.550  15.684 -0.5881 -0.8764  0.6330
  186MPD1    H2 2889   2.705   0.208  15.681 -1.5717 -0.6296 -0.6844
  186MPD1    H3 2890   2.811   0.004  15.581 -1.2109 -1.2017 -1.1166
  186MPD1     N 2891   2.723   4.484  15.930  0.3183 -0.3723  0.0412
  186MPD1    H5 2892   2.771   4.413  15.875 -2.2834 -0.7500 -1.7050
  186MPD1    N1 2893   2.585   0.203  15.916  0.0808 -0.4800 -0.8218
  186MPD1    H6 2894   2.519   0.172  15.986  0.0265  1.1677 -0.1511
  186MPD1    H7 2895   2.539   0.278  15.865  0.9127 -0.6617 -1.8644
  187MPD1     C 2896   1.939   0.699  17.642 -0.5323 -0.0053  0.4019
  187MPD1    C1 2897   1.945   0.829  17.670  0.0750  0.2880 -0.7518
  187MPD1    C2 2898   1.893   0.915  17.579 -0.1887 -0.0200  0.2954
  187MPD1    C3 2899   1.844   0.880  17.453  0.2835  0.2009  0.4680
  187MPD1    C4 2900   1.821   0.743  17.438 -0.1634  0.2891  0.4264
  187MPD1    C5 2901   1.880   0.661  17.529  0.5933  0.3269 -0.0548
  187MPD1     H 2902   1.886   1.021  17.601 -0.3586  0.2815 -1.1747
  187MPD1    H1 2903   1.759   0.710  17.356  0.4928 -0.6253  0.3060
  187MPD1    H2 2904   1.978   0.627  17.713  0.0545 -0.5092 -0.4213
  187MPD1    H3 2905   1.877   0.554  17.507  2.0828  0.4035 -0.6149
  187MPD1     N 2906   1.789   0.973  17.355  0.0035 -0.0603  0.1219
  187MPD1    H5 2907   1.767   0.940  17.262  1.9521  1.0041 -0.7154
  187MPD1    N1 2908   1.965   0.860   0.045  0.2676  0.1853  0.2102
  187MPD1    H6 2909   2.032   0.793   0.081  0.8691 -0.1077 -1.4799
  187MPD1    H7 2910   2.001   0.954   0.059  0.1728  0.1115  0.9515
  188MPD1     C 2911   3.059   4.699  10.380  0.9645 -0.2394  0.4124
  188MPD1    C1 2912   2.958   0.006  10.301 -0.0459  0.3924  1.0111
  188MPD1    C2 2913   2.865   4.659  10.252 -0.2148 -0.6405  0.0979
  188MPD1    C3 2914   2.859   4.526  10.302 -0.1930 -0.8193 -0.0922
  188MPD1    C4 2915   2.964   4.478  10.373  0.0705 -0.1528 -0.2507
  188MPD1    C5 2916   3.064   4.560  10.407 -0.7992  0.4330 -0.0235
  188MPD1     H 2917   2.796   4.691  10.175 -0.4528 -0.1795  0.5110
  188MPD1    H1 2918   2.970   4.378  10.413  0.7262 -0.4332 -1.0472
  188MPD1    H2 2919   3.146   0.018  10.399  2.0332 -0.2631 -4.3522
  188MPD1    H3 2920   3.147   4.531  10.470 -0.4669  2.6194  0.5775
  188MPD1     N 2921   2.747   4.441  10.277 -0.1383 -0.4494  0.5588
  188MPD1    H5 2922   2.751   4.344  10.309 -0.6407 -0.4179  0.7229
  188MPD1    N1 2923   2.970   0.138  10.253 -0.3949 -0.3563  1.0765
  188MPD1    H6 2924   3.003   0.206  10.321  0.8866  0.7389 -0.6438
  188MPD1    H7 2925   2.881   0.180  10.227 -1.0427 -1.0780  2.1512
  189MPD1     C 2926   3.579   2.247   0.917 -0.2753 -0.0849 -0.6379
  189MPD1    C1 2927   3.522   2.355   0.858 -0.1454 -0.6880 -0.0358
  189MPD1    C2 2928   3.443   2.341   0.741  0.5645  0.3684  0.4736
  189MPD1    C3 2929   3.415   2.210   0.692 -0.0182 -0.6864  0.1248
  189MPD1    C4 2930   3.474   2.100   0.754 -0.4517  0.0006 -0.1131
  189MPD1    C5 2931   3.564   2.124   0.853  0.3565  0.3865 -0.8635
  189MPD1     H 2932   3.399   2.427   0.693  1.3616  1.6086  1.9618
  189MPD1    H1 2933   3.467   2.000   0.713 -1.3840  0.5626 -1.3250
  189MPD1    H2 2934   3.655   2.262   0.993 -1.6981  4.3311 -0.0597
  189MPD1    H3 2935   3.615   2.039   0.897 -2.5096 -0.6473  0.4080
  189MPD1     N 2936   3.338   2.201   0.574  0.1962 -0.2043 -0.3332
  189MPD1    H5 2937   3.305   2.290   0.537 -0.1672  0.4372  1.5212
  189MPD1    N1 2938   3.559   2.489   0.904 -0.0529 -0.7436  0.4718
  189MPD1    H6 2939   3.496   2.566   0.883 -0.4266 -1.4485 -0.9545
  189MPD1    H7 2940   3.572   2.487   1.005  0.0394  0.6085  0.4928
  190MPD1     C 2941   2.612   1.075  15.583 -0.0606 -0.1844  0.2758
  190MPD1    C1 2942   2.736   1.072  15.640 -0.1571  1.0569 -0.0479
  190MPD1    C2 2943   2.788   0.944  15.660 -0.0456  0.1532 -0.6453
  190MPD1    C3 2944   2.721   0.833  15.626 -0.2028  0.4309 -0.4610
  190MPD1    C4 2945   2.592   0.836  15.581 -0.4902  0.5477  0.4284
  190MPD1    C5 2946   2.546   0.963  15.550  0.5314  0.5637 -0.5490
  190MPD1     H 2947   2.888   0.930  15.698  0.6251 -0.7452 -2.7708
  190MPD1    H1 2948   2.531   0.749  15.561 -0.5368  0.9444 -1.1539
  190MPD1    H2 2949   2.568   1.174  15.572  0.3492  0.0282  0.5435
  190MPD1    H3 2950   2.452   0.973  15.497  2.7076 -1.5171 -4.7537
  190MPD1     N 2951   2.791   0.713  15.647 -0.6540  0.1335  0.2400
  190MPD1    H5 2952   2.890   0.719  15.666 -0.4738  0.6321 -0.8365
  190MPD1    N1 2953   2.799   1.193  15.676  0.0940 -0.3174 -0.4375
  190MPD1    H6 2954   2.733   1.260  15.713 -0.0656 -0.5874 -0.2362
  190MPD1    H7 2955   2.866   1.183  15.752 -2.7518 -0.4075  2.0051
  191MPD1     C 2956   1.805   1.234  13.136  0.5222 -0.3021  0.5868
  191MPD1    C1 2957   1.851   1.325  13.049  0.1158 -0.4394 -0.1770
  191MPD1    C2 2958   1.786   1.445  13.049  0.4517 -0.1834  0.3176
  191MPD1    C3 2959   1.714   1.488  13.158  0.2907 -0.6148 -0.0402
  191MPD1    C4 2960   1.669   1.388  13.250  0.3291  0.4182  0.2161
  191MPD1    C5 2961   1.713   1.265  13.230  0.7730 -0.1395  0.1385
  191MPD1     H 2962   1.804   1.521  12.975 -0.9253 -0.6849 -0.5341
  191MPD1    H1 2963   1.605   1.402  13.336  0.8550 -0.4002  0.7458
  191MPD1    H2 2964   1.848   1.134  13.138  2.1369  0.3989  0.8162
  191MPD1    H3 2965   1.687   1.181  13.294  1.4441  0.4710  1.2145
  191MPD1     N 2966   1.655   1.620  13.155 -0.1093  0.2458 -0.5662
  191MPD1    H5 2967   1.682   1.672  13.073 -0.3496 -1.2893 -1.6212
  191MPD1    N1 2968   1.925   1.285  12.936 -0.0571  0.0621  0.3283
  191MPD1    H6 2969   1.982   1.358  12.895  2.7998 -0.9901  2.4553
  191MPD1    H7 2970   1.988   1.208  12.954 -0.8591 -0.6638  0.0391
  192MPD1     C 2971   0.937   2.383  13.485 -0.3551  0.1358  0.1973
  192MPD1    C1 2972   0.935   2.249  13.520  0.2563  0.3189 -0.0282
  192MPD1    C2 2973   1.039   2.171  13.476 -0.7517 -0.1683 -0.2308
  192MPD1    C3 2974   1.150   2.223  13.420 -0.3974 -0.8246  0.3310
  192MPD1    C4 2975   1.158   2.360  13.404 -0.4277  0.4335 -0.5046
  192MPD1    C5 2976   1.050   2.437  13.431  0.2304 -0.2349  0.0003
  192MPD1     H 2977   1.037   2.065  13.497 -0.1880  0.6412  3.8502
  192MPD1    H1 2978   1.245   2.409  13.362  0.0767  0.2729  0.3652
  192MPD1    H2 2979   0.856   2.454  13.497 -1.5720 -1.1816 -0.1936
  192MPD1    H3 2980   1.057   2.544  13.411 -2.9491  0.0095  0.1169
  192MPD1     N 2981   1.261   2.145  13.375  0.6002 -0.5484 -0.7745
  192MPD1    H5 2982   1.344   2.196  13.345 -0.1625  0.0541 -1.8525
  192MPD1    N1 2983   0.816   2.186  13.567 -0.2701 -0.4027 -0.4604
  192MPD1    H6 2984   0.831   2.135  13.653  2.4589  2.0015  0.4807
  192MPD1    H7 2985   0.745   2.254  13.592 -2.7907 -2.5153 -1.8117
  193MPD1     C 2986   1.450   2.184  16.102  0.7180  0.2575 -0.5674
  193MPD1    C1 2987   1.395   2.288  16.175 -0.0799  0.2112  0.1790
  193MPD1    C2 2988   1.483   2.350  16.260  0.3636 -0.5526  0.1935
  193MPD1    C3 2989   1.596   2.287  16.300  0.2309 -0.1436 -0.4025
  193MPD1    C4 2990   1.644   2.179  16.237  0.3262 -0.2320 -1.1937
  193MPD1    C5 2991   1.558   2.120  16.142 -0.6900  0.8405 -0.4414
  193MPD1     H 2992   1.451   2.444  16.305  0.9374  0.7137 -2.0204
  193MPD1    H1 2993   1.746   2.142  16.241  0.0131 -0.9800 -0.1866
  193MPD1    H2 2994   1.402   2.136  16.018  0.6336  0.5565 -0.6898
  193MPD1    H3 2995   1.588   2.037  16.078  0.4572  0.6430  0.3418
  193MPD1     N 2996   1.679   2.335  16.408  0.0468 -0.1529 -0.0655
  193MPD1    H5 2997   1.761   2.276  16.422 -0.3752 -1.2267 -2.0951
  193MPD1    N1 2998   1.277   2.345  16.124 -0.7772 -0.1801 -0.1929
  193MPD1    H6 2999   1.226   2.394  16.197  1.6057 -0.8360  1.8934
  193MPD1    H7 3000   1.215   2.284  16.071  0.7676 -0.7570 -1.3556
  194MPD1     C 3001   4.179   4.127  16.672 -0.1074  0.0656 -0.1982
  194MPD1    C1 3002   4.212   4.211  16.777  0.1434 -0.2726  0.1490
  194MPD1    C2 3003   4.309   4.165  16.862  0.0124  0.3766 -1.2034
  194MPD1    C3 3004   4.366   4.042  16.853  0.2175  0.0709  0.1771
  194MPD1    C4 3005   4.325   3.952  16.756  0.4176  0.5795 -0.1416
  194MPD1    C5 3006   4.230   3.998  16.671 -0.2155  0.5824 -0.0269
  194MPD1     H 3007   4.351   4.233  16.935  0.8664  1.7443 -2.9666
  194MPD1    H1 3008   4.365   3.852  16.749 -1.2594 -0.1949  1.0156
  194MPD1    H2 3009   4.113   4.170  16.598  1.7434 -0.3534 -2.0868
  194MPD1    H3 3010   4.204   3.937  16.585  2.4058  0.1734 -0.5128
  194MPD1     N 3011   4.482   3.996  16.921 -0.2902  0.1713  0.6204
  194MPD1    H5 3012   4.508   3.899  16.903 -0.5461  0.5131 -1.5882
  194MPD1    N1 3013   4.157   4.334  16.788 -0.1474 -0.0629 -0.5671
  194MPD1    H6 3014   4.064   4.339  16.746 -1.2240 -3.0834  1.4974
  194MPD1    H7 3015   4.158   4.376  16.880 -0.1325 -1.1173 -0.0840
  195MPD1     C 3016   1.486   1.709   1.117 -0.6423 -0.8767 -0.5846
  195MPD1    C1 3017   1.385   1.628   1.073 -0.4211  0.5609  0.8596
  195MPD1    C2 3018   1.390   1.574   0.948 -0.5094 -0.1650  1.3185
  195MPD1    C3 3019   1.503   1.594   0.872  0.0211  0.3962  0.3182
  195MPD1    C4 3020   1.602   1.680   0.924  0.2917  0.1043 -0.1458
  195MPD1    C5 3021   1.598   1.731   1.046 -0.2825 -0.0940 -0.0705
  195MPD1     H 3022   1.311   1.509   0.914  0.3200  0.1572 -1.2417
  195MPD1    H1 3023   1.692   1.686   0.865  1.7137 -0.2493  1.9947
  195MPD1    H2 3024   1.479   1.734   1.223 -1.4660  1.2065 -1.1309
  195MPD1    H3 3025   1.673   1.801   1.080 -1.3852  2.1484 -2.2738
  195MPD1     N 3026   1.534   1.533   0.750 -0.6866  0.3087  0.1316
  195MPD1    H5 3027   1.629   1.551   0.720 -0.1587 -0.2252  1.4563
  195MPD1    N1 3028   1.282   1.604   1.164  0.2703  0.3356  0.5122
  195MPD1    H6 3029   1.244   1.683   1.217 -1.9263 -1.3075  1.4099
  195MPD1    H7 3030   1.202   1.548   1.136 -1.2881  2.7754  0.0219
  196MPD1     C 3031   0.856   0.270  17.496  0.8108  0.2229  0.2653
  196MPD1    C1 3032   0.940   0.361  17.557 -0.4352  0.7652 -0.7005
  196MPD1    C2 3033   0.925   0.383  17.691 -0.5391  0.1113 -0.2358
  196MPD1    C3 3034   0.855   0.303   0.014 -0.9011 -0.1666  0.2666
  196MPD1    C4 3035   0.790   0.200  17.715 -0.0887  0.1362 -0.5954
  196MPD1    C5 3036   0.790   0.186  17.581 -0.8249 -0.9326  0.1757
  196MPD1     H 3037   0.962   0.476  17.734  1.3341 -0.3337 -0.9102
  196MPD1    H1 3038   0.733   0.128   0.009 -0.9472  1.4985  0.2696
  196MPD1    H2 3039   0.857   0.249  17.390  2.9354 -1.3124  0.6167
  196MPD1    H3 3040   0.737   0.098  17.545 -0.5329 -0.6064 -1.0450
  196MPD1     N 3041   0.858   0.308   0.159 -0.9252 -0.1686 -0.5626
  196MPD1    H5 3042   0.802   0.233   0.197  0.2730 -1.0091 -0.4649
  196MPD1    N1 3043   0.986   0.466  17.482  0.6948 -0.0327 -0.1844
  196MPD1    H6 3044   1.017   0.445  17.388  2.4187  0.1858  0.3347
  196MPD1    H7 3045   1.058   0.522  17.527  2.9131 -1.4023 -2.0358
  197MPD1     C 3046   1.759   1.693  16.529  0.5105 -0.4683 -0.0302
  197MPD1    C1 3047   1.752   1.740  16.660 -0.6296 -0.4607  0.2868
  197MPD1    C2 3048   1.691   1.864  16.676  0.3220  0.2852  0.2363
  197MPD1    C3 3049   1.622   1.925  16.577  0.0611 -0.0729  0.3930
  197MPD1    C4 3050   1.638   1.875  16.450  0.3752  0.6164  0.3424
  197MPD1    C5 3051   1.700   1.758  16.421 -0.2150 -0.2044 -0.0862
  197MPD1     H 3052   1.710   1.916  16.769  0.0933 -1.4303  1.2443
  197MPD1    H1 3053   1.591   1.922  16.364 -0.8341  0.8034  1.0920
  197MPD1    H2 3054   1.806   1.597  16.516 -1.4186 -1.2780 -1.0190
  197MPD1    H3 3055   1.705   1.707  16.326  0.7526  0.4231 -0.3636
  197MPD1     N 3056   1.529   2.031  16.594  0.3814  0.4183  0.4152
  197MPD1    H5 3057   1.480   2.068  16.513  0.1981  0.3973  0.5188
  197MPD1    N1 3058   1.845   1.688  16.755  0.7882 -0.6093 -0.0109
  197MPD1    H6 3059   1.807   1.711  16.847 -0.5899 -3.7571  0.1949
  197MPD1    H7 3060   1.847   1.587  16.748 -0.3435 -0.6244 -0.0777
  198MPD1     C 3061   1.317   1.232  15.325  1.1479 -0.1995  0.0556
  198MPD1    C1 3062   1.354   1.280  15.453 -0.7563  0.4451 -0.4893
  198MPD1    C2 3063   1.490   1.294  15.484  0.3655  0.1562 -0.0843
  198MPD1    C3 3064   1.589   1.284  15.389  0.5318 -0.2460  0.5497
  198MPD1    C4 3065   1.548   1.252  15.260 -0.7748 -0.7111  0.0473
  198MPD1    C5 3066   1.418   1.225  15.227 -0.0479 -0.3727 -0.2713
  198MPD1     H 3067   1.520   1.315  15.586  0.0009  2.0358 -0.3719
  198MPD1    H1 3068   1.624   1.251  15.182 -0.1295 -2.2877  0.6901
  198MPD1    H2 3069   1.216   1.212  15.291  0.7103  0.4078  1.0020
  198MPD1    H3 3070   1.387   1.184  15.131 -1.1322 -0.5687  0.1584
  198MPD1     N 3071   1.723   1.311  15.421 -0.0909  0.0768  0.6068
  198MPD1    H5 3072   1.729   1.352  15.514 -1.2528 -0.4522  0.9260
  198MPD1    N1 3073   1.251   1.305  15.537 -0.1171 -0.6709 -0.0049
  198MPD1    H6 3074   1.267   1.378  15.606 -2.4916  1.4018 -1.6192
  198MPD1    H7 3075   1.169   1.320  15.478 -0.0478  0.1987  0.1232
  199MPD1     C 3076   4.202   1.437   9.552 -0.7868 -0.1502 -0.3617
  199MPD1    C1 3077   4.314   1.514   9.545 -0.1722 -0.2806  0.0984
  199MPD1    C2 3078   4.311   1.651   9.563 -0.4081  0.2892  0.4517
  199MPD1    C3 3079   4.189   1.712   9.600  0.2794  0.0225  0.5863
  199MPD1    C4 3080   4.084   1.630   9.612  0.1581 -0.3985 -0.1340
  199MPD1    C5 3081   4.085   1.497   9.595 -0.7992 -0.2030  0.1715
  199MPD1     H 3082   4.403   1.709   9.561 -0.1135 -0.2691 -1.6250
  199MPD1    H1 3083   3.992   1.671   9.655 -0.0200 -0.6766 -0.2507
  199MPD1    H2 3084   4.212   1.331   9.534 -0.8871 -0.5148  1.7242
  199MPD1    H3 3085   3.993   1.442   9.610 -0.8434 -0.4877 -1.1558
  199MPD1     N 3086   4.164   1.851   9.635 -0.1943 -0.1288  0.0853
  199MPD1    H5 3087   4.069   1.876   9.660  0.2750  0.3342  1.3874
  199MPD1    N1 3088   4.423   1.457   9.472 -0.1230  0.3787 -0.7016
  199MPD1    H6 3089   4.452   1.361   9.487  0.0976  0.0734 -3.1176
  199MPD1    H7 3090   4.512   1.506   9.475  1.5810 -2.8410  0.2196
  200MPD1     C 3091   3.269   3.055  15.774  0.2345 -0.3142 -0.8947
  200MPD1    C1 3092   3.387   2.994  15.742  0.1588 -0.5943 -0.0119
  200MPD1    C2 3093   3.401   2.947  15.614 -0.2500 -0.4487  0.4396
  200MPD1    C3 3094   3.299   2.966  15.518 -0.2373 -0.5100  0.2261
  200MPD1    C4 3095   3.183   3.026  15.555  0.1417  0.2022 -0.2043
  200MPD1    C5 3096   3.171   3.073  15.684  0.4728  0.5243 -0.3331
  200MPD1     H 3097   3.499   2.905  15.594 -0.2210 -0.5036  0.7028
  200MPD1    H1 3098   3.102   3.046  15.485  1.4061  0.2939 -1.6346
  200MPD1    H2 3099   3.253   3.089  15.875 -1.3630  0.4463 -1.4054
  200MPD1    H3 3100   3.072   3.106  15.715  0.4600  0.4610 -0.3058
  200MPD1     N 3101   3.326   2.936  15.381  0.6808  0.1899 -0.5830
  200MPD1    H5 3102   3.420   2.904  15.362  0.8739 -0.6923  1.8750
  200MPD1    N1 3103   3.480   2.968  15.838  0.3607  0.2138 -0.3617
  200MPD1    H6 3104   3.567   2.939  15.795  0.6933  0.8501 -0.1207
  200MPD1    H7 3105   3.509   3.055  15.884 -0.5785  0.1322  0.3974
  201MPD1     C 3106   0.413   1.359  13.279  0.0882 -0.3896 -0.0092
  201MPD1    C1 3107   0.422   1.254  13.192  0.8332 -0.0824 -0.4697
  201MPD1    C2 3108   0.525   1.160  13.210 -0.3215  0.7002 -0.0379
  201MPD1    C3 3109   0.623   1.181  13.305 -0.7408  0.4779 -0.2551
  201MPD1    C4 3110   0.612   1.289  13.389 -0.0761 -0.2512 -0.4552
  201MPD1    C5 3111   0.509   1.378  13.377  0.3703  0.3346 -0.1450
  201MPD1     H 3112   0.520   1.064  13.160 -1.0100  0.0663  1.2401
  201MPD1    H1 3113   0.687   1.319  13.460  0.1244 -2.8450  0.4401
  201MPD1    H2 3114   0.328   1.425  13.273  1.1242  0.9206 -0.4590
  201MPD1    H3 3115   0.497   1.457  13.449 -1.8709 -1.0054  0.9604
  201MPD1     N 3116   0.721   1.087  13.306  0.2955 -0.5575  0.2776
  201MPD1    H5 3117   0.721   1.017  13.233 -0.1013 -0.7010  0.4175
  201MPD1    N1 3118   0.316   1.225  13.106 -0.3388  0.0541  0.4934
  201MPD1    H6 3119   0.253   1.299  13.075  0.0876 -0.9064 -2.6473
  201MPD1    H7 3120   0.336   1.164  13.027  0.3542 -0.7703  1.2956
  202MPD1     C 3121   0.980   0.903   8.913  0.2649  0.2636 -0.0557
  202MPD1    C1 3122   1.025   0.995   9.005  0.1509  0.6883 -0.9426
  202MPD1    C2 3123   0.959   0.991   9.127 -0.1496 -0.3264  0.7832
  202MPD1    C3 3124   0.886   0.880   9.172 -0.1059 -0.8010 -0.4538
  202MPD1    C4 3125   0.851   0.789   9.080 -0.5643 -0.2306 -0.4864
  202MPD1    C5 3126   0.900   0.797   8.953 -0.0260  0.5625 -0.0343
  202MPD1     H 3127   0.994   1.056   9.207  0.4291 -3.8021  3.3955
  202MPD1    H1 3128   0.778   0.710   9.091 -0.2085 -0.6998 -1.4118
  202MPD1    H2 3129   1.019   0.894   8.812  0.1025 -0.9064 -0.0180
  202MPD1    H3 3130   0.870   0.723   8.880 -0.7171  2.1057 -1.3384
  202MPD1     N 3131   0.839   0.869   9.297 -0.2828  0.0261  0.6877
  202MPD1    H5 3132   0.803   0.777   9.321 -1.9128  0.5615  0.3462
  202MPD1    N1 3133   1.088   1.117   8.966 -0.1664 -0.5623  0.2138
  202MPD1    H6 3134   1.136   1.152   9.048  1.2291  0.5527 -1.0854
  202MPD1    H7 3135   1.154   1.111   8.889  1.8853 -0.0505  1.9414
  203MPD1     C 3136   4.466   2.058  12.234 -0.2889  0.8998 -0.1590
  203MPD1    C1 3137   4.416   1.931  12.205  0.5553  0.2377  0.3284
  203MPD1    C2 3138   4.470   1.831  12.285 -0.4256 -0.3889  1.4334
  203MPD1    C3 3139   4.568   1.861  12.379 -1.2885 -0.2169  0.0585
  203MPD1    C4 3140   4.602   1.991  12.413 -0.2726  0.0999  0.5149
  203MPD1    C5 3141   4.553   2.089  12.336 -0.8769 -0.0544 -0.0266
  203MPD1     H 3142   4.435   1.731  12.265  0.5413 -0.4714  0.2246
  203MPD1    H1 3143   4.668   2.014  12.496  0.7909  0.9892 -0.5721
  203MPD1    H2 3144   4.432   2.149  12.187 -1.8513 -0.0148 -0.7878
  203MPD1    H3 3145   4.572   2.190  12.369  1.4739 -0.0002 -1.5719
  203MPD1     N 3146   4.613   1.750  12.452  0.2532  0.5236  0.1771
  203MPD1    H5 3147   4.576   1.660  12.423 -1.4115  0.2843  3.1445
  203MPD1    N1 3148   4.310   1.910  12.123  0.2031  0.1673  0.3998
  203MPD1    H6 3149   4.298   1.993  12.064 -0.5329 -0.2325 -0.0112
  203MPD1    H7 3150   4.326   1.822  12.073  0.0019 -0.9521  2.3330
  204MPD1     C 3151   3.783   3.361  17.241 -0.2819  0.2698  0.1833
  204MPD1    C1 3152   3.892   3.415  17.309 -0.2147 -0.5464 -0.2622
  204MPD1    C2 3153   3.962   3.338  17.408  0.1257 -0.2505  0.5907
  204MPD1    C3 3154   3.919   3.211  17.429 -0.0100  0.2105 -0.3284
  204MPD1    C4 3155   3.810   3.160  17.364  0.1686  0.7005  0.1959
  204MPD1    C5 3156   3.742   3.236  17.272 -0.7537 -0.0518 -0.2401
  204MPD1     H 3157   4.059   3.371  17.442 -0.7197  1.6089  1.2089
  204MPD1    H1 3158   3.787   3.055  17.371  1.7600  0.6215  4.4184
  204MPD1    H2 3159   3.726   3.410  17.162  2.2309 -2.4740 -3.3214
  204MPD1    H3 3160   3.662   3.191  17.214  0.9948 -0.9061 -1.9740
  204MPD1     N 3161   3.998   3.126  17.502  0.0071  0.2059 -0.1384
  204MPD1    H5 3162   4.092   3.156  17.525 -0.1728  0.1910  0.6317
  204MPD1    N1 3163   3.968   3.521  17.252  0.4489  0.0468  0.4403
  204MPD1    H6 3164   3.911   3.591  17.205 -0.1657  0.1172  1.2971
  204MPD1    H7 3165   4.014   3.580  17.322  2.5109 -2.0416  0.8557
  205MPD1     C 3166   3.311   1.824  16.976  0.2374  0.2331  1.0975
  205MPD1    C1 3167   3.334   1.703  17.036  0.5719 -0.4070 -0.4756
  205MPD1    C2 3168   3.412   1.715  17.153  0.6163 -0.1370  0.5406
  205MPD1    C3 3169   3.449   1.838  17.212 -0.6882  0.2584  0.6553
  205MPD1    C4 3170   3.404   1.950  17.153 -0.2780  0.4099  0.3918
  205MPD1    C5 3171   3.336   1.945  17.031  0.0879 -0.3675 -0.5419
  205MPD1     H 3172   3.449   1.623  17.197 -0.0120 -1.7446 -2.3065
  205MPD1    H1 3173   3.426   2.047  17.195 -1.1994  0.4669  0.7281
  205MPD1    H2 3174   3.259   1.824  16.881 -0.0164  0.5108  1.2330
  205MPD1    H3 3175   3.306   2.034  16.977  2.1412 -0.3406 -1.6241
  205MPD1     N 3176   3.535   1.850  17.326 -0.4088  0.4740 -0.3810
  205MPD1    H5 3177   3.561   1.946  17.346  2.6443 -0.0914 -1.6766
  205MPD1    N1 3178   3.322   1.576  16.977 -0.2208 -0.3635  0.3412
  205MPD1    H6 3179   3.241   1.577  16.915  0.0978 -1.6035 -0.1085
  205MPD1    H7 3180   3.308   1.499  17.042 -0.7521  0.4430  1.1759
  206MPD1     C 3181   4.560   0.202  15.915  0.9542  0.3799 -0.3345
  206MPD1    C1 3182   4.598   0.102  16.006  0.5461  0.1867 -0.6111
  206MPD1    C2 3183   4.502   0.012  16.048  0.4825 -0.5279 -0.5321
  206MPD1    C3 3184   4.374   0.014  15.988 -0.0330  0.2836  0.0373
  206MPD1    C4 3185   4.342   0.115  15.904  0.4041 -0.6325 -0.0770
  206MPD1    C5 3186   4.435   0.211  15.870 -0.8875 -0.0351  0.1221
  206MPD1     H 3187   4.532   4.681  16.122 -1.9953 -0.1171  0.8817
  206MPD1    H1 3188   4.243   0.123  15.861  1.4412  4.4082 -1.5596
  206MPD1    H2 3189   4.625   0.272  15.863  0.1926  1.2199 -0.1456
  206MPD1    H3 3190   4.411   0.301  15.814  3.3798 -0.3724 -2.2731
  206MPD1     N 3191   4.276   4.663  16.018 -0.0587 -0.1915  0.2971
  206MPD1    H5 3192   4.197   4.667  15.954 -0.1196 -0.4096  0.3585
  206MPD1    N1 3193   4.724   0.105  16.068  0.3247 -0.3076 -0.8206
  206MPD1    H6 3194   0.050   0.156  16.011 -0.7680  1.9886 -0.0511
  206MPD1    H7 3195   0.017   0.011  16.084  0.4117  0.2138  2.0828
  207MPD1     C 3196   1.953   1.410   9.969 -0.2786  0.3223  0.1184
  207MPD1    C1 3197   2.022   1.493   9.888 -0.4078  0.5502 -0.3566
  207MPD1    C2 3198   2.090   1.597   9.941 -0.3188  0.5222  0.4992
  207MPD1    C3 3199   2.110   1.603  10.074  0.7102 -0.2553 -0.6883
  207MPD1    C4 3200   2.070   1.503  10.154  0.1219 -0.3219 -0.0324
  207MPD1    C5 3201   1.975   1.417  10.107 -0.4717 -1.1638  0.3626
  207MPD1     H 3202   2.147   1.660   9.874 -1.4796  0.7902 -0.2434
  207MPD1    H1 3203   2.105   1.512  10.256 -0.5693 -0.3183  0.2110
  207MPD1    H2 3204   1.876   1.340   9.939 -1.1561  0.9546  0.8843
  207MPD1    H3 3205   1.934   1.351  10.182 -0.9077 -2.5926 -1.1179
  207MPD1     N 3206   2.178   1.714  10.145 -0.5716  0.2170  0.0608
  207MPD1    H5 3207   2.196   1.702  10.244  0.7726  1.8041  0.0071
  207MPD1    N1 3208   1.992   1.488   9.749  0.3270  0.4024  0.2421
  207MPD1    H6 3209   1.947   1.401   9.719  1.3786  0.5270 -1.7165
  207MPD1    H7 3210   2.065   1.511   9.682 -0.3741 -0.5998 -0.8749
  208MPD1     C 3211   4.096   1.053  17.014  0.1659 -0.0980  0.3072
  208MPD1    C1 3212   3.999   1.087  17.103 -0.3829  0.2857 -0.1206
  208MPD1    C2 3213   4.017   1.068  17.241  0.2635  0.1970  0.8402
  208MPD1    C3 3214   4.145   1.031  17.281 -0.6655  0.3997 -0.1650
  208MPD1    C4 3215   4.246   0.995  17.193  0.0075  0.6005 -0.2949
  208MPD1    C5 3216   4.219   0.997  17.053  0.2204  0.3086  0.3289
  208MPD1     H 3217   3.940   1.088  17.315 -0.7394 -0.8384  0.0778
  208MPD1    H1 3218   4.340   0.948  17.219 -0.6792  1.1517  3.1982
  208MPD1    H2 3219   4.067   1.091  16.917  1.1740  0.2109  0.1223
  208MPD1    H3 3220   4.288   0.974  16.972 -2.1171  2.7281 -2.3678
  208MPD1     N 3221   4.150   0.996  17.425  0.3581 -0.1988 -0.0388
  208MPD1    H5 3222   4.061   1.002  17.474  0.6913  0.1865  0.5216
  208MPD1    N1 3223   3.892   1.168  17.048 -0.4224  0.0461 -0.3515
  208MPD1    H6 3224   3.890   1.264  17.080  0.2673 -0.6117  1.6707
  208MPD1    H7 3225   3.891   1.166  16.946 -2.1690 -1.4454 -0.3063
  209MPD1     C 3226   2.134   0.960  11.296  0.4162  0.5405 -0.0801
  209MPD1    C1 3227   2.187   1.025  11.181 -0.3873  0.3125  0.1990
  209MPD1    C2 3228   2.195   1.160  11.179 -0.1770  0.6553 -0.4721
  209MPD1    C3 3229   2.118   1.230  11.272  0.3296 -0.1348  0.1587
  209MPD1    C4 3230   2.044   1.166  11.374  0.1859  0.5987  0.2572
  209MPD1    C5 3231   2.064   1.033  11.383 -0.5584 -0.1047 -0.8157
  209MPD1     H 3232   2.244   1.205  11.093  0.1319  0.9315 -0.1517
  209MPD1    H1 3233   1.971   1.218  11.435  2.8320  0.9573  3.1113
  209MPD1    H2 3234   2.131   0.852  11.308  0.3958  0.2609 -2.6539
  209MPD1    H3 3235   2.002   0.978  11.453 -2.1716 -0.3934 -2.4678
  209MPD1     N 3236   2.123   1.372  11.261 -0.2480 -0.3587  0.1210
  209MPD1    H5 3237   2.181   1.409  11.187 -0.4425 -3.0716 -1.4004
  209MPD1    N1 3238   2.265   0.953  11.087  0.1576  0.1513  0.3951
  209MPD1    H6 3239   2.268   0.999  10.997  0.9941  0.2409  0.4711
  209MPD1    H7 3240   2.221   0.863  11.072 -0.4903  0.4620  0.3937
  210MPD1     C 3241   2.047   2.116  11.944  0.1260  0.1452  0.5715
  210MPD1    C1 3242   2.004   2.172  11.830 -0.3479  0.1660 -0.7705
  210MPD1    C2 3243   2.015   2.106  11.710  0.4642  0.4042  0.4264
  210MPD1    C3 3244   2.065   1.973  11.711  0.5649  0.3847  0.2777
  210MPD1    C4 3245   2.094   1.914  11.833 -0.2571  0.0563  0.2278
  210MPD1    C5 3246   2.098   1.987  11.951 -0.1160  0.7605 -0.0203
  210MPD1     H 3247   1.987   2.140  11.611 -0.1647  1.2744  0.8982
  210MPD1    H1 3248   2.118   1.810  11.849 -0.6305 -0.0038  0.4124
  210MPD1    H2 3249   2.042   2.174  12.036  0.5896  1.0882  0.0066
  210MPD1    H3 3250   2.127   1.937  12.043  0.3886  0.8952 -0.1031
  210MPD1     N 3251   2.071   1.895  11.593  0.2122 -0.2557  0.2376
  210MPD1    H5 3252   2.090   1.797  11.612 -1.1705 -0.3104  1.2756
  210MPD1    N1 3253   1.945   2.301  11.834 -0.1142 -0.3025  0.1962
  210MPD1    H6 3254   1.897   2.306  11.923 -1.2739 -0.2611 -0.4336
  210MPD1    H7 3255   1.869   2.316  11.768  1.1219  2.5140 -0.5930
  211MPD1     C 3256   4.579   1.475  16.537  0.4466 -0.7046 -0.1848
  211MPD1    C1 3257   4.537   1.470  16.666  0.4886  0.2814 -0.2169
  211MPD1    C2 3258   4.411   1.522  16.692 -0.1662  0.7021  0.2348
  211MPD1    C3 3259   4.326   1.572  16.590  0.2750  0.4809 -0.3098
  211MPD1    C4 3260   4.372   1.577  16.462  0.5802  0.5029  0.0849
  211MPD1    C5 3261   4.498   1.529  16.437  0.8574  0.3038  0.1853
  211MPD1     H 3262   4.370   1.506  16.791  1.3410 -1.0556  0.5639
  211MPD1    H1 3263   4.314   1.616  16.379  0.6643 -1.2390 -0.7961
  211MPD1    H2 3264   4.676   1.430  16.518  1.2789  1.1640 -0.2756
  211MPD1    H3 3265   4.536   1.558  16.340  0.3839 -1.6358 -0.5794
  211MPD1     N 3266   4.198   1.619  16.641  0.4987  0.1778 -0.0518
  211MPD1    H5 3267   4.182   1.607  16.741  2.0013  0.3652  0.2190
  211MPD1    N1 3268   4.633   1.451  16.767  0.4943 -0.0860 -0.0961
  211MPD1    H6 3269   4.579   1.410  16.843 -0.1251  1.6284  0.3779
  211MPD1    H7 3270   4.705   1.382  16.744  2.2163  1.2759  1.2549
  212MPD1     C 3271   3.741   4.502  16.530  0.3111 -0.2151  0.4054
  212MPD1    C1 3272   3.653   4.580  16.599 -0.9681  0.3959 -0.7175
  212MPD1    C2 3273   3.551   4.514  16.670 -0.3611 -0.1822  0.3690
  212MPD1    C3 3274   3.535   4.373  16.653 -1.0431  0.2828 -0.2291
  212MPD1    C4 3275   3.630   4.300  16.584  0.3290 -0.2448 -0.0601
  212MPD1    C5 3276   3.734   4.364  16.528  0.4698  0.7423  0.1814
  212MPD1     H 3277   3.476   4.573  16.722  0.3508  1.5196 -0.5358
  212MPD1    H1 3278   3.622   4.194  16.565 -0.5500 -0.0884 -0.5734
  212MPD1    H2 3279   3.818   4.556  16.476  1.4169 -1.9351  0.2613
  212MPD1    H3 3280   3.802   4.310  16.463  0.5852 -0.0456  0.9416
  212MPD1     N 3281   3.432   4.302  16.725  0.1981 -0.0661  0.2563
  212MPD1    H5 3282   3.428   4.204  16.702 -0.7414  0.0593 -0.1168
  212MPD1    N1 3283   3.697   4.709  16.632 -0.0160  0.3787  0.6727
  212MPD1    H6 3284   3.758   0.003  16.559  1.2490 -1.9106  0.5903
  212MPD1    H7 3285   3.613   0.024  16.632  1.1023  2.0183  2.1069
  213MPD1     C 3286   2.272   0.570  15.447 -0.4704  0.0154  0.3135
  213MPD1    C1 3287   2.137   0.583  15.470  0.6315 -0.0425  0.7567
  213MPD1    C2 3288   2.048   0.541  15.371 -0.2333 -0.7578 -0.3124
  213MPD1    C3 3289   2.096   0.537  15.241  0.5876 -0.2746  0.5535
  213MPD1    C4 3290   2.229   0.562  15.222  0.3732  0.1294 -0.5935
  213MPD1    C5 3291   2.323   0.579  15.319 -0.0308  0.2092 -0.4969
  213MPD1     H 3292   1.945   0.524  15.398  0.0742 -0.0995  1.2446
  213MPD1    H1 3293   2.272   0.580  15.125  1.3594 -1.0197 -0.3732
  213MPD1    H2 3294   2.338   0.583  15.531  1.8547 -0.9870 -1.3709
  213MPD1    H3 3295   2.428   0.594  15.298 -0.1603 -1.1375 -2.1101
  213MPD1     N 3296   1.999   0.510  15.134 -0.1733 -0.5019 -0.5839
  213MPD1    H5 3297   1.906   0.494  15.171  0.4572 -0.3924  1.0409
  213MPD1    N1 3298   2.096   0.574  15.602 -0.6078 -0.3508  0.1352
  213MPD1    H6 3299   2.165   0.624  15.658  1.8550 -1.4871 -1.8694
  213MPD1    H7 3300   2.003   0.615  15.609  0.9676  2.8978  2.4052
  214MPD1     C 3301   1.135   0.174  14.749 -0.6488 -0.0018 -0.1147
  214MPD1    C1 3302   1.202   0.200  14.631 -0.0842 -0.0326 -0.1334
  214MPD1    C2 3303   1.328   0.270  14.642 -0.7798  0.2584  0.5947
  214MPD1    C3 3304   1.375   0.309  14.773  0.7934 -0.1772  0.4574
  214MPD1    C4 3305   1.297   0.290  14.881 -0.2191  0.1191  0.0097
  214MPD1    C5 3306   1.175   0.227  14.872  0.1274  0.2138  0.1158
  214MPD1     H 3307   1.382   0.288  14.550 -0.1057 -2.0808  0.5173
  214MPD1    H1 3308   1.322   0.334  14.977  2.0354  0.4048 -0.7042
  214MPD1    H2 3309   1.037   0.128  14.746 -0.4345 -0.4077 -0.8391
  214MPD1    H3 3310   1.097   0.220  14.946  0.0052  1.9438  0.1377
  214MPD1     N 3311   1.501   0.369  14.781 -0.1363 -0.2146  0.3710
  214MPD1    H5 3312   1.538   0.402  14.692 -0.7438  3.1601  1.3423
  214MPD1    N1 3313   1.117   0.192  14.517  0.0328 -0.1951 -0.2837
  214MPD1    H6 3314   1.044   0.121  14.520  1.9901 -2.1483  1.2568
  214MPD1    H7 3315   1.173   0.176  14.433 -1.3371 -3.3932 -0.6181
  215MPD1     C 3316   1.782   0.857  11.000  0.6345  0.4445  0.3141
  215MPD1    C1 3317   1.889   0.945  10.984  0.3125  0.5173 -0.3875
  215MPD1    C2 3318   1.862   1.076  11.023  0.2606 -0.7451  0.1787
  215MPD1    C3 3319   1.748   1.111  11.095 -0.1316  0.5170 -0.0770
  215MPD1    C4 3320   1.651   1.017  11.109  0.3672 -0.2964  0.7718
  215MPD1    C5 3321   1.667   0.893  11.057 -0.3735  0.1447  0.0430
  215MPD1     H 3322   1.939   1.148  10.997 -1.1067  0.5714 -0.2655
  215MPD1    H1 3323   1.561   1.024  11.169 -0.8702 -0.5997 -1.0371
  215MPD1    H2 3324   1.780   0.755  10.964  1.2155  0.2187  0.9223
  215MPD1    H3 3325   1.583   0.827  11.078 -1.6480  1.8009  0.2038
  215MPD1     N 3326   1.721   1.245  11.138 -0.2047 -0.1245 -0.5593
  215MPD1    H5 3327   1.785   1.314  11.102  0.7356  1.1273  3.5376
  215MPD1    N1 3328   2.004   0.925  10.902 -0.2379  0.0124  0.0765
  215MPD1    H6 3329   2.081   0.989  10.921 -1.0209  1.2747 -1.0190
  215MPD1    H7 3330   2.042   0.831  10.912  0.8256  0.4062 -0.1943
  216MPD1     C 3331   3.162   4.403   0.200 -0.5980 -0.2680  0.1942
  216MPD1    C1 3332   3.216   4.484   0.099  0.2540 -0.2704 -0.2675
  216MPD1    C2 3333   3.283   4.421  17.762  0.4996  0.9514 -0.2311
  216MPD1    C3 3334   3.273   4.282  17.746 -0.3300  0.6109 -0.5877
  216MPD1    C4 3335   3.199   4.212   0.072 -0.5471 -0.4132 -0.2249
  216MPD1    C5 3336   3.149   4.266   0.183  0.0291  0.1499 -0.2971
  216MPD1     H 3337   3.325   4.481  17.682 -0.7868  0.0121 -1.6126
  216MPD1    H1 3338   3.202   4.104   0.072  1.8291 -0.3543  2.1715
  216MPD1    H2 3339   3.124   4.445   0.293 -0.8546  1.8088 -0.8498
  216MPD1    H3 3340   3.100   4.206   0.258 -0.8266  0.6588 -0.4499
  216MPD1     N 3341   3.356   4.224  17.647  0.1994  0.0745  0.4202
  216MPD1    H5 3342   3.430   4.277  17.603 -0.3609  0.3173 -0.2333
  216MPD1    N1 3343   3.245   4.620   0.125 -0.0821 -0.5834 -0.0774
  216MPD1    H6 3344   3.236   4.675   0.040 -1.8578 -0.8031 -0.0295
  216MPD1    H7 3345   3.184   4.653   0.199  0.0525  1.7162 -1.0008
  217MPD1     C 3346   0.440   1.155   8.343 -0.3420 -0.9849  0.3373
  217MPD1    C1 3347   0.479   1.024   8.344 -0.0034 -0.0376 -0.1220
  217MPD1    C2 3348   0.461   0.956   8.457  0.1551  0.2167  0.4845
  217MPD1    C3 3349   0.401   1.007   8.569 -0.2285 -0.2536 -0.2119
  217MPD1    C4 3350   0.340   1.132   8.559 -0.0459 -0.1287 -0.5329
  217MPD1    C5 3351   0.367   1.206   8.447  0.1969 -0.2932  0.0202
  217MPD1     H 3352   0.497   0.853   8.457  0.5581  0.3534 -0.2349
  217MPD1    H1 3353   0.282   1.178   8.638 -0.8203 -0.3088 -0.9928
  217MPD1    H2 3354   0.457   1.216   8.254 -0.0483 -0.1934  0.9386
  217MPD1    H3 3355   0.339   1.310   8.435 -2.8701 -1.2842 -1.3109
  217MPD1     N 3356   0.380   0.936   8.688  0.1463  0.0178  0.1115
  217MPD1    H5 3357   0.322   0.980   8.759 -1.5330 -1.7580 -0.1322
  217MPD1    N1 3358   0.550   0.974   8.230  0.0647  0.3401  0.6899
  217MPD1    H6 3359   0.549   0.873   8.219  1.7758  0.4143 -0.1101
  217MPD1    H7 3360   0.515   1.010   8.142  0.3409  1.6516  1.1194
  218MPD1     C 3361   1.126   2.400  13.067  0.4945  0.2175  0.0890
  218MPD1    C1 3362   1.233   2.420  12.976  0.2400 -0.5929  0.2067
  218MPD1    C2 3363   1.303   2.312  12.931  0.3530  0.4414 -0.1663
  218MPD1    C3 3364   1.265   2.185  12.974  0.7341 -0.0676 -0.5092
  218MPD1    C4 3365   1.161   2.167  13.066  0.1849 -0.2499 -0.2285
  218MPD1    C5 3366   1.098   2.273  13.113  0.7855  0.2298 -0.4772
  218MPD1     H 3367   1.380   2.321  12.856 -0.8697  2.0663 -1.2494
  218MPD1    H1 3368   1.134   2.077  13.121 -1.4123  0.9419  0.9488
  218MPD1    H2 3369   1.074   2.488  13.103 -0.5238 -1.1909  2.0358
  218MPD1    H3 3370   1.011   2.264  13.176  0.6328 -1.8498 -0.9880
  218MPD1     N 3371   1.329   2.072  12.913  0.5220 -0.4850  0.3782
  218MPD1    H5 3372   1.395   2.083  12.837  2.3702 -0.1071  2.0282
  218MPD1    N1 3373   1.247   2.548  12.913  0.1768  0.6176  0.4455
  218MPD1    H6 3374   1.161   2.583  12.874 -0.6454 -1.2049  0.6008
  218MPD1    H7 3375   1.313   2.554  12.835 -0.4281  1.4921  0.0073
  219MPD1     C 3376   1.235   1.655  12.053 -0.0637 -0.3235 -0.5944
  219MPD1    C1 3377   1.336   1.742  12.094 -0.0747  0.3272  0.0205
  219MPD1    C2 3378   1.352   1.763  12.228  0.3000 -0.8843 -0.1879
  219MPD1    C3 3379   1.294   1.684  12.327 -0.0461 -0.2820 -0.9096
  219MPD1    C4 3380   1.198   1.594  12.288 -0.4306  0.1819 -0.1382
  219MPD1    C5 3381   1.167   1.592  12.153  0.2380 -0.8616 -0.0645
  219MPD1     H 3382   1.421   1.845  12.247  0.4294 -0.9431 -0.4093
  219MPD1    H1 3383   1.143   1.532  12.357  1.0826 -1.8742 -0.7607
  219MPD1    H2 3384   1.208   1.635  11.950 -0.9795  2.8414 -0.9648
  219MPD1    H3 3385   1.075   1.539  12.129  0.9001 -0.3374 -3.7376
  219MPD1     N 3386   1.331   1.696  12.467 -0.9259 -0.4205 -0.0116
  219MPD1    H5 3387   1.284   1.632  12.529  1.8030 -1.9539  0.4500
  219MPD1    N1 3388   1.417   1.806  11.999  0.4589  0.6916  0.3216
  219MPD1    H6 3389   1.512   1.826  12.027  0.7064 -1.7961  1.3051
  219MPD1    H7 3390   1.404   1.761  11.909 -0.2387  0.8030  0.3609
  220MPD1     C 3391   2.178   2.240   9.716 -0.0116  0.2414 -0.5066
  220MPD1    C1 3392   2.201   2.241   9.851  0.3481  0.5091 -0.0806
  220MPD1    C2 3393   2.120   2.161   9.927  0.8622  0.9800  0.2633
  220MPD1    C3 3394   2.023   2.076   9.872 -1.0197  0.2819  1.0557
  220MPD1    C4 3395   2.010   2.074   9.733 -0.3805  0.5751 -0.2324
  220MPD1    C5 3396   2.081   2.162   9.659 -0.1585 -0.0547 -0.3359
  220MPD1     H 3397   2.142   2.158  10.034  1.5102 -2.4673  0.0252
  220MPD1    H1 3398   1.938   2.007   9.689  0.0804 -0.4230  0.5226
  220MPD1    H2 3399   2.230   2.312   9.654  1.7072 -0.7831 -0.2438
  220MPD1    H3 3400   2.065   2.159   9.552  2.3880  0.5597 -0.7391
  220MPD1     N 3401   1.944   1.999   9.962  0.4033  0.3225  0.0743
  220MPD1    H5 3402   1.955   2.013  10.062 -0.3456 -1.7840  0.4378
  220MPD1    N1 3403   2.284   2.339   9.899 -0.9633 -1.0072  0.2612
  220MPD1    H6 3404   2.359   2.347   9.830  0.6376  0.2444  2.1587
  220MPD1    H7 3405   2.335   2.305   9.980 -0.6440 -2.2708 -0.4615
  221MPD1     C 3406   3.404   1.174  16.542  0.1600 -0.2173  1.2764
  221MPD1    C1 3407   3.472   1.183  16.669 -0.4256  0.3737  0.7548
  221MPD1    C2 3408   3.593   1.111  16.683  0.0260  0.1450 -0.5852
  221MPD1    C3 3409   3.651   1.041  16.579 -0.7889  0.0947 -0.4707
  221MPD1    C4 3410   3.569   1.021  16.473  0.4579  0.0373  0.3637
  221MPD1    C5 3411   3.454   1.085  16.450  0.5139 -0.6615  0.4052
  221MPD1     H 3412   3.647   1.134  16.774  1.3830  1.3552 -1.6965
  221MPD1    H1 3413   3.608   0.972  16.385  0.4632 -0.5387  0.6814
  221MPD1    H2 3414   3.315   1.227  16.510  0.4859 -0.8120 -0.6490
  221MPD1    H3 3415   3.403   1.075  16.355  0.5817  1.1214  0.1806
  221MPD1     N 3416   3.781   0.990  16.576  0.5137 -0.6336  0.3929
  221MPD1    H5 3417   3.809   0.935  16.495  4.5313  1.1648  0.5647
  221MPD1    N1 3418   3.444   1.290  16.757  0.3294  0.1803  0.6572
  221MPD1    H6 3419   3.463   1.258  16.852  0.4259  1.3424  1.0269
  221MPD1    H7 3420   3.345   1.314  16.763 -0.1534 -1.1329 -1.7947
  222MPD1     C 3421   3.552   4.151  17.051 -0.6426  0.1505 -0.3560
  222MPD1    C1 3422   3.437   4.082  17.077 -0.4426  0.4259 -0.5289
  222MPD1    C2 3423   3.342   4.138  17.159 -0.2212 -0.2663  0.5295
  222MPD1    C3 3424   3.359   4.266  17.208 -0.6737  0.5742 -0.1863
  222MPD1    C4 3425   3.476   4.330  17.184 -0.2762  0.4172 -0.0129
  222MPD1    C5 3426   3.573   4.277  17.103  0.2678  0.8293  0.2332
  222MPD1     H 3427   3.250   4.083  17.177  0.1497 -0.1107  2.9749
  222MPD1    H1 3428   3.497   4.423  17.235  1.0658  0.2728 -0.3101
  222MPD1    H2 3429   3.634   4.121  16.987  0.6077  1.4776  0.6422
  222MPD1    H3 3430   3.658   4.333  17.068 -0.4013  1.4050 -0.4710
  222MPD1     N 3431   3.264   4.326  17.298  1.2897 -0.0301  0.1241
  222MPD1    H5 3432   3.285   4.421  17.327 -1.7352  0.3137  1.1314
  222MPD1    N1 3433   3.423   3.959  17.012  0.8222  0.1746  0.6067
  222MPD1    H6 3434   3.509   3.905  17.015  0.7823  0.0453 -0.6653
  222MPD1    H7 3435   3.343   3.901  17.035 -0.4093  1.9313  0.7597
  223MPD1     C 3436   2.607   3.880   0.146 -0.3918 -0.1273  0.4050
  223MPD1    C1 3437   2.642   3.860   0.016 -0.2615  0.5537 -0.3414
  223MPD1    C2 3438   2.728   3.947  17.714  0.0842 -0.7166  0.9573
  223MPD1    C3 3439   2.753   4.075   0.006 -0.5404  1.0393 -0.0442
  223MPD1    C4 3440   2.702   4.102   0.129  0.4314 -0.5686  0.2299
  223MPD1    C5 3441   2.637   4.004   0.202  0.2790 -0.2393  0.3326
  223MPD1     H 3442   2.766   3.924  17.615  1.2571  0.1335  1.2084
  223MPD1    H1 3443   2.710   4.205   0.163 -2.8154  0.3316 -1.7582
  223MPD1    H2 3444   2.550   3.808   0.203  1.1133 -3.1580 -1.9375
  223MPD1    H3 3445   2.594   4.027   0.299  0.2157 -2.1139  0.7515
  223MPD1     N 3446   2.832   4.168  17.698 -0.6314 -0.0517 -0.3244
  223MPD1    H5 3447   2.875   4.134  17.613 -0.7588 -2.5173  0.6068
  223MPD1    N1 3448   2.614   3.733  17.733 -0.3097  0.1681 -0.5529
  223MPD1    H6 3449   2.521   3.703  17.762 -0.6474 -0.1181 -1.9392
  223MPD1    H7 3450   2.616   3.731  17.631 -3.2772 -0.1480 -0.5923
  224MPD1     C 3451   0.532   1.123   8.965 -0.2030 -0.2548  0.4326
  224MPD1    C1 3452   0.401   1.170   8.991  0.0857 -0.8412 -0.1330
  224MPD1    C2 3453   0.318   1.106   9.087  0.3494 -0.0908 -0.2994
  224MPD1    C3 3454   0.385   1.016   9.171  0.1766 -0.0138 -0.5303
  224MPD1    C4 3455   0.519   0.980   9.151 -0.1921  0.8225  0.2877
  224MPD1    C5 3456   0.589   1.034   9.047  0.9954  0.0191 -0.0700
  224MPD1     H 3457   0.211   1.124   9.096  0.4942  1.6844 -2.1301
  224MPD1    H1 3458   0.572   0.901   9.204 -1.9570 -0.0649  0.7527
  224MPD1    H2 3459   0.589   1.153   8.878  1.6610 -0.1754  1.7002
  224MPD1    H3 3460   0.691   1.008   9.020  1.0416 -1.3038  1.4231
  224MPD1     N 3461   0.319   0.952   9.274 -0.3083 -0.7192  0.0497
  224MPD1    H5 3462   0.372   0.875   9.313  1.9788 -0.1678 -1.9520
  224MPD1    N1 3463   0.341   1.257   8.894  0.6400  0.5316 -0.7970
  224MPD1    H6 3464   0.397   1.322   8.838  0.0729 -0.1186 -2.1225
  224MPD1    H7 3465   0.266   1.310   8.937 -0.2324 -0.7059 -0.8105
  225MPD1     C 3466   1.856   2.366  12.175 -0.0791  0.7798 -0.2402
  225MPD1    C1 3467   1.750   2.278  12.140 -0.0461  0.0745  0.0741
  225MPD1    C2 3468   1.629   2.335  12.107  0.3049  0.4274 -1.7840
  225MPD1    C3 3469   1.602   2.470  12.129  0.0258 -0.0646  0.2732
  225MPD1    C4 3470   1.697   2.551  12.186  0.0043 -0.0330 -0.0946
  225MPD1    C5 3471   1.821   2.496  12.204 -0.1052 -0.2165 -0.1788
  225MPD1     H 3472   1.552   2.276  12.060 -0.8273  0.7600 -0.3569
  225MPD1    H1 3473   1.693   2.657  12.210  0.5051 -0.2158  0.8124
  225MPD1    H2 3474   1.961   2.343  12.169 -0.1984  0.1968 -0.0744
  225MPD1    H3 3475   1.900   2.561  12.240  1.3527 -3.1138  1.7902
  225MPD1     N 3476   1.475   2.529  12.106 -0.0645  0.6020  0.1518
  225MPD1    H5 3477   1.459   2.604  12.173  2.5623  1.0264  0.3165
  225MPD1    N1 3478   1.780   2.152  12.098  0.4875 -0.1706 -0.3232
  225MPD1    H6 3479   1.701   2.094  12.123 -0.0981 -0.3848 -2.6068
  225MPD1    H7 3480   1.873   2.116  12.120 -1.4786 -3.2780  2.6542
  226MPD1     C 3481   0.089   3.110   9.135  0.1493  0.3378  0.0792
  226MPD1    C1 3482   4.715   3.184   9.124 -0.3660  0.7557  0.1398
  226MPD1    C2 3483   4.599   3.109   9.113  0.1697  1.0487  0.8279
  226MPD1    C3 3484   4.592   2.974   9.127 -0.8112 -0.8826 -0.1128
  226MPD1    C4 3485   4.708   2.901   9.135 -0.1360 -0.1077 -0.1015
  226MPD1    C5 3486   0.085   2.976   9.140 -0.4915  0.1640 -0.3597
  226MPD1     H 3487   4.500   3.153   9.109  0.5433  1.6202 -1.9196
  226MPD1    H1 3488   4.721   2.794   9.143 -2.0165 -0.4475 -1.6382
  226MPD1    H2 3489   0.187   3.153   9.149 -0.2361  1.1158  0.3838
  226MPD1    H3 3490   0.179   2.922   9.148 -0.4840  0.2086 -0.1468
  226MPD1     N 3491   4.467   2.908   9.117  0.8322  0.0092 -0.0393
  226MPD1    H5 3492   4.389   2.972   9.105 -0.7648 -1.3838  2.8558
  226MPD1    N1 3493   4.718   3.326   9.114  0.4853  0.0204  0.2359
  226MPD1    H6 3494   0.063   3.364   9.151  0.0479  1.5624 -0.3436
  226MPD1    H7 3495   4.630   3.368   9.145  0.5246 -0.2533  0.7340
  227MPD1     C 3496   3.775   3.344   8.977 -0.3658 -0.6303 -0.0216
  227MPD1    C1 3497   3.886   3.318   8.895  0.3730  0.1916  0.5677
  227MPD1    C2 3498   3.954   3.202   8.918 -0.4655  0.0003 -0.7044
  227MPD1    C3 3499   3.909   3.108   9.012 -0.2959  0.1925 -0.0196
  227MPD1    C4 3500   3.801   3.133   9.086 -0.0597 -0.2116 -0.3825
  227MPD1    C5 3501   3.736   3.256   9.072  0.1605 -0.0007  0.5221
  227MPD1     H 3502   4.040   3.187   8.853  0.5212  1.0512  0.3557
  227MPD1    H1 3503   3.762   3.074   9.168  2.3141 -0.4268  0.5890
  227MPD1    H2 3504   3.713   3.433   8.980 -0.5217 -0.8078  1.9920
  227MPD1    H3 3505   3.655   3.282   9.140  0.1571  3.3828 -0.7886
  227MPD1     N 3506   3.986   2.988   9.026 -0.2062  0.6875 -0.5337
  227MPD1    H5 3507   4.066   2.990   8.964 -0.4117 -1.9895 -0.8795
  227MPD1    N1 3508   3.931   3.410   8.800 -0.9486  0.3166  0.3555
  227MPD1    H6 3509   4.027   3.441   8.810 -0.5882 -0.2712 -1.2719
  227MPD1    H7 3510   3.874   3.493   8.791 -3.1265 -1.0305  1.6063
  228MPD1     C 3511   3.119   0.217  13.003 -0.0495 -0.0620 -0.4049
  228MPD1    C1 3512   3.051   0.264  12.894  0.0674 -0.1759  1.3034
  228MPD1    C2 3513   2.911   0.259  12.900  0.0967 -0.0281 -0.2544
  228MPD1    C3 3514   2.844   0.221  13.015 -0.2624  0.6532 -0.1773
  228MPD1    C4 3515   2.919   0.187  13.126  0.2176  0.1826  0.5927
  228MPD1    C5 3516   3.054   0.170  13.114 -0.5315 -0.6521 -0.8034
  228MPD1     H 3517   2.854   0.272  12.809 -2.6332 -1.4876  1.2268
  228MPD1    H1 3518   2.864   0.151  13.213 -1.3611  0.1965 -0.3994
  228MPD1    H2 3519   3.228   0.217  12.999 -0.0281 -1.2754  0.1774
  228MPD1    H3 3520   3.097   0.133  13.206 -2.4815 -3.1566 -0.8921
  228MPD1     N 3521   2.705   0.227  13.018 -0.4428  0.0964 -0.4382
  228MPD1    H5 3522   2.659   0.259  12.933 -2.0244 -0.5226  0.1878
  228MPD1    N1 3523   3.117   0.323  12.789  0.3672 -0.5022 -0.3389
  228MPD1    H6 3524   3.206   0.274  12.783  1.8426  1.8579  2.1210
  228MPD1    H7 3525   3.064   0.317  12.703 -0.0367 -1.0114 -0.0536
  229MPD1     C 3526   3.636   3.701  14.161  0.1819  0.3286  0.5274
  229MPD1    C1 3527   3.717   3.690  14.278  0.6941 -0.0733 -0.6120
  229MPD1    C2 3528   3.651   3.695  14.401 -0.1719 -0.3227  0.2020
  229MPD1    C3 3529   3.519   3.742  14.401 -0.4092  0.5026 -0.2168
  229MPD1    C4 3530   3.460   3.781  14.285  0.0391 -0.6403  0.3090
  229MPD1    C5 3531   3.513   3.749  14.164  0.0415 -0.4730 -0.3536
  229MPD1     H 3532   3.706   3.667  14.490  0.1529 -2.2131 -0.5961
  229MPD1    H1 3533   3.361   3.825  14.287 -0.2492 -1.1389 -3.1472
  229MPD1    H2 3534   3.686   3.685  14.066 -1.6876  0.1375 -0.4051
  229MPD1    H3 3535   3.469   3.770  14.067  0.9489 -1.1566 -0.9116
  229MPD1     N 3536   3.441   3.751  14.518 -0.4338  0.4295 -0.3966
  229MPD1    H5 3537   3.347   3.788  14.515 -1.3558 -1.6480  2.4699
  229MPD1    N1 3538   3.844   3.632  14.267 -0.7673  0.0975  0.0069
  229MPD1    H6 3539   3.900   3.650  14.350 -0.5316 -0.2695 -0.0735
  229MPD1    H7 3540   3.894   3.671  14.187 -1.3788 -0.3618 -0.5999
  230MPD1     C 3541   2.619   4.094  14.706  0.4984  0.2867  0.3752
  230MPD1    C1 3542   2.635   4.051  14.835  0.2672 -0.4317  0.4305
  230MPD1    C2 3543   2.754   3.979  14.859 -0.7062 -0.2845 -0.2870
  230MPD1    C3 3544   2.837   3.946  14.757 -0.2088  0.2237 -0.0524
  230MPD1    C4 3545   2.804   3.974  14.629  0.6238 -0.1770 -0.1449
  230MPD1    C5 3546   2.692   4.053  14.600  0.3520  0.6836 -0.1526
  230MPD1     H 3547   2.789   3.969  14.961  0.1061 -0.2828 -0.5626
  230MPD1    H1 3548   2.858   3.943  14.540 -1.0692 -3.4377 -0.0087
  230MPD1    H2 3549   2.537   4.165  14.695  1.9665  1.8512 -0.4030
  230MPD1    H3 3550   2.655   4.067  14.500 -0.5278  1.0264  0.2212
  230MPD1     N 3551   2.952   3.868  14.789  0.0083 -0.4187  0.1446
  230MPD1    H5 3552   2.968   3.851  14.888 -0.1264  0.5177  0.3268
  230MPD1    N1 3553   2.555   4.108  14.941  0.1094  0.3005  0.3107
  230MPD1    H6 3554   2.557   4.047  15.022 -0.3678  0.3350  0.3494
  230MPD1    H7 3555   2.461   4.116  14.903  0.0456 -1.1899  0.1614
  231MPD1     C 3556   1.559   0.739  15.195  0.4356  0.0302 -0.3175
  231MPD1    C1 3557   1.469   0.728  15.088  0.5957  0.0788 -0.7134
  231MPD1    C2 3558   1.478   0.818  14.989 -0.6026 -0.5402  0.2639
  231MPD1    C3 3559   1.578   0.915  14.979  0.2799 -0.0327  0.1412
  231MPD1    C4 3560   1.676   0.910  15.076 -0.6590  0.1901  0.2223
  231MPD1    C5 3561   1.662   0.833  15.191  0.0938 -0.2195 -0.4652
  231MPD1     H 3562   1.403   0.814  14.911 -1.7721  0.1977  1.3766
  231MPD1    H1 3563   1.769   0.965  15.067 -0.7103 -0.1740 -2.3358
  231MPD1    H2 3564   1.566   0.659  15.268 -1.4042  1.2917  1.2516
  231MPD1    H3 3565   1.739   0.836  15.267 -2.0785 -1.5172  1.7784
  231MPD1     N 3566   1.575   0.997  14.866 -0.0004  0.0737 -0.2104
  231MPD1    H5 3567   1.507   0.979  14.792 -1.8235 -0.1753  1.5457
  231MPD1    N1 3568   1.350   0.658  15.116 -0.6771  0.5366  0.3792
  231MPD1    H6 3569   1.369   0.565  15.152  0.0100  0.8471  0.8139
  231MPD1    H7 3570   1.295   0.627  15.036  0.4092 -2.6338  0.8662
  232MPD1     C 3571   2.629   1.451   0.362  0.3342  0.2955 -0.1498
  232MPD1    C1 3572   2.577   1.516   0.472 -1.4478  0.2857 -0.1479
  232MPD1    C2 3573   2.548   1.651   0.461 -0.0558  0.6699  0.3653
  232MPD1    C3 3574   2.547   1.714   0.339  0.0723  0.2760 -0.0662
  232MPD1    C4 3575   2.596   1.644   0.231 -0.2650 -0.3415 -1.2247
  232MPD1    C5 3576   2.635   1.516   0.243 -0.0651 -0.0379 -0.4442
  232MPD1     H 3577   2.527   1.707   0.551 -1.4872  0.1214  0.3673
  232MPD1    H1 3578   2.607   1.697   0.137 -0.9141  0.1703 -1.0093
  232MPD1    H2 3579   2.670   1.351   0.369 -0.2191  0.2038  1.7551
  232MPD1    H3 3580   2.672   1.471   0.151  0.0701  0.5923 -0.6980
  232MPD1     N 3581   2.493   1.845   0.327 -0.4324  0.5266  0.2122
  232MPD1    H5 3582   2.467   1.886   0.416  0.1535  2.9412 -0.7222
  232MPD1    N1 3583   2.605   1.460   0.599 -0.5391  0.4223  0.5516
  232MPD1    H6 3584   2.596   1.359   0.603  0.3453  0.2487 -1.6030
  232MPD1    H7 3585   2.552   1.515   0.666 -0.7766  0.2756  0.4836
  233MPD1     C 3586   3.882   0.635   0.236  0.2214 -0.1699 -0.6867
  233MPD1    C1 3587   3.808   0.744   0.275  0.4649 -0.0659  0.1267
  233MPD1    C2 3588   3.811   0.797   0.404 -0.2216 -0.0410 -0.5520
  233MPD1    C3 3589   3.893   0.735   0.502 -0.7711  0.0146  0.0065
  233MPD1    C4 3590   3.969   0.627   0.461 -0.2443  0.1423 -0.2235
  233MPD1    C5 3591   3.966   0.580   0.328 -0.2298  0.6147 -0.1612
  233MPD1     H 3592   3.763   0.891   0.426 -4.7647 -1.8652 -2.6098
  233MPD1    H1 3593   4.050   0.589   0.522 -1.8945 -1.4408  0.9531
  233MPD1    H2 3594   3.882   0.598   0.134 -1.3620  1.2798 -1.2044
  233MPD1    H3 3595   4.027   0.494   0.306 -0.8031 -0.3225  1.8927
  233MPD1     N 3596   3.905   0.780   0.636 -0.2922  0.1485  0.1162
  233MPD1    H5 3597   3.977   0.729   0.685 -0.2437 -0.0771 -0.1880
  233MPD1    N1 3598   3.735   0.808   0.180  0.5146 -0.2144 -0.2130
  233MPD1    H6 3599   3.763   0.783   0.085  1.4325  0.6070 -0.1517
  233MPD1    H7 3600   3.758   0.906   0.196  5.5597 -1.6548  1.6255
  234MPD1     C 3601   0.915   4.122   9.612 -0.0967  0.3025 -0.0014
  234MPD1    C1 3602   0.870   4.178   9.496 -0.0564 -0.4348 -0.5540
  234MPD1    C2 3603   0.855   4.319   9.499  0.6482  0.0546  0.6461
  234MPD1    C3 3604   0.922   4.393   9.598  0.1936 -0.3990 -0.1987
  234MPD1    C4 3605   0.989   4.323   9.694 -0.2284  0.4279 -0.4807
  234MPD1    C5 3606   0.979   4.191   9.709 -0.2182 -0.0533  0.0259
  234MPD1     H 3607   0.799   4.374   9.424 -0.9675 -1.4501  0.7300
  234MPD1    H1 3608   1.037   4.365   9.782 -0.1246  0.9379 -0.7802
  234MPD1    H2 3609   0.916   4.016   9.634  3.1628  0.6022  1.2829
  234MPD1    H3 3610   1.024   4.144   9.795  2.0005 -1.0051 -1.6360
  234MPD1     N 3611   0.911   4.536   9.594  0.3600  0.2625  0.7260
  234MPD1    H5 3612   0.858   4.582   9.521  0.6681  0.9688  0.9556
  234MPD1    N1 3613   0.803   4.102   9.404  0.1238  0.1721 -0.2600
  234MPD1    H6 3614   0.848   4.011   9.397 -0.9537 -0.2453 -2.0486
  234MPD1    H7 3615   0.804   4.128   9.306 -0.7464 -0.0887 -0.3441
  235MPD1     C 3616   2.057   2.149  10.414 -0.4542 -0.5031 -0.1693
  235MPD1    C1 3617   2.057   2.225  10.298  0.1495  0.0758 -0.5946
  235MPD1    C2 3618   2.167   2.309  10.274 -0.0777  0.0372  0.0948
  235MPD1    C3 3619   2.259   2.336  10.375 -0.2071  1.0656 -0.3676
  235MPD1    C4 3620   2.244   2.275  10.494  0.4198 -0.4015 -0.7709
  235MPD1    C5 3621   2.147   2.180  10.513  0.2158 -0.2029 -0.9062
  235MPD1     H 3622   2.174   2.355  10.175 -1.7906  0.2305  0.0740
  235MPD1    H1 3623   2.303   2.290  10.584 -1.2354 -0.7937  0.3746
  235MPD1    H2 3624   1.979   2.078  10.441  0.6300 -1.0829  1.5086
  235MPD1    H3 3625   2.116   2.143  10.610 -0.7767  0.2544 -1.0454
  235MPD1     N 3626   2.354   2.439  10.347 -0.1406  0.1809  0.0685
  235MPD1    H5 3627   2.339   2.493  10.262  2.4159  1.0528  0.1892
  235MPD1    N1 3628   1.960   2.212  10.196 -0.2420 -0.5530 -0.3536
  235MPD1    H6 3629   1.951   2.280  10.122 -0.3398 -0.3462 -0.1514
  235MPD1    H7 3630   1.864   2.201  10.230 -0.7133  1.1362 -1.1514
  236MPD1     C 3631   0.920   3.307   9.637  0.1202 -0.7971  0.1487
  236MPD1    C1 3632   0.954   3.441   9.638  0.5995 -0.3349  0.3275
  236MPD1    C2 3633   1.070   3.475   9.712  0.5539 -0.5821  0.0198
  236MPD1    C3 3634   1.128   3.388   9.795  0.2264 -0.0484  0.1956
  236MPD1    C4 3635   1.089   3.257   9.797  0.0836 -0.3334 -0.3607
  236MPD1    C5 3636   0.982   3.215   9.718 -0.1346  0.3551 -0.0432
  236MPD1     H 3637   1.102   3.578   9.700  0.3957 -0.2936  2.1271
  236MPD1    H1 3638   1.139   3.187   9.863  2.0762  0.3573 -1.1209
  236MPD1    H2 3639   0.838   3.268   9.579  0.7197 -1.0629 -0.5139
  236MPD1    H3 3640   0.957   3.110   9.708 -0.6344  0.5754 -1.1592
  236MPD1     N 3641   1.247   3.420   9.873  0.4161  0.0561 -0.6159
  236MPD1    H5 3642   1.303   3.350   9.921  1.0657  0.9166 -0.1253
  236MPD1    N1 3643   0.898   3.534   9.551  0.4360 -0.4329 -0.6874
  236MPD1    H6 3644   0.917   3.630   9.578  2.3167 -1.1050  0.4170
  236MPD1    H7 3645   0.799   3.511   9.548  0.1224  0.7483  0.8933
  237MPD1     C 3646   1.613   2.446  14.698  0.3267 -0.0496 -0.3362
  237MPD1    C1 3647   1.511   2.444  14.604 -0.6347  0.1367  0.1090
  237MPD1    C2 3648   1.377   2.423  14.641 -0.0311 -0.0440  0.0879
  237MPD1    C3 3649   1.346   2.385  14.768  0.4032  0.6202  0.4997
  237MPD1    C4 3650   1.454   2.385  14.861 -0.2929  0.4649 -0.2461
  237MPD1    C5 3651   1.578   2.423  14.828 -0.1391 -0.3408 -0.0455
  237MPD1     H 3652   1.303   2.445  14.566  0.4835 -0.2859 -0.4870
  237MPD1    H1 3653   1.436   2.377  14.968  2.8890 -1.1032  0.1825
  237MPD1    H2 3654   1.712   2.470  14.664 -0.1314  0.5292 -1.2627
  237MPD1    H3 3655   1.652   2.432  14.907  2.2436  0.7453 -2.3986
  237MPD1     N 3656   1.214   2.362  14.813 -0.3013 -0.5723 -0.3549
  237MPD1    H5 3657   1.202   2.349  14.913 -1.2975  1.0800 -0.2656
  237MPD1    N1 3658   1.533   2.496  14.476  0.0069 -0.6615  0.7852
  237MPD1    H6 3659   1.470   2.451  14.411 -0.6086  0.4191  0.6266
  237MPD1    H7 3660   1.624   2.469  14.439 -0.3090 -0.9423  0.2332
  238MPD1     C 3661   3.687   0.208  14.736  0.6177  0.6572  0.2900
  238MPD1    C1 3662   3.652   0.314  14.820  0.1089  0.2356  0.0830
  238MPD1    C2 3663   3.530   0.385  14.806  0.7091 -0.6348 -0.3876
  238MPD1    C3 3664   3.440   0.340  14.711  0.2874  0.7278 -0.2143
  238MPD1    C4 3665   3.478   0.243  14.623  0.4979  0.3809 -0.0928
  238MPD1    C5 3666   3.603   0.185  14.632 -0.8630 -0.1092 -0.0762
  238MPD1     H 3667   3.502   0.460  14.879  0.4149 -1.8551  0.7664
  238MPD1    H1 3668   3.412   0.224  14.538 -0.9855 -0.5804  1.2802
  238MPD1    H2 3669   3.783   0.158  14.745  0.6920  0.2085 -3.3069
  238MPD1    H3 3670   3.626   0.101  14.567  2.5684  2.3505 -2.0265
  238MPD1     N 3671   3.311   0.394  14.695  0.2714  0.1299 -0.1734
  238MPD1    H5 3672   3.261   0.357  14.615  1.2491 -2.8827  0.6069
  238MPD1    N1 3673   3.723   0.319  14.937 -0.1129 -0.4001  0.4775
  238MPD1    H6 3674   3.818   0.292  14.914 -0.0493  1.8531 -1.8302
  238MPD1    H7 3675   3.733   0.418  14.957 -1.9986  0.3433 -2.3272
  239MPD1     C 3676   3.059   1.136  15.003 -0.1581 -0.0815 -0.3637
  239MPD1    C1 3677   3.175   1.208  15.005  0.0429 -0.4046  0.1261
  239MPD1    C2 3678   3.204   1.290  14.896 -0.0321  0.4272  0.0903
  239MPD1    C3 3679   3.114   1.316  14.798 -0.7676  0.2771  0.1504
  239MPD1    C4 3680   2.987   1.251  14.803 -0.2385  0.2945 -0.0825
  239MPD1    C5 3681   2.964   1.159  14.903  0.1273 -1.0793 -0.2760
  239MPD1     H 3682   3.303   1.334  14.892 -0.1091  0.7623  1.7102
  239MPD1    H1 3683   2.920   1.257  14.718 -1.7434  1.5242  1.1968
  239MPD1    H2 3684   3.046   1.069  15.087 -0.7274  0.5036  0.0194
  239MPD1    H3 3685   2.873   1.102  14.894 -0.6854 -0.3626  3.3041
  239MPD1     N 3686   3.142   1.405  14.686 -0.0922 -0.0471  0.1320
  239MPD1    H5 3687   3.072   1.421  14.614  3.5910  0.0342 -3.4535
  239MPD1    N1 3688   3.283   1.170  15.093 -0.3573 -0.3290 -0.4120
  239MPD1    H6 3689   3.338   1.252  15.118 -1.3001  0.4915 -1.0547
  239MPD1    H7 3690   3.242   1.145  15.183 -0.5232 -0.1851 -0.4487
  240MPD1     C 3691   2.583   1.627  13.685  0.0976 -0.8421 -0.1158
  240MPD1    C1 3692   2.496   1.518  13.663 -0.3275  0.3879 -0.3140
  240MPD1    C2 3693   2.501   1.415  13.751 -0.2216 -0.0624  0.4652
  240MPD1    C3 3694   2.587   1.413  13.854  0.4060 -1.1059 -0.6033
  240MPD1    C4 3695   2.660   1.529  13.884 -1.0433 -0.1579 -0.2032
  240MPD1    C5 3696   2.655   1.634  13.801  0.4015  0.5478 -0.3263
  240MPD1     H 3697   2.431   1.333  13.753 -0.4413  0.0677 -1.7764
  240MPD1    H1 3698   2.718   1.541  13.975 -2.0000  0.3482  0.3310
  240MPD1    H2 3699   2.572   1.719  13.630 -0.0864 -0.4972  0.4944
  240MPD1    H3 3700   2.699   1.730  13.824  3.0272 -0.5622 -0.7044
  240MPD1     N 3701   2.582   1.302  13.947  0.2539 -0.4514 -0.1999
  240MPD1    H5 3702   2.515   1.228  13.929 -0.4791 -0.1951  1.4311
  240MPD1    N1 3703   2.389   1.524  13.570  0.1076  0.0081  0.0141
  240MPD1    H6 3704   2.402   1.590  13.494  1.3773 -0.2730  0.0010
  240MPD1    H7 3705   2.364   1.432  13.535 -1.1880  0.4117 -0.1207
  241MPD1     C 3706   3.267   0.827  14.531 -0.1211  0.0316 -0.1434
  241MPD1    C1 3707   3.146   0.852  14.605  0.2471 -0.0182 -0.2056
  241MPD1    C2 3708   3.043   0.900  14.522  0.0848  0.2164 -0.5527
  241MPD1    C3 3709   3.041   0.901  14.385  0.0155  0.4371 -0.0452
  241MPD1    C4 3710   3.146   0.849  14.316 -0.2089  0.6272  0.0517
  241MPD1    C5 3711   3.263   0.829  14.392  0.2206  0.6261  0.3710
  241MPD1     H 3712   2.960   0.945  14.575  1.2869  1.2988  0.3823
  241MPD1    H1 3713   3.151   0.852  14.208  0.2083 -2.0214  0.0013
  241MPD1    H2 3714   3.357   0.781  14.569  2.4000  3.2184 -2.2822
  241MPD1    H3 3715   3.351   0.806  14.334 -0.4432 -0.8800 -0.0153
  241MPD1     N 3716   2.930   0.948  14.315  0.0104 -0.8427 -0.4453
  241MPD1    H5 3717   2.936   0.964  14.215  0.0728 -0.5824 -0.4004
  241MPD1    N1 3718   3.144   0.871  14.745  0.2318  0.1732  0.2507
  241MPD1    H6 3719   3.202   0.816  14.809  2.9884  1.8843 -0.8250
  241MPD1    H7 3720   3.046   0.870  14.775 -0.1984  0.1470 -1.1707
  242MPD1     C 3721   1.904   3.684  15.387 -0.3147 -0.7493  0.5806
  242MPD1    C1 3722   1.954   3.749  15.501 -0.3822  0.2247 -0.1568
  242MPD1    C2 3723   2.003   3.879  15.475  0.5770  0.7992 -0.3557
  242MPD1    C3 3724   2.011   3.931  15.347  0.4735 -0.8019  0.8552
  242MPD1    C4 3725   1.987   3.845  15.242  0.8071 -0.1040 -0.5964
  242MPD1    C5 3726   1.928   3.726  15.264 -0.0325  0.3430 -0.3823
  242MPD1     H 3727   2.019   3.950  15.556  0.2274 -0.2514  0.6272
  242MPD1    H1 3728   1.997   3.875  15.139 -0.6661 -3.6503 -1.7917
  242MPD1    H2 3729   1.853   3.590  15.400 -1.2847 -0.0867  1.5739
  242MPD1    H3 3730   1.898   3.666  15.179  1.6370 -1.6459  0.4331
  242MPD1     N 3731   2.054   4.061  15.315 -0.3373 -0.5154 -0.4646
  242MPD1    H5 3732   2.069   4.081  15.217  1.5016  0.9939  0.1309
  242MPD1    N1 3733   1.978   3.672  15.611 -0.1589  0.9958 -0.3405
  242MPD1    H6 3734   1.928   3.583  15.616  0.9202  0.4800  1.5562
  242MPD1    H7 3735   1.987   3.708  15.706 -0.6135 -1.3825  0.6096
  243MPD1     C 3736   4.576   3.562  17.198 -0.7972  0.2808  0.5420
  243MPD1    C1 3737   4.459   3.629  17.215  0.3789 -0.1740  0.6208
  243MPD1    C2 3738   4.340   3.563  17.195 -0.4195  0.0331  1.0566
  243MPD1    C3 3739   4.331   3.426  17.163  0.2985  0.0259 -0.2470
  243MPD1    C4 3740   4.447   3.362  17.146 -0.2791  0.0194 -0.0549
  243MPD1    C5 3741   4.566   3.431  17.161 -0.3444 -0.3515  0.1352
  243MPD1     H 3742   4.245   3.615  17.197  0.4065  1.5905 -0.1208
  243MPD1    H1 3743   4.457   3.257  17.120  0.9660 -0.3502  1.9061
  243MPD1    H2 3744   4.670   3.615  17.202 -0.9321  0.4398  1.6446
  243MPD1    H3 3745   4.656   3.374  17.139 -0.3622  0.9284 -3.2663
  243MPD1     N 3746   4.206   3.360  17.166  0.3497 -0.1389  0.4112
  243MPD1    H5 3747   4.123   3.417  17.183  1.9436  2.9991 -2.2190
  243MPD1    N1 3748   4.466   3.762  17.236  0.2973  0.0692 -0.0607
  243MPD1    H6 3749   4.386   3.799  17.288  1.0292  0.9102  0.4656
  243MPD1    H7 3750   4.553   3.789  17.281 -0.8107  3.7180 -0.1521
  244MPD1     C 3751   3.835   2.421  16.871  1.3515 -0.5881  0.8050
  244MPD1    C1 3752   3.816   2.506  16.766 -0.0240 -0.4982 -0.8725
  244MPD1    C2 3753   3.833   2.641  16.787 -0.9389 -0.1954 -0.1476
  244MPD1    C3 3754   3.865   2.705  16.903  0.0287  0.3922  0.3490
  244MPD1    C4 3755   3.885   2.614  17.011  0.2555  0.7221 -0.8195
  244MPD1    C5 3756   3.866   2.481  16.988  0.2938  0.4353 -0.3690
  244MPD1     H 3757   3.814   2.704  16.702  0.2778  0.7577  0.2853
  244MPD1    H1 3758   3.940   2.647  17.099 -1.1703 -0.2095  0.4373
  244MPD1    H2 3759   3.828   2.312  16.869  0.1795 -0.5010  0.2542
  244MPD1    H3 3760   3.879   2.414  17.072 -1.8978  0.1813 -0.2329
  244MPD1     N 3761   3.865   2.841  16.920  0.1494  0.7152  0.1268
  244MPD1    H5 3762   3.850   2.889  16.832 -0.5957  0.4968  0.1323
  244MPD1    N1 3763   3.806   2.459  16.634  0.3951  0.5305 -0.0105
  244MPD1    H6 3764   3.755   2.371  16.625  1.8718 -0.2882 -0.3784
  244MPD1    H7 3765   3.758   2.532  16.581 -1.8721  0.4408  1.9266
  245MPD1     C 3766   0.903   3.423  13.227 -0.3834 -0.3425 -0.1777
  245MPD1    C1 3767   0.891   3.557  13.242  0.5451  0.5383  0.7066
  245MPD1    C2 3768   1.001   3.620  13.303  0.2222  0.4636  0.2554
  245MPD1    C3 3769   1.114   3.565  13.352 -0.5767  0.2898  0.0090
  245MPD1    C4 3770   1.115   3.424  13.342  0.8203 -0.2100  0.4267
  245MPD1    C5 3771   1.011   3.361  13.279  0.2244 -0.3057 -0.0139
  245MPD1     H 3772   1.003   3.728  13.313 -2.1105  0.2252  2.9025
  245MPD1    H1 3773   1.204   3.369  13.369  1.0191  0.7347  1.6882
  245MPD1    H2 3774   0.832   3.362  13.171 -1.9513  0.8838  0.4587
  245MPD1    H3 3775   1.032   3.262  13.240 -1.7802  0.7084 -3.7189
  245MPD1     N 3776   1.215   3.643  13.412 -0.1729 -0.7591 -0.5465
  245MPD1    H5 3777   1.207   3.744  13.408 -1.2807 -0.9642 -3.4803
  245MPD1    N1 3778   0.779   3.626  13.189 -0.4025  0.3185 -0.1842
  245MPD1    H6 3779   0.798   3.719  13.153 -0.6265 -0.0428 -1.2376
  245MPD1    H7 3780   0.755   3.580  13.101 -1.0053 -1.1305  0.7458
  246MPD1     C 3781   3.215   1.316  10.042 -0.0094 -0.1993 -0.6157
  246MPD1    C1 3782   3.192   1.292   9.902  0.9004 -0.6446  0.6446
  246MPD1    C2 3783   3.092   1.196   9.873  0.4615  0.2801 -0.3835
  246MPD1    C3 3784   3.017   1.138   9.976 -0.8884  0.0141  0.1787
  246MPD1    C4 3785   3.052   1.158  10.109  0.3328  0.8338 -0.0681
  246MPD1    C5 3786   3.153   1.244  10.140  0.0941 -0.8632 -0.0872
  246MPD1     H 3787   3.068   1.168   9.772 -0.2614 -4.0236  1.0062
  246MPD1    H1 3788   3.004   1.108  10.192  1.6668 -3.1581 -1.6812
  246MPD1    H2 3789   3.272   1.400  10.079  1.5866 -1.5074 -0.0622
  246MPD1    H3 3790   3.159   1.267  10.246  0.6794 -0.4013 -0.2214
  246MPD1     N 3791   2.904   1.051   9.938  0.1394 -0.2003 -0.2761
  246MPD1    H5 3792   2.882   1.039   9.840  2.3755  1.5342 -0.9742
  246MPD1    N1 3793   3.255   1.368   9.803 -0.1419  0.1266 -0.4681
  246MPD1    H6 3794   3.346   1.404   9.834  0.1435  0.1168 -1.2827
  246MPD1    H7 3795   3.264   1.307   9.722  2.6313 -0.0244 -0.0523
  247MPD1     C 3796   1.264   3.924  17.041  0.3981  0.6202 -0.3272
  247MPD1    C1 3797   1.137   3.912  17.070  0.2506 -0.2046 -0.0666
  247MPD1    C2 3798   1.065   3.825  17.003  0.1002  0.6412  0.0681
  247MPD1    C3 3799   1.112   3.770  16.887  0.2040 -0.2005  0.6291
  247MPD1    C4 3800   1.239   3.796  16.847 -0.2123  0.1311  0.2369
  247MPD1    C5 3801   1.317   3.872  16.927 -0.0315 -0.3140  0.3519
  247MPD1     H 3802   0.965   3.808  17.039  1.2753 -2.6880  1.6998
  247MPD1    H1 3803   1.283   3.740  16.765 -0.4996  0.3913 -0.0952
  247MPD1    H2 3804   1.326   3.979  17.111  0.9098  1.4188 -1.4023
  247MPD1    H3 3805   1.423   3.867  16.904 -0.2581  1.2979 -1.1418
  247MPD1     N 3806   1.035   3.682  16.808 -0.0148  0.1669 -0.1567
  247MPD1    H5 3807   1.069   3.651  16.718 -0.0327  1.3699 -0.5850
  247MPD1    N1 3808   1.086   3.960  17.187 -0.2904  0.3698 -0.1003
  247MPD1    H6 3809   1.144   4.039  17.216  0.9774  0.3675 -2.6437
  247MPD1    H7 3810   0.987   3.980  17.196 -0.1213  1.1558 -0.0100
  248MPD1     C 3811   1.608   3.064   0.812  0.1056  0.5270  0.3262
  248MPD1    C1 3812   1.514   3.053   0.916  0.6161  0.2270  0.0416
  248MPD1    C2 3813   1.382   3.049   0.884  0.0279 -0.6012 -0.1234
  248MPD1    C3 3814   1.338   3.058   0.750  0.0216  0.1217  0.2562
  248MPD1    C4 3815   1.429   3.071   0.651 -0.8574 -0.2119  0.0875
  248MPD1    C5 3816   1.565   3.069   0.680  0.3634 -0.0265  0.2443
  248MPD1     H 3817   1.304   3.045   0.959 -1.4439  1.5604 -1.5505
  248MPD1    H1 3818   1.399   3.072   0.547 -1.0097  2.0811  0.1595
  248MPD1    H2 3819   1.714   3.048   0.827  0.5125  3.1541  0.2466
  248MPD1    H3 3820   1.637   3.072   0.599  0.8445  0.6349  0.6991
  248MPD1     N 3821   1.197   3.072   0.729  0.2897 -0.7826  0.5297
  248MPD1    H5 3822   1.122   3.079   0.797 -1.6913  0.8787 -1.7829
  248MPD1    N1 3823   1.547   3.074   1.054 -0.1899 -0.1158 -0.6486
  248MPD1    H6 3824   1.482   3.028   1.116  0.2907 -2.8323 -2.1435
  248MPD1    H7 3825   1.643   3.049   1.078  0.0871  1.4134 -0.1542
  249MPD1     C 3826   2.541   1.531  10.279 -0.2613 -0.4305  0.0092
  249MPD1    C1 3827   2.651   1.596  10.323 -0.1525  0.2990  0.2024
  249MPD1    C2 3828   2.712   1.693  10.237  0.2950 -0.2970  0.4610
  249MPD1    C3 3829   2.645   1.732  10.124 -0.2121  0.4166  0.3587
  249MPD1    C4 3830   2.534   1.668  10.084  0.4103 -0.2257 -0.2034
  249MPD1    C5 3831   2.474   1.575  10.166  0.1515 -0.8681 -0.5100
  249MPD1     H 3832   2.811   1.733  10.250  0.6506 -0.9980 -0.0794
  249MPD1    H1 3833   2.479   1.694   9.995  0.6612  0.3011 -0.2070
  249MPD1    H2 3834   2.519   1.434  10.323  0.0028 -1.2910 -1.7615
  249MPD1    H3 3835   2.387   1.523  10.127 -1.2403  0.6371  0.6179
  249MPD1     N 3836   2.714   1.849  10.063 -0.8062 -0.2888  0.3227
  249MPD1    H5 3837   2.785   1.892  10.120  0.6174 -0.6938 -1.1586
  249MPD1    N1 3838   2.720   1.543  10.431  0.0361 -0.6845  0.0645
  249MPD1    H6 3839   2.786   1.604  10.478  1.7043  0.4134 -3.7260
  249MPD1    H7 3840   2.660   1.502  10.503  0.3043 -1.1165  0.0440
  250MPD2     C 3841   3.597   2.079  12.722  0.5244 -0.5536  0.2135
  250MPD2    C1 3842   3.494   2.150  12.671 -0.2689  0.2863 -0.0324
  250MPD2    C2 3843   3.369   2.094  12.662 -0.2805 -0.0903  0.5982
  250MPD2    C3 3844   3.348   1.969  12.697 -0.2710  0.2539 -0.8118
  250MPD2    C4 3845   3.447   1.900  12.764  0.2691  0.5537 -0.0884
  250MPD2    C5 3846   3.572   1.960  12.772  0.0561 -0.7866  0.3987
  250MPD2     H 3847   3.294   2.149  12.606 -2.0942 -1.6752  1.5063
  250MPD2    H1 3848   3.431   1.805  12.813 -1.4210  1.5492  1.3126
  250MPD2    H2 3849   3.702   2.106  12.729  0.0367  1.9178 -1.8567
  250MPD2    H3 3850   3.647   1.913  12.835  1.6315 -0.0698 -0.9600
  250MPD2     N 3851   3.226   1.897  12.683  0.1136 -0.4168  0.0780
  250MPD2    H5 3852   3.235   1.804  12.723 -1.4253 -0.2320  0.8595
  250MPD2    N1 3853   3.529   2.279  12.633  0.2493 -0.0035  0.0550
  250MPD2    H7 3854   3.629   2.296  12.631  0.1669  0.3368 -1.0952
  251TMC3    C1 3855   3.523   2.501  12.566 -0.1218 -0.5384 -0.2956
  251TMC3    C2 3856   3.462   2.620  12.573  0.0644 -0.9274 -0.4171
  251TMC3    C3 3857   3.516   2.728  12.515 -0.6233 -0.1807 -0.2807
  251TMC3    C4 3858   3.645   2.483  12.498 -0.0210 -0.4282  0.2084
  251TMC3    C5 3859   3.703   2.597  12.452 -0.6282 -0.1375  1.1166
  251TMC3    C6 3860   3.640   2.721  12.460  0.3003  0.6306 -0.1755
  251TMC3     C 3861   3.445   2.382  12.609  1.0419  0.5019  0.1097
  251TMC3     O 3862   3.323   2.390  12.624 -0.2548  0.2868  0.6851
  251TMC3     H 3863   3.357   2.629  12.602  0.0925  1.2917 -1.0100
  251TMC3    H1 3864   3.693   2.386  12.500  1.8701  0.5646  2.8623
  251TMC3    H2 3865   3.682   2.805  12.405  1.9841 -1.2402 -1.7268
  251TMC3    C7 3866   3.846   2.600  12.429  0.0983  0.0602  0.0757
  251TMC3    C8 3867   3.450   2.859  12.516  0.2768 -0.2245  1.0698
  251TMC3    O1 3868   3.905   2.706  12.450 -0.1620 -0.4124 -0.2164
  251TMC3    O2 3869   3.331   2.874  12.548 -0.2178  0.3003  0.4759
  252TMC3    C1 3870   0.221   2.954   9.660  0.0052 -0.4292  0.1086
  252TMC3    C2 3871   0.291   3.067   9.625  0.0728  0.2501 -0.3937
  252TMC3    C3 3872   0.229   3.144   9.529  0.1833 -0.3335 -0.0433
  252TMC3    C4 3873   0.093   2.924   9.616  1.2210  0.4057  0.2769
  252TMC3    C5 3874   0.035   3.010   9.527  0.1903  0.0670  0.3264
  252TMC3    C6 3875   0.103   3.117   9.475 -1.0084  0.5694  0.3292
  252TMC3     C 3876   0.274   2.866   9.769  0.4237  0.2008  0.2887
  252TMC3     O 3877   0.251   2.748   9.757  0.5054  0.4323 -0.1126
  252TMC3     H 3878   0.391   3.092   9.660 -0.6205  1.6237  0.6032
  252TMC3    H1 3879   0.045   2.834   9.653  2.0683 -0.7733 -1.5033
  252TMC3    H2 3880   0.065   3.180   9.395 -1.5711  0.1991  0.3075
  252TMC3    C7 3881   4.637   3.000   9.496 -0.3506 -1.0610 -0.1036
  252TMC3    C8 3882   0.300   3.266   9.490  0.5106 -0.4206  0.0063
  252TMC3    O1 3883   4.578   3.106   9.463 -0.4190 -0.2099  0.3489
  252TMC3    O2 3884   0.319   3.282   9.369 -0.0580 -0.1435 -0.3523
  253MPD2     C 3885   0.693   2.505  15.158 -0.0614 -0.0191  0.1029
  253MPD2    C1 3886   0.556   2.518  15.150  0.1550  0.6658 -1.0739
  253MPD2    C2 3887   0.478   2.474  15.255  0.0298 -0.0890  0.2310
  253MPD2    C3 3888   0.529   2.417  15.369  0.2317 -0.0092  0.5134
  253MPD2    C4 3889   0.667   2.417  15.376  0.4533  0.6611 -0.1436
  253MPD2    C5 3890   0.740   2.463  15.275  0.1238  0.1653 -0.4752
  253MPD2     H 3891   0.371   2.486  15.246 -0.0513 -2.2602 -1.6248
  253MPD2    H1 3892   0.721   2.390  15.466 -0.3578  0.0871  0.1721
  253MPD2    H2 3893   0.758   2.540  15.078  1.2349  0.8389  1.5254
  253MPD2    H3 3894   0.849   2.459  15.274  0.0593 -1.4910 -0.9552
  253MPD2     N 3895   0.448   2.397  15.480 -0.2994  0.2336 -0.0699
  253MPD2    H5 3896   0.493   2.351  15.558 -1.3390  2.0897  1.6404
  253MPD2    N1 3897   0.489   2.580  15.038 -0.1895 -0.3957 -0.0002
  253MPD2    H7 3898   0.387   2.572  15.036 -0.2281  0.0657 -0.0536
  254TMC3    C1 3899   0.274   2.446  15.645 -0.5825  0.2050 -0.1901
  254TMC3    C2 3900   0.198   2.547  15.699 -0.3774 -0.5008 -0.3050
  254TMC3    C3 3901   0.134   2.511  15.815 -0.1180 -0.0443  0.2923
  254TMC3    C4 3902   0.304   2.329  15.709 -0.1198  0.5779  0.2208
  254TMC3    C5 3903   0.234   2.302  15.820 -0.0727  0.4094 -0.3095
  254TMC3    C6 3904   0.143   2.387  15.873  0.8647  0.9141  0.6876
  254TMC3     C 3905   0.327   2.469  15.511 -0.1726 -0.1104  0.3827
  254TMC3     O 3906   0.270   2.555  15.444  0.6819  0.5872 -0.6014
  254TMC3     H 3907   0.159   2.633  15.645  3.9613  0.9772 -1.0591
  254TMC3    H1 3908   0.356   2.244  15.666  0.1345  0.8943 -0.0990
  254TMC3    H2 3909   0.076   2.355  15.951  1.1935 -0.1998  0.5125
  254TMC3    C7 3910   0.258   2.174  15.880  0.5455 -0.4747 -0.1463
  254TMC3    C8 3911   0.043   2.612  15.870 -0.5912 -0.3917 -0.0375
  254TMC3    O1 3912   0.372   2.143  15.912  0.2165  0.1530 -0.4267
  254TMC3    O2 3913   4.731   2.696  15.799 -0.5547 -0.0142 -0.5636
  255MPD2     C 3914   4.330   4.223  10.808 -0.3349 -0.2492  0.0236
  255MPD2    C1 3915   4.318   4.279  10.678 -0.1555  0.0236 -0.7187
  255MPD2    C2 3916   4.312   4.185  10.572  0.0438 -0.2542 -0.0647
  255MPD2    C3 3917   4.312   4.047  10.596  0.3519 -0.2173 -0.0664
  255MPD2    C4 3918   4.336   3.997  10.719  0.3486  0.5252  0.6588
  255MPD2    C5 3919   4.344   4.082  10.823  0.4437 -0.2329 -0.3871
  255MPD2     H 3920   4.297   4.206  10.467  1.1680  2.7961  0.3812
  255MPD2    H1 3921   4.365   3.896  10.746  0.4440  0.4767  0.3768
  255MPD2    H2 3922   4.340   4.285  10.896 -1.6167  2.8963 -2.0255
  255MPD2    H3 3923   4.375   4.042  10.919 -1.2455 -0.1334  0.2148
  255MPD2     N 3924   4.299   3.966  10.482 -0.5910  0.0371 -0.4808
  255MPD2    H5 3925   4.267   3.999  10.391  1.8535 -1.4610 -1.8905
  255MPD2    N1 3926   4.313   4.414  10.661 -0.6552 -0.1399 -0.3616
  255MPD2    H7 3927   4.307   4.476  10.741  2.4926  0.4741 -0.6211
  256TMC3    C1 3928   4.314   4.618  10.532 -0.0926 -0.3616  0.6478
  256TMC3    C2 3929   4.384   4.668  10.422  0.1949  0.0440 -0.0034
  256TMC3    C3 3930   4.338   0.042  10.364 -0.3838  0.1624 -0.1824
  256TMC3    C4 3931   4.204   4.670  10.580  0.6963 -0.3230 -0.0024
  256TMC3    C5 3932   4.143   0.018  10.503 -0.0012  0.0647 -0.8506
  256TMC3    C6 3933   4.217   0.087  10.402  0.4666  0.1309  0.8577
  256TMC3     C 3934   4.326   4.473  10.538  0.0818 -0.3366 -0.8132
  256TMC3     O 3935   4.377   4.422  10.441 -0.3743 -0.1964  0.3326
  256TMC3     H 3936   4.477   4.628  10.382 -0.2437  0.1716 -1.1749
  256TMC3    H1 3937   4.140   4.607  10.640 -0.7001  0.6374 -0.4861
  256TMC3    H2 3938   4.175   0.171  10.347 -0.7053 -0.6786  0.5112
  256TMC3    C7 3939   4.017   4.711  10.438 -0.3456  0.5156  0.1228
  256TMC3    C8 3940   4.360   0.042  10.223 -0.4989  0.2995  0.0383
  256TMC3    O1 3941   3.989   4.592  10.445 -0.2092 -0.2240 -0.1661
  256TMC3    O2 3942   4.400   4.673  10.183 -0.3494  0.3313 -0.5944
  257MPD2     C 3943   3.065   2.011  13.420 -0.2171 -0.1132  0.2884
  257MPD2    C1 3944   2.940   1.959  13.423  0.5684 -0.3749  0.1457
  257MPD2    C2 3945   2.904   1.851  13.504 -0.3658 -0.1731 -0.2066
  257MPD2    C3 3946   3.005   1.801  13.582 -0.3305  0.0050 -0.4013
  257MPD2    C4 3947   3.132   1.863  13.592 -0.0563  0.1658 -0.1573
  257MPD2    C5 3948   3.161   1.968  13.510 -1.0386 -0.7685 -0.0723
  257MPD2     H 3949   2.808   1.801  13.490 -0.7979  0.1065  1.7861
  257MPD2    H1 3950   3.214   1.826  13.651  0.2481  1.1675  0.0558
  257MPD2    H2 3951   3.088   2.097  13.359 -0.2250 -1.4190 -1.5363
  257MPD2    H3 3952   3.260   2.011  13.515 -1.1665 -0.7893  2.8174
  257MPD2     N 3953   2.973   1.683  13.655 -0.0963 -0.6467  0.0013
  257MPD2    H5 3954   2.878   1.653  13.637 -0.5365  0.5167  0.3630
  257MPD2    N1 3955   2.849   2.016  13.331 -0.1583 -0.3465  0.7453
  257MPD2    H7 3956   2.880   2.102  13.287 -1.3689  0.2603  1.0861
  258TMC3    C1 3957   2.998   1.488  13.794 -0.1591 -0.5268 -0.3000
  258TMC3    C2 3958   2.922   1.412  13.708  0.0615 -0.7996  0.8155
  258TMC3    C3 3959   2.905   1.281  13.742  0.2718  0.8560  0.3503
  258TMC3    C4 3960   3.069   1.434  13.892  0.2019 -0.7829 -0.0592
  258TMC3    C5 3961   3.049   1.302  13.928 -0.2562  0.3769 -0.4366
  258TMC3    C6 3962   2.957   1.228  13.855  0.3860 -0.4528  0.4920
  258TMC3     C 3963   3.059   1.597  13.722 -0.7608 -0.1105  0.8370
  258TMC3     O 3964   3.177   1.621  13.747  0.4651  0.1735 -0.0703
  258TMC3     H 3965   2.877   1.443  13.614  0.3582  0.1600  0.9927
  258TMC3    H1 3966   3.134   1.499  13.950  0.6846 -0.9133 -0.4592
  258TMC3    H2 3967   2.961   1.120  13.862  0.2505 -0.5430 -0.8061
  258TMC3    C7 3968   3.104   1.246  14.048 -0.2560 -0.6355 -0.5911
  258TMC3    C8 3969   2.888   1.185  13.637  0.4882  0.4513  0.1464
  258TMC3    O1 3970   3.058   1.137  14.087 -0.0079 -0.1249 -0.1492
  258TMC3    O2 3971   2.825   1.084  13.671 -0.0827 -0.4344  0.2835
  259MPD2     C 3972   1.337   3.433   0.402 -0.2095  0.4023 -0.1956
  259MPD2    C1 3973   1.420   3.415   0.511  0.4660  0.0536  0.7859
  259MPD2    C2 3974   1.552   3.381   0.495  0.9292  0.6573  0.4741
  259MPD2    C3 3975   1.608   3.354   0.370  0.0475  0.2297 -0.6277
  259MPD2    C4 3976   1.527   3.366   0.255 -0.9288  0.5176 -0.1463
  259MPD2    C5 3977   1.395   3.417   0.277 -0.0952 -0.4141 -0.2845
  259MPD2     H 3978   1.616   3.354   0.579 -1.0251 -1.6965  1.1947
  259MPD2    H1 3979   1.559   3.351   0.153  5.2736 -0.8018  1.9995
  259MPD2    H2 3980   1.235   3.461   0.424 -0.8024  0.4545 -3.0039
  259MPD2    H3 3981   1.328   3.427   0.193  0.4813 -1.3175 -0.8550
  259MPD2     N 3982   1.740   3.304   0.364  0.5114  0.3213 -0.0094
  259MPD2    H5 3983   1.800   3.317   0.444  0.4389 -0.1887  0.1240
  259MPD2    N1 3984   1.356   3.425   0.635 -0.0101  0.3221  0.4687
  259MPD2    H7 3985   1.254   3.427   0.634 -0.0090 -0.2713 -1.8791
  260TMC3    C1 3986   1.938   3.207   0.288  0.0307 -0.5227 -0.1668
  260TMC3    C2 3987   2.034   3.202   0.194 -0.3682 -0.3812 -0.2974
  260TMC3    C3 3988   2.158   3.158   0.225 -0.8087  0.2378  0.2391
  260TMC3    C4 3989   1.950   3.156   0.416  0.3524 -0.4569 -0.1757
  260TMC3    C5 3990   2.077   3.096   0.443 -0.6262 -0.3179  0.2494
  260TMC3    C6 3991   2.182   3.117   0.353  0.5069  0.4994  0.9613
  260TMC3     C 3992   1.807   3.261   0.248 -0.0732  0.1995 -0.1598
  260TMC3     O 3993   1.782   3.271   0.131 -0.0598  0.5504 -0.1023
  260TMC3     H 3994   2.010   3.240   0.096  1.4431  3.2113  0.6345
  260TMC3    H1 3995   1.874   3.141   0.492 -0.3654  1.0856 -0.5866
  260TMC3    H2 3996   2.278   3.079   0.388  1.3433 -0.5830 -2.5746
  260TMC3    C7 3997   2.079   2.960   0.483 -0.2927 -0.3307 -0.1091
  260TMC3    C8 3998   2.234   3.093   0.123  0.3447  0.4288  0.4635
  260TMC3    O1 3999   2.163   2.887   0.435  0.4686  0.5471 -0.3517
  260TMC3    O2 4000   2.260   3.146   0.013 -0.8382 -0.4691 -0.3433
  261MPD2     C 4001   2.715   1.591  12.206 -0.3916  0.4460 -0.1084
  261MPD2    C1 4002   2.798   1.682  12.262 -0.3066 -0.2351 -0.2065
  261MPD2    C2 4003   2.868   1.767  12.173 -0.0247  0.0228 -0.2411
  261MPD2    C3 4004   2.848   1.765  12.034  0.2165 -0.1368 -0.2752
  261MPD2    C4 4005   2.753   1.667  11.983  0.2610  0.1605 -0.2236
  261MPD2    C5 4006   2.700   1.572  12.070 -0.3608 -0.5592 -0.6572
  261MPD2     H 4007   2.942   1.836  12.213  1.2570 -1.3357 -0.2563
  261MPD2    H1 4008   2.738   1.663  11.876 -0.0912  0.0264 -0.1678
  261MPD2    H2 4009   2.658   1.523  12.268 -0.2967  0.5506  0.0947
  261MPD2    H3 4010   2.636   1.494  12.029 -0.2970 -1.3995  0.8493
  261MPD2     N 4011   2.921   1.862  11.956 -0.3702  0.2808  0.3447
  261MPD2    H5 4012   2.975   1.933  12.003 -0.4582 -0.8916  2.2267
  261MPD2    N1 4013   2.826   1.699  12.396  0.4774 -0.4172 -0.1769
  261MPD2    H7 4014   2.893   1.774  12.410  2.6191 -2.3098 -0.3429
  262TMC3    C1 4015   3.035   1.946  11.775 -0.0023 -0.6433 -0.3429
  262TMC3    C2 4016   3.067   2.048  11.861  0.0509  0.1393  0.4609
  262TMC3    C3 4017   3.156   2.144  11.816  0.2914 -0.6464 -0.4633
  262TMC3    C4 4018   3.081   1.931  11.643 -0.2694 -0.0043 -0.2742
  262TMC3    C5 4019   3.161   2.035  11.596 -0.3923  0.4002 -0.0513
  262TMC3    C6 4020   3.202   2.143  11.686 -0.1668  0.0457  0.2442
  262TMC3     C 4021   2.931   1.852  11.821 -0.5282 -1.0365 -1.3155
  262TMC3     O 4022   2.887   1.767  11.744  0.1874  0.4633 -0.3469
  262TMC3     H 4023   3.039   2.052  11.965  0.8442  0.0897  0.6755
  262TMC3    H1 4024   3.075   1.832  11.599  0.5270 -0.3070  0.3084
  262TMC3    H2 4025   3.283   2.208  11.654 -1.6276  0.5707 -2.3677
  262TMC3    C7 4026   3.210   2.018  11.462  0.1067  0.1424  0.2672
  262TMC3    C8 4027   3.150   2.262  11.896 -0.4837 -0.7817 -0.2661
  262TMC3    O1 4028   3.220   1.906  11.408 -0.2354 -0.2952 -0.4982
  262TMC3    O2 4029   3.057   2.264  11.977  0.0231  0.1065  0.0978
  263MPD2     C 4030   4.435   1.276  11.495 -0.2690  0.2817 -0.8107
  263MPD2    C1 4031   4.558   1.239  11.442  0.5182 -0.0037 -0.4323
  263MPD2    C2 4032   4.586   1.274  11.308 -0.5727  0.1128 -0.5993
  263MPD2    C3 4033   4.489   1.340  11.231  0.0598  0.2067 -0.1355
  263MPD2    C4 4034   4.361   1.370  11.283  0.6587 -0.1001 -0.6049
  263MPD2    C5 4035   4.339   1.339  11.419 -0.5755 -0.5763  0.3186
  263MPD2     H 4036   4.679   1.243  11.260  0.5685  0.6323  1.2816
  263MPD2    H1 4037   4.288   1.428  11.228  1.1195  0.0333 -1.0783
  263MPD2    H2 4038   4.413   1.253  11.599  0.4355 -1.1950 -0.9939
  263MPD2    H3 4039   4.248   1.376  11.465 -1.1857 -0.3343 -1.0728
  263MPD2     N 4040   4.528   1.367  11.098  0.3656  0.2451 -0.7095
  263MPD2    H5 4041   4.624   1.367  11.068  0.3147 -0.5871 -0.8843
  263MPD2    N1 4042   4.645   1.169  11.525 -0.5223 -0.0840 -0.0657
  263MPD2    H7 4043   4.599   1.135  11.609 -0.3846  0.1211  0.0928
  264TMC3    C1 4044   4.504   1.447  10.878 -0.3848  0.6614  0.1634
  264TMC3    C2 4045   4.429   1.519  10.786 -0.4402  0.0620  0.2339
  264TMC3    C3 4046   4.462   1.539  10.654 -0.6980  0.2052  0.0670
  264TMC3    C4 4047   4.625   1.389  10.833 -0.5805  0.2147  0.9172
  264TMC3    C5 4048   4.647   1.403  10.701 -1.0603  1.0254 -0.2589
  264TMC3    C6 4049   4.566   1.464  10.616  0.7879 -0.0544 -0.5109
  264TMC3     C 4050   4.437   1.407  11.001  0.2372  0.1466 -0.1525
  264TMC3     O 4051   4.314   1.428  11.004 -0.4018 -0.0678  0.0143
  264TMC3     H 4052   4.341   1.566  10.830  0.7578  1.1506  1.4747
  264TMC3    H1 4053   4.686   1.323  10.894  1.1736 -0.7122 -1.8868
  264TMC3    H2 4054   4.598   1.461  10.513 -2.4680 -1.7862 -1.4653
  264TMC3    C7 4055   0.035   1.365  10.651  0.1580  0.3651 -0.1791
  264TMC3    C8 4056   4.485   1.679  10.628  0.1192  0.2940  0.0286
  264TMC3    O1 4057   0.048   1.338  10.533  1.0580 -0.2995 -0.2980
  264TMC3    O2 4058   4.581   1.692  10.560  0.7258 -0.4455 -0.2242
  265MPD2     C 4059   1.655   1.680  15.275  0.9147  0.1906  0.0513
  265MPD2    C1 4060   1.744   1.789  15.263  0.6030 -0.9564  0.6229
  265MPD2    C2 4061   1.836   1.793  15.156  0.3425 -0.4826 -0.1097
  265MPD2    C3 4062   1.830   1.687  15.067  0.0557  0.4941 -0.2961
  265MPD2    C4 4063   1.739   1.578  15.086 -0.1852  0.3563 -0.1039
  265MPD2    C5 4064   1.649   1.578  15.186 -0.5240 -0.1304 -0.2169
  265MPD2     H 4065   1.906   1.874  15.141  0.5912  0.0238  3.7036
  265MPD2    H1 4066   1.742   1.487  15.026 -2.4678  0.0523  0.2306
  265MPD2    H2 4067   1.589   1.682  15.361  2.0784  0.9839  0.9363
  265MPD2    H3 4068   1.564   1.510  15.188 -0.1563 -0.5920 -0.3442
  265MPD2     N 4069   1.916   1.674  14.957 -0.3463 -0.4464 -0.2477
  265MPD2    H5 4070   1.892   1.600  14.892  1.3179 -0.8158 -0.4253
  265MPD2    N1 4071   1.737   1.904  15.349 -0.4890  0.4275  1.5453
  265MPD2    H7 4072   1.817   1.966  15.350  1.7366 -2.4475  0.6052
  266TMC3    C1 4073   1.625   2.040  15.524 -0.4457  0.2056  0.1435
  266TMC3    C2 4074   1.735   2.064  15.601  0.7937 -0.1289 -0.6209
  266TMC3    C3 4075   1.724   2.156  15.708  0.4572 -0.0583 -0.9202
  266TMC3    C4 4076   1.509   2.108  15.540  0.3934  0.4245  0.7375
  266TMC3    C5 4077   1.499   2.204  15.636  0.6630  0.0674 -0.5908
  266TMC3    C6 4078   1.609   2.237  15.717 -1.3177  0.5889 -0.4225
  266TMC3     C 4079   1.617   1.935  15.417 -0.0991  0.1351 -0.6309
  266TMC3     O 4080   1.506   1.895  15.398 -0.0170 -0.1230 -0.1489
  266TMC3     H 4081   1.829   2.013  15.585  2.2620  2.2647  0.4199
  266TMC3    H1 4082   1.435   2.100  15.462  0.6548  2.0189  0.3130
  266TMC3    H2 4083   1.609   2.330  15.772 -0.8508  0.9785 -1.0721
  266TMC3    C7 4084   1.372   2.249  15.680 -0.0177 -0.7828  0.0680
  266TMC3    C8 4085   1.828   2.164  15.811  0.2004 -0.7019 -0.1440
  266TMC3    O1 4086   1.308   2.329  15.612 -0.2793  0.2716 -0.3343
  266TMC3    O2 4087   1.896   2.065  15.831 -0.6518 -0.1182 -0.5961
  267MPD2     C 4088   3.986   3.935   0.341 -0.0850 -0.1637  0.0486
  267MPD2    C1 4089   4.033   3.895   0.221 -0.6555 -0.1895  0.4310
  267MPD2    C2 4090   3.979   3.953   0.111 -0.0032  0.0813 -0.0182
  267MPD2    C3 4091   3.867   4.030   0.121  0.2144  0.2328 -0.1507
  267MPD2    C4 4092   3.810   4.054   0.243 -0.0455  0.0112  0.0117
  267MPD2    C5 4093   3.886   4.019   0.350 -0.4652  0.2201  0.1302
  267MPD2     H 4094   4.000   3.907   0.015 -0.4866 -0.4499  0.1298
  267MPD2    H1 4095   3.710   4.090   0.264 -1.0316 -0.6300 -3.6635
  267MPD2    H2 4096   4.036   3.905   0.433  1.5731 -0.8214 -1.0534
  267MPD2    H3 4097   3.856   4.042   0.451 -0.1175  1.9735 -0.1675
  267MPD2     N 4098   3.791   4.066   0.008 -0.4009 -0.5172 -0.4169
  267MPD2    H5 4099   3.707   4.120   0.029  0.8864  0.4122  2.3718
  267MPD2    N1 4100   4.126   3.786   0.218 -0.2604  0.0132 -0.1279
  267MPD2    H7 4101   4.148   3.735   0.303 -1.5583  0.0848  0.2609
  268TMC3    C1 4102   4.279   3.625   0.154  0.4042 -0.3382 -0.5974
  268TMC3    C2 4103   4.389   3.614   0.078  0.6025 -0.1702  0.2842
  268TMC3    C3 4104   4.479   3.516   0.099  0.5989  0.0279 -0.0140
  268TMC3    C4 4105   4.260   3.548   0.262 -0.3415 -0.7134  0.4707
  268TMC3    C5 4106   4.344   3.441   0.275 -0.2125 -0.4055  0.1644
  268TMC3    C6 4107   4.457   3.432   0.202  0.2321 -0.1730  0.0464
  268TMC3     C 4108   4.185   3.731   0.109 -0.1227 -0.1837  0.0068
  268TMC3     O 4109   4.179   3.755  17.755 -0.0528  0.3432 -0.1746
  268TMC3     H 4110   4.399   3.685  17.760  2.5720 -1.6563 -0.7661
  268TMC3    H1 4111   4.179   3.565   0.333  0.0450  1.2299  0.4496
  268TMC3    H2 4112   4.534   3.356   0.213 -1.3393 -1.7434  0.3217
  268TMC3    C7 4113   4.308   3.328   0.362  0.2210  0.4272  0.6590
  268TMC3    C8 4114   4.564   3.475  17.755  0.2230  0.6194  0.0250
  268TMC3    O1 4115   4.406   3.269   0.401 -0.1451 -0.0179 -0.0602
  268TMC3    O2 4116   4.606   3.361  17.759 -0.2169 -0.2051  0.6464
  269MPD2     C 4117   4.469   2.681  15.161 -0.5026  0.0516 -0.4836
  269MPD2    C1 4118   4.359   2.693  15.248 -0.2534 -0.1186  0.4266
  269MPD2    C2 4119   4.301   2.820  15.265  0.5686  0.4323 -0.0245
  269MPD2    C3 4120   4.361   2.930  15.203  0.4742  0.1415  1.0018
  269MPD2    C4 4121   4.460   2.911  15.104 -0.8401  0.1380 -1.0086
  269MPD2    C5 4122   4.518   2.790  15.095  0.4717  0.2834 -0.9617
  269MPD2     H 4123   4.223   2.833  15.338 -1.6906  0.7000 -2.5148
  269MPD2    H1 4124   4.523   2.984  15.054 -0.0093  0.1309  0.0301
  269MPD2    H2 4125   4.527   2.590  15.150 -1.1080 -0.4835  0.8332
  269MPD2    H3 4126   4.613   2.783  15.043  0.6799 -0.7339 -0.4411
  269MPD2     N 4127   4.321   3.057  15.247 -0.0620 -0.5064  0.1909
  269MPD2    H5 4128   4.270   3.049  15.334 -0.5767 -1.1722 -0.1763
  269MPD2    N1 4129   4.301   2.574  15.294 -0.1946 -0.4005  0.5552
  269MPD2    H7 4130   4.368   2.498  15.304  0.3403  0.3096  2.4657
  270TMC3    C1 4131   4.162   2.419  15.374  0.9328  0.3716 -0.0935
  270TMC3    C2 4132   4.038   2.359  15.363 -0.3601  0.0516 -0.5417
  270TMC3    C3 4133   4.031   2.226  15.406 -0.6938  0.3188  1.0752
  270TMC3    C4 4134   4.275   2.357  15.420  0.1375 -0.3259  0.5581
  270TMC3    C5 4135   4.266   2.224  15.467 -0.0648 -0.1702  0.1105
  270TMC3    C6 4136   4.144   2.161  15.455  0.2382 -0.0277 -0.0413
  270TMC3     C 4137   4.170   2.562  15.340 -0.1795  0.4373  0.1306
  270TMC3     O 4138   4.069   2.623  15.308 -0.1577  0.6366 -0.3058
  270TMC3     H 4139   3.951   2.404  15.316  0.1138  1.8406  0.3034
  270TMC3    H1 4140   4.371   2.403  15.439 -0.9866  2.0594  0.4770
  270TMC3    H2 4141   4.124   2.063  15.496 -0.5500  0.3080  0.3691
  270TMC3    C7 4142   4.374   2.143  15.413 -0.3047 -0.1484 -0.0529
  270TMC3    C8 4143   3.949   2.141  15.323 -0.0698  0.0492  0.8322
  270TMC3    O1 4144   4.487   2.186  15.424 -0.3049 -0.4188  0.0848
  270TMC3    O2 4145   3.993   2.026  15.311  0.1655 -0.5934  0.4073
  271MPD2     C 4146   3.624   2.059  13.536 -0.2322  0.0473 -0.0340
  271MPD2    C1 4147   3.651   2.158  13.630 -1.0008  0.6383  0.4159
  271MPD2    C2 4148   3.593   2.283  13.623  0.5025  0.0479  0.2440
  271MPD2    C3 4149   3.504   2.316  13.518  0.0012  0.5936 -0.0308
  271MPD2    C4 4150   3.478   2.217  13.414 -0.2113  0.6241  0.0977
  271MPD2    C5 4151   3.539   2.090  13.433  0.0385  0.2643 -0.5178
  271MPD2     H 4152   3.612   2.351  13.706  1.1291  0.7595 -0.4870
  271MPD2    H1 4153   3.418   2.236  13.326 -0.6205 -0.7610  0.0722
  271MPD2    H2 4154   3.666   1.959  13.542  1.2808  0.5893 -1.6763
  271MPD2    H3 4155   3.519   2.009  13.364 -2.2702  0.8688 -0.5611
  271MPD2     N 4156   3.442   2.439  13.501  0.1226 -0.0198  0.8235
  271MPD2    H5 4157   3.385   2.455  13.418 -0.2167  0.5224  1.1629
  271MPD2    N1 4158   3.729   2.130  13.744 -0.5650 -0.3072 -0.6211
  271MPD2    H7 4159   3.746   2.195  13.820 -0.0502 -0.4135 -0.6492
  272TMC3    C1 4160   3.830   2.001  13.907 -0.5027  0.6390  0.5811
  272TMC3    C2 4161   3.961   2.004  13.950  0.3524  0.0607  0.6317
  272TMC3    C3 4162   3.978   2.007  14.090  0.1244  0.0646  0.4042
  272TMC3    C4 4163   3.725   2.017  13.986 -0.1632  0.4235  0.4379
  272TMC3    C5 4164   3.750   2.014  14.118  0.1709 -0.0673 -0.5155
  272TMC3    C6 4165   3.869   1.993  14.176 -0.2177 -0.4159 -0.2036
  272TMC3     C 4166   3.803   2.015  13.768 -0.3221  0.2573  0.2817
  272TMC3     O 4167   3.858   1.944  13.681  0.3158 -0.3582  0.4935
  272TMC3     H 4168   4.044   2.018  13.882  1.2666  0.3920  1.8292
  272TMC3    H1 4169   3.625   2.027  13.947 -0.3856 -2.6100  0.2516
  272TMC3    H2 4170   3.885   1.986  14.283 -0.7299  0.5301 -0.0592
  272TMC3    C7 4171   3.636   2.054  14.200 -0.6872  0.2436  0.1915
  272TMC3    C8 4172   4.104   2.042  14.141 -0.3379  0.4964 -0.4273
  272TMC3    O1 4173   3.523   2.052  14.151 -0.1280  0.0756 -0.0440
  272TMC3    O2 4174   4.164   2.122  14.072  0.6142 -0.4639 -0.2963
  273MPD2     C 4175   0.258   4.537  11.974  0.4968 -0.2643 -0.6142
  273MPD2    C1 4176   0.385   4.600  11.967  0.1105  0.1846 -0.2084
  273MPD2    C2 4177   0.413   4.692  11.873  0.4369 -0.4832  0.0451
  273MPD2    C3 4178   0.318   4.729  11.777 -0.1022 -0.1387  0.2067
  273MPD2    C4 4179   0.198   4.658  11.784  0.3164 -0.1207  0.2349
  273MPD2    C5 4180   0.163   4.572  11.885 -0.1318 -0.8548 -0.3842
  273MPD2     H 4181   0.507   0.005  11.871  0.4926 -0.5895 -0.2586
  273MPD2    H1 4182   0.119   4.679  11.714  1.7416  1.3691 -0.9147
  273MPD2    H2 4183   0.231   4.463  12.048  1.1129  1.0088  0.8854
  273MPD2    H3 4184   0.063   4.529  11.881 -1.0653  1.1785  1.0834
  273MPD2     N 4185   0.330   0.086  11.673  0.3929 -0.2988  0.2427
  273MPD2    H5 4186   0.248   0.113  11.622  1.2921 -0.7983 -1.4682
  273MPD2    N1 4187   0.489   4.549  12.052 -0.0911  0.1657 -0.8314
  273MPD2    H7 4188   0.448   4.493  12.125  2.8745 -0.6624  0.1966
  274TMC3    C1 4189   0.432   0.242  11.535  0.2548  0.0880 -0.2052
  274TMC3    C2 4190   0.314   0.246  11.464  0.4262 -0.3035 -0.3397
  274TMC3    C3 4191   0.321   0.294  11.339 -0.2546 -0.1784  0.2930
  274TMC3    C4 4192   0.548   0.303  11.488  0.2579 -0.0599 -0.4105
  274TMC3    C5 4193   0.545   0.357  11.364 -0.5567 -0.9037  0.0319
  274TMC3    C6 4194   0.433   0.365  11.290 -0.0890  0.1351  0.1577
  274TMC3     C 4195   0.435   0.169  11.658  0.1020 -0.0148  0.4451
  274TMC3     O 4196   0.528   0.189  11.736  0.0350  0.1249  0.2496
  274TMC3     H 4197   0.219   0.221  11.509  0.9225 -0.2911  0.7109
  274TMC3    H1 4198   0.638   0.285  11.546  1.2780  2.9567 -1.0576
  274TMC3    H2 4199   0.422   0.424  11.200  0.9021  0.9824  0.5997
  274TMC3    C7 4200   0.664   0.426  11.312 -0.6741 -0.4414  0.2448
  274TMC3    C8 4201   0.212   0.271  11.255  0.1135 -0.3255  0.5749
  274TMC3    O1 4202   0.680   0.385  11.198  0.6636  0.5114 -0.5983
  274TMC3    O2 4203   0.104   0.268  11.308  0.1570  0.2844  0.3296
  275MPD2     C 4204   4.667   3.701  14.593 -0.5642 -0.2123  0.4648
  275MPD2    C1 4205   4.673   3.588  14.671 -0.0313 -0.4633 -0.0566
  275MPD2    C2 4206   4.630   3.464  14.611  0.5789 -0.8302 -0.1966
  275MPD2    C3 4207   4.566   3.471  14.490 -0.5047  0.6823  0.1830
  275MPD2    C4 4208   4.567   3.590  14.415 -0.3294  0.3932 -0.7442
  275MPD2    C5 4209   4.619   3.701  14.465  0.1885 -0.1192  0.2258
  275MPD2     H 4210   4.643   3.371  14.665 -1.8591 -2.0977 -1.7584
  275MPD2    H1 4211   4.532   3.596  14.313 -0.0897 -1.4189 -0.9266
  275MPD2    H2 4212   4.699   3.795  14.636  2.3214 -0.1857 -1.7556
  275MPD2    H3 4213   4.609   3.788  14.400 -0.6922 -0.0850  0.3995
  275MPD2     N 4214   4.512   3.356  14.428  0.1148 -0.0021  0.4147
  275MPD2    H5 4215   4.438   3.373  14.361  0.5558 -1.4422 -0.4264
  275MPD2    N1 4216   4.713   3.592  14.807  0.1995 -0.2935  0.3386
  275MPD2    H7 4217   4.720   3.509  14.866 -2.9767 -0.3669  0.6139
  276TMC3    C1 4218   0.075   3.669  15.014 -0.6547  0.9343  0.4003
  276TMC3    C2 4219   4.737   3.583  15.089 -0.8103  0.2931 -0.2487
  276TMC3    C3 4220   0.022   3.569  15.221  0.0679 -0.4860  0.2446
  276TMC3    C4 4221   0.190   3.724  15.062 -0.7519  0.0291 -0.3305
  276TMC3    C5 4222   0.208   3.709  15.198  0.8083  0.1790  0.3295
  276TMC3    C6 4223   0.122   3.637  15.280  0.0635  0.6121 -0.1392
  276TMC3     C 4224   0.039   3.692  14.870  0.5633 -0.5566 -0.0485
  276TMC3     O 4225   0.109   3.778  14.811  1.1602 -0.3066  0.1184
  276TMC3     H 4226   4.644   3.549  15.046  0.2032 -2.9137  0.1158
  276TMC3    H1 4227   0.242   3.804  15.010  1.6096 -0.3809  1.4059
  276TMC3    H2 4228   0.141   3.623  15.385  0.4306 -1.6892 -0.5126
  276TMC3    C7 4229   0.342   3.701  15.246 -1.0020 -0.2028 -0.3015
  276TMC3    C8 4230   4.721   3.449  15.288 -0.2347  0.2626 -0.5713
  276TMC3    O1 4231   0.358   3.701  15.369 -0.4723 -0.7496  0.7859
  276TMC3    O2 4232   4.680   3.465  15.405  0.3888  0.2145 -0.2990
  277MPD2     C 4233   1.963   2.223  13.381  0.4723  0.1091  0.0527
  277MPD2    C1 4234   1.828   2.237  13.391  0.1316 -0.9219 -0.9138
  277MPD2    C2 4235   1.755   2.142  13.467  0.2116 -0.2393 -0.1280
  277MPD2    C3 4236   1.812   2.039  13.535  0.2214 -0.3827 -0.6216
  277MPD2    C4 4237   1.947   2.027  13.527 -0.2992 -0.2820  0.0866
  277MPD2    C5 4238   2.016   2.117  13.449  0.2690 -0.0989 -0.6636
  277MPD2     H 4239   1.648   2.143  13.480  0.2198 -1.8548  0.0335
  277MPD2    H1 4240   1.996   1.936  13.559 -1.8507 -1.7390 -1.7212
  277MPD2    H2 4241   2.029   2.283  13.320  0.0342  1.7220  1.1677
  277MPD2    H3 4242   2.124   2.118  13.449  0.2612  1.7806 -0.8565
  277MPD2     N 4243   1.730   1.952  13.619 -0.0569  1.0652 -0.0835
  277MPD2    H5 4244   1.631   1.973  13.615  0.1827  2.0405 -1.0216
  277MPD2    N1 4245   1.758   2.335  13.314  0.4388  0.3939 -0.9586
  277MPD2    H7 4246   1.816   2.395  13.256 -0.5147 -0.1035 -2.4126
  278TMC3    C1 4247   1.667   1.770  13.752  0.1109  0.3094  0.4948
  278TMC3    C2 4248   1.689   1.638  13.727  0.3050  0.3139  0.2340
  278TMC3    C3 4249   1.587   1.557  13.682  0.2488 -0.1463  0.5720
  278TMC3    C4 4250   1.542   1.820  13.748  0.0789 -0.2612 -0.1929
  278TMC3    C5 4251   1.434   1.731  13.734  0.4633 -0.1962  0.3523
  278TMC3    C6 4252   1.458   1.594  13.699  0.1639  0.3014  0.5946
  278TMC3     C 4253   1.778   1.854  13.703  0.3425  0.3496 -0.4162
  278TMC3     O 4254   1.889   1.803  13.707  0.0870  0.2354 -0.0286
  278TMC3     H 4255   1.792   1.602  13.729 -0.5896 -2.1560  2.4144
  278TMC3    H1 4256   1.527   1.926  13.770 -0.5690 -0.5028  0.5292
  278TMC3    H2 4257   1.370   1.533  13.686  0.0826  0.5552 -0.0520
  278TMC3    C7 4258   1.300   1.785  13.751  0.2114  0.2626 -0.8202
  278TMC3    C8 4259   1.618   1.416  13.648  0.2719 -0.1375 -0.8126
  278TMC3    O1 4260   1.302   1.882  13.828  0.3243  0.3318  0.3889
  278TMC3    O2 4261   1.736   1.378  13.651 -0.8004  0.4524  0.3277
  279MPD2     C 4262   1.438   1.840   0.171 -0.6436 -0.0693  0.2197
  279MPD2    C1 4263   1.306   1.802   0.138 -0.4261 -0.1723  1.0361
  279MPD2    C2 4264   1.261   1.824   0.013 -0.6550  0.3597  0.2431
  279MPD2    C3 4265   1.332   1.890  17.683  0.5059 -0.0835 -0.2931
  279MPD2    C4 4266   1.463   1.932  17.713  0.3271 -1.2644  0.1290
  279MPD2    C5 4267   1.513   1.906   0.073  0.7200  0.0680 -0.2276
  279MPD2     H 4268   1.161   1.790  17.750 -0.5907  0.3158  0.0559
  279MPD2    H1 4269   1.532   1.990  17.653 -2.8479 -0.2206 -2.5008
  279MPD2    H2 4270   1.471   1.832   0.274 -0.4700  0.9377  0.2427
  279MPD2    H3 4271   1.604   1.955   0.106  0.9072  0.4698 -1.3229
  279MPD2     N 4272   1.282   1.907  17.551 -0.0538 -0.1440 -0.3700
  279MPD2    H5 4273   1.342   1.958  17.487  3.8548 -1.0022  2.6015
  279MPD2    N1 4274   1.230   1.754   0.240 -0.6204 -0.0045 -0.0154
  279MPD2    H7 4275   1.270   1.771   0.332  0.1909 -0.6664 -0.2528
  280TMC3    C1 4276   1.049   1.662   0.367 -0.0842  0.0532 -0.1424
  280TMC3    C2 4277   0.945   1.576   0.359  0.3204 -0.1445 -0.4140
  280TMC3    C3 4278   0.840   1.586   0.448 -0.4112  0.8718  0.2967
  280TMC3    C4 4279   1.043   1.777   0.446  0.0478 -0.3496 -0.0249
  280TMC3    C5 4280   0.925   1.796   0.512  0.5009  0.0520  0.6285
  280TMC3    C6 4281   0.818   1.708   0.509 -0.4377 -0.1996  0.1726
  280TMC3     C 4282   1.117   1.683   0.236  0.4222 -0.0637 -0.0892
  280TMC3     O 4283   1.065   1.629   0.139 -0.9552 -0.4413 -0.3027
  280TMC3     H 4284   0.961   1.483   0.305 -0.9563 -1.9760  2.3405
  280TMC3    H1 4285   1.104   1.865   0.431 -1.2257  0.8508  1.8876
  280TMC3    H2 4286   0.731   1.726   0.572 -0.0123  0.0524  0.6931
  280TMC3    C7 4287   0.912   1.920   0.580 -0.6441 -0.2340  0.5012
  280TMC3    C8 4288   0.750   1.475   0.472  0.0994 -0.6455 -0.6413
  280TMC3    O1 4289   1.013   1.973   0.630 -0.0681  0.4590  0.1252
  280TMC3    O2 4290   0.690   1.474   0.578 -0.1865 -0.9122  0.1986
  281TMC3    C1 4291   4.284   2.608  12.809  0.2955 -0.7363 -0.6447
  281TMC3    C2 4292   4.314   2.690  12.695  0.0712 -0.8041 -0.3119
  281TMC3    C3 4293   4.418   2.658  12.613 -0.4538 -0.1861 -0.0259
  281TMC3    C4 4294   4.367   2.501  12.837  0.3031 -0.1113  0.1124
  281TMC3    C5 4295   4.468   2.472  12.749  0.5221  0.0597  1.0664
  281TMC3    C6 4296   4.497   2.541  12.633 -0.0749 -0.3371 -0.5893
  281TMC3     C 4297   4.139   2.586  12.829 -0.0196 -0.1391  0.4950
  281TMC3     O 4298   4.090   2.477  12.851  1.0955  0.0151 -0.0291
  281TMC3     H 4299   4.244   2.764  12.658  0.7142  0.4364  0.9902
  281TMC3    H1 4300   4.322   2.422  12.897 -3.6039  0.3107 -2.2330
  281TMC3    H2 4301   4.585   2.522  12.572 -1.0459 -1.2607 -1.6858
  281TMC3    C7 4302   4.524   2.342  12.753 -0.1378  0.4748 -0.5255
  281TMC3    C8 4303   4.366   2.647  12.479 -0.2946  0.1425 -0.3082
  281TMC3    O1 4304   4.599   2.307  12.663  0.7892  0.7769 -0.1903
  281TMC3    O2 4305   4.309   2.745  12.435  0.7574 -0.3622 -0.0519
  282MPD2     C 4306   1.708   3.813  14.948 -0.3356  0.3338 -0.3145
  282MPD2    C1 4307   1.581   3.816  15.002 -0.1296  0.0933 -0.3857
  282MPD2    C2 4308   1.473   3.783  14.918 -0.1005 -0.0817  0.3923
  282MPD2    C3 4309   1.504   3.759  14.784 -0.4707 -0.2358  0.8453
  282MPD2    C4 4310   1.633   3.760  14.733  0.6196 -0.5570  0.2009
  282MPD2    C5 4311   1.735   3.786  14.813  0.1277 -0.6617 -0.5378
  282MPD2     H 4312   1.374   3.785  14.962 -1.8374  1.1196 -3.5911
  282MPD2    H1 4313   1.660   3.737  14.631 -1.8295 -1.0953 -0.3219
  282MPD2    H2 4314   1.797   3.833  15.006 -1.2642  2.6557  0.2776
  282MPD2    H3 4315   1.836   3.793  14.775 -0.1291  0.6940 -0.9651
  282MPD2     N 4316   1.387   3.758  14.698 -0.3411 -0.2826  0.1086
  282MPD2    H5 4317   1.303   3.793  14.744  0.9062  0.7951  1.5666
  282MPD2    N1 4318   1.557   3.839  15.135 -0.4213 -0.0866 -0.0842
  282MPD2    H7 4319   1.469   3.805  15.175  0.3200 -0.3950  1.2839
  283TMC3    C1 4320   1.610   3.938  15.351  0.5783  0.0780 -0.1351
  283TMC3    C2 4321   1.672   4.049  15.412 -0.6968 -0.0856 -0.1378
  283TMC3    C3 4322   1.672   4.028  15.555  0.6498  0.2861  0.2461
  283TMC3    C4 4323   1.552   3.831  15.412 -0.1920  0.3843  0.5763
  283TMC3    C5 4324   1.546   3.831  15.550  0.7839  0.4112 -0.1348
  283TMC3    C6 4325   1.610   3.917  15.625  0.5360  0.5541  0.9221
  283TMC3     C 4326   1.646   3.921  15.209 -0.1380 -0.3480 -0.1913
  283TMC3     O 4327   1.717   4.006  15.159  0.3120  0.2574  0.1133
  283TMC3     H 4328   1.715   4.132  15.357 -0.7496  0.8254  1.1868
  283TMC3    H1 4329   1.535   3.738  15.359  2.6124  0.2263 -0.0543
  283TMC3    H2 4330   1.614   3.913  15.733 -2.5010  1.5918  1.0744
  283TMC3    C7 4331   1.482   3.718  15.621 -0.1183 -1.0257  0.1343
  283TMC3    C8 4332   1.701   4.141  15.636 -0.4831 -0.1517 -0.7460
  283TMC3    O1 4333   1.511   3.704  15.740  0.0084  0.1090  1.0101
  283TMC3    O2 4334   1.750   4.120  15.746  0.4341 -0.5021  0.4317
  284MPD2     C 4335   4.516   2.967  11.493 -0.4248 -0.1116 -0.3592
  284MPD2    C1 4336   4.601   2.877  11.435  0.7500  0.0725  0.2104
  284MPD2    C2 4337   4.570   2.743  11.432  0.0384  0.4162 -0.2915
  284MPD2    C3 4338   4.449   2.693  11.485  0.0687  0.3463 -0.4843
  284MPD2    C4 4339   4.366   2.787  11.550 -0.0815 -0.1688  0.2510
  284MPD2    C5 4340   4.402   2.920  11.553  0.7186 -0.2884  0.0305
  284MPD2     H 4341   4.648   2.683  11.387  0.7633  0.4411  0.9464
  284MPD2    H1 4342   4.265   2.761  11.579 -0.4007 -0.2037 -0.8838
  284MPD2    H2 4343   4.528   3.073  11.512  1.4539 -0.3911  0.0424
  284MPD2    H3 4344   4.333   2.993  11.592  1.6464 -0.0533  1.2158
  284MPD2     N 4345   4.411   2.553  11.480 -0.1210  0.3985 -0.1914
  284MPD2    H5 4346   4.326   2.528  11.531 -0.0627 -0.7284 -0.6494
  284MPD2    N1 4347   4.722   2.914  11.372  0.1463  0.1654 -0.7824
  284MPD2    H7 4348   0.027   2.839  11.322 -1.7254 -0.4633 -1.6054
  285TMC3    C1 4349   0.152   3.046  11.293 -0.6334  0.5060  0.0078
  285TMC3    C2 4350   0.189   2.945  11.210  0.8525  1.0024  0.3011
  285TMC3    C3 4351   0.305   2.957  11.138 -0.3280 -0.3078 -0.4842
  285TMC3    C4 4352   0.226   3.159  11.309 -0.9441  0.1306  0.7306
  285TMC3    C5 4353   0.345   3.165  11.242 -0.2889  0.3096 -0.0357
  285TMC3    C6 4354   0.385   3.067  11.157 -0.6971  0.3919 -0.3138
  285TMC3     C 4355   0.035   3.035  11.375  0.0110  0.3535 -0.1156
  285TMC3     O 4356   0.016   3.126  11.456 -0.1918 -0.0673  0.2386
  285TMC3     H 4357   0.127   2.859  11.189  1.2147  0.0797  3.0780
  285TMC3    H1 4358   0.204   3.225  11.392 -1.7166  0.7347  0.0486
  285TMC3    H2 4359   0.471   3.078  11.093 -0.5713 -2.7140 -0.6946
  285TMC3    C7 4360   0.436   3.266  11.293  0.1836 -0.4391  0.0233
  285TMC3    C8 4361   0.357   2.840  11.057  0.6319 -0.6183 -0.0311
  285TMC3    O1 4362   0.386   3.368  11.339 -0.4678  0.1581  0.1505
  285TMC3    O2 4363   0.267   2.763  11.018 -0.0388  0.0563 -0.0797
  286MPD2     C 4364   4.420   1.125   1.380  0.3422 -0.1122  0.1932
  286MPD2    C1 4365   4.433   1.158   1.246  0.1426 -0.5621 -0.2599
  286MPD2    C2 4366   4.552   1.121   1.185  0.5919 -0.0121 -0.2647
  286MPD2    C3 4367   4.647   1.039   1.242 -0.0536  0.5157 -0.4171
  286MPD2    C4 4368   4.638   1.022   1.378  0.2207  0.8495  0.6339
  286MPD2    C5 4369   4.528   1.070   1.448  0.3233  0.5431  0.2406
  286MPD2     H 4370   4.558   1.155   1.082 -1.8901 -1.2202 -0.8119
  286MPD2    H1 4371   4.712   0.959   1.426 -1.9048 -0.7461  1.8246
  286MPD2    H2 4372   4.329   1.146   1.435 -0.6947  0.8093 -1.8673
  286MPD2    H3 4373   4.531   1.033   1.550  2.7592  0.2948  0.0836
  286MPD2     N 4374   0.012   0.990   1.161 -0.1183  0.6551  0.0331
  286MPD2    H5 4375   0.071   0.917   1.199 -0.7410  0.2681  0.2393
  286MPD2    N1 4376   4.324   1.230   1.178  0.0330  0.3103  0.6297
  286MPD2    H7 4377   4.343   1.244   1.079 -0.2938  2.3284  0.8496
  287TMC3    C1 4378   0.158   0.963   0.979  0.0899  0.4474  0.4419
  287TMC3    C2 4379   0.164   0.900   0.855  0.5110 -0.7082 -0.0149
  287TMC3    C3 4380   0.285   0.852   0.818 -0.8894  0.7951  0.3556
  287TMC3    C4 4381   0.266   0.967   1.063 -0.3299  0.4346  0.5647
  287TMC3    C5 4382   0.390   0.907   1.023  0.3021 -0.1951  0.1587
  287TMC3    C6 4383   0.400   0.857   0.898  1.0782 -0.4323 -0.0789
  287TMC3     C 4384   0.030   1.009   1.028  0.4482  0.4949 -0.0016
  287TMC3     O 4385   4.695   1.051   0.941 -0.3207 -0.0814 -0.0400
  287TMC3     H 4386   0.079   0.880   0.791 -2.6078  1.8490  3.2870
  287TMC3    H1 4387   0.260   1.024   1.155  0.2992 -0.0113  0.8830
  287TMC3    H2 4388   0.481   0.792   0.866 -1.1783 -2.9268 -0.8049
  287TMC3    C7 4389   0.506   0.917   1.114  0.5245  0.2580  0.0479
  287TMC3    C8 4390   0.292   0.782   0.692  0.2500  0.1168 -0.0576
  287TMC3    O1 4391   0.480   0.943   1.232 -0.3024 -0.5645  0.1983
  287TMC3    O2 4392   0.196   0.747   0.631 -0.1321 -0.6839  0.1522
  288TMC3    C1 4393   2.540   1.564  14.306 -1.0991 -0.2203 -0.3649
  288TMC3    C2 4394   2.416   1.618  14.302 -0.2443 -0.7303  0.1678
  288TMC3    C3 4395   2.404   1.749  14.266 -0.3118  0.8963 -0.2500
  288TMC3    C4 4396   2.650   1.638  14.270  0.4287 -0.4258  0.6337
  288TMC3    C5 4397   2.630   1.768  14.233  0.3526 -0.3643 -0.8189
  288TMC3    C6 4398   2.508   1.830  14.236 -0.0746  1.4435 -0.7302
  288TMC3     C 4399   2.568   1.448  14.391  0.3268 -0.3291  0.2943
  288TMC3     O 4400   2.686   1.431  14.425  0.2841 -0.0995  0.5067
  288TMC3     H 4401   2.330   1.558  14.330  1.0754 -3.5654 -1.9183
  288TMC3    H1 4402   2.739   1.578  14.264 -0.0067 -1.1890  1.7601
  288TMC3    H2 4403   2.494   1.935  14.211 -0.9216  0.9836 -2.1839
  288TMC3    C7 4404   2.739   1.832  14.158  0.0437 -0.3232 -0.6118
  288TMC3    C8 4405   2.297   1.818  14.335  0.4952  0.0724 -0.1804
  288TMC3    O1 4406   2.848   1.790  14.170  0.2403 -0.3767  0.2978
  288TMC3    O2 4407   2.322   1.906  14.416  0.2868 -0.3805  0.1078
  289MPD2     C 4408   2.159   0.721  14.419 -0.0639 -0.3589  0.1343
  289MPD2    C1 4409   2.179   0.810  14.309  0.1866 -0.1825  0.2293
  289MPD2    C2 4410   2.071   0.843  14.236 -0.6621 -1.0055  0.3144
  289MPD2    C3 4411   1.951   0.777  14.250  0.3782  0.1139  0.0538
  289MPD2    C4 4412   1.935   0.680  14.349  0.2157 -0.2642 -0.4338
  289MPD2    C5 4413   2.038   0.660  14.437 -0.8259 -0.2340  0.4905
  289MPD2     H 4414   2.076   0.936  14.181 -1.1826  0.8272  3.3482
  289MPD2    H1 4415   1.834   0.643  14.367 -0.3232  1.1222 -0.6216
  289MPD2    H2 4416   2.236   0.694  14.491  0.9313  0.4985 -0.5945
  289MPD2    H3 4417   2.023   0.599  14.525 -2.3375  0.6618  0.8545
  289MPD2     N 4418   1.833   0.811  14.188  0.0654 -0.7084 -0.0634
  289MPD2    H5 4419   1.752   0.761  14.224 -0.2191 -0.5006 -0.4073
  289MPD2    N1 4420   2.302   0.867  14.301  0.4087 -0.7622  0.3119
  289MPD2    H7 4421   2.366   0.850  14.379  0.5886 -0.6412  0.1911
  290TMC3    C1 4422   1.691   0.896  14.033 -0.3766  0.5905 -0.6008
  290TMC3    C2 4423   1.634   1.008  13.977 -0.8489 -0.5219  0.8669
  290TMC3    C3 4424   1.498   0.999  13.938 -0.5394 -0.1431 -0.1690
  290TMC3    C4 4425   1.620   0.781  14.041  0.4430  0.1445  0.3729
  290TMC3    C5 4426   1.485   0.780  14.013  0.1266 -0.5736 -0.4094
  290TMC3    C6 4427   1.428   0.886  13.959 -0.0598  0.2549  0.2998
  290TMC3     C 4428   1.823   0.906  14.087  0.5203  0.2985 -0.7330
  290TMC3     O 4429   1.899   0.989  14.040 -0.1090  0.4345 -0.2549
  290TMC3     H 4430   1.696   1.095  13.959  0.7521 -1.9286 -0.4483
  290TMC3    H1 4431   1.675   0.690  14.064  0.0829  0.1885  1.4361
  290TMC3    H2 4432   1.323   0.887  13.934  0.1932 -0.8125 -0.8055
  290TMC3    C7 4433   1.410   0.654  14.024 -0.8133 -0.0611  0.7059
  290TMC3    C8 4434   1.426   1.117  13.899  0.2634  0.5024 -0.1462
  290TMC3    O1 4435   1.324   0.647  13.935  0.5722 -0.2509 -0.3138
  290TMC3    O2 4436   1.315   1.097  13.855 -0.1255 -0.1770  0.4666
  291MPD2     C 4437   1.199   0.860  17.704 -0.1125  0.4004 -0.3190
  291MPD2    C1 4438   1.267   0.823   0.049  0.1255 -0.3941  0.3202
  291MPD2    C2 4439   1.316   0.924   0.131 -1.0023  0.2055 -0.1243
  291MPD2    C3 4440   1.302   1.058   0.098  0.5080 -0.3505  0.1123
  291MPD2    C4 4441   1.230   1.090  17.750  0.5674  0.0545  0.4830
  291MPD2    C5 4442   1.173   0.992  17.676 -0.3987 -0.9899  0.8653
  291MPD2     H 4443   1.369   0.897   0.222  0.0070  2.3580 -0.0712
  291MPD2    H1 4444   1.219   1.196  17.729  2.6105 -0.5286 -3.5048
  291MPD2    H2 4445   1.150   0.789  17.637 -0.2819  1.4778 -1.3439
  291MPD2    H3 4446   1.114   1.020  17.590 -0.6039  0.4731  1.4750
  291MPD2     N 4447   1.361   1.161   0.177 -0.6431 -0.3297  0.3328
  291MPD2    H5 4448   1.349   1.254   0.140 -0.1522 -0.1386  0.6558
  291MPD2    N1 4449   1.292   0.683   0.078  0.2779 -0.3318  0.0483
  291MPD2    H7 4450   1.349   0.655   0.157  0.5805 -1.5482 -0.6063
  292TMC3    C1 4451   1.283   0.444   0.055 -0.0106 -0.2351  0.6280
  292TMC3    C2 4452   1.322   0.436   0.187 -0.1271 -0.2205  0.0630
  292TMC3    C3 4453   1.369   0.317   0.236 -0.0461 -0.0702  0.2368
  292TMC3    C4 4454   1.286   0.334  17.734  0.1722  0.0820  0.8008
  292TMC3    C5 4455   1.341   0.224   0.027  0.5163  0.2706 -0.1388
  292TMC3    C6 4456   1.392   0.216   0.151 -0.1823  0.1110 -0.1707
  292TMC3     C 4457   1.248   0.574   0.001 -0.4616  0.7965  0.2074
  292TMC3     O 4458   1.178   0.573  17.664 -0.1781  0.1519  0.0364
  292TMC3     H 4459   1.292   0.510   0.260  0.8341  0.9945 -0.7946
  292TMC3    H1 4460   1.248   0.347  17.634 -0.9764 -2.1238  0.9577
  292TMC3    H2 4461   1.446   0.125   0.179 -1.8236 -0.6146  0.6200
  292TMC3    C7 4462   1.346   0.098  17.720 -0.2706 -0.3876 -0.6351
  292TMC3    C8 4463   1.320   0.278   0.371  0.1339  0.7638  0.1139
  292TMC3    O1 4464   1.442   0.024  17.735  0.3799  0.7768 -0.6975
  292TMC3    O2 4465   1.340   0.354   0.463 -0.3077 -0.4571  0.2592
  293MPD2     C 4466   2.568   1.503  13.188 -0.6559  0.2924 -0.6185
  293MPD2    C1 4467   2.638   1.597  13.106 -0.6086 -0.4678  0.4938
  293MPD2    C2 4468   2.763   1.627  13.140 -0.4656 -0.1401  0.3633
  293MPD2    C3 4469   2.832   1.574  13.244  0.3378 -0.4522  0.6192
  293MPD2    C4 4470   2.764   1.495  13.331 -0.2714  0.5046  0.1618
  293MPD2    C5 4471   2.641   1.450  13.290  0.5238 -0.3847  0.5354
  293MPD2     H 4472   2.821   1.694  13.077 -0.0666 -0.3352  0.5309
  293MPD2    H1 4473   2.816   1.463  13.420 -1.0045 -1.4004 -0.0953
  293MPD2    H2 4474   2.467   1.468  13.168 -0.7099 -0.4810  0.9969
  293MPD2    H3 4475   2.609   1.369  13.354 -1.0603  0.5639  0.9417
  293MPD2     N 4476   2.968   1.606  13.255  0.0397  0.1113 -0.2779
  293MPD2    H5 4477   2.995   1.669  13.180 -1.6628 -0.6525 -1.5574
  293MPD2    N1 4478   2.572   1.645  12.995  0.0212  0.4950  0.0076
  293MPD2    H7 4479   2.484   1.599  12.970  0.1100  0.2885  0.0736
  294TMC3    C1 4480   2.498   1.781  12.819  0.1276  0.0940 -0.2699
  294TMC3    C2 4481   2.425   1.680  12.755  0.3932  0.3036  0.2169
  294TMC3    C3 4482   2.365   1.717  12.633  0.2337  0.4793 -0.0821
  294TMC3    C4 4483   2.502   1.904  12.782 -0.5287  0.5903 -0.2178
  294TMC3    C5 4484   2.446   1.943  12.661 -0.1551  0.5688 -0.2023
  294TMC3    C6 4485   2.384   1.847  12.586 -0.3068  0.1196  0.3355
  294TMC3     C 4486   2.606   1.743  12.909  0.1573  0.2453  0.7563
  294TMC3     O 4487   2.708   1.808  12.913  0.0923  0.3215  0.1003
  294TMC3     H 4488   2.434   1.576  12.784 -1.9231 -1.0166 -3.6520
  294TMC3    H1 4489   2.555   1.982  12.837 -1.1924  1.0192 -0.1864
  294TMC3    H2 4490   2.329   1.877  12.498 -0.2293 -0.2914  0.1465
  294TMC3    C7 4491   2.431   2.080  12.630  0.4987  0.3986 -0.1099
  294TMC3    C8 4492   2.339   1.619  12.533 -0.5161 -0.0056  0.2896
  294TMC3    O1 4493   2.427   2.160  12.723  0.2414 -0.0044 -0.3195
  294TMC3    O2 4494   2.349   1.509  12.577  0.3004  0.3858 -0.3171
  295MPD2     C 4495   3.757   0.390   0.595  0.6651 -0.0697 -0.0496
  295MPD2    C1 4496   3.661   0.488   0.606  0.0776  0.0307  0.1375
  295MPD2    C2 4497   3.625   0.544   0.724 -0.1374  0.3503 -0.0379
  295MPD2    C3 4498   3.692   0.503   0.839  0.3181  0.4924 -0.0735
  295MPD2    C4 4499   3.803   0.414   0.823  0.1469 -0.4179  0.2996
  295MPD2    C5 4500   3.828   0.355   0.706  0.8883 -0.6625  0.1909
  295MPD2     H 4501   3.548   0.620   0.724  0.2164  0.6747  4.3660
  295MPD2    H1 4502   3.865   0.378   0.904 -0.3268 -1.8969 -0.0024
  295MPD2    H2 4503   3.789   0.343   0.503  3.9017  0.4785  0.8012
  295MPD2    H3 4504   3.904   0.278   0.704  1.1159 -0.4198 -0.4526
  295MPD2     N 4505   3.656   0.542   0.973 -0.0395 -0.2033  0.3879
  295MPD2    H5 4506   3.710   0.493   1.043  1.2620 -0.1307 -0.5614
  295MPD2    N1 4507   3.589   0.538   0.492  0.4426  0.2701  0.2418
  295MPD2    H7 4508   3.525   0.616   0.500  1.4960  1.2079 -0.4024
  296TMC3    C1 4509   3.525   0.621   1.154  0.0240 -0.5097  0.3601
  296TMC3    C2 4510   3.448   0.729   1.198 -0.3054 -0.5788 -0.3004
  296TMC3    C3 4511   3.357   0.704   1.299 -0.2940 -1.2703  0.0555
  296TMC3    C4 4512   3.518   0.497   1.210 -0.6642 -0.3006  0.0866
  296TMC3    C5 4513   3.431   0.469   1.314 -0.3776 -0.3467 -0.2692
  296TMC3    C6 4514   3.353   0.575   1.357  0.2157 -0.8506  0.3306
  296TMC3     C 4515   3.549   0.625   1.008 -0.6077 -0.0298 -0.2614
  296TMC3     O 4516   3.463   0.686   0.944 -0.4650 -0.2088  0.0955
  296TMC3     H 4517   3.443   0.822   1.141  0.1953 -0.0048  0.6012
  296TMC3    H1 4518   3.567   0.410   1.169 -0.5499 -0.3673  0.3620
  296TMC3    H2 4519   3.284   0.554   1.438 -0.7525 -1.0690 -0.5478
  296TMC3    C7 4520   3.417   0.334   1.361 -0.3679 -0.3465 -0.2255
  296TMC3    C8 4521   3.249   0.798   1.304  0.4834 -0.8412 -0.2050
  296TMC3    O1 4522   3.496   0.253   1.320 -0.0787 -0.1165 -0.0909
  296TMC3    O2 4523   3.265   0.909   1.258 -0.2423 -0.2905 -0.0308
  297MPD2     C 4524   0.528   2.724  15.762 -0.1288 -0.1919  0.3273
  297MPD2    C1 4525   0.584   2.798  15.864 -0.5047 -0.3540 -0.4275
  297MPD2    C2 4526   0.723   2.790  15.890  0.5295 -0.0575 -0.8589
  297MPD2    C3 4527   0.811   2.729  15.806  0.8762  0.0968 -0.2395
  297MPD2    C4 4528   0.756   2.664  15.693  0.3437 -0.2131  0.2834
  297MPD2    C5 4529   0.617   2.654  15.683 -0.1433  0.2760 -0.1230
  297MPD2     H 4530   0.765   2.840  15.977 -0.2811  0.1053 -0.5596
  297MPD2    H1 4531   0.806   2.615  15.611  2.0984  1.4260  0.3780
  297MPD2    H2 4532   0.422   2.720  15.739 -0.4192  1.3472  1.3970
  297MPD2    H3 4533   0.570   2.605  15.599 -1.8491  2.5929 -0.5161
  297MPD2     N 4534   0.945   2.727  15.839  0.0971  0.3109 -0.0021
  297MPD2    H5 4535   0.979   2.785  15.916 -1.5179 -1.8846  2.3774
  297MPD2    N1 4536   0.502   2.872  15.954 -0.6056  0.2518  0.7393
  297MPD2    H7 4537   0.539   2.891  16.047 -2.1447  2.4409  0.9022
  298TMC3    C1 4538   0.295   2.956  16.039 -0.0675 -0.5176  0.1639
  298TMC3    C2 4539   0.183   3.033  16.005 -0.1623  0.1000 -0.3702
  298TMC3    C3 4540   0.106   3.069  16.112 -0.0249  0.2390 -0.2140
  298TMC3    C4 4541   0.321   2.913  16.167  0.6422  0.1696  0.1560
  298TMC3    C5 4542   0.242   2.957  16.267 -0.1855  0.6248 -0.4127
  298TMC3    C6 4543   0.139   3.044  16.247  0.1732  0.2078  0.4299
  298TMC3     C 4544   0.376   2.918  15.928 -0.0188 -0.6158 -0.0331
  298TMC3     O 4545   0.318   2.916  15.819 -0.1263  0.4000  0.5456
  298TMC3     H 4546   0.171   3.077  15.907 -1.7380 -1.4713 -0.8695
  298TMC3    H1 4547   0.411   2.856  16.188 -0.1428 -1.9298 -2.1873
  298TMC3    H2 4548   0.066   3.076  16.321 -0.9004  0.8746 -0.9113
  298TMC3    C7 4549   0.271   2.925  16.403 -0.3234  0.7457 -0.5471
  298TMC3    C8 4550   0.011   3.179  16.087  0.3909 -0.2289  0.8932
  298TMC3    O1 4551   0.219   2.989  16.492 -0.0646  0.0001  0.1864
  298TMC3    O2 4552   4.736   3.268  16.169 -0.4349 -0.2291 -0.4592
  299MPD2     C 4553   1.421   1.759  10.879  0.3342  0.5367 -1.2062
  299MPD2    C1 4554   1.484   1.855  10.810  0.5136  0.1377 -0.1395
  299MPD2    C2 4555   1.479   1.849  10.672 -0.1602  0.2964  0.0015
  299MPD2    C3 4556   1.405   1.752  10.602 -0.2230  0.1430 -0.2511
  299MPD2    C4 4557   1.345   1.654  10.679  0.7266  0.2317  0.0408
  299MPD2    C5 4558   1.360   1.655  10.816 -0.0059  0.2890  0.4191
  299MPD2     H 4559   1.540   1.925  10.624  0.8456 -1.4161 -1.4303
  299MPD2    H1 4560   1.297   1.564  10.641  1.5213 -1.5914  3.3274
  299MPD2    H2 4561   1.429   1.754  10.987  1.4252  1.1701 -1.2529
  299MPD2    H3 4562   1.314   1.572  10.869 -0.3749 -0.6350 -1.3278
  299MPD2     N 4563   1.385   1.750  10.463  0.6393 -0.0960 -0.3288
  299MPD2    H5 4564   1.315   1.686  10.427  0.4704 -1.3126  2.1957
  299MPD2    N1 4565   1.565   1.948  10.885  0.7789 -0.1027 -0.6971
  299MPD2    H7 4566   1.551   1.936  10.985  2.8190  2.2540 -0.1275
  300TMC3    C1 4567   1.378   1.831  10.246 -0.5664  0.5719  0.1304
  300TMC3    C2 4568   1.435   1.890  10.140 -0.3513 -0.6417  0.2757
  300TMC3    C3 4569   1.369   1.908  10.024 -0.0762  0.1321 -0.7301
  300TMC3    C4 4570   1.247   1.791  10.238  0.0166 -0.2662  0.3030
  300TMC3    C5 4571   1.182   1.803  10.119  0.2820 -0.6365 -0.7984
  300TMC3    C6 4572   1.243   1.855  10.009 -0.3882 -0.0388  0.7008
  300TMC3     C 4573   1.446   1.843  10.375 -0.0974 -0.2926 -0.1138
  300TMC3     O 4574   1.538   1.920  10.396 -0.1915  0.1611  0.8383
  300TMC3     H 4575   1.528   1.940  10.162  0.1939 -1.4972 -0.0963
  300TMC3    H1 4576   1.196   1.747  10.323 -0.6966 -0.4345 -0.2117
  300TMC3    H2 4577   1.180   1.873   9.923 -0.4416 -0.5644  0.6328
  300TMC3    C7 4578   1.048   1.740  10.114  1.0076  0.8552 -0.2104
  300TMC3    C8 4579   1.362   2.053  10.006  0.1708  0.2692  0.5053
  300TMC3    O1 4580   1.011   1.676  10.012  0.5369  0.1741 -0.1805
  300TMC3    O2 4581   1.414   2.125  10.088 -0.4013 -0.3053 -0.5998
  301MPD2     C 4582   2.783   3.591   1.823 -0.3605  0.5753  0.1797
  301MPD2    C1 4583   2.687   3.581   1.721  0.4150 -0.0393  0.1103
  301MPD2    C2 4584   2.674   3.467   1.642 -0.3354 -0.3033  0.6135
  301MPD2    C3 4585   2.748   3.356   1.675 -0.8458 -0.2456 -0.1990
  301MPD2    C4 4586   2.829   3.363   1.790 -1.1158  0.1656 -0.4963
  301MPD2    C5 4587   2.852   3.476   1.858 -0.1405  0.2928 -0.0856
  301MPD2     H 4588   2.604   3.454   1.560 -0.0318 -1.0122  0.4677
  301MPD2    H1 4589   2.889   3.280   1.825 -2.0630  0.8456  2.6819
  301MPD2    H2 4590   2.794   3.681   1.883 -0.9879  1.4720 -1.0385
  301MPD2    H3 4591   2.922   3.470   1.941  1.3592 -2.1147 -1.5040
  301MPD2     N 4592   2.739   3.233   1.607  0.0269 -0.5382  0.2048
  301MPD2    H5 4593   2.805   3.158   1.626 -0.9311 -1.8710 -1.6671
  301MPD2    N1 4594   2.607   3.690   1.680 -0.0724  0.9606 -1.1992
  301MPD2    H7 4595   2.548   3.669   1.600 -1.3365  2.2828 -0.6121
  302TMC3    C1 4596   2.668   3.059   1.474  0.5141 -0.3243 -0.4881
  302TMC3    C2 4597   2.794   3.002   1.459 -0.4814 -0.9296 -0.0189
  302TMC3    C3 4598   2.806   2.880   1.399  0.0287  0.6940  0.0511
  302TMC3    C4 4599   2.559   2.992   1.425 -0.2496 -0.3799  0.0237
  302TMC3    C5 4600   2.583   2.874   1.352  0.2395  0.5508 -0.7155
  302TMC3    C6 4601   2.706   2.814   1.344 -0.3812  0.0902  0.0381
  302TMC3     C 4602   2.657   3.200   1.506 -0.3011 -0.1250 -0.2786
  302TMC3     O 4603   2.561   3.259   1.458 -0.2845 -0.9141 -0.5462
  302TMC3     H 4604   2.882   3.058   1.488 -0.2054 -2.3667  1.8858
  302TMC3    H1 4605   2.461   3.038   1.429 -0.1666 -0.2506  0.5942
  302TMC3    H2 4606   2.713   2.712   1.308 -0.4164  0.2839 -0.5137
  302TMC3    C7 4607   2.495   2.842   1.247 -0.0490  0.7851  0.0648
  302TMC3    C8 4608   2.939   2.826   1.392 -0.1186  0.1472  0.2055
  302TMC3    O1 4609   2.530   2.750   1.173 -0.1361 -0.5089  0.2483
  302TMC3    O2 4610   3.025   2.857   1.475  0.0705 -0.1911 -0.5100
  303MPD2     C 4611   3.522   1.724  10.615 -0.3326 -0.0810  0.9503
  303MPD2    C1 4612   3.397   1.663  10.601  0.0256 -1.1014 -0.2507
  303MPD2    C2 4613   3.341   1.665  10.476 -0.1858 -0.0522 -0.2758
  303MPD2    C3 4614   3.394   1.733  10.374 -0.2318 -0.2051 -0.4787
  303MPD2    C4 4615   3.519   1.797  10.395  0.8756  0.0120  0.6367
  303MPD2    C5 4616   3.586   1.790  10.513 -0.2141 -0.4101  0.5931
  303MPD2     H 4617   3.243   1.622  10.461 -0.2340  0.8239 -2.4778
  303MPD2    H1 4618   3.569   1.852  10.316  0.2270  1.2992  1.1155
  303MPD2    H2 4619   3.575   1.711  10.710  0.4603  3.1108  0.9287
  303MPD2    H3 4620   3.687   1.830  10.524 -0.0893 -1.1368  2.1574
  303MPD2     N 4621   3.342   1.719  10.245  0.4599  0.1322 -0.3364
  303MPD2    H5 4622   3.402   1.754  10.171  1.4025  0.6075  0.6683
  303MPD2    N1 4623   3.346   1.588  10.707 -0.1300 -0.6043  0.1190
  303MPD2    H7 4624   3.389   1.601  10.798  2.4444 -0.2312 -1.1466
  304TMC3    C1 4625   3.251   1.405  10.813 -0.0761  0.4294 -0.0023
  304TMC3    C2 4626   3.181   1.471  10.905 -0.3952 -0.3775 -0.3943
  304TMC3    C3 4627   3.074   1.415  10.976 -0.1677 -0.0509  0.1190
  304TMC3    C4 4628   3.223   1.276  10.802  0.1837  0.0728  0.3644
  304TMC3    C5 4629   3.125   1.213  10.880  0.5476  0.2363 -0.2626
  304TMC3    C6 4630   3.058   1.281  10.969 -0.1017 -0.6139  0.1059
  304TMC3     C 4631   3.270   1.473  10.691  0.1194  0.7183 -0.1384
  304TMC3     O 4632   3.231   1.415  10.594 -0.4560  0.7391  0.1694
  304TMC3     H 4633   3.188   1.579  10.903 -0.7692 -0.2816  3.2584
  304TMC3    H1 4634   3.263   1.228  10.713 -0.3895  1.7202 -0.7812
  304TMC3    H2 4635   2.970   1.250  11.024 -1.1315  1.3003 -0.4573
  304TMC3    C7 4636   3.039   1.119  10.815  0.1267  0.5602  0.0686
  304TMC3    C8 4637   2.957   1.494  10.950 -0.0721 -0.1372 -0.9194
  304TMC3    O1 4638   2.921   1.141  10.840 -0.0444  0.0201  0.0231
  304TMC3    O2 4639   2.972   1.614  10.934 -0.2828 -0.3945 -0.3667
  305MPD2     C 4640   1.856   4.206  13.687  0.5321 -0.2137  0.4386
  305MPD2    C1 4641   1.873   4.073  13.723 -0.1709 -0.5258 -0.2512
  305MPD2    C2 4642   1.864   3.970  13.627  0.0972 -0.8369  0.9424
  305MPD2    C3 4643   1.849   4.002  13.498 -0.0728 -0.0267 -0.8540
  305MPD2    C4 4644   1.851   4.137  13.460 -0.8851 -0.0822 -0.3018
  305MPD2    C5 4645   1.857   4.240  13.552  0.4048  0.1370  0.4527
  305MPD2     H 4646   1.852   3.866  13.657 -0.2773 -1.1401 -0.2781
  305MPD2    H1 4647   1.845   4.156  13.354 -1.7219 -0.7552 -0.3738
  305MPD2    H2 4648   1.861   4.291  13.753  0.0863  1.1239 -1.2558
  305MPD2    H3 4649   1.861   4.343  13.518 -1.2210  0.2864  0.7151
  305MPD2     N 4650   1.847   3.905  13.395 -0.3433 -0.9315 -0.4004
  305MPD2    H5 4651   1.855   3.938  13.299  1.4912 -2.0155 -0.6194
  305MPD2    N1 4652   1.903   4.028  13.854  0.6208  0.2285 -0.9346
  305MPD2    H7 4653   1.927   3.930  13.869 -0.4340  0.0958 -0.1803
  306TMC3    C1 4654   1.942   4.082  14.090 -0.1700 -0.6862 -0.3450
  306TMC3    C2 4655   1.925   3.958  14.138 -0.4255 -0.1006  0.1178
  306TMC3    C3 4656   1.993   3.938  14.255  0.1035 -0.5509  0.0497
  306TMC3    C4 4657   2.000   4.186  14.159  0.2647  0.0858  0.2722
  306TMC3    C5 4658   2.059   4.160  14.279 -0.0558  0.6889 -1.0905
  306TMC3    C6 4659   2.065   4.031  14.325 -0.0054 -0.1797 -0.7204
  306TMC3     C 4660   1.907   4.122  13.955  0.3524 -0.4144  0.9598
  306TMC3     O 4661   1.847   4.227  13.975  0.6512  0.4573  0.4078
  306TMC3     H 4662   1.880   3.876  14.081  1.3297 -1.7175  1.0602
  306TMC3    H1 4663   2.013   4.283  14.114  1.7125 -0.8081 -1.2699
  306TMC3    H2 4664   2.118   4.013  14.417 -0.6441 -0.9875 -0.5097
  306TMC3    C7 4665   2.174   4.243  14.316  0.0261 -0.3701 -0.1195
  306TMC3    C8 4666   1.982   3.802  14.311  0.3588  0.4832 -0.3753
  306TMC3    O1 4667   2.235   4.305  14.231 -0.0541 -0.5418  0.1498
  306TMC3    O2 4668   1.882   3.730  14.285  0.2341 -0.2075 -0.0278
  307MPD2     C 4669   4.630   1.869   0.068 -0.3800  0.3426  0.5333
  307MPD2    C1 4670   4.567   1.990   0.091 -0.7720  0.4666 -0.0607
  307MPD2    C2 4671   4.441   1.993   0.140 -0.1956  0.4921  0.0220
  307MPD2    C3 4672   4.373   1.873   0.180  0.2755 -0.4566  0.0575
  307MPD2    C4 4673   4.439   1.756   0.165  0.1212 -0.2868 -0.5303
  307MPD2    C5 4674   4.567   1.751   0.109 -0.0857  0.1595  0.1501
  307MPD2     H 4675   4.392   2.088   0.157  2.5283  1.8687  0.3041
  307MPD2    H1 4676   4.403   1.660   0.200  0.4811 -0.3459 -0.3118
  307MPD2    H2 4677   4.724   1.867   0.014 -1.7060  0.7334 -1.8280
  307MPD2    H3 4678   4.622   1.658   0.104 -1.3401 -0.5561 -0.4598
  307MPD2     N 4679   4.242   1.885   0.238 -0.2586  0.2180 -0.5430
  307MPD2    H5 4680   4.196   1.976   0.240 -0.0584  0.2960  0.6956
  307MPD2    N1 4681   4.630   2.113   0.063 -0.5654 -0.4280  0.1088
  307MPD2    H7 4682   4.578   2.198   0.080 -1.2403 -0.9217  0.5129
  308TMC3    C1 4683   3.831   1.750   0.426  0.1380 -0.3624  0.0970
  308TMC3    C2 4684   3.802   1.881   0.453  0.4578 -0.3631  0.8154
  308TMC3    C3 4685   3.901   1.987   0.433 -0.0528  0.2704  0.0453
  308TMC3    C4 4686   3.954   1.722   0.388  0.3307 -1.1002  0.1494
  308TMC3    C5 4687   4.051   1.813   0.364  0.8670  0.3102  0.1333
  308TMC3    C6 4688   4.024   1.947   0.388 -0.3112  0.1258  0.2063
  308TMC3     C 4689   3.757   1.648   0.508  0.4896  0.1032 -0.1981
  308TMC3     O 4690   3.814   1.549   0.547  0.6932 -0.1079 -0.0927
  308TMC3     H 4691   3.705   1.913   0.490  0.0092 -0.4482 -0.3023
  308TMC3    H1 4692   3.984   1.619   0.371  1.0835 -1.0620  1.2778
  308TMC3    H2 4693   4.094   2.029   0.375  1.9441 -2.2205 -2.2386
  308TMC3    C7 4694   4.162   1.779   0.268  0.5653 -0.6378  0.6773
  308TMC3    C8 4695   3.901   2.081   0.543  0.4943  0.5453 -0.6684
  308TMC3    O1 4696   4.179   1.660   0.250  0.0827  0.3353  0.3932
  308TMC3    O2 4697   3.836   2.041   0.642 -0.1454 -0.3422 -0.1210
  309MPD2     C 4698   3.500   2.973  17.321  0.0412 -0.7958 -1.2761
  309MPD2    C1 4699   3.438   2.852  17.280  0.0553  1.0028 -0.1698
  309MPD2    C2 4700   3.356   2.794  17.370 -0.2732 -0.1087  0.5123
  309MPD2    C3 4701   3.322   2.852  17.485  0.5052  0.3681 -0.6165
  309MPD2    C4 4702   3.377   2.976  17.518 -0.1818 -0.1684  0.1360
  309MPD2    C5 4703   3.476   3.031  17.442  0.4054  0.3955 -0.2894
  309MPD2     H 4704   3.302   2.701  17.355  2.6259 -1.5247 -1.0753
  309MPD2    H1 4705   3.336   3.032  17.602  0.2124 -0.0098  0.2228
  309MPD2    H2 4706   3.573   3.023  17.259  1.0698  1.4421  1.7556
  309MPD2    H3 4707   3.535   3.121  17.459  0.4492  0.2366  0.4070
  309MPD2     N 4708   3.224   2.785  17.568 -0.2352  0.2843 -0.1861
  309MPD2    H5 4709   3.169   2.708  17.533 -0.4927  0.3382  0.0951
  309MPD2    N1 4710   3.448   2.792  17.158  0.2065 -0.5246  0.3703
  309MPD2    H7 4711   3.381   2.718  17.143  3.8809 -3.7010 -0.4127
  310TMC3    C1 4712   3.510   2.734  16.948 -0.1810  0.3947  0.0487
  310TMC3    C2 4713   3.468   2.771  16.824  1.3270  0.8175 -0.0806
  310TMC3    C3 4714   3.429   2.669  16.740 -0.5046 -0.3245 -0.1480
  310TMC3    C4 4715   3.506   2.600  16.992 -0.0652 -0.2165  0.3892
  310TMC3    C5 4716   3.482   2.501  16.901 -0.6371 -0.2349 -0.1534
  310TMC3    C6 4717   3.442   2.537  16.774  0.0698  0.3195  0.4944
  310TMC3     C 4718   3.520   2.831  17.050  1.2646 -0.3321  0.1639
  310TMC3     O 4719   3.574   2.937  17.023 -0.4749 -0.4653 -0.0750
  310TMC3     H 4720   3.459   2.877  16.805 -0.8076  0.8977  1.2964
  310TMC3    H1 4721   3.542   2.578  17.092  0.1533 -0.0825  0.3418
  310TMC3    H2 4722   3.410   2.456  16.710  1.1729  1.6415 -1.7188
  310TMC3    C7 4723   3.509   2.356  16.920 -0.2372  0.4796 -0.3504
  310TMC3    C8 4724   3.415   2.699  16.598 -0.8805  0.3855  0.6608
  310TMC3    O1 4725   3.497   2.286  16.828 -0.9685 -0.1616  0.3324
  310TMC3    O2 4726   3.393   2.608  16.522  0.5680  0.4315  0.1836
  311MPD2     C 4727   1.108   3.265  12.813  0.1971  0.0411 -0.5400
  311MPD2    C1 4728   1.058   3.352  12.718 -0.7721 -0.0986 -0.1886
  311MPD2    C2 4729   0.923   3.360  12.709  0.0116  0.7430 -0.1661
  311MPD2    C3 4730   0.831   3.285  12.797 -0.1965  0.0843  0.3641
  311MPD2    C4 4731   0.885   3.194  12.884  0.1507  0.9109  0.1605
  311MPD2    C5 4732   1.020   3.193  12.893  0.1734 -0.5940  0.0450
  311MPD2     H 4733   0.883   3.429  12.635 -4.5240 -0.0630  1.4921
  311MPD2    H1 4734   0.828   3.124  12.943  2.6246 -0.4350  0.9609
  311MPD2    H2 4735   1.210   3.239  12.838  0.5250  1.0188 -0.8558
  311MPD2    H3 4736   1.070   3.135  12.971 -2.6803  0.0459  2.3478
  311MPD2     N 4737   0.694   3.294  12.782 -0.3967  0.1425 -0.1994
  311MPD2    H5 4738   0.645   3.251  12.860  1.0815 -2.2349 -0.5724
  311MPD2    N1 4739   1.141   3.432  12.636 -0.2452  0.2668  0.1402
  311MPD2    H7 4740   1.099   3.505  12.578  1.1894 -0.1898 -1.4918
  312TMC3    C1 4741   0.483   3.384  12.721 -0.2281  0.6525  0.2763
  312TMC3    C2 4742   0.392   3.398  12.619 -0.1534 -0.0268 -0.5444
  312TMC3    C3 4743   0.264   3.427  12.669  0.2596  0.5319 -0.1423
  312TMC3    C4 4744   0.455   3.396  12.851 -0.1127 -0.4212 -0.4248
  312TMC3    C5 4745   0.326   3.429  12.892 -0.1608  0.0307  0.4781
  312TMC3    C6 4746   0.233   3.449  12.797 -0.0588  0.0802  0.7872
  312TMC3     C 4747   0.620   3.366  12.686  0.2720 -0.3376  0.4988
  312TMC3     O 4748   0.652   3.393  12.569 -0.0715  0.1215  0.1773
  312TMC3     H 4749   0.408   3.377  12.514  0.0719 -0.5532 -0.4070
  312TMC3    H1 4750   0.533   3.401  12.926  1.6978  1.3320 -2.4384
  312TMC3    H2 4751   0.137   3.495  12.813 -0.5126 -0.3480 -0.6643
  312TMC3    C7 4752   0.311   3.505  13.020  0.7023 -0.1538 -0.0652
  312TMC3    C8 4753   0.148   3.410  12.584  0.4472 -0.0016  1.3159
  312TMC3    O1 4754   0.404   3.564  13.071  0.1187 -0.7318  0.2514
  312TMC3    O2 4755   0.033   3.394  12.625 -0.1138 -0.1524  0.6415
  313MPD2     C 4756   0.649   2.464  10.446 -0.8192  0.0066 -0.5879
  313MPD2    C1 4757   0.516   2.475  10.412  0.3896 -0.5518  1.1934
  313MPD2    C2 4758   0.449   2.380  10.338 -0.2472  0.4507 -0.0666
  313MPD2    C3 4759   0.513   2.267  10.287 -0.9411  0.1270 -0.2429
  313MPD2    C4 4760   0.652   2.264  10.301  0.5976  0.2201 -0.2971
  313MPD2    C5 4761   0.718   2.365  10.379  0.0612 -0.5641  0.7313
  313MPD2     H 4762   0.343   2.400  10.335 -0.3871 -0.2408  0.2897
  313MPD2    H1 4763   0.719   2.188  10.261  2.7974  1.6996  0.5331
  313MPD2    H2 4764   0.705   2.540  10.498 -1.0562  0.3285 -0.7987
  313MPD2    H3 4765   0.824   2.360  10.398  0.3405  0.3816 -0.5126
  313MPD2     N 4766   0.435   2.174  10.217 -0.2482 -0.5029  0.4272
  313MPD2    H5 4767   0.334   2.181  10.228 -0.5835 -1.9703 -1.6151
  313MPD2    N1 4768   0.439   2.580  10.466  0.3199 -0.4035  0.2246
  313MPD2    H7 4769   0.340   2.563  10.453 -0.2611  2.2958  1.2819
  314TMC3    C1 4770   0.390   2.785  10.564 -0.0896  0.5577 -0.1009
  314TMC3    C2 4771   0.423   2.863  10.670 -0.8817 -0.0813 -0.3953
  314TMC3    C3 4772   0.343   2.962  10.711  0.0727 -0.0515 -0.5478
  314TMC3    C4 4773   0.281   2.806  10.486 -0.4617  0.5870  0.2400
  314TMC3    C5 4774   0.206   2.911  10.524  0.2452 -0.1146  0.2276
  314TMC3    C6 4775   0.232   2.985  10.641 -0.0353  0.6216 -0.2301
  314TMC3     C 4776   0.488   2.691  10.530  0.2933  0.2710 -0.3937
  314TMC3     O 4777   0.604   2.728  10.552 -0.3311 -0.2265 -0.0906
  314TMC3     H 4778   0.515   2.848  10.724 -0.7385  1.7937 -0.0959
  314TMC3    H1 4779   0.278   2.766  10.385  0.9985  0.3020  0.3041
  314TMC3    H2 4780   0.167   3.071  10.651 -0.2865  0.2755  1.1207
  314TMC3    C7 4781   0.145   2.982  10.423  0.6311 -0.4447  0.1198
  314TMC3    C8 4782   0.393   3.064  10.803  0.1422 -0.1416  0.1036
  314TMC3    O1 4783   0.057   2.920  10.368 -0.2049 -0.2417  0.1957
  314TMC3    O2 4784   0.505   3.059  10.850 -0.4058 -0.3496 -0.3016
  315MPD2     C 4785   4.585   1.815   0.478  0.1718  0.8521 -0.5399
  315MPD2    C1 4786   4.718   1.817   0.451  0.0508  0.8366  0.2734
  315MPD2    C2 4787   0.033   1.939   0.424 -0.0591 -0.4013 -0.0400
  315MPD2    C3 4788   4.712   2.055   0.409 -0.5539  0.7348  0.0446
  315MPD2    C4 4789   4.578   2.049   0.425 -0.4899  0.0790 -0.1454
  315MPD2    C5 4790   4.515   1.929   0.467 -0.0248 -0.3213  0.4050
  315MPD2     H 4791   0.137   1.931   0.392 -0.1138 -0.1628 -0.2802
  315MPD2    H1 4792   4.522   2.142   0.418 -0.7018 -0.1953 -2.0892
  315MPD2    H2 4793   4.527   1.727   0.507  0.1255  1.7550  2.1290
  315MPD2    H3 4794   4.407   1.924   0.476  0.0285 -0.2079  1.1721
  315MPD2     N 4795   0.045   2.172   0.398  0.1810  0.1794 -0.3932
  315MPD2    H5 4796   0.146   2.165   0.389  0.4212 -0.1283  2.3810
  315MPD2    N1 4797   0.059   1.710   0.468 -0.0458 -0.2672  0.7170
  315MPD2    H7 4798   0.160   1.722   0.457  0.2324 -0.6685  2.7872
  316TMC3    C1 4799   0.091   2.405   0.373  0.4133  0.2673  0.9474
  316TMC3    C2 4800   0.220   2.384   0.424 -0.5453 -0.5114  0.1521
  316TMC3    C3 4801   0.300   2.492   0.425 -0.3314  0.5834 -0.3428
  316TMC3    C4 4802   0.050   2.527   0.329 -1.0019  0.0042 -0.4579
  316TMC3    C5 4803   0.138   2.634   0.330  0.0079  0.3382 -0.4529
  316TMC3    C6 4804   0.268   2.616   0.374  0.1282 -0.1620  0.0143
  316TMC3     C 4805   4.733   2.302   0.385 -0.0359  0.0352  0.4138
  316TMC3     O 4806   4.617   2.339   0.364  0.1738  0.8506  0.5395
  316TMC3     H 4807   0.256   2.292   0.469 -0.5095 -1.6663 -2.2656
  316TMC3    H1 4808   4.693   2.541   0.286 -1.0869 -3.3631 -1.3245
  316TMC3    H2 4809   0.340   2.696   0.360 -0.7783  0.5891 -0.4349
  316TMC3    C7 4810   0.106   2.757   0.272  0.4366 -1.0226  0.2403
  316TMC3    C8 4811   0.440   2.473   0.471  0.0268 -0.0747 -0.4632
  316TMC3    O1 4812   4.734   2.801   0.279 -0.4957  0.3523 -0.1370
  316TMC3    O2 4813   0.511   2.570   0.454  0.1397  0.0404 -0.3989
  317MPD2     C 4814   1.415   0.700  12.924 -0.0964  0.4637  0.1881
  317MPD2    C1 4815   1.508   0.602  12.905 -0.3557 -0.4458  0.1093
  317MPD2    C2 4816   1.590   0.564  13.008  0.1624  0.0577 -0.0370
  317MPD2    C3 4817   1.580   0.617  13.130 -0.0668 -0.0280  0.1303
  317MPD2    C4 4818   1.482   0.703  13.158 -0.5185  0.5905 -0.6553
  317MPD2    C5 4819   1.401   0.744  13.055 -0.3397 -0.2488 -0.5857
  317MPD2     H 4820   1.675   0.496  13.004 -0.9042 -1.2816 -0.0701
  317MPD2    H1 4821   1.453   0.727  13.260  0.8885  2.7849 -0.7773
  317MPD2    H2 4822   1.320   0.713  12.873  0.6745  0.6132 -1.2035
  317MPD2    H3 4823   1.308   0.798  13.071  0.4246  0.6973  0.6260
  317MPD2     N 4824   1.668   0.568  13.228 -0.6380 -0.3045  0.6801
  317MPD2    H5 4825   1.725   0.486  13.209 -2.4084 -1.6565  1.2993
  317MPD2    N1 4826   1.535   0.550  12.779  0.5979  0.7919  0.4809
  317MPD2    H7 4827   1.594   0.468  12.779 -0.6605 -0.0875 -1.9509
  318TMC3    C1 4828   1.761   0.538  13.436  0.0899 -0.3356 -1.0687
  318TMC3    C2 4829   1.716   0.409  13.434 -0.1203  0.1757  0.3852
  318TMC3    C3 4830   1.803   0.318  13.481 -0.3979  0.3077 -0.2567
  318TMC3    C4 4831   1.895   0.560  13.468  0.4235  0.2211 -0.6815
  318TMC3    C5 4832   1.978   0.461  13.510 -0.4453 -0.0197 -0.2925
  318TMC3    C6 4833   1.935   0.331  13.524 -0.0098 -0.4088  0.2549
  318TMC3     C 4834   1.686   0.629  13.352  0.2782  0.6627  0.0019
  318TMC3     O 4835   1.662   0.742  13.401  0.7623  0.6699  0.3370
  318TMC3     H 4836   1.612   0.384  13.415  0.0395  0.5215 -0.9010
  318TMC3    H1 4837   1.924   0.662  13.488  1.2392 -0.0584 -0.4344
  318TMC3    H2 4838   1.996   0.250  13.562  0.7564 -0.7969 -1.8211
  318TMC3    C7 4839   2.112   0.496  13.553 -0.2601 -0.3533  0.8190
  318TMC3    C8 4840   1.768   0.177  13.466  0.8495  0.3083 -0.4245
  318TMC3    O1 4841   2.135   0.617  13.576 -0.2041 -0.1084 -0.2456
  318TMC3    O2 4842   1.815   0.103  13.549  0.3149 -0.2232 -0.0755
  319MPD2     C 4843   3.233   2.096  16.378  0.1488 -0.0887 -0.1944
  319MPD2    C1 4844   3.112   2.058  16.431 -0.3324  0.2529  0.4348
  319MPD2    C2 4845   3.012   2.012  16.351  0.1068  0.1365  0.1620
  319MPD2    C3 4846   3.026   2.004  16.215 -0.0741  0.1215  0.5833
  319MPD2    C4 4847   3.149   2.040  16.157  0.8473 -0.0648  0.1645
  319MPD2    C5 4848   3.256   2.081  16.237 -0.3452  0.0770 -0.6568
  319MPD2     H 4849   2.918   1.992  16.399  0.4959  0.4540  1.0600
  319MPD2    H1 4850   3.164   2.025  16.051 -1.3479 -2.3912  0.1990
  319MPD2    H2 4851   3.317   2.148  16.423  0.4354 -1.5601  1.0004
  319MPD2    H3 4852   3.352   2.110  16.194 -0.5490 -0.1328 -1.2559
  319MPD2     N 4853   2.920   1.960  16.128  0.2502  0.0143  0.2914
  319MPD2    H5 4854   2.935   1.956  16.027 -0.8389 -0.0279  0.1239
  319MPD2    N1 4855   3.073   2.070  16.565  0.3823 -0.1348 -0.1522
  319MPD2    H7 4856   2.984   2.031  16.593  0.6463  0.2191  1.1895
  320TMC3    C1 4857   2.706   1.873  16.066 -0.0865  0.0255 -0.4598
  320TMC3    C2 4858   2.708   1.938  15.944  0.0038 -0.0058 -0.4460
  320TMC3    C3 4859   2.625   1.896  15.845  0.3097  0.4302 -0.1791
  320TMC3    C4 4860   2.613   1.771  16.101  0.8058  0.3615 -0.1783
  320TMC3    C5 4861   2.522   1.735  16.004 -0.2786 -0.0273  1.2091
  320TMC3    C6 4862   2.529   1.798  15.879  0.3000  0.1926  0.2265
  320TMC3     C 4863   2.800   1.910  16.169 -0.2120  0.7124 -0.6017
  320TMC3     O 4864   2.765   1.878  16.279  0.2682 -0.0729  0.2927
  320TMC3     H 4865   2.775   2.022  15.931 -1.2527  1.4608  2.5659
  320TMC3    H1 4866   2.613   1.718  16.195 -0.4103 -1.4179 -1.1827
  320TMC3    H2 4867   2.465   1.759  15.801  0.2646  0.4314  0.1386
  320TMC3    C7 4868   2.442   1.611  16.028 -0.0707  0.4482 -0.0642
  320TMC3    C8 4869   2.630   1.964  15.715  0.2171  1.2851 -0.8354
  320TMC3    O1 4870   2.489   1.539  16.122  0.3964 -0.3510 -0.1109
  320TMC3    O2 4871   2.672   2.076  15.720 -0.8367  0.0951 -0.1996
  321TMC3    C1 4872   3.083   2.156  16.795 -0.3577 -0.7287 -0.7376
  321TMC3    C2 4873   3.003   2.053  16.835  0.3742  0.0926  0.2903
  321TMC3    C3 4874   2.930   2.078  16.950 -0.1281  0.2059  0.4712
  321TMC3    C4 4875   3.109   2.271  16.860  0.3096 -0.2675  0.5732
  321TMC3    C5 4876   3.040   2.286  16.976  0.0331 -0.3727 -0.0961
  321TMC3    C6 4877   2.943   2.195  17.011 -0.1917  0.6692  0.0447
  321TMC3     C 4878   3.142   2.144  16.658  0.4194 -0.1029  0.1853
  321TMC3     O 4879   3.238   2.218  16.639 -0.0633  0.1571  0.1365
  321TMC3     H 4880   3.005   1.952  16.795 -0.0358  0.1365  0.1564
  321TMC3    H1 4881   3.193   2.336  16.839  0.1178  0.4695  2.0276
  321TMC3    H2 4882   2.885   2.208  17.102 -1.4275  0.7491 -0.7441
  321TMC3    C7 4883   3.132   2.320  17.089  0.6249  0.3155  1.0024
  321TMC3    C8 4884   2.941   1.968  17.043  0.4216  0.3122  0.6029
  321TMC3    O1 4885   3.211   2.408  17.059 -0.0859  0.2488  0.0103
  321TMC3    O2 4886   2.980   2.008  17.151  0.1734  0.8990 -0.0130
  322MPD2     C 4887   1.680   2.962  13.411  0.1193 -0.0801  0.0743
  322MPD2    C1 4888   1.737   2.918  13.537  0.1391  0.0345  0.2076
  322MPD2    C2 4889   1.834   2.823  13.531  0.1604 -0.7377 -0.3795
  322MPD2    C3 4890   1.861   2.751  13.416 -0.1201 -0.5191 -0.0411
  322MPD2    C4 4891   1.785   2.786  13.305 -0.0668 -0.3051 -0.4971
  322MPD2    C5 4892   1.706   2.894  13.296  0.1514 -0.8874 -0.3030
  322MPD2     H 4893   1.884   2.798  13.624 -0.2986  0.0886  0.0840
  322MPD2    H1 4894   1.803   2.727  13.216  0.8755  0.0124 -0.5146
  322MPD2    H2 4895   1.607   3.042  13.406  0.1692 -0.0127  0.3904
  322MPD2    H3 4896   1.655   2.924  13.205 -0.9060  1.1288  0.9590
  322MPD2     N 4897   1.961   2.646  13.418  0.0998 -0.1970  0.3828
  322MPD2    H5 4898   2.011   2.643  13.506 -1.8509  1.7500  1.5570
  322MPD2    N1 4899   1.720   2.995  13.653  0.1113 -0.2161 -0.0085
  322MPD2    H7 4900   1.670   3.082  13.641 -0.2783 -0.3830  0.4195
  323TMC3    C1 4901   1.773   3.082  13.869 -1.1091 -0.2155  0.2130
  323TMC3    C2 4902   1.833   3.196  13.820 -0.6488  0.5281 -0.1184
  323TMC3    C3 4903   1.914   3.267  13.908  0.2133  0.3724  0.3902
  323TMC3    C4 4904   1.792   3.044  13.996  0.3598  0.5411  0.3010
  323TMC3    C5 4905   1.861   3.118  14.088  0.6857 -0.2450 -0.4897
  323TMC3    C6 4906   1.913   3.239  14.046  0.2462 -0.1324  0.4183
  323TMC3     C 4907   1.773   2.971  13.774  0.7947  0.0016  0.2766
  323TMC3     O 4908   1.807   2.863  13.819  0.1160 -0.2553  0.0812
  323TMC3     H 4909   1.830   3.208  13.712 -0.0579  0.3163 -0.1607
  323TMC3    H1 4910   1.757   2.944  14.019  0.5725  0.5812  0.7973
  323TMC3    H2 4911   1.988   3.294  14.102 -1.5777  0.8227  1.9392
  323TMC3    C7 4912   1.918   3.052  14.199  0.5448 -0.5044 -0.0157
  323TMC3    C8 4913   2.042   3.328  13.859 -0.4652 -0.5376  0.3985
  323TMC3    O1 4914   1.906   2.929  14.212  0.1081 -0.4014  0.4204
  323TMC3    O2 4915   2.142   3.333  13.927 -0.0975 -0.0090  0.3917
  324MPD2     C 4916   3.285   4.102  14.466 -0.4148  0.3664  0.8882
  324MPD2    C1 4917   3.348   4.112  14.342 -0.4830  0.1986 -0.1304
  324MPD2    C2 4918   3.260   4.103  14.234 -0.3181  0.0732 -0.1914
  324MPD2    C3 4919   3.121   4.114  14.239  0.4659  0.1149  0.6396
  324MPD2    C4 4920   3.073   4.114  14.367 -0.4550  0.1401 -0.4805
  324MPD2    C5 4921   3.151   4.091  14.472 -0.4106 -0.4019 -0.1120
  324MPD2     H 4922   3.308   4.107  14.137  0.5911  2.1254  0.3455
  324MPD2    H1 4923   2.966   4.122  14.384 -0.2301  0.4064  0.7729
  324MPD2    H2 4924   3.348   4.100  14.554  0.8280  1.1724  0.0068
  324MPD2    H3 4925   3.087   4.100  14.559 -1.8050  2.7114 -1.4470
  324MPD2     N 4926   3.036   4.133  14.132 -0.0420 -0.5101 -1.0804
  324MPD2    H5 4927   2.936   4.133  14.152  0.0191  0.6411 -0.8135
  324MPD2    N1 4928   3.495   4.125  14.317 -0.4225  0.2965  0.3660
  324MPD2    H7 4929   3.539   4.111  14.227 -0.8686  0.3599  0.1417
  325TMC3    C1 4930   2.959   4.237  13.947 -0.4423 -0.5530 -0.1975
  325TMC3    C2 4931   2.847   4.163  13.933 -0.7878  0.4075  0.1343
  325TMC3    C3 4932   2.751   4.213  13.857 -0.1525 -0.3885 -0.0360
  325TMC3    C4 4933   2.980   4.351  13.874 -0.7017  0.5658  0.0631
  325TMC3    C5 4934   2.882   4.399  13.796 -0.2080  0.4210  0.7298
  325TMC3    C6 4935   2.771   4.330  13.779 -0.4347 -0.0534 -0.1578
  325TMC3     C 4936   3.077   4.191  14.015  0.3535 -0.0540  0.2169
  325TMC3     O 4937   3.186   4.239  13.976 -0.4263 -0.0097  0.1816
  325TMC3     H 4938   2.837   4.059  13.963 -0.0558 -0.0200 -1.1586
  325TMC3    H1 4939   3.058   4.425  13.886  0.2382 -0.3377 -0.5391
  325TMC3    H2 4940   2.689   4.375  13.726 -0.9432 -0.3693  0.3602
  325TMC3    C7 4941   2.849   4.542  13.815 -0.2351 -0.1640  0.2472
  325TMC3    C8 4942   2.630   4.144  13.827  0.3563  0.2774 -0.4625
  325TMC3    O1 4943   2.805   4.597  13.713  0.1343  0.5000  0.3069
  325TMC3    O2 4944   2.607   4.066  13.915  0.0804  0.6018 -0.0519
  326MPD2     C 4945   4.359   0.770  11.251  0.2759 -0.0962  1.2402
  326MPD2    C1 4946   4.427   0.705  11.149  0.0238 -0.1871  0.3150
  326MPD2    C2 4947   4.550   0.749  11.100 -0.3005 -0.2097 -0.3671
  326MPD2    C3 4948   4.608   0.867  11.158  0.3572  0.7281 -0.3337
  326MPD2    C4 4949   4.541   0.920  11.261 -0.4320  0.1964 -0.2402
  326MPD2    C5 4950   4.421   0.878  11.306  0.8239  0.8010  0.2429
  326MPD2     H 4951   4.586   0.717  11.003  0.8095 -0.6771  0.1972
  326MPD2    H1 4952   4.585   1.000  11.320  0.1971  0.8187 -1.5580
  326MPD2    H2 4953   4.268   0.733  11.297  0.0542  0.4228  1.2162
  326MPD2    H3 4954   4.369   0.924  11.389 -2.2731  0.2206 -1.3896
  326MPD2     N 4955   4.736   0.930  11.121 -0.3415 -0.6084 -0.5267
  326MPD2    H5 4956   0.033   0.999  11.184 -0.7203 -1.2112  0.3585
  326MPD2    N1 4957   4.375   0.588  11.084 -0.5698  0.1304 -0.0285
  326MPD2    H7 4958   4.436   0.535  11.022 -1.8598  1.7683 -2.7066
  327TMC3    C1 4959   4.224   0.444  10.999  0.5631 -0.3022  0.1088
  327TMC3    C2 4960   4.105   0.416  10.940  0.2746  0.5361 -0.3146
  327TMC3    C3 4961   4.095   0.300  10.868  0.1019  0.3784 -0.1167
  327TMC3    C4 4962   4.322   0.349  11.009  0.0317 -0.3516  0.2378
  327TMC3    C5 4963   4.312   0.242  10.926 -0.3370 -0.4058 -0.0293
  327TMC3    C6 4964   4.201   0.218  10.850 -0.0968  0.0852  0.4875
  327TMC3     C 4965   4.240   0.552  11.085 -0.2102  0.1312  0.1431
  327TMC3     O 4966   4.148   0.632  11.102 -0.4846 -0.3595  0.1672
  327TMC3     H 4967   4.027   0.491  10.949  0.0807  0.1344  1.3868
  327TMC3    H1 4968   4.407   0.356  11.075 -0.4930  2.1528  0.6225
  327TMC3    H2 4969   4.194   0.129  10.787 -1.2311  1.2419 -1.0286
  327TMC3    C7 4970   4.436   0.186  10.871  0.1661 -0.8648 -0.7367
  327TMC3    C8 4971   4.002   0.306  10.753  0.1075 -0.3992  0.7246
  327TMC3    O1 4972   4.441   0.136  10.759 -0.2731  0.6262  0.3802
  327TMC3    O2 4973   4.054   0.282  10.642 -0.1343  0.5540 -1.0035
  328MPD2     C 4974   2.251   1.102  16.845  0.6016  0.2726 -0.0944
  328MPD2    C1 4975   2.157   1.057  16.936 -0.1575 -0.0872  0.3403
  328MPD2    C2 4976   2.050   0.979  16.892 -0.2033  0.5788  0.1080
  328MPD2    C3 4977   2.034   0.958  16.760  0.0466 -0.4678  0.2080
  328MPD2    C4 4978   2.125   1.011  16.667  0.0939 -0.4531 -0.7827
  328MPD2    C5 4979   2.227   1.088  16.709 -0.1841 -0.2485  0.1735
  328MPD2     H 4980   1.968   0.947  16.955 -0.5524  0.1552 -0.5603
  328MPD2    H1 4981   2.102   1.014  16.561  0.4749 -0.8400 -0.8801
  328MPD2    H2 4982   2.330   1.167  16.880  2.6935 -2.1971 -0.2624
  328MPD2    H3 4983   2.294   1.143  16.644 -0.2225  1.0721  1.2343
  328MPD2     N 4984   1.921   0.889  16.705 -0.2480  0.5058  0.2046
  328MPD2    H5 4985   1.909   0.885  16.604  0.0887 -1.0203  0.2303
  328MPD2    N1 4986   2.171   1.096  17.072  0.3430 -0.3003  0.4438
  328MPD2    H7 4987   2.246   1.162  17.088 -0.9318  1.6515 -1.6977
  329TMC3    C1 4988   2.187   1.091  17.305 -0.3449 -0.0896  0.2293
  329TMC3    C2 4989   2.191   1.224  17.331  0.0379 -0.6045 -0.5121
  329TMC3    C3 4990   2.204   1.259  17.463 -0.3798 -0.2060 -0.2747
  329TMC3    C4 4991   2.206   0.998  17.404  0.1452 -0.5552  0.4429
  329TMC3    C5 4992   2.239   1.038  17.531 -0.3709 -0.5688  0.0329
  329TMC3    C6 4993   2.226   1.168  17.564 -0.2069 -0.4000 -0.1198
  329TMC3     C 4994   2.124   1.027  17.181 -0.0150 -0.3717 -0.3802
  329TMC3     O 4995   2.064   0.920  17.184 -0.1854 -0.4740  0.2463
  329TMC3     H 4996   2.157   1.292  17.254  0.3366  0.0839 -0.0384
  329TMC3    H1 4997   2.194   0.893  17.378 -1.9102  0.0150 -0.9418
  329TMC3    H2 4998   2.247   1.201  17.665  1.8124 -0.0749 -0.6482
  329TMC3    C7 4999   2.298   0.946  17.629  0.7756 -0.4297 -0.4485
  329TMC3    C8 5000   2.148   1.381  17.507 -0.0771  0.4083  0.3820
  329TMC3    O1 5001   2.302   0.977  17.747 -0.7612 -0.1553 -0.7264
  329TMC3    O2 5002   2.138   1.479  17.436  0.2848 -0.3268 -0.0512
  330TMC3    C1 5003   0.558   4.435   9.703  0.8196 -0.5944  0.2053
  330TMC3    C2 5004   0.566   4.313   9.635  0.4877 -0.4498 -0.6110
  330TMC3    C3 5005   0.562   4.197   9.706  0.1739 -0.1050  0.4970
  330TMC3    C4 5006   0.546   4.442   9.837  0.1303  0.4127 -0.1876
  330TMC3    C5 5007   0.535   4.317   9.901  0.7554 -1.3077 -0.0991
  330TMC3    C6 5008   0.548   4.195   9.843  0.2748 -0.4585  0.5786
  330TMC3     C 5009   0.561   4.563   9.641 -0.3073  0.3109 -0.1612
  330TMC3     O 5010   0.584   4.665   9.706  0.3512 -0.0205  0.1083
  330TMC3     H 5011   0.551   4.309   9.528  0.2679 -0.1122 -0.5954
  330TMC3    H1 5012   0.526   4.538   9.884  0.2454  0.0402  0.6294
  330TMC3    H2 5013   0.547   4.106   9.905 -0.2392 -0.4759  0.5459
  330TMC3    C7 5014   0.598   4.328  10.031  0.1591  0.0948 -0.3193
  330TMC3    C8 5015   0.493   4.081   9.652  0.1929 -0.9175  0.4582
  330TMC3    O1 5016   0.592   4.234  10.106  0.5305  0.0197 -0.0203
  330TMC3    O2 5017   0.408   4.017   9.715 -0.5798 -0.4396 -0.2602
  331MPD2     C 5018   2.739   4.008  12.239 -0.5564  0.3226  0.1736
  331MPD2    C1 5019   2.874   4.033  12.257  0.0369 -0.4073 -0.3804
  331MPD2    C2 5020   2.964   3.961  12.185  0.2868  0.2540 -0.0148
  331MPD2    C3 5021   2.922   3.848  12.111 -0.5389  0.7623  1.0222
  331MPD2    C4 5022   2.786   3.817  12.109 -0.1514  0.0210  0.3703
  331MPD2    C5 5023   2.696   3.899  12.172 -0.0645 -0.2356  0.0064
  331MPD2     H 5024   3.070   3.982  12.193  0.1515  1.2954 -0.8534
  331MPD2    H1 5025   2.747   3.727  12.062  2.6502 -1.5807  1.0687
  331MPD2    H2 5026   2.660   4.065  12.287  0.0611  0.5624  0.9038
  331MPD2    H3 5027   2.589   3.880  12.176 -0.4076  1.3427 -1.4211
  331MPD2     N 5028   3.020   3.763  12.055 -0.0753 -0.1143 -0.5233
  331MPD2    H5 5029   3.110   3.808  12.046 -1.1903  1.6423 -2.8324
  331MPD2    N1 5030   2.914   4.138  12.345 -0.0177 -0.6601  0.3713
  331MPD2    H7 5031   2.838   4.201  12.368 -1.7575 -1.8881 -2.0267
  332TMC3    C1 5032   3.121   3.582  11.956  0.0027  0.0928  0.1047
  332TMC3    C2 5033   3.192   3.656  11.860  0.0297 -0.3162 -0.1032
  332TMC3    C3 5034   3.319   3.614  11.824 -0.5365  0.5033 -0.1608
  332TMC3    C4 5035   3.161   3.466  12.004  0.6588 -0.3728  0.3769
  332TMC3    C5 5036   3.289   3.430  11.960  1.0615  0.1586 -0.1880
  332TMC3    C6 5037   3.367   3.495  11.868 -0.1321  0.8488 -0.8894
  332TMC3     C 5038   2.999   3.637  12.008 -0.7423  1.0157  0.3465
  332TMC3     O 5039   2.907   3.561  12.036  0.7480  0.3422  0.1427
  332TMC3     H 5040   3.154   3.750  11.823 -1.8515 -1.7020 -1.7169
  332TMC3    H1 5041   3.118   3.427  12.095  0.1961 -0.3239  0.1762
  332TMC3    H2 5042   3.468   3.459  11.854  0.0627  0.7399  0.7367
  332TMC3    C7 5043   3.334   3.295  11.995 -0.5578 -0.6933 -0.3966
  332TMC3    C8 5044   3.415   3.695  11.756  0.6591  0.2539  0.3541
  332TMC3    O1 5045   3.235   3.229  12.020  0.1240  0.0912  0.2615
  332TMC3    O2 5046   3.531   3.658  11.749  0.1264  0.2493 -0.5743
  333MPD2     C 5047   3.306   3.570  11.125  0.7508  1.2599  0.2076
  333MPD2    C1 5048   3.324   3.457  11.055  0.5171  0.9669  0.3828
  333MPD2    C2 5049   3.255   3.345  11.106 -0.0821 -0.2140 -0.2108
  333MPD2    C3 5050   3.184   3.347  11.223  0.2542 -0.1069 -0.3298
  333MPD2    C4 5051   3.157   3.469  11.282  0.5442  0.0453 -0.4707
  333MPD2    C5 5052   3.223   3.579  11.230 -0.0110 -0.4722 -1.1373
  333MPD2     H 5053   3.272   3.246  11.065  0.2524 -0.6054  0.8602
  333MPD2    H1 5054   3.090   3.480  11.367  2.1154  0.6998  0.6725
  333MPD2    H2 5055   3.345   3.667  11.098  0.6373  0.8736 -1.3878
  333MPD2    H3 5056   3.222   3.677  11.276  3.8463 -0.0319 -1.9278
  333MPD2     N 5057   3.135   3.222  11.255  0.4366  0.3934 -0.2090
  333MPD2    H5 5058   3.170   3.143  11.201  2.2715  1.9094 -1.2493
  333MPD2    N1 5059   3.400   3.458  10.940  0.2476  0.0233  1.0929
  333MPD2    H7 5060   3.443   3.548  10.917 -2.0156  0.2017 -2.4099
  334TMC3    C1 5061   3.572   3.366  10.794  0.1843  0.5038 -0.2712
  334TMC3    C2 5062   3.625   3.273  10.713 -0.0967  0.2276 -0.4346
  334TMC3    C3 5063   3.727   3.308  10.633 -0.4019  0.5211  0.1396
  334TMC3    C4 5064   3.613   3.497  10.788  0.1484  0.2940  0.3138
  334TMC3    C5 5065   3.706   3.523  10.695 -0.7077  0.9344  0.7378
  334TMC3    C6 5066   3.779   3.432  10.627  0.6640  0.2303  0.4220
  334TMC3     C 5067   3.449   3.348  10.873  0.6090 -0.4279  0.1748
  334TMC3     O 5068   3.417   3.230  10.881  0.3007 -0.2808 -0.1089
  334TMC3     H 5069   3.580   3.174  10.721 -0.4468  0.3381 -1.1001
  334TMC3    H1 5070   3.573   3.587  10.835 -1.3821 -0.3197  0.1817
  334TMC3    H2 5071   3.866   3.460  10.569  0.3068 -0.3812 -0.3998
  334TMC3    C7 5072   3.761   3.656  10.696  0.0955  0.3217 -0.1049
  334TMC3    C8 5073   3.824   3.200  10.617  0.8221  0.2126 -0.1480
  334TMC3    O1 5074   3.756   3.718  10.801  0.0432 -1.2098 -0.0534
  334TMC3    O2 5075   3.784   3.090  10.583 -0.6376  0.0296 -0.5989
  335TMC3    C1 5076   2.934   0.789  17.569  0.0342  0.3019  0.1979
  335TMC3    C2 5077   2.863   0.733  17.466  0.6902  0.0645 -0.4536
  335TMC3    C3 5078   2.932   0.728  17.349  0.1655 -0.4210  0.0897
  335TMC3    C4 5079   3.060   0.836  17.557  0.7894  0.1381 -0.1400
  335TMC3    C5 5080   3.118   0.823  17.435  0.5162  0.1870  0.4036
  335TMC3    C6 5081   3.053   0.783  17.324 -0.2805 -0.2515  0.0008
  335TMC3     C 5082   2.893   0.764  17.700  0.3793  0.1770  0.2929
  335TMC3     O 5083   2.910   0.850   0.020 -0.1252  0.3739 -0.1180
  335TMC3     H 5084   2.763   0.694  17.479  1.5723 -1.7376  0.7861
  335TMC3    H1 5085   3.112   0.869  17.646  0.8230 -1.4152  0.4023
  335TMC3    H2 5086   3.094   0.780  17.224 -1.3547 -0.7012 -0.4203
  335TMC3    C7 5087   3.256   0.857  17.412  0.3185  0.5642  0.4470
  335TMC3    C8 5088   2.864   0.682  17.230 -0.2923  0.5231  0.3443
  335TMC3    O1 5089   3.293   0.832  17.300  0.5531 -0.0337 -0.0457
  335TMC3    O2 5090   2.901   0.727  17.125 -0.2365 -0.1090  0.1748
  336MPD2     C 5091   2.587   3.191  16.329  0.4758  0.0004  0.7907
  336MPD2    C1 5092   2.603   3.142  16.203  0.0092 -1.0782  0.0903
  336MPD2    C2 5093   2.660   3.015  16.187  0.6229 -0.4525 -0.2176
  336MPD2    C3 5094   2.688   2.944  16.302  0.3744  0.0412  0.4587
  336MPD2    C4 5095   2.678   2.997  16.428 -0.0251 -0.4417  0.1009
  336MPD2    C5 5096   2.628   3.120  16.445 -0.0966 -0.3197 -1.0975
  336MPD2     H 5097   2.674   2.978  16.087 -1.0417  1.5790 -1.2025
  336MPD2    H1 5098   2.705   2.937  16.514  0.8686  0.3725  0.3777
  336MPD2    H2 5099   2.554   3.294  16.335 -1.5958 -0.8429  3.7789
  336MPD2    H3 5100   2.612   3.170  16.540  1.1798 -1.2432 -0.4084
  336MPD2     N 5101   2.732   2.807  16.312  0.1770 -0.1359  0.0210
  336MPD2    H5 5102   2.741   2.775  16.408 -1.2597 -2.3602 -0.5967
  336MPD2    N1 5103   2.562   3.216  16.090 -0.1894  0.1975 -0.1688
  336MPD2    H7 5104   2.594   3.185  16.000 -2.0995  0.4910 -0.9474
  337TMC3    C1 5105   2.427   3.349  15.961 -1.0139  0.2719 -0.1335
  337TMC3    C2 5106   2.294   3.361  15.934 -0.5418 -0.2786  0.6393
  337TMC3    C3 5107   2.252   3.372  15.802  0.5338 -0.7109  0.2672
  337TMC3    C4 5108   2.518   3.349  15.862 -0.3896 -0.2760  0.1966
  337TMC3    C5 5109   2.477   3.340  15.734 -0.7222  0.1211  0.1683
  337TMC3    C6 5110   2.344   3.355  15.696 -0.0887  0.1067 -0.1824
  337TMC3     C 5111   2.467   3.317  16.094  0.8992  0.1227  0.1212
  337TMC3     O 5112   2.388   3.356  16.177 -0.8714 -0.1694 -0.1702
  337TMC3     H 5113   2.221   3.365  16.014  1.1302  2.1860  2.0446
  337TMC3    H1 5114   2.619   3.360  15.899 -0.7033  2.5728  0.1666
  337TMC3    H2 5115   2.315   3.362  15.592 -2.7798 -0.3330  0.5573
  337TMC3    C7 5116   2.575   3.357  15.624 -0.3449 -0.4252 -0.5528
  337TMC3    C8 5117   2.112   3.396  15.778 -0.9933 -0.1895 -0.2728
  337TMC3    O1 5118   2.528   3.420  15.531  0.1242  0.5025  0.0834
  337TMC3    O2 5119   2.042   3.439  15.867 -0.1139 -0.3261  0.1143
  338MPD2     C 5120   2.960   2.408   1.449  0.3457  0.1725  0.3162
  338MPD2    C1 5121   2.900   2.379   1.327  0.1573 -0.6192 -0.5597
  338MPD2    C2 5122   2.772   2.413   1.318 -0.4008  0.0846  0.2445
  338MPD2    C3 5123   2.699   2.478   1.417  1.0081 -0.0283 -0.1010
  338MPD2    C4 5124   2.754   2.527   1.533 -0.1651 -0.4727 -0.5469
  338MPD2    C5 5125   2.888   2.474   1.546 -0.6964 -0.3435 -0.6855
  338MPD2     H 5126   2.713   2.385   1.231 -0.3208  0.5648  0.0343
  338MPD2    H1 5127   2.704   2.573   1.618 -2.2312 -1.7702 -1.0754
  338MPD2    H2 5128   3.067   2.393   1.455  0.1901 -1.7531 -1.7865
  338MPD2    H3 5129   2.935   2.494   1.642  1.2879  0.2481 -1.8055
  338MPD2     N 5130   2.563   2.489   1.383  0.0643 -0.6932  0.0849
  338MPD2    H5 5131   2.536   2.444   1.296 -0.3270 -1.4371  0.5877
  338MPD2    N1 5132   2.961   2.309   1.218  0.0827 -0.6707  0.0601
  338MPD2    H7 5133   2.905   2.277   1.140  1.4871 -1.2791 -0.7005
  339TMC3    C1 5134   2.334   2.548   1.382  0.4747  0.3539  0.0849
  339TMC3    C2 5135   2.228   2.580   1.452 -0.1590  0.6434 -0.1357
  339TMC3    C3 5136   2.105   2.558   1.395  0.0709 -0.0359  0.5139
  339TMC3    C4 5137   2.327   2.530   1.244 -0.3758 -0.3028 -0.3921
  339TMC3    C5 5138   2.206   2.505   1.187  0.0943  0.5719  0.4847
  339TMC3    C6 5139   2.095   2.519   1.264 -0.0916  0.2520  0.0274
  339TMC3     C 5140   2.464   2.551   1.450 -0.1308 -0.2350 -0.0881
  339TMC3     O 5141   2.477   2.616   1.553 -0.2739  0.0669 -0.3788
  339TMC3     H 5142   2.237   2.616   1.554 -0.4812  1.6763 -0.4631
  339TMC3    H1 5143   2.424   2.520   1.196 -0.2383  1.5348 -0.4943
  339TMC3    H2 5144   2.000   2.499   1.217 -0.2256  1.8040 -0.3695
  339TMC3    C7 5145   2.205   2.469   1.043  0.1404  0.0933  0.2918
  339TMC3    C8 5146   1.985   2.564   1.487  0.0106  0.8303  0.1255
  339TMC3    O1 5147   2.317   2.454   0.998  0.1378 -0.4495  0.0743
  339TMC3    O2 5148   1.994   2.621   1.598  0.3408  0.4799  0.5013
  340MPD2     C 5149   3.751   0.013   9.990 -0.0488  0.3796  0.6992
  340MPD2    C1 5150   3.770   4.650  10.068 -0.0239 -0.1597  0.1332
  340MPD2    C2 5151   3.843   4.664  10.184  0.2318 -0.1337  0.6094
  340MPD2    C3 5152   3.905   0.039  10.229  0.4367  0.2978  0.8829
  340MPD2    C4 5153   3.887   0.146  10.145  0.2977 -0.1308 -0.4867
  340MPD2    C5 5154   3.807   0.133  10.031  0.9943  0.2432  0.6037
  340MPD2     H 5155   3.856   4.569  10.235  0.0224  0.9353  2.6278
  340MPD2    H1 5156   3.932   0.241  10.170  1.4455 -0.7169 -0.3401
  340MPD2    H2 5157   3.696   0.007   9.896  0.1691  1.0108  0.5280
  340MPD2    H3 5158   3.794   0.223   9.973  2.5225  0.0747 -0.0155
  340MPD2     N 5159   3.972   0.065  10.349 -0.0592  0.3299  0.1130
  340MPD2    H5 5160   3.989   0.162  10.374  0.7223  0.2512 -0.1161
  340MPD2    N1 5161   3.732   4.520  10.029  0.2455  0.0261 -0.4978
  340MPD2    H7 5162   3.726   4.443  10.094 -3.3846  1.6425  1.1090
  341TMC3    C1 5163   3.679   4.338   9.888  0.3481 -0.0105 -0.7006
  341TMC3    C2 5164   3.597   4.279   9.976 -0.0885 -0.1728 -0.4610
  341TMC3    C3 5165   3.530   4.172   9.935 -0.6557 -0.8088  0.5923
  341TMC3    C4 5166   3.682   4.292   9.757 -0.1972  0.2111 -0.1433
  341TMC3    C5 5167   3.601   4.186   9.715  0.8891  0.6252 -0.0633
  341TMC3    C6 5168   3.529   4.120   9.807  0.6650  0.1484 -0.3133
  341TMC3     C 5169   3.699   4.480   9.903 -0.5818 -0.3755  0.0885
  341TMC3     O 5170   3.700   4.543   9.795 -0.5053  0.0587 -0.0063
  341TMC3     H 5171   3.572   4.325  10.071 -0.8898  1.8726 -1.6815
  341TMC3    H1 5172   3.756   4.325   9.684 -0.0537  2.3857  0.9953
  341TMC3    H2 5173   3.477   4.027   9.790  2.5211 -0.3486 -3.2528
  341TMC3    C7 5174   3.669   4.091   9.625  0.6053  0.4995 -0.7298
  341TMC3    C8 5175   3.444   4.105  10.037  1.0323  0.4572 -0.3192
  341TMC3    O1 5176   3.671   3.973   9.658 -0.2186  0.3319 -0.3242
  341TMC3    O2 5177   3.324   4.093  10.006  0.1657 -0.0249  0.2894
  342MPD2     C 5178   0.925   3.416  17.361  0.3068 -0.7056 -0.3472
  342MPD2    C1 5179   1.049   3.410  17.426 -0.6187  0.6886  0.2439
  342MPD2    C2 5180   1.115   3.528  17.457 -0.3893  1.1299  0.4770
  342MPD2    C3 5181   1.073   3.645  17.395  0.2362 -0.4187 -0.1040
  342MPD2    C4 5182   0.959   3.642  17.315  0.1343 -0.0470  0.2006
  342MPD2    C5 5183   0.876   3.535  17.312 -0.2291 -0.2092 -0.2482
  342MPD2     H 5184   1.206   3.526  17.515 -0.5109  2.8297  0.7237
  342MPD2    H1 5185   0.925   3.731  17.264 -0.6639  0.6234  1.8949
  342MPD2    H2 5186   0.871   3.323  17.346 -0.7738 -0.3054  1.1613
  342MPD2    H3 5187   0.780   3.541  17.261 -0.0898 -2.3500 -0.7742
  342MPD2     N 5188   1.145   3.771  17.397  0.6890  0.4185  0.1278
  342MPD2    H5 5189   1.111   3.842  17.333 -0.0462 -0.6204 -0.6264
  342MPD2    N1 5190   1.106   3.290  17.472  0.0188 -0.0069  0.1468
  342MPD2    H7 5191   1.194   3.302  17.520  0.9769 -1.0040 -1.3553
  343TMC3    C1 5192   1.155   3.059  17.482  0.2585  0.1435  0.0735
  343TMC3    C2 5193   1.283   3.085  17.443 -0.5595  0.1824 -0.3450
  343TMC3    C3 5194   1.362   2.983  17.415 -0.2331  0.0077  0.5054
  343TMC3    C4 5195   1.114   2.929  17.494 -0.7827 -0.5286 -0.4697
  343TMC3    C5 5196   1.201   2.829  17.476  0.3034 -0.1926 -0.1562
  343TMC3    C6 5197   1.322   2.851  17.428  0.7493 -1.0132  1.0792
  343TMC3     C 5198   1.058   3.162  17.457  0.5856  0.2657  0.0201
  343TMC3     O 5199   0.949   3.128  17.413 -0.1844  0.4905  0.1805
  343TMC3     H 5200   1.315   3.186  17.421 -0.3253  0.3345  0.7207
  343TMC3    H1 5201   1.015   2.906  17.533  0.0617 -0.9328  1.4698
  343TMC3    H2 5202   1.376   2.762  17.398  2.5991  0.7264 -0.7953
  343TMC3    C7 5203   1.144   2.696  17.503  0.4131 -0.3144 -0.1051
  343TMC3    C8 5204   1.479   3.024  17.346  0.7153 -0.9661 -0.5463
  343TMC3    O1 5205   1.023   2.683  17.502  0.0351  0.5054  0.5190
  343TMC3    O2 5206   1.523   3.138  17.353  0.7349 -0.2855  1.1411
  344MPD2     C 5207   2.294   2.350  10.874  0.4570 -0.9669  0.3300
  344MPD2    C1 5208   2.173   2.405  10.846  0.1754 -0.1917 -0.5186
  344MPD2    C2 5209   2.174   2.513  10.765 -0.0183  0.2339  0.6690
  344MPD2    C3 5210   2.289   2.570  10.717  0.6354 -0.0475 -0.7023
  344MPD2    C4 5211   2.406   2.519  10.748 -0.0204  0.0789  0.0913
  344MPD2    C5 5212   2.410   2.409  10.823 -0.5338  0.3829 -0.8258
  344MPD2     H 5213   2.083   2.566  10.739 -0.0518  1.9339  4.3791
  344MPD2    H1 5214   2.507   2.556  10.736 -0.1692  0.7049  0.7284
  344MPD2    H2 5215   2.307   2.270  10.947 -1.9212 -0.5596  1.1692
  344MPD2    H3 5216   2.508   2.372  10.850 -0.6501  0.3573 -0.4308
  344MPD2     N 5217   2.296   2.688  10.636 -0.1544 -0.1014 -1.0509
  344MPD2    H5 5218   2.385   2.736  10.628 -1.7407  2.7469 -1.5830
  344MPD2    N1 5219   2.059   2.348  10.895 -0.2354  0.0659 -0.0354
  344MPD2    H7 5220   1.972   2.372  10.849 -0.4920  1.2561  1.0788
  345TMC3    C1 5221   2.223   2.878  10.518  0.5043  0.1049  0.4958
  345TMC3    C2 5222   2.291   2.969  10.597  0.1720  0.3256  0.4472
  345TMC3    C3 5223   2.285   3.100  10.566 -0.1122 -0.3671  0.8778
  345TMC3    C4 5224   2.148   2.924  10.413 -0.1067  0.1162 -0.9117
  345TMC3    C5 5225   2.134   3.059  10.392 -0.5359 -0.2246 -0.0573
  345TMC3    C6 5226   2.213   3.149  10.459 -0.1973  0.2747  0.8874
  345TMC3     C 5227   2.190   2.746  10.569 -0.2122 -0.2881  0.7226
  345TMC3     O 5228   2.079   2.705  10.538 -0.0184 -1.2505  0.2475
  345TMC3     H 5229   2.326   2.945  10.696  0.1843 -0.2135  0.3116
  345TMC3    H1 5230   2.095   2.850  10.353 -1.9919  1.1562 -0.5287
  345TMC3    H2 5231   2.230   3.247  10.415  1.2202  1.4463  4.0744
  345TMC3    C7 5232   2.050   3.116  10.292 -0.3841  0.0620 -0.4620
  345TMC3    C8 5233   2.391   3.181  10.630  0.5158  0.2633 -0.2535
  345TMC3    O1 5234   2.071   3.233  10.265  0.4728  0.1992  0.5003
  345TMC3    O2 5235   2.475   3.123  10.696 -0.1325  0.1496  0.1705
  346MPD2     C 5236   1.920   0.272  14.476  0.1383  0.2592 -0.6084
  346MPD2    C1 5237   1.998   0.218  14.369  0.2458 -0.2251 -0.1515
  346MPD2    C2 5238   2.137   0.219  14.383  0.3401 -0.0179  0.2330
  346MPD2    C3 5239   2.195   0.281  14.493 -0.4130  0.2397 -0.4697
  346MPD2    C4 5240   2.119   0.343  14.583 -0.3425  0.4188 -0.3185
  346MPD2    C5 5241   1.981   0.335  14.578 -0.1083 -0.3143  0.8865
  346MPD2     H 5242   2.202   0.173  14.309  1.0540 -0.8983  1.4023
  346MPD2    H1 5243   2.152   0.399  14.670 -0.3172  1.5910 -1.0802
  346MPD2    H2 5244   1.812   0.275  14.468  0.0242 -1.7542  0.2082
  346MPD2    H3 5245   1.919   0.379  14.656 -1.9140 -0.5344 -0.4321
  346MPD2     N 5246   2.336   0.263  14.506  0.7884 -0.5215 -0.3091
  346MPD2    H5 5247   2.373   0.187  14.449 -0.4037 -0.4444 -1.1897
  346MPD2    N1 5248   1.945   0.162  14.249 -0.0766 -0.4958 -0.4226
  346MPD2    H7 5249   2.014   0.126  14.183 -1.2772 -0.3366 -1.7588
  347TMC3    C1 5250   2.528   0.216  14.618  0.2575 -0.1741  0.0386
  347TMC3    C2 5251   2.595   0.193  14.501  0.9378  0.0929 -0.0863
  347TMC3    C3 5252   2.706   0.119  14.515  0.9801  0.0453  0.2416
  347TMC3    C4 5253   2.566   0.176  14.738 -0.3241 -0.2135  0.5336
  347TMC3    C5 5254   2.681   0.104  14.744 -0.4077 -0.7807  0.3284
  347TMC3    C6 5255   2.756   0.066  14.629  0.0043 -0.0016  0.4160
  347TMC3     C 5256   2.421   0.308  14.608  0.2435  0.3668  0.1222
  347TMC3     O 5257   2.391   0.368  14.712  0.5514  0.2331  0.1588
  347TMC3     H 5258   2.568   0.260  14.420 -0.3789  0.6326  0.8011
  347TMC3    H1 5259   2.502   0.197  14.823 -0.1796 -1.4163  0.9481
  347TMC3    H2 5260   2.844   0.004  14.634  0.4756  0.6208 -0.0430
  347TMC3    C7 5261   2.737   0.072  14.875 -0.1047 -0.1313 -0.1348
  347TMC3    C8 5262   2.757   0.069  14.395  0.0731  0.1156 -0.3121
  347TMC3    O1 5263   2.665   0.040  14.966 -1.0103  0.1633 -0.3190
  347TMC3    O2 5264   2.838   4.718  14.407 -0.0603  0.1273 -0.5911
  348MPD2     C 5265   0.586   4.126  12.257  0.0644 -0.2130  0.2427
  348MPD2    C1 5266   0.705   4.142  12.198 -0.2385 -0.4805 -0.2523
  348MPD2    C2 5267   0.700   4.181  12.067 -0.1078  0.0602 -0.0530
  348MPD2    C3 5268   0.578   4.199  11.998  0.3985  0.3149  0.7685
  348MPD2    C4 5269   0.464   4.197  12.064 -0.8551 -0.4826 -0.3277
  348MPD2    C5 5270   0.471   4.157  12.195 -0.3673  0.9627 -0.2148
  348MPD2     H 5271   0.796   4.185  12.017 -0.0560 -0.5419 -0.0116
  348MPD2    H1 5272   0.368   4.224  12.022 -0.6032  1.3086  0.2202
  348MPD2    H2 5273   0.575   4.074  12.352 -3.4449 -0.2980 -0.2329
  348MPD2    H3 5274   0.376   4.145  12.246  1.6471 -1.4816  2.9033
  348MPD2     N 5275   0.582   4.229  11.859  0.5837  0.1915 -0.8318
  348MPD2    H5 5276   0.674   4.248  11.819  0.1440  0.5721 -1.6482
  348MPD2    N1 5277   0.823   4.103  12.259 -0.0707  0.2302 -0.4499
  348MPD2    H7 5278   0.911   4.106  12.208 -1.0566 -2.4726 -2.2973
  349TMC3    C1 5279   0.977   3.984  12.393 -0.4495  0.7875 -0.7337
  349TMC3    C2 5280   0.978   3.849  12.415 -0.1522 -1.3150  0.2060
  349TMC3    C3 5281   1.049   3.770  12.331  0.3239 -0.3703 -0.4442
  349TMC3    C4 5282   1.068   4.041  12.310  0.3520 -0.4427 -0.3335
  349TMC3    C5 5283   1.149   3.962  12.235  0.4456  0.8080 -0.2559
  349TMC3    C6 5284   1.144   3.827  12.242 -0.0657  0.4234 -0.5068
  349TMC3     C 5285   0.841   4.041  12.382 -0.2727  1.0089 -0.7611
  349TMC3     O 5286   0.760   3.994  12.460  0.2690 -0.4196  0.4515
  349TMC3     H 5287   0.897   3.811  12.476 -0.7200  0.8504  0.7978
  349TMC3    H1 5288   1.062   4.147  12.290  0.1137 -0.3634  0.1515
  349TMC3    H2 5289   1.213   3.767  12.182  1.0353  0.6565  0.5169
  349TMC3    C7 5290   1.131   4.004  12.098 -0.5953  0.1498  0.1948
  349TMC3    C8 5291   1.025   3.629  12.334 -0.0089  0.3774 -0.2106
  349TMC3    O1 5292   1.025   4.050  12.061 -0.7439 -0.0071 -0.3763
  349TMC3    O2 5293   1.003   3.583  12.445  0.7476 -0.2123  0.1867
  350MPD2     C 5294   4.278   2.005  10.007 -0.3556 -0.2040  0.0994
  350MPD2    C1 5295   4.342   1.890   9.978  0.0803  0.7097 -0.0907
  350MPD2    C2 5296   4.481   1.885   9.973  0.5572  0.0698 -0.1306
  350MPD2    C3 5297   4.556   1.999   9.979 -1.1582  0.5653 -0.9714
  350MPD2    C4 5298   4.488   2.117   9.992  0.0827 -0.8361 -0.4812
  350MPD2    C5 5299   4.358   2.117  10.009 -0.6927  0.3266 -0.5811
  350MPD2     H 5300   4.528   1.790   9.952 -3.1899 -1.8950  0.5437
  350MPD2    H1 5301   4.550   2.203  10.014  0.3328 -1.1270 -0.0440
  350MPD2    H2 5302   4.174   2.007  10.038 -0.2786  0.9215  0.2668
  350MPD2    H3 5303   4.301   2.209  10.020 -1.2412  0.1031 -1.5414
  350MPD2     N 5304   4.693   1.977   9.954  0.2156 -0.4453 -0.5629
  350MPD2    H5 5305   4.727   1.887   9.922 -1.6478 -2.0163  1.8445
  350MPD2    N1 5306   4.276   1.766   9.976  0.8476 -0.0198 -0.4302
  350MPD2    H7 5307   4.339   1.689   9.952  2.8256  1.5435 -0.2123
  351TMC3    C1 5308   4.112   1.602   9.955  0.2318 -0.2582  0.1693
  351TMC3    C2 5309   4.214   1.520   9.908 -0.6117  0.0012  0.1364
  351TMC3    C3 5310   4.197   1.390   9.935 -0.5310 -0.4235  0.3534
  351TMC3    C4 5311   4.000   1.555  10.015 -0.2245 -0.6229  0.1527
  351TMC3    C5 5312   3.983   1.419  10.026 -1.2273 -0.2024 -0.2122
  351TMC3    C6 5313   4.081   1.333   9.980 -0.2587  0.1033  0.3603
  351TMC3     C 5314   4.137   1.743   9.977  0.0168 -0.6563  0.1721
  351TMC3     O 5315   4.056   1.811  10.035 -0.3538  0.4450  0.0070
  351TMC3     H 5316   4.304   1.554   9.858 -0.1458 -0.3230  0.7343
  351TMC3    H1 5317   3.923   1.624  10.047  0.0355 -0.6923  0.9466
  351TMC3    H2 5318   4.066   1.226   9.978  2.2781 -0.2237 -0.4881
  351TMC3    C7 5319   3.862   1.361  10.088 -0.6476 -0.5522  0.3687
  351TMC3    C8 5320   4.308   1.301   9.920  0.1864 -1.0559  0.0075
  351TMC3    O1 5321   3.804   1.428  10.172 -0.2647  0.0295 -0.5123
  351TMC3    O2 5322   4.385   1.322   9.827  0.0205  0.1989 -0.2346
  352MPD2     C 5323   2.684   4.566   1.226 -0.4370  0.5897  0.3283
  352MPD2    C1 5324   2.545   4.552   1.251 -0.0085  0.1850  0.6150
  352MPD2    C2 5325   2.514   4.440   1.326  0.3174  0.5418 -0.5593
  352MPD2    C3 5326   2.605   4.352   1.382 -0.8121 -0.6142 -0.3158
  352MPD2    C4 5327   2.738   4.376   1.354  0.3009  0.0430 -0.2651
  352MPD2    C5 5328   2.777   4.484   1.278 -0.5852  1.0200  0.1256
  352MPD2     H 5329   2.410   4.424   1.352  0.5034  1.2898  0.6429
  352MPD2    H1 5330   2.813   4.302   1.379  1.0366  1.4334  1.6305
  352MPD2    H2 5331   2.724   4.655   1.178  0.2952  1.3590  2.3598
  352MPD2    H3 5332   2.881   4.498   1.251 -0.3558 -0.0758  0.4752
  352MPD2     N 5333   2.572   4.229   1.460 -0.2909  0.1893  0.2303
  352MPD2    H5 5334   2.646   4.175   1.503  1.0646  1.3929 -0.6249
  352MPD2    N1 5335   2.453   4.645   1.191  0.3227  0.2730 -0.0634
  352MPD2    H7 5336   2.485   4.722   1.133 -0.7269 -0.1093 -1.1488
  353TMC3    C1 5337   2.423   4.062   1.539 -0.6117  0.0913  0.2856
  353TMC3    C2 5338   2.520   4.010   1.620  0.0802 -0.3372  0.4695
  353TMC3    C3 5339   2.488   3.881   1.664  0.4013 -0.5282 -0.4781
  353TMC3    C4 5340   2.301   4.003   1.521  0.6621 -0.1305 -0.1366
  353TMC3    C5 5341   2.276   3.879   1.571  0.0584 -0.4159 -0.0835
  353TMC3    C6 5342   2.373   3.816   1.639 -0.1380  0.4372  0.3968
  353TMC3     C 5343   2.442   4.190   1.476 -0.5573 -0.5302  0.4667
  353TMC3     O 5344   2.339   4.242   1.435 -0.1376 -0.0520 -0.1071
  353TMC3     H 5345   2.597   4.069   1.670  1.7030  0.3979 -2.8787
  353TMC3    H1 5346   2.230   4.035   1.445 -0.4708 -0.0302  0.9608
  353TMC3    H2 5347   2.359   3.720   1.687 -1.6820  1.4866  2.0699
  353TMC3    C7 5348   2.173   3.809   1.509 -0.1082 -0.1682 -0.4182
  353TMC3    C8 5349   2.593   3.810   1.739 -0.0976 -0.5131  0.3808
  353TMC3    O1 5350   2.183   3.683   1.505 -0.8244  0.1616  0.0617
  353TMC3    O2 5351   2.659   3.866   1.824 -0.2978 -0.6396 -0.1159
  354TMC3    C1 5352   0.068   1.031  13.762 -0.0268  0.3895  0.2518
  354TMC3    C2 5353   0.105   1.152  13.702  0.4981 -0.0769 -0.5420
  354TMC3    C3 5354   0.069   1.180  13.571  0.2492 -0.0272 -0.2036
  354TMC3    C4 5355   0.011   0.937  13.681  0.4064 -0.5550  0.5559
  354TMC3    C5 5356   4.727   0.971  13.551  0.0039  0.2495 -0.5867
  354TMC3    C6 5357   0.007   1.090  13.488 -0.1855  0.0619  0.1504
  354TMC3     C 5358   0.092   1.028  13.908  0.0091  0.5444 -0.0716
  354TMC3     O 5359   0.124   1.134  13.960 -0.7139 -0.2431  0.0058
  354TMC3     H 5360   0.165   1.222  13.759  0.8179  0.1686 -1.1734
  354TMC3    H1 5361   4.729   0.838  13.719 -0.3229 -0.6527 -0.1738
  354TMC3    H2 5362   4.710   1.115  13.390 -3.2202 -3.4708  0.4489
  354TMC3    C7 5363   4.683   0.859  13.464  1.0743  0.4632 -0.1044
  354TMC3    C8 5364   0.080   1.321  13.528  0.3430 -0.4302 -0.1467
  354TMC3    O1 5365   4.633   0.760  13.517  0.4020  0.3077  0.3677
  354TMC3    O2 5366   0.116   1.398  13.619  0.3969 -0.6463 -0.5744
  355MPD2     C 5367   4.572   1.577  11.630  0.0385  0.3926 -0.3738
  355MPD2    C1 5368   4.666   1.593  11.529  0.0210 -0.4383  0.0141
  355MPD2    C2 5369   0.051   1.546  11.543 -0.5064 -0.1232 -0.6910
  355MPD2    C3 5370   0.085   1.509  11.671 -0.4956 -0.5386 -0.1099
  355MPD2    C4 5371   4.739   1.491  11.774  0.0590 -0.5619 -0.0779
  355MPD2    C5 5372   4.611   1.507  11.744  0.2277 -0.3066  0.1677
  355MPD2     H 5373   0.129   1.558  11.469  1.2739  0.7233  1.3510
  355MPD2    H1 5374   0.019   1.459  11.875  2.6391  0.1220 -0.4102
  355MPD2    H2 5375   4.468   1.607  11.619 -0.3970 -1.0272 -0.0813
  355MPD2    H3 5376   4.544   1.469  11.821 -1.6906  1.1458 -0.7860
  355MPD2     N 5377   0.225   1.494  11.696  0.4460 -0.8818  0.1807
  355MPD2    H5 5378   0.248   1.493  11.794 -1.3399  1.3274  0.6140
  355MPD2    N1 5379   4.627   1.656  11.408 -1.0786  0.0140  0.8721
  355MPD2    H7 5380   4.526   1.661  11.399 -1.0972 -3.0284 -0.7561
  356TMC3    C1 5381   0.449   1.563  11.671 -0.2073  0.0808 -0.6947
  356TMC3    C2 5382   0.564   1.554  11.602  0.5764  0.4422 -0.4716
  356TMC3    C3 5383   0.662   1.650  11.611  0.1948 -0.4994 -0.2196
  356TMC3    C4 5384   0.428   1.686  11.734  0.0917  0.4305  0.4833
  356TMC3    C5 5385   0.524   1.781  11.741  0.2445 -0.1468  1.0643
  356TMC3    C6 5386   0.647   1.768  11.679  0.0474  0.0536  0.1654
  356TMC3     C 5387   0.330   1.499  11.609  0.0660  0.5302  0.3584
  356TMC3     O 5388   0.336   1.482  11.487  0.2692 -0.5917  0.0085
  356TMC3     H 5389   0.578   1.468  11.537  1.4933  0.1369  0.1308
  356TMC3    H1 5390   0.334   1.696  11.788 -0.6738 -0.8199 -0.6214
  356TMC3    H2 5391   0.726   1.842  11.690 -0.3159  0.3121  1.0803
  356TMC3    C7 5392   0.491   1.902  11.816  0.0341  0.5470 -0.0164
  356TMC3    C8 5393   0.764   1.641  11.502  0.0529 -0.8728 -0.2838
  356TMC3    O1 5394   0.376   1.899  11.861 -0.8307 -0.5712  0.5179
  356TMC3    O2 5395   0.799   1.534  11.452  0.2013 -0.5459  0.0382
  357MPD2     C 5396   4.534   0.667   1.265 -0.0905 -0.1572 -0.7800
  357MPD2    C1 5397   4.533   0.696   1.132  0.0509 -0.3959 -0.1720
  357MPD2    C2 5398   4.431   0.779   1.081  0.5225  0.3912  0.1231
  357MPD2    C3 5399   4.336   0.826   1.163 -0.3417  0.2872 -0.2994
  357MPD2    C4 5400   4.347   0.808   1.299  0.0800  0.0458  0.1434
  357MPD2    C5 5401   4.446   0.721   1.349  0.1018  0.8831  0.2617
  357MPD2     H 5402   4.449   0.809   0.978  2.0980 -0.1134  0.2413
  357MPD2    H1 5403   4.272   0.846   1.368  1.7528  0.0173  1.9768
  357MPD2    H2 5404   4.604   0.598   1.311  1.4511  1.7180 -0.2993
  357MPD2    H3 5405   4.445   0.709   1.456  2.8236  1.2717  0.3376
  357MPD2     N 5406   4.225   0.912   1.119  0.2273 -0.2396 -0.5186
  357MPD2    H5 5407   4.155   0.941   1.187  1.9232 -2.1073  2.0196
  357MPD2    N1 5408   4.624   0.622   1.050 -0.5283  0.1814  0.0735
  357MPD2    H7 5409   4.694   0.572   1.103  1.4543  1.5134 -1.2928
  358TMC3    C1 5410   0.006   0.558   0.862 -0.6703  0.3436  0.2248
  358TMC3    C2 5411   0.005   0.514   0.735 -0.1346 -0.2334 -0.6758
  358TMC3    C3 5412   0.114   0.460   0.681  0.2666 -0.1163 -0.5666
  358TMC3    C4 5413   0.122   0.560   0.931 -0.8191 -1.0516  0.9720
  358TMC3    C5 5414   0.229   0.500   0.877  0.1020  0.5696 -0.2161
  358TMC3    C6 5415   0.225   0.442   0.754  0.1165  0.0973  0.8936
  358TMC3     C 5416   4.641   0.639   0.913 -0.4704 -0.0004  0.2423
  358TMC3     O 5417   4.592   0.710   0.830 -0.0946  0.1898  0.8674
  358TMC3     H 5418   4.646   0.507   0.695 -0.2685  1.4556 -0.6348
  358TMC3    H1 5419   0.132   0.628   1.015  0.7463  1.0517 -0.9238
  358TMC3    H2 5420   0.319   0.424   0.702  0.5728 -0.1805  1.8081
  358TMC3    C7 5421   0.354   0.527   0.939 -0.2512 -0.2024 -0.2997
  358TMC3    C8 5422   0.112   0.434   0.537  1.6656  0.2202  0.7042
  358TMC3    O1 5423   0.451   0.536   0.867  0.2616  0.3728 -0.0250
  358TMC3    O2 5424   0.177   0.335   0.498  0.5322  0.2611 -0.0879
  359MPD2     C 5425   0.486   4.373  12.751 -0.2198 -0.1670 -0.0546
  359MPD2    C1 5426   0.455   4.459  12.658 -0.0684  0.1730  0.2066
  359MPD2    C2 5427   0.338   4.542  12.676  0.6816  0.5252  0.5920
  359MPD2    C3 5428   0.261   4.513  12.794 -0.1693  0.7564  0.4312
  359MPD2    C4 5429   0.308   4.419  12.890  0.3751  0.7115 -0.2330
  359MPD2    C5 5430   0.423   4.356  12.869  0.6559  0.0659 -0.1244
  359MPD2     H 5431   0.311   4.601  12.590  0.5281 -0.1785  0.1529
  359MPD2    H1 5432   0.256   4.401  12.984 -1.8947  1.0591 -1.4095
  359MPD2    H2 5433   0.575   4.312  12.754 -0.3265 -0.4237 -1.9648
  359MPD2    H3 5434   0.458   4.290  12.947 -2.2655 -3.5041 -1.8811
  359MPD2     N 5435   0.132   4.564  12.817 -0.5141  0.5136  0.0868
  359MPD2    H5 5436   0.091   4.535  12.906 -2.2872  0.2192 -0.8368
  359MPD2    N1 5437   0.528   4.466  12.536  0.3136 -0.0491  0.5888
  359MPD2    H7 5438   0.488   4.525  12.464  0.0323  0.8625  1.5018
  360TMC3    C1 5439   0.706   4.442  12.379 -0.4387  0.1667 -0.1058
  360TMC3    C2 5440   0.836   4.411  12.362 -0.2414  0.1598 -0.6564
  360TMC3    C3 5441   0.899   4.460  12.249 -0.1328 -0.1512 -0.1183
  360TMC3    C4 5442   0.624   4.491  12.280 -0.2025  0.4370  0.5973
  360TMC3    C5 5443   0.690   4.522  12.161  0.1977 -0.0114  0.2265
  360TMC3    C6 5444   0.829   4.523  12.150  0.1175  0.0473  0.3009
  360TMC3     C 5445   0.650   4.403  12.506 -0.6846 -0.3638  1.2216
  360TMC3     O 5446   0.719   4.336  12.583  0.0525 -0.1364 -0.2111
  360TMC3     H 5447   0.894   4.385  12.450 -0.8141  0.9407 -0.0419
  360TMC3    H1 5448   0.517   4.502  12.294 -0.8263 -0.7511 -3.2685
  360TMC3    H2 5449   0.881   4.561  12.063  0.2725  0.4715  0.5758
  360TMC3    C7 5450   0.625   4.570  12.040  0.5210  0.2410  0.0260
  360TMC3    C8 5451   1.043   4.440  12.239  0.4158 -0.3578  0.0318
  360TMC3    O1 5452   0.685   4.603  11.938 -0.0359 -0.3065 -0.8004
  360TMC3    O2 5453   1.107   4.426  12.343 -0.2133 -0.2080  0.0925
  361MPD2     C 5454   2.295   3.626  16.475 -0.3450  0.0380  0.4585
  361MPD2    C1 5455   2.239   3.703  16.578 -0.2248 -0.2675  0.8188
  361MPD2    C2 5456   2.278   3.669  16.702  0.0382  0.0776  0.2059
  361MPD2    C3 5457   2.377   3.576  16.727  0.1683  0.4971  0.2828
  361MPD2    C4 5458   2.445   3.515  16.625 -0.1449  0.6498 -0.4324
  361MPD2    C5 5459   2.403   3.537  16.500  0.0554 -0.6960 -0.3712
  361MPD2     H 5460   2.243   3.726  16.787 -3.0664  0.0266 -1.0373
  361MPD2    H1 5461   2.529   3.451  16.648 -1.9220 -1.7415 -0.5522
  361MPD2    H2 5462   2.259   3.638  16.373 -2.0055  0.1545  1.0558
  361MPD2    H3 5463   2.452   3.479  16.423 -3.1561 -1.9821 -1.4572
  361MPD2     N 5464   2.425   3.547  16.851  0.6031  0.6430  1.1396
  361MPD2    H5 5465   2.508   3.491  16.865 -0.9249 -1.6325  1.0446
  361MPD2    N1 5466   2.147   3.805  16.558  0.4119  0.9745  0.1217
  361MPD2    H7 5467   2.104   3.846  16.639 -2.7014 -0.8409 -0.6363
  362TMC3    C1 5468   1.985   3.941  16.463 -0.1420 -0.3651  0.8835
  362TMC3    C2 5469   1.993   4.014  16.577 -0.0415  0.3401  0.2064
  362TMC3    C3 5470   1.886   4.091  16.609 -0.2481  1.0860  0.7728
  362TMC3    C4 5471   1.884   3.953  16.370  1.0704  0.2837  0.0118
  362TMC3    C5 5472   1.780   4.028  16.409 -0.8967  0.1696  0.2005
  362TMC3    C6 5473   1.786   4.105  16.520  0.2404  0.0704  1.1040
  362TMC3     C 5474   2.087   3.842  16.440  0.3323  0.0197 -0.0737
  362TMC3     O 5475   2.117   3.819  16.325 -0.6436  0.5822 -0.4300
  362TMC3     H 5476   2.068   3.994  16.652 -0.6730 -1.7493  0.3051
  362TMC3    H1 5477   1.885   3.883  16.286 -0.7305  0.9805 -0.5886
  362TMC3    H2 5478   1.699   4.167  16.534 -1.4097 -1.8926 -0.4858
  362TMC3    C7 5479   1.710   4.097  16.303  0.0817 -0.1278 -0.1528
  362TMC3    C8 5480   1.873   4.134  16.750 -0.4062  0.4030  0.4278
  362TMC3    O1 5481   1.707   4.217  16.311  0.5953  0.0338 -0.0536
  362TMC3    O2 5482   1.973   4.117  16.817 -0.2819  0.4249 -0.1265
  363TMC3    C1 5483   0.064   1.689   9.046  0.2780  0.2701 -0.2740
  363TMC3    C2 5484   0.084   1.628   9.167 -0.0882 -0.3699  0.7677
  363TMC3    C3 5485   0.000   1.663   9.270  0.1480 -0.3557 -0.3242
  363TMC3    C4 5486   4.702   1.778   9.026 -0.0261  0.5228  0.4136
  363TMC3    C5 5487   4.610   1.790   9.131 -0.3090 -0.2654 -0.1966
  363TMC3    C6 5488   4.631   1.739   9.253 -0.0839 -0.5441 -0.4687
  363TMC3     C 5489   0.147   1.667   8.926 -0.7048 -0.0358 -0.2864
  363TMC3     O 5490   0.100   1.696   8.816  0.3692  0.0258 -0.0463
  363TMC3     H 5491   0.163   1.555   9.178  0.0415 -0.4432 -0.6274
  363TMC3    H1 5492   4.680   1.825   8.931 -3.0803 -0.9432  0.3971
  363TMC3    H2 5493   4.565   1.764   9.336 -0.4347 -0.9605 -0.6236
  363TMC3    C7 5494   4.511   1.898   9.129  0.1505  0.0354 -0.2772
  363TMC3    C8 5495   0.006   1.594   9.396 -0.2097 -0.6059 -0.3986
  363TMC3    O1 5496   4.539   2.001   9.071  0.5158  0.2581  0.5058
  363TMC3    O2 5497   4.661   1.621   9.483 -0.7958 -0.6468 -0.4122
  364MPD2     C 5498   3.649   0.627  10.555 -0.4105  0.2852 -0.1900
  364MPD2    C1 5499   3.760   0.567  10.494  0.3016 -0.7193  0.1084
  364MPD2    C2 5500   3.827   0.466  10.554 -0.1826  0.3612 -0.9430
  364MPD2    C3 5501   3.788   0.430  10.688  0.0972  0.1616  0.0147
  364MPD2    C4 5502   3.673   0.487  10.743  0.1705  0.0197  0.2140
  364MPD2    C5 5503   3.604   0.587  10.676  0.2289 -0.0593  0.1153
  364MPD2     H 5504   3.913   0.428  10.500 -0.4180 -0.9225 -0.3972
  364MPD2    H1 5505   3.628   0.453  10.835 -1.0782 -0.5635 -0.6069
  364MPD2    H2 5506   3.594   0.714  10.522 -0.7663  1.0642  2.4913
  364MPD2    H3 5507   3.520   0.641  10.719  1.6476  1.7223  0.6544
  364MPD2     N 5508   3.879   0.359  10.775  1.0719 -0.4359  0.3835
  364MPD2    H5 5509   3.853   0.350  10.873 -0.3672  2.3002  0.2616
  364MPD2    N1 5510   3.810   0.630  10.381  0.2626  0.1132 -0.0434
  364MPD2    H7 5511   3.761   0.716  10.355  3.1043  1.4703 -0.8638
  365TMC3    C1 5512   3.970   0.712  10.226 -0.2130  0.7924 -0.1283
  365TMC3    C2 5513   4.075   0.685  10.136  0.2685  0.2539  0.6620
  365TMC3    C3 5514   4.119   0.792  10.057  0.1630 -0.3437 -0.0073
  365TMC3    C4 5515   3.917   0.838  10.233 -0.0003  0.5807 -0.4667
  365TMC3    C5 5516   3.969   0.948  10.159 -0.2288 -0.3067  0.0352
  365TMC3    C6 5517   4.069   0.917  10.066 -0.4182 -0.7825  0.0354
  365TMC3     C 5518   3.934   0.605  10.318 -0.2256 -0.0573  0.0668
  365TMC3     O 5519   4.018   0.520  10.338 -0.0886 -0.7973  0.2108
  365TMC3     H 5520   4.101   0.581  10.122 -0.2720 -0.0263  1.7429
  365TMC3    H1 5521   3.845   0.852  10.312 -0.9970 -0.0264 -1.2790
  365TMC3    H2 5522   4.122   0.990  10.004  0.7320 -1.7541 -0.1127
  365TMC3    C7 5523   3.989   1.064  10.235  0.5313  0.2138  0.7946
  365TMC3    C8 5524   4.221   0.772   9.956 -0.2468  0.8882 -0.1053
  365TMC3    O1 5525   4.072   1.145  10.192 -0.3494 -0.2689 -0.0241
  365TMC3    O2 5526   4.215   0.837   9.851 -0.0725  0.3340 -0.1523
  366MPD2     C 5527   2.484   1.987  14.974  0.2394  0.1867  0.1739
  366MPD2    C1 5528   2.566   2.099  14.947 -0.5778  0.4174  0.3339
  366MPD2    C2 5529   2.697   2.095  14.987 -0.1332  0.2443  0.0819
  366MPD2    C3 5530   2.755   1.985  15.051 -0.0540 -0.1599 -0.1833
  366MPD2    C4 5531   2.674   1.873  15.072  0.1556 -0.3854  0.3638
  366MPD2    C5 5532   2.546   1.875  15.025  0.5132 -0.2156  0.5731
  366MPD2     H 5533   2.759   2.182  14.968  0.4124 -0.4616 -1.3674
  366MPD2    H1 5534   2.724   1.784  15.107  2.5372  0.6844 -0.2812
  366MPD2    H2 5535   2.385   1.974  14.932  0.6109  0.9323 -0.9225
  366MPD2    H3 5536   2.487   1.784  15.023  0.1991 -0.0101  0.4664
  366MPD2     N 5537   2.889   2.005  15.092  0.0192  0.2409  0.1814
  366MPD2    H5 5538   2.924   2.100  15.079  1.1930 -0.2449 -0.1937
  366MPD2    N1 5539   2.518   2.229  14.915  0.8654  0.2969  0.4188
  366MPD2    H7 5540   2.585   2.304  14.922  1.9314 -0.3595 -2.7104
  367TMC3    C1 5541   2.383   2.394  14.995 -0.3930  0.5416  0.0274
  367TMC3    C2 5542   2.485   2.442  15.072  0.4182 -0.1991 -0.5957
  367TMC3    C3 5543   2.483   2.577  15.094  0.2702  0.1898 -0.9254
  367TMC3    C4 5544   2.280   2.471  14.948 -0.4775 -0.2162  0.4175
  367TMC3    C5 5545   2.287   2.605  14.980  0.5110 -0.5837  0.5113
  367TMC3    C6 5546   2.379   2.660  15.062 -0.1088 -0.1538 -0.6253
  367TMC3     C 5547   2.390   2.262  14.947 -0.2417 -0.0249 -0.1313
  367TMC3     O 5548   2.287   2.196  14.932 -0.5812  0.1771 -0.0289
  367TMC3     H 5549   2.551   2.371  15.121 -0.4207 -0.3625  0.2921
  367TMC3    H1 5550   2.193   2.419  14.911 -0.8445  1.1683 -0.6762
  367TMC3    H2 5551   2.377   2.766  15.083  0.8699 -0.4122  0.7745
  367TMC3    C7 5552   2.173   2.684  14.946  0.4064 -0.7031 -0.3585
  367TMC3    C8 5553   2.572   2.616  15.204 -0.2249 -0.3706 -0.2518
  367TMC3    O1 5554   2.144   2.782  15.015 -0.4839  0.1289 -0.0010
  367TMC3    O2 5555   2.656   2.534  15.237  0.0751  0.1905 -0.3509
  368MPD2     C 5556   3.563   3.891  13.253 -0.0202 -0.6696  0.1952
  368MPD2    C1 5557   3.599   3.990  13.163  0.0756 -0.5452  0.4456
  368MPD2    C2 5558   3.697   3.968  13.064 -0.2866  0.6026  0.5359
  368MPD2    C3 5559   3.762   3.845  13.057  0.5357 -0.1593  0.1312
  368MPD2    C4 5560   3.737   3.746  13.152 -0.9476  0.0475  0.3531
  368MPD2    C5 5561   3.634   3.771  13.244 -0.8678  0.1962  0.2335
  368MPD2     H 5562   3.715   4.043  12.988 -3.2120  1.7215  0.9352
  368MPD2    H1 5563   3.776   3.645  13.146 -1.0109  0.0310  0.2156
  368MPD2    H2 5564   3.483   3.903  13.326  0.3151  0.3194  0.3993
  368MPD2    H3 5565   3.599   3.686  13.301  1.2945 -0.7529  0.1559
  368MPD2     N 5566   3.857   3.816  12.958 -0.3773 -0.3682 -0.5862
  368MPD2    H5 5567   3.880   3.718  12.946 -1.1558 -0.6298  0.0501
  368MPD2    N1 5568   3.528   4.117  13.175  0.7772  0.3401 -0.2684
  368MPD2    H7 5569   3.451   4.130  13.239  2.0495  3.4026  0.6697
  369TMC3    C1 5570   3.504   4.356  13.144  0.2495 -0.5006 -0.1826
  369TMC3    C2 5571   3.568   4.473  13.101  0.6099 -0.0875 -0.8582
  369TMC3    C3 5572   3.487   4.574  13.055  0.3856  0.6353 -0.3774
  369TMC3    C4 5573   3.368   4.341  13.153 -0.1487 -0.0702 -0.4824
  369TMC3    C5 5574   3.295   4.444  13.108  0.3213  0.2649  0.5956
  369TMC3    C6 5575   3.349   4.563  13.058  0.0015  0.1733 -0.7030
  369TMC3     C 5576   3.589   4.236  13.149 -0.3698  0.7556 -0.8119
  369TMC3     O 5577   3.703   4.266  13.126  0.7897 -0.4822 -0.0650
  369TMC3     H 5578   3.676   4.480  13.114  0.5007 -1.5377  0.8201
  369TMC3    H1 5579   3.316   4.252  13.185  1.0746 -0.4088  0.5361
  369TMC3    H2 5580   3.289   4.648  13.028 -0.7026  0.6977  2.1828
  369TMC3    C7 5581   3.158   4.410  13.069  0.0836 -0.2210  0.6111
  369TMC3    C8 5582   3.534   4.700  12.995 -0.1847 -0.5215  0.2608
  369TMC3    O1 5583   3.111   4.302  13.098 -0.0582  0.6009 -0.2196
  369TMC3    O2 5584   3.458   0.055  12.980  0.8170 -0.3652 -0.5883
  370TMC3    C1 5585   3.136   0.130  16.241  0.1001 -0.6069 -0.3239
  370TMC3    C2 5586   3.068   0.060  16.337  0.3799  0.3032 -0.0925
  370TMC3    C3 5587   2.977   4.706  16.290 -0.6015  0.0292 -0.1175
  370TMC3    C4 5588   3.114   0.116  16.111  0.2087 -0.1697  0.2612
  370TMC3    C5 5589   3.035   0.012  16.074 -0.5522  0.0042  0.4336
  370TMC3    C6 5590   2.971   4.670  16.160  0.8264 -0.1822 -0.1687
  370TMC3     C 5591   3.222   0.229  16.300 -0.0564 -0.6793 -0.3672
  370TMC3     O 5592   3.279   0.209  16.410  0.2168 -0.2023  0.1803
  370TMC3     H 5593   3.082   0.084  16.442  0.9608  0.5341 -0.2194
  370TMC3    H1 5594   3.167   0.176  16.038  0.5563  1.6659  2.0148
  370TMC3    H2 5595   2.908   4.589  16.125  1.0748 -0.7566  0.7244
  370TMC3    C7 5596   3.081   4.703  15.948 -0.1086 -0.1486  0.2695
  370TMC3    C8 5597   2.906   4.613  16.379  0.0716 -0.1756  0.4794
  370TMC3    O1 5598   3.129   0.039  15.865 -0.2131  0.0930 -0.3789
  370TMC3    O2 5599   2.875   4.496  16.342 -0.3098  0.0762  0.0850
  371TMC3    C1 5600   4.299   3.294  15.270  0.0349 -0.6834  0.2901
  371TMC3    C2 5601   4.263   3.285  15.398 -0.2708  0.1328 -0.5668
  371TMC3    C3 5602   4.231   3.403  15.458  0.3798 -0.0587 -0.1577
  371TMC3    C4 5603   4.319   3.414  15.212 -0.8177 -0.0713  0.5135
  371TMC3    C5 5604   4.296   3.527  15.281  0.6100 -0.0807  0.2396
  371TMC3    C6 5605   4.255   3.529  15.413 -0.1358  0.3553 -0.8637
  371TMC3     C 5606   4.354   3.181  15.194 -0.0486 -0.4202 -0.7656
  371TMC3     O 5607   4.427   3.207  15.098  0.5000 -0.7699 -0.2420
  371TMC3     H 5608   4.265   3.195  15.459  1.9144 -0.1106 -1.0088
  371TMC3    H1 5609   4.371   3.431  15.119  0.8257  1.1211  1.6592
  371TMC3    H2 5610   4.247   3.620  15.471 -2.1111 -1.5057  1.7595
  371TMC3    C7 5611   4.378   3.641  15.242 -0.2628  0.2653 -0.8061
  371TMC3    C8 5612   4.186   3.394  15.597 -0.4151 -0.1702  0.0118
  371TMC3    O1 5613   4.388   3.650  15.123 -0.4417 -0.1772 -0.4800
  371TMC3    O2 5614   4.218   3.293  15.660 -0.0105 -0.1286  0.6560
  372MPD2     C 5615   3.723   4.239  13.590  0.5459  0.1886 -0.0141
  372MPD2    C1 5616   3.767   4.139  13.506 -0.5847  0.4373 -0.1156
  372MPD2    C2 5617   3.735   4.011  13.538 -0.3559 -0.2089  0.2614
  372MPD2    C3 5618   3.638   3.980  13.628 -0.0615  0.0905  0.0070
  372MPD2    C4 5619   3.586   4.079  13.696 -0.4907 -0.4954  0.4421
  372MPD2    C5 5620   3.622   4.209  13.675  0.0736  0.2760 -0.4398
  372MPD2     H 5621   3.766   3.927  13.477 -0.4930 -0.8846  1.1218
  372MPD2    H1 5622   3.495   4.063  13.753 -1.3722  0.9784 -0.5380
  372MPD2    H2 5623   3.764   4.339  13.586  1.2686 -0.1665 -1.3863
  372MPD2    H3 5624   3.565   4.285  13.728  1.3488  1.1467 -0.3115
  372MPD2     N 5625   3.592   3.847  13.636  0.4653  0.2237  0.2739
  372MPD2    H5 5626   3.641   3.770  13.590  0.1595  0.4019 -0.3386
  372MPD2    N1 5627   3.866   4.157  13.408  0.4999  0.2941  0.1597
  372MPD2    H7 5628   3.907   4.077  13.363 -0.7825 -1.2955  1.8138
  373TMC3    C1 5629   3.483   3.658  13.727  0.2317 -0.9908  0.3626
  373TMC3    C2 5630   3.494   3.571  13.827 -0.3004  0.0334 -0.1343
  373TMC3    C3 5631   3.470   3.439  13.794  0.3883 -0.4306 -0.8157
  373TMC3    C4 5632   3.443   3.629  13.599  0.4826 -0.4930 -0.2041
  373TMC3    C5 5633   3.409   3.496  13.573 -0.1112 -0.5037 -0.1254
  373TMC3    C6 5634   3.417   3.402  13.670  0.3479  0.1325  0.0014
  373TMC3     C 5635   3.534   3.793  13.748 -0.7780 -0.5502 -0.4144
  373TMC3     O 5636   3.494   3.847  13.853 -0.1104  0.4977  0.1978
  373TMC3     H 5637   3.522   3.593  13.929  0.2200  2.0226 -0.7140
  373TMC3    H1 5638   3.416   3.716  13.539 -0.6503  0.2665  1.4062
  373TMC3    H2 5639   3.400   3.296  13.661 -0.5930  0.2662  0.2382
  373TMC3    C7 5640   3.378   3.479  13.431 -1.1267 -0.3926  0.1634
  373TMC3    C8 5641   3.556   3.333  13.846 -0.3921  0.1313 -0.2879
  373TMC3    O1 5642   3.408   3.568  13.351  0.6142 -0.3552 -0.0231
  373TMC3    O2 5643   3.520   3.217  13.834 -0.5679 -0.7678  0.0933
  374TMC3    C1 5644   4.612   3.922   9.572  0.1023 -0.0839 -0.3031
  374TMC3    C2 5645   4.664   4.038   9.624 -0.2294 -0.1237 -0.3863
  374TMC3    C3 5646   4.735   4.128   9.543  0.0758  0.3880  0.1887
  374TMC3    C4 5647   4.623   3.905   9.435  0.7503  0.2988  0.1328
  374TMC3    C5 5648   4.696   3.993   9.354  0.8972  0.2157 -0.3159
  374TMC3    C6 5649   0.002   4.110   9.407  0.0717  0.0635  0.1985
  374TMC3     C 5650   4.547   3.817   9.653 -0.7300 -0.6360  0.2937
  374TMC3     O 5651   4.477   3.732   9.594 -0.0579 -0.2111  0.3659
  374TMC3     H 5652   4.670   4.053   9.731 -0.4577  3.1532 -0.8286
  374TMC3    H1 5653   4.587   3.810   9.399  3.2094 -0.7658  0.4737
  374TMC3    H2 5654   0.044   4.184   9.341  0.1661 -0.9847 -0.9040
  374TMC3    C7 5655   0.010   3.952   9.223  0.4593  0.4580  0.7177
  374TMC3    C8 5656   0.040   4.250   9.593 -0.1487  0.3124  0.1940
  374TMC3    O1 5657   0.098   4.022   9.175  0.3895 -0.1013 -0.6206
  374TMC3    O2 5658   0.059   4.335   9.510  0.6513 -0.8483 -0.3099
  375MPD2     C 5659   4.488   0.345  17.159 -0.3374  0.0394  0.7504
  375MPD2    C1 5660   4.406   0.427  17.079 -0.3020  0.2039  0.1138
  375MPD2    C2 5661   4.429   0.427  16.945  0.1414 -0.1132 -0.3307
  375MPD2    C3 5662   4.550   0.371  16.890  0.0516  0.2629  0.6786
  375MPD2    C4 5663   4.640   0.310  16.979 -0.0997 -0.9440 -0.0778
  375MPD2    C5 5664   4.604   0.287  17.106 -0.7019 -0.6090  0.5222
  375MPD2     H 5665   4.372   0.499  16.887  1.8536  0.6819 -1.0311
  375MPD2    H1 5666   4.737   0.280  16.941  0.9190  1.4226  0.6081
  375MPD2    H2 5667   4.470   0.324  17.264 -0.3104  1.8304  1.1285
  375MPD2    H3 5668   4.679   0.239  17.168  1.0211  2.0097  0.5102
  375MPD2     N 5669   4.582   0.401  16.760  0.3066  0.2624 -0.0464
  375MPD2    H5 5670   4.675   0.383  16.724  0.3190 -1.3876  0.7731
  375MPD2    N1 5671   4.282   0.473  17.128 -0.5813 -0.2380  0.3242
  375MPD2    H7 5672   4.224   0.520  17.059  2.5024  2.9631 -0.0519
  376TMC3    C1 5673   4.540   0.452  16.523 -0.0119  0.1800  0.3376
  376TMC3    C2 5674   4.670   0.488  16.512  0.3220  0.0701 -0.8002
  376TMC3    C3 5675   4.720   0.490  16.382  0.3898  0.7675 -0.4786
  376TMC3    C4 5676   4.466   0.427  16.416 -0.1359 -0.6327  0.1539
  376TMC3    C5 5677   4.525   0.421  16.287  0.2620  0.2648  0.1082
  376TMC3    C6 5678   4.660   0.453  16.265 -0.5987  0.3672 -0.6139
  376TMC3     C 5679   4.489   0.429  16.661  0.2402 -0.5262 -0.8280
  376TMC3     O 5680   4.370   0.419  16.654  0.3474  0.7479 -0.4084
  376TMC3     H 5681   4.715   0.524  16.603 -1.7790 -0.0280  0.2688
  376TMC3    H1 5682   4.360   0.414  16.430 -0.5311  3.1558  0.6771
  376TMC3    H2 5683   4.698   0.454  16.164 -2.1410  0.4077 -1.2010
  376TMC3    C7 5684   4.437   0.450  16.174  0.4982  0.3280  0.1317
  376TMC3    C8 5685   0.117   0.527  16.368  0.3016  0.1315  0.1356
  376TMC3    O1 5686   4.484   0.534  16.101  0.0275  0.2182  0.7192
  376TMC3    O2 5687   0.143   0.533  16.248  0.0502 -0.5207 -0.1168
  377MPD2     C 5688   2.605   4.680  12.325 -0.6935  0.2472  0.0066
  377MPD2    C1 5689   2.645   4.706  12.449  0.7740  0.1030  0.3080
  377MPD2    C2 5690   2.551   4.710  12.550 -0.2213 -0.8650  0.7610
  377MPD2    C3 5691   2.423   4.661  12.517 -0.5783  0.5416 -0.3394
  377MPD2    C4 5692   2.388   4.636  12.392  0.1104  0.3680  0.1795
  377MPD2    C5 5693   2.481   4.641  12.294  0.1343 -0.2284 -0.7241
  377MPD2     H 5694   2.580   4.727  12.653  0.6624 -2.4260  0.7724
  377MPD2    H1 5695   2.284   4.620  12.365  0.3155 -1.8010  0.6918
  377MPD2    H2 5696   2.669   4.699  12.239  0.6587 -0.2966  0.8862
  377MPD2    H3 5697   2.452   4.619  12.192  0.2934  0.9321 -1.0195
  377MPD2     N 5698   2.318   4.645  12.613  0.7183 -0.0776 -0.5823
  377MPD2    H5 5699   2.233   4.598  12.587  1.5124 -2.0167  0.3457
  377MPD2    N1 5700   2.774   0.018  12.453  0.7743 -0.7309 -0.2541
  377MPD2    H7 5701   2.825   0.020  12.366  2.6058 -1.2746  0.8019
  378TMC3    C1 5702   3.151   0.103  12.377 -0.4957  0.0629 -0.0039
  378TMC3    C2 5703   3.022   0.132  12.416  0.2333  0.9292 -0.2231
  378TMC3    C3 5704   2.979   0.080  12.538 -0.1406 -0.1830  0.0512
  378TMC3    C4 5705   3.243   0.035  12.455 -0.2856 -0.2162 -0.4545
  378TMC3    C5 5706   3.190   4.727  12.569 -0.1200 -0.4402  0.2823
  378TMC3    C6 5707   3.059   4.739  12.605  0.8220 -1.2445  0.0211
  378TMC3     C 5708   3.177   0.141  12.238  0.3020 -0.0277 -0.2476
  378TMC3     O 5709   3.087   0.199  12.184  0.5043 -0.4824  0.1587
  378TMC3     H 5710   2.948   0.197  12.372 -0.8409 -0.9164 -1.1316
  378TMC3    H1 5711   3.348   0.025  12.430  0.4121  0.6102  2.1817
  378TMC3    H2 5712   3.023   4.682  12.690 -1.0641  2.1997  1.5559
  378TMC3    C7 5713   3.271   4.636  12.654 -0.2316 -1.1078  0.1197
  378TMC3    C8 5714   2.841   0.051  12.571 -0.5007  0.0899  0.3050
  378TMC3    O1 5715   3.211   4.556  12.724 -0.0502  0.5931 -0.8160
  378TMC3    O2 5716   2.797   0.065  12.683 -0.3258  0.4705 -0.7164
  379MPD2     C 5717   3.521   2.964  16.183 -0.2390 -0.1104 -0.0872
  379MPD2    C1 5718   3.428   2.865  16.198  0.1112 -0.4421  0.9242
  379MPD2    C2 5719   3.410   2.814  16.327 -0.1758  0.2141 -0.5186
  379MPD2    C3 5720   3.469   2.878  16.439  0.0187  0.0339 -0.1581
  379MPD2    C4 5721   3.560   2.980  16.415  0.2366  0.5669  0.5043
  379MPD2    C5 5722   3.584   3.017  16.291 -0.7186  0.2231  0.0704
  379MPD2     H 5723   3.340   2.733  16.343  0.2143 -0.4769 -2.2701
  379MPD2    H1 5724   3.611   3.038  16.491  1.4635 -0.4817  0.4720
  379MPD2    H2 5725   3.550   3.010  16.089  3.4705 -1.5409  0.3606
  379MPD2    H3 5726   3.643   3.105  16.271 -0.0118  0.1488  1.8784
  379MPD2     N 5727   3.463   2.826  16.563  0.3178  0.7651 -0.5566
  379MPD2    H5 5728   3.514   2.871  16.638  0.9802  1.5899 -1.5045
  379MPD2    N1 5729   3.354   2.823  16.088  0.3909  0.2392 -0.3314
  379MPD2    H7 5730   3.385   2.858  15.998  3.5836 -1.4014  0.1025
  380TMC3    C1 5731   3.192   2.736  15.957 -0.3212  0.1625 -0.5358
  380TMC3    C2 5732   3.282   2.683  15.874 -0.2737  0.5320 -0.2858
  380TMC3    C3 5733   3.259   2.655  15.744 -0.4138 -0.2053  0.0408
  380TMC3    C4 5734   3.069   2.770  15.913 -0.0401 -0.5805 -0.1967
  380TMC3    C5 5735   3.048   2.739  15.781  0.6670 -0.1025  0.5917
  380TMC3    C6 5736   3.131   2.679  15.695  0.4687 -0.4569  0.1877
  380TMC3     C 5737   3.236   2.755  16.098 -0.1435  0.9081  0.7347
  380TMC3     O 5738   3.152   2.757  16.187 -0.1122 -0.3598  0.7816
  380TMC3     H 5739   3.375   2.649  15.919  0.0384  3.3482  1.1334
  380TMC3    H1 5740   2.990   2.810  15.976  1.4377 -2.0550  2.5529
  380TMC3    H2 5741   3.118   2.682  15.588  2.8096  0.0242 -0.0924
  380TMC3    C7 5742   2.937   2.810  15.724 -0.3018 -0.0060  0.1624
  380TMC3    C8 5743   3.375   2.651  15.662 -0.2875  0.1333  0.0216
  380TMC3    O1 5744   2.888   2.898  15.794  0.2237  0.2267 -0.1818
  380TMC3    O2 5745   3.480   2.656  15.724 -0.1065 -0.1040 -0.4243
  381TMC3    C1 5746   2.701   4.323  16.104 -0.0576 -0.3878  0.0722
  381TMC3    C2 5747   2.832   4.287  16.094 -0.4642  0.2980 -0.6755
  381TMC3    C3 5748   2.872   4.178  16.167 -0.2313  0.0884 -0.0855
  381TMC3    C4 5749   2.619   4.269  16.198 -0.6526  0.2363  0.6291
  381TMC3    C5 5750   2.664   4.156  16.269 -0.2141 -0.2170  0.5214
  381TMC3    C6 5751   2.793   4.109  16.242 -0.3063  0.2072  0.0766
  381TMC3     C 5752   2.663   4.452  16.054  0.4013 -0.0560  0.2954
  381TMC3     O 5753   2.564   4.503  16.113  0.4568 -0.3872  0.5210
  381TMC3     H 5754   2.897   4.353  16.038  1.6216  0.0008  1.3699
  381TMC3    H1 5755   2.514   4.287  16.216  0.1107  1.8421  3.4381
  381TMC3    H2 5756   2.818   4.008  16.273 -0.4480  0.2293  0.2659
  381TMC3    C7 5757   2.599   4.097  16.384  0.1574  1.1181  0.0670
  381TMC3    C8 5758   3.015   4.179  16.185 -0.3359  0.2964 -0.3256
  381TMC3    O1 5759   2.600   3.973  16.388  0.1115 -0.0517  0.1651
  381TMC3    O2 5760   3.079   4.158  16.084  0.1017  0.3576 -0.1605
  382MPD2     C 5761   2.342   1.560  16.716 -0.2348 -0.6777  0.0972
  382MPD2    C1 5762   2.339   1.521  16.851  0.0546 -1.0236  0.5474
  382MPD2    C2 5763   2.226   1.470  16.897 -0.4895 -0.3186  0.3407
  382MPD2    C3 5764   2.108   1.441  16.815 -0.0687 -0.0489  0.0548
  382MPD2    C4 5765   2.129   1.455  16.681  0.0071  0.4554  0.3647
  382MPD2    C5 5766   2.239   1.519  16.630  0.0293 -0.7804  0.4173
  382MPD2     H 5767   2.241   1.444  17.002  2.8569 -0.6054 -0.2186
  382MPD2    H1 5768   2.051   1.422  16.613 -0.0411 -0.7526  0.9985
  382MPD2    H2 5769   2.425   1.602  16.662  0.1737 -0.9631  0.5006
  382MPD2    H3 5770   2.234   1.545  16.525  2.1073 -0.9699  0.2785
  382MPD2     N 5771   1.990   1.386  16.870 -0.2345 -0.1017  0.0155
  382MPD2    H5 5772   1.922   1.364  16.798 -1.5154  0.4334  1.0658
  382MPD2    N1 5773   2.429   1.566  16.953 -0.6125 -0.3107  0.0878
  382MPD2    H7 5774   2.407   1.563  17.052 -2.0545 -0.7992 -0.2474
  383TMC3    C1 5775   1.850   1.298  17.052  0.2418 -0.5976  0.1017
  383TMC3    C2 5776   1.787   1.211  16.965 -0.1835  1.3383 -0.1235
  383TMC3    C3 5777   1.708   1.113  17.022 -0.4388  0.0495  0.2385
  383TMC3    C4 5778   1.845   1.277  17.189 -0.3263 -0.0013 -0.8317
  383TMC3    C5 5779   1.771   1.175  17.239 -0.2273 -0.3689 -0.0025
  383TMC3    C6 5780   1.695   1.096  17.157 -0.1627  0.1467 -0.3574
  383TMC3     C 5781   1.961   1.376  17.008 -0.4886  0.4703  0.4869
  383TMC3     O 5782   2.037   1.423  17.093 -0.0200 -0.4355 -0.1690
  383TMC3     H 5783   1.800   1.215  16.857 -1.3855  0.9011 -0.2834
  383TMC3    H1 5784   1.904   1.339  17.256 -0.8549 -1.6450  1.1506
  383TMC3    H2 5785   1.621   1.025  17.193  0.6151 -0.7674 -0.5447
  383TMC3    C7 5786   1.809   1.108  17.358 -0.3670 -0.0745 -0.0824
  383TMC3    C8 5787   1.620   1.040  16.939 -0.1274 -0.5841  0.3143
  383TMC3    O1 5788   1.874   1.173  17.437 -0.0037 -0.3659 -0.1629
  383TMC3    O2 5789   1.570   1.095  16.841 -0.6292 -0.0127  0.1733
  384MPD2     C 5790   3.719   2.555  12.055 -0.1146 -0.0080  0.1774
  384MPD2    C1 5791   3.642   2.444  12.037 -0.6810  0.0824  0.7946
  384MPD2    C2 5792   3.632   2.384  11.907 -0.4058  0.1925  0.7316
  384MPD2    C3 5793   3.702   2.439  11.800 -0.4904  0.7630 -0.0876
  384MPD2    C4 5794   3.796   2.541  11.827 -0.1463  0.4530  0.2677
  384MPD2    C5 5795   3.806   2.592  11.957  0.0605 -0.2122 -0.4378
  384MPD2     H 5796   3.560   2.307  11.885 -2.0013  1.8695  0.0838
  384MPD2    H1 5797   3.851   2.587  11.746  1.4827 -0.9064  0.6018
  384MPD2    H2 5798   3.718   2.597  12.155 -0.4668 -0.8040  0.5080
  384MPD2    H3 5799   3.861   2.681  11.982 -1.6299  0.0859  2.2333
  384MPD2     N 5800   3.694   2.375  11.676  0.3873  0.8675  0.2498
  384MPD2    H5 5801   3.626   2.300  11.670 -0.2747  1.3264  2.1664
  384MPD2    N1 5802   3.579   2.385  12.152  0.6818 -0.0175  0.5921
  384MPD2    H7 5803   3.572   2.435  12.240  0.7041  0.5882  0.2417
  385TMC3    C1 5804   3.727   2.308  11.460  0.3003 -0.0337  0.6074
  385TMC3    C2 5805   3.838   2.237  11.420 -0.0816 -0.4795  0.0122
  385TMC3    C3 5806   3.843   2.108  11.412 -0.1545 -0.3139  0.5058
  385TMC3    C4 5807   3.608   2.244  11.488  0.1700  1.1824  0.0501
  385TMC3    C5 5808   3.613   2.103  11.489  1.0299 -0.2796  0.0278
  385TMC3    C6 5809   3.732   2.037  11.456  0.3418 -0.4926 -0.6851
  385TMC3     C 5810   3.758   2.410  11.563  0.1298  0.0701  0.2326
  385TMC3     O 5811   3.832   2.506  11.545  0.0320 -0.2338  0.5602
  385TMC3     H 5812   3.929   2.292  11.400  0.5467 -1.1084  1.2148
  385TMC3    H1 5813   3.515   2.296  11.507 -1.3976 -1.3148 -0.8181
  385TMC3    H2 5814   3.738   1.930  11.475  1.8451 -0.0818  1.1305
  385TMC3    C7 5815   3.560   2.062  11.614  0.4751 -1.0609  0.1695
  385TMC3    C8 5816   3.954   2.039  11.340 -0.3307 -0.0295 -0.3729
  385TMC3    O1 5817   3.528   2.157  11.684 -0.7187 -0.1271 -0.1457
  385TMC3    O2 5818   4.038   2.107  11.282  0.1405  0.0188  0.6570
  386TMC3    C1 5819   4.526   4.696  11.934 -0.0287 -0.5778  0.8484
  386TMC3    C2 5820   4.536   4.629  11.811 -0.0208 -0.1034  0.1680
  386TMC3    C3 5821   4.482   4.695  11.702  0.4756  0.7888 -0.2176
  386TMC3    C4 5822   4.448   0.073  11.949  0.1641  0.1663 -0.6258
  386TMC3    C5 5823   4.378   0.119  11.838 -0.2544  0.2398 -0.6094
  386TMC3    C6 5824   4.409   0.069  11.716  0.6945  0.5479 -0.2890
  386TMC3     C 5825   4.603   4.668  12.051  0.2904  0.2080 -0.0326
  386TMC3     O 5826   4.597   0.004  12.141 -0.4166 -0.0131 -0.1196
  386TMC3     H 5827   4.590   4.535  11.800  2.0396  1.1635 -0.4679
  386TMC3    H1 5828   4.429   0.108  12.050  0.8061 -1.7988  0.1687
  386TMC3    H2 5829   4.367   0.124  11.632 -1.3224 -1.6478 -0.7136
  386TMC3    C7 5830   4.239   0.146  11.862  0.0793  0.2060 -0.4230
  386TMC3    C8 5831   4.457   4.635  11.570  0.1706  0.0138 -0.4393
  386TMC3    O1 5832   4.211   0.170  11.977 -0.3401 -0.2618 -0.5573
  386TMC3    O2 5833   4.403   4.710  11.487  0.0078 -0.5327  0.2118
  387MPD2     C 5834   1.988   4.268   9.892 -0.2375 -0.8974 -0.0628
  387MPD2    C1 5835   2.066   4.157   9.935  1.1147 -0.0367  0.3706
  387MPD2    C2 5836   2.051   4.030   9.889  0.6838  0.5286  0.3052
  387MPD2    C3 5837   1.952   3.998   9.805  0.7245 -1.0334 -0.2948
  387MPD2    C4 5838   1.871   4.107   9.765  0.0982 -0.5114  0.1115
  387MPD2    C5 5839   1.886   4.232   9.808 -0.0257  0.0662  0.2396
  387MPD2     H 5840   2.113   3.950   9.928  0.8352  0.6565  0.3267
  387MPD2    H1 5841   1.787   4.090   9.698  0.2003  1.1756 -0.4464
  387MPD2    H2 5842   2.003   4.368   9.932 -0.2966 -0.9904  0.1941
  387MPD2    H3 5843   1.820   4.302   9.759 -1.1908  1.5811  3.9517
  387MPD2     N 5844   1.951   3.870   9.754 -0.3855  0.1589  0.1074
  387MPD2    H5 5845   2.009   3.806   9.808  2.4646  0.5224 -2.5412
  387MPD2    N1 5846   2.179   4.180  10.008  0.3684  0.3445  0.6295
  387MPD2    H7 5847   2.223   4.092  10.031 -0.3833 -0.0417  0.5799
  388TMC3    C1 5848   2.353   4.268  10.126 -0.0479 -0.2081  0.6581
  388TMC3    C2 5849   2.421   4.376  10.156 -0.1309  0.4372  0.1720
  388TMC3    C3 5850   2.557   4.360  10.181  0.7043 -0.2785  0.5395
  388TMC3    C4 5851   2.413   4.146  10.122 -0.0245 -0.0296  0.2569
  388TMC3    C5 5852   2.551   4.137  10.133  0.8234 -0.4012 -0.4810
  388TMC3    C6 5853   2.623   4.245  10.161  0.0187 -0.3954 -0.3095
  388TMC3     C 5854   2.219   4.290  10.065 -0.2225 -0.1611  0.2550
  388TMC3     O 5855   2.192   4.403  10.041  0.1946  0.8819  0.2487
  388TMC3     H 5856   2.386   4.475  10.129  2.4207  0.9407 -1.3096
  388TMC3    H1 5857   2.356   4.055  10.107 -2.1630  1.1083  1.5189
  388TMC3    H2 5858   2.731   4.244  10.153  0.0166 -0.4370 -0.3331
  388TMC3    C7 5859   2.613   4.022  10.067  0.3435 -0.0514 -0.2623
  388TMC3    C8 5860   2.632   4.474  10.210  0.1420  0.3349 -0.5129
  388TMC3    O1 5861   2.716   3.978  10.111  0.5629 -0.1774  0.3211
  388TMC3    O2 5862   2.586   4.581  10.170 -0.0713 -0.2453  0.4967
  389MPD2     C 5863   1.284   2.633  11.006 -1.1540  1.1964 -0.4160
  389MPD2    C1 5864   1.179   2.572  10.932  0.0493  0.3138 -0.4424
  389MPD2    C2 5865   1.072   2.518  10.996 -0.0721  0.3299  0.1187
  389MPD2    C3 5866   1.061   2.517  11.134 -0.1786 -0.0671 -0.8935
  389MPD2    C4 5867   1.160   2.577  11.211  0.9073  0.1426 -0.0663
  389MPD2    C5 5868   1.266   2.629  11.142  0.3154  0.4609  0.3074
  389MPD2     H 5869   0.979   2.498  10.943 -1.1688  0.7990  1.8638
  389MPD2    H1 5870   1.157   2.572  11.319 -1.0982 -1.4958 -0.2042
  389MPD2    H2 5871   1.374   2.674  10.962 -1.2433  0.5510 -1.1895
  389MPD2    H3 5872   1.348   2.680  11.192  1.8412 -1.6839 -0.0041
  389MPD2     N 5873   0.945   2.466  11.210 -0.3023 -0.2102  0.4319
  389MPD2    H5 5874   0.939   2.486  11.309 -0.0783 -0.7877  0.5618
  389MPD2    N1 5875   1.196   2.573  10.792  0.0602 -0.2205  0.2102
  389MPD2    H7 5876   1.263   2.642  10.760 -0.9376  0.6244 -0.0559
  390TMC3    C1 5877   0.742   2.382  11.264 -0.4584 -0.2573  0.0248
  390TMC3    C2 5878   0.763   2.421  11.390 -0.2547 -0.4441 -0.1476
  390TMC3    C3 5879   0.658   2.444  11.471  0.1564  0.7366 -0.0160
  390TMC3    C4 5880   0.614   2.375  11.210 -0.0589  0.0757  0.3849
  390TMC3    C5 5881   0.512   2.411  11.288  0.3546  1.2363 -0.0110
  390TMC3    C6 5882   0.532   2.454  11.421 -0.1876  0.0786  0.3827
  390TMC3     C 5883   0.837   2.396  11.159 -0.1234 -0.3570  0.6806
  390TMC3     O 5884   0.821   2.360  11.043  0.1774  0.3213  0.4311
  390TMC3     H 5885   0.862   2.426  11.434 -0.0348 -1.8172 -0.4982
  390TMC3    H1 5886   0.594   2.360  11.104 -2.9831  0.1332  0.9294
  390TMC3    H2 5887   0.445   2.470  11.484  1.2315  0.5223  2.2413
  390TMC3    C7 5888   0.377   2.358  11.266  0.3347  0.1627  0.5396
  390TMC3    C8 5889   0.683   2.470  11.614  0.7896 -0.6159  0.5204
  390TMC3    O1 5890   0.284   2.414  11.319 -0.0732  0.2989 -0.1525
  390TMC3    O2 5891   0.796   2.505  11.640 -0.2238  0.2351 -0.0628
  391MPD2     C 5892   0.298   3.949  11.094 -0.9646 -0.6766 -0.5685
  391MPD2    C1 5893   0.363   4.069  11.113  0.0241 -0.4351 -0.1242
  391MPD2    C2 5894   0.372   4.146  11.003  0.1452  0.3067  0.7560
  391MPD2    C3 5895   0.317   4.107  10.879  0.1605 -0.0353  0.5249
  391MPD2    C4 5896   0.263   3.981  10.859 -0.2622 -0.4090  0.0714
  391MPD2    C5 5897   0.261   3.907  10.969 -0.0256  0.1594  1.3642
  391MPD2     H 5898   0.424   4.242  11.002  0.1845  0.2705 -1.0701
  391MPD2    H1 5899   0.226   3.947  10.763  0.4132  1.5530 -0.8772
  391MPD2    H2 5900   0.286   3.876  11.173  0.8242 -0.5735 -0.2111
  391MPD2    H3 5901   0.228   3.804  10.964  1.7605 -0.2693 -1.6965
  391MPD2     N 5902   0.330   4.205  10.774 -0.9429 -0.0768 -0.7692
  391MPD2    H5 5903   0.415   4.260  10.767 -0.3141 -1.3100 -2.6313
  391MPD2    N1 5904   0.393   4.104  11.249 -0.7579 -0.1267  0.0031
  391MPD2    H7 5905   0.357   4.044  11.323  0.4354 -0.8729 -0.0213
  392TMC3    C1 5906   0.289   4.311  10.559  0.4012 -0.0679 -0.7537
  392TMC3    C2 5907   0.255   4.273  10.432  0.4689  0.2336 -0.0195
  392TMC3    C3 5908   0.322   4.339  10.331 -0.8627  0.1639 -0.3655
  392TMC3    C4 5909   0.386   4.398  10.590  0.2181 -0.3089  0.1422
  392TMC3    C5 5910   0.451   4.458  10.489  0.7394 -0.8384 -0.1241
  392TMC3    C6 5911   0.421   4.430  10.356 -0.1719 -0.4750  0.2259
  392TMC3     C 5912   0.243   4.220  10.668  0.3137  0.2839  0.7327
  392TMC3     O 5913   0.146   4.149  10.637  0.4186 -0.0155  0.1669
  392TMC3     H 5914   0.171   4.208  10.410 -0.3352  1.4477 -0.5711
  392TMC3    H1 5915   0.404   4.435  10.691  1.5658  1.2704 -0.6678
  392TMC3    H2 5916   0.483   4.472  10.277 -1.6296 -0.7144 -1.0535
  392TMC3    C7 5917   0.564   4.544  10.520  0.2129  0.2628 -0.1346
  392TMC3    C8 5918   0.274   4.321  10.193  0.5768  0.2410 -0.1935
  392TMC3    O1 5919   0.607   4.528  10.634  0.4075 -0.0345  0.0029
  392TMC3    O2 5920   0.207   4.218  10.175 -0.0600 -0.2723 -0.5331
  393TMC3    C1 5921   4.123   1.826  10.338 -0.2593  0.5419  0.2731
  393TMC3    C2 5922   4.005   1.773  10.381 -0.0950  0.1932 -0.0622
  393TMC3    C3 5923   4.001   1.633  10.389  0.3727 -0.0190  0.1695
  393TMC3    C4 5924   4.236   1.760  10.322 -0.2099  0.0618 -0.5671
  393TMC3    C5 5925   4.233   1.625  10.344 -0.1489  0.2168  0.3675
  393TMC3    C6 5926   4.117   1.561  10.383  0.6043 -0.4325  0.1050
  393TMC3     C 5927   4.123   1.967  10.319  0.3550 -0.2222  0.8619
  393TMC3     O 5928   4.027   2.013  10.260  0.0405  0.2456 -0.2254
  393TMC3     H 5929   3.917   1.834  10.395 -0.8915 -1.2903  1.5173
  393TMC3    H1 5930   4.316   1.806  10.265  0.7805 -0.0115  0.7548
  393TMC3    H2 5931   4.110   1.454  10.401  0.4243 -0.9866 -3.2194
  393TMC3    C7 5932   4.336   1.539  10.285  0.2251 -0.0312 -1.0010
  393TMC3    C8 5933   3.921   1.590  10.494 -0.2783  0.5854 -0.0829
  393TMC3    O1 5934   4.294   1.427  10.270 -0.3102 -0.6141 -0.2680
  393TMC3    O2 5935   3.902   1.674  10.582  0.3039  0.0718  0.0458
  394TMC3    C1 5936   1.130   2.551  10.569  0.2232  1.2708  0.8972
  394TMC3    C2 5937   1.074   2.475  10.475 -0.1040  0.3691  0.4497
  394TMC3    C3 5938   1.072   2.521  10.347 -0.3212  0.0813 -0.8718
  394TMC3    C4 5939   1.196   2.669  10.535 -0.0776  0.2229 -0.5082
  394TMC3    C5 5940   1.196   2.712  10.409  0.4703  0.4379 -0.5634
  394TMC3    C6 5941   1.130   2.643  10.314  0.5120 -0.5570 -0.2575
  394TMC3     C 5942   1.118   2.505  10.706  0.2494  0.8827 -0.7487
  394TMC3     O 5943   1.023   2.431  10.720  0.1903  0.1264 -0.1866
  394TMC3     H 5944   1.026   2.382  10.502 -0.5569  0.2553 -0.7760
  394TMC3    H1 5945   1.237   2.732  10.613 -3.3022  0.0809  1.2863
  394TMC3    H2 5946   1.115   2.681  10.213  1.4350 -1.4010 -0.7209
  394TMC3    C7 5947   1.262   2.831  10.360 -0.2221 -0.0006 -0.8551
  394TMC3    C8 5948   1.065   2.427  10.235 -0.1546  0.7739 -0.6331
  394TMC3    O1 5949   1.237   2.874  10.248 -0.2535 -0.2264  0.0123
  394TMC3    O2 5950   1.063   2.314  10.274 -0.6684  0.1644  0.0197
  395TMC3    C1 5951   0.822   0.456  14.599 -0.2340 -0.2038 -0.4280
  395TMC3    C2 5952   0.792   0.389  14.481  1.2533  0.2005 -0.8640
  395TMC3    C3 5953   0.803   0.451  14.363 -0.1407  0.1544  0.0239
  395TMC3    C4 5954   0.856   0.590  14.596  0.6157 -0.5856 -0.2847
  395TMC3    C5 5955   0.880   0.642  14.478 -0.0855  0.7435 -0.3566
  395TMC3    C6 5956   0.860   0.579  14.360  0.4842 -0.2272 -0.3646
  395TMC3     C 5957   0.814   0.382  14.728  0.1254 -0.5685  0.3048
  395TMC3     O 5958   0.863   0.431  14.824  0.2171  0.2444 -0.1312
  395TMC3     H 5959   0.761   0.285  14.487  1.9786  0.1228  1.6418
  395TMC3    H1 5960   0.887   0.640  14.686 -1.0046  1.5283 -0.9088
  395TMC3    H2 5961   0.895   0.599  14.259 -1.8444  0.2053 -1.0976
  395TMC3    C7 5962   0.976   0.753  14.480 -0.3809 -0.0730  0.4523
  395TMC3    C8 5963   0.794   0.379  14.237 -0.3038 -0.6923 -0.4927
  395TMC3    O1 5964   1.035   0.769  14.586 -0.8570 -0.0417  0.1454
  395TMC3    O2 5965   0.867   0.421  14.144 -0.3223 -0.2671  0.2394
  396MPD2     C 5966   0.086   1.127  16.916  0.4943  0.0959  0.4178
  396MPD2    C1 5967   0.203   1.178  16.969 -0.2673 -0.4735 -0.6727
  396MPD2    C2 5968   0.281   1.267  16.892 -0.3511  0.5374 -0.6012
  396MPD2    C3 5969   0.248   1.302  16.764  0.2230 -0.3794 -0.1123
  396MPD2    C4 5970   0.136   1.243  16.714 -0.7112  0.9078 -0.5308
  396MPD2    C5 5971   0.059   1.162  16.783  0.1822 -0.0558 -0.0868
  396MPD2     H 5972   0.373   1.309  16.930  1.0502  0.3937 -3.8744
  396MPD2    H1 5973   0.097   1.256  16.614  3.6741  0.2362 -2.3065
  396MPD2    H2 5974   0.022   1.062  16.975  1.9498 -2.2606 -0.6093
  396MPD2    H3 5975   4.711   1.120  16.737  1.7846 -2.1498 -1.3150
  396MPD2     N 5976   0.328   1.400  16.699 -0.6383  0.0225 -0.2011
  396MPD2    H5 5977   0.415   1.423  16.748 -2.2617  0.6202  2.4178
  396MPD2    N1 5978   0.229   1.148  17.100 -0.0135 -0.2188  0.0761
  396MPD2    H7 5979   0.176   1.071  17.139 -2.4540  2.0734  1.2846
  397TMC3    C1 5980   0.374   1.069  17.261  0.0115  0.2689  0.3631
  397TMC3    C2 5981   0.502   1.012  17.260 -0.1837  0.5230 -0.0104
  397TMC3    C3 5982   0.528   0.877  17.274 -0.8991  0.3004 -0.2982
  397TMC3    C4 5983   0.262   0.987  17.273 -0.6964  0.0392  0.0581
  397TMC3    C5 5984   0.290   0.853  17.278  0.1274  1.0939  0.3758
  397TMC3    C6 5985   0.420   0.797  17.279 -0.2371 -0.3835 -0.3535
  397TMC3     C 5986   0.356   1.164  17.155 -0.1513 -1.1827 -0.2031
  397TMC3     O 5987   0.460   1.217  17.122 -0.0691 -0.0012  0.2188
  397TMC3     H 5988   0.592   1.062  17.227  0.7601  0.5576  2.6109
  397TMC3    H1 5989   0.165   1.026  17.302 -0.9925 -0.5451 -0.1511
  397TMC3    H2 5990   0.437   0.690  17.274 -0.2742 -0.4201  0.2139
  397TMC3    C7 5991   0.187   0.769  17.322 -0.4998 -0.5387  0.5028
  397TMC3    C8 5992   0.629   0.831  17.180 -0.2426  0.5498 -0.3936
  397TMC3    O1 5993   0.074   0.812  17.307  0.3622 -0.5116  0.0242
  397TMC3    O2 5994   0.597   0.732  17.112  0.6088 -0.3108  0.8307
  398MPD2     C 5995   3.447   2.576   0.003 -0.3537  0.4636 -0.0425
  398MPD2    C1 5996   3.441   2.549   0.132  0.0947 -0.3317 -0.5678
  398MPD2    C2 5997   3.513   2.629   0.207  0.2102 -0.0366  0.4988
  398MPD2    C3 5998   3.592   2.730   0.154  0.6426 -0.3304 -0.5010
  398MPD2    C4 5999   3.597   2.750   0.019  0.4544  0.2659 -0.2069
  398MPD2    C5 6000   3.519   2.673  17.709 -0.0045 -0.0984  0.1287
  398MPD2     H 6001   3.502   2.613   0.314 -1.1050 -0.5150  0.2853
  398MPD2    H1 6002   3.665   2.816  17.731 -0.3926  2.0573  0.9418
  398MPD2    H2 6003   3.386   2.528  17.692  0.2237 -2.4548  1.3733
  398MPD2    H3 6004   3.531   2.679  17.601  0.5880  0.1465  0.2051
  398MPD2     N 6005   3.657   2.804   0.250  0.4029 -0.4393 -0.1446
  398MPD2    H5 6006   3.659   2.774   0.347 -1.5861  0.5233  0.2132
  398MPD2    N1 6007   3.364   2.446   0.182  0.3263 -0.3777 -0.3284
  398MPD2    H7 6008   3.363   2.429   0.282  1.8025  2.7982  0.2356
  399TMC3    C1 6009   3.259   2.239   0.179 -0.0184 -0.3039 -0.2878
  399TMC3    C2 6010   3.321   2.211   0.299 -0.0262  0.8756 -0.0439
  399TMC3    C3 6011   3.273   2.110   0.377 -0.1205  0.3287 -0.0363
  399TMC3    C4 6012   3.170   2.156   0.121 -0.3195 -1.3370 -0.3954
  399TMC3    C5 6013   3.122   2.045   0.202 -0.1764  0.1169 -0.1283
  399TMC3    C6 6014   3.180   2.020   0.321 -0.0715 -0.9634  0.2239
  399TMC3     C 6015   3.288   2.365   0.106  0.3631 -0.0809 -0.2733
  399TMC3     O 6016   3.221   2.393   0.008  0.6828 -0.0275 -0.2522
  399TMC3     H 6017   3.396   2.277   0.340  1.4025 -0.1921 -0.9096
  399TMC3    H1 6018   3.137   2.179   0.021  2.3213  2.2759 -0.4336
  399TMC3    H2 6019   3.123   1.958   0.389  0.3638 -1.0982  0.4684
  399TMC3    C7 6020   3.050   1.943   0.133 -0.1519  0.3887  0.3237
  399TMC3    C8 6021   3.307   2.087   0.516 -0.2468  0.9110 -0.5549
  399TMC3    O1 6022   3.049   1.829   0.185  0.4282 -0.1749  0.4257
  399TMC3    O2 6023   3.289   1.978   0.567  0.3701  0.1720  0.1810
  400TMC3    C1 6024   1.710   0.778  16.696 -0.3042 -1.0175 -0.2370
  400TMC3    C2 6025   1.661   0.650  16.687  0.0308 -0.3487 -0.4677
  400TMC3    C3 6026   1.571   0.618  16.589 -0.2816  0.3554 -0.2277
  400TMC3    C4 6027   1.661   0.877  16.620 -0.3960  0.7008 -0.9649
  400TMC3    C5 6028   1.559   0.846  16.528 -0.6268 -0.6944  0.0890
  400TMC3    C6 6029   1.515   0.719  16.511 -0.0807  0.4121  0.2144
  400TMC3     C 6030   1.834   0.805  16.764  0.3200  0.5760 -0.3912
  400TMC3     O 6031   1.853   0.748  16.869  0.4780  0.6222 -0.0940
  400TMC3     H 6032   1.706   0.576  16.752 -1.4742 -0.3588  0.5750
  400TMC3    H1 6033   1.697   0.979  16.616 -1.5598  1.2378  2.2164
  400TMC3    H2 6034   1.436   0.692  16.441 -0.8696 -2.5726  2.2377
  400TMC3    C7 6035   1.480   0.950  16.471 -0.0893  0.2756 -0.0060
  400TMC3    C8 6036   1.516   0.481  16.594 -0.0000  0.7462 -0.7802
  400TMC3    O1 6037   1.395   0.918  16.390  0.0673  0.6261 -0.1753
  400TMC3    O2 6038   1.519   0.427  16.706 -0.2433 -0.2584  0.3760
  401MPD2     C 6039   0.446   4.326  17.543 -0.1081  0.7377 -0.4868
  401MPD2    C1 6040   0.440   4.281  17.672 -0.0750  0.4185  0.5651
  401MPD2    C2 6041   0.416   4.147  17.697  0.3814  0.3455 -0.3671
  401MPD2    C3 6042   0.420   4.057  17.594 -0.2041  0.3230 -0.1416
  401MPD2    C4 6043   0.430   4.094  17.461  0.3392 -0.1508 -0.3811
  401MPD2    C5 6044   0.442   4.229  17.442  0.0686 -0.4372  0.1614
  401MPD2     H 6045   0.393   4.115   0.034  1.5286  0.7782  0.0314
  401MPD2    H1 6046   0.448   4.030  17.375 -0.9102  0.4985 -1.1192
  401MPD2    H2 6047   0.438   4.431  17.517 -0.1527  0.7779 -0.3051
  401MPD2    H3 6048   0.443   4.264  17.340  0.0093  2.4649  1.1250
  401MPD2     N 6049   0.406   3.922  17.634  0.5003 -0.2485  0.1869
  401MPD2    H5 6050   0.389   3.901  17.731  0.4855  1.6698  0.5914
  401MPD2    N1 6051   0.446   4.368   0.021  0.2875 -0.1004  0.2623
  401MPD2    H7 6052   0.435   4.320   0.110 -0.5962  0.4720  0.4662
  402TMC3    C1 6053   0.404   3.678  17.626 -0.0520  0.0530  0.0008
  402TMC3    C2 6054   0.301   3.676  17.713 -0.2303 -0.1597  0.4303
  402TMC3    C3 6055   0.258   3.552  17.762  0.1763 -0.1312 -0.3421
  402TMC3    C4 6056   0.453   3.566  17.566 -0.4260  0.5007 -0.5900
  402TMC3    C5 6057   0.404   3.441  17.606  0.1673 -0.1063 -0.3379
  402TMC3    C6 6058   0.318   3.438  17.715  0.4697  0.2270  0.2024
  402TMC3     C 6059   0.423   3.804  17.557  0.1250 -0.6301 -0.1853
  402TMC3     O 6060   0.476   3.795  17.445  1.0910 -0.2378  0.4332
  402TMC3     H 6061   0.287   3.767   0.005 -2.8129 -0.1238 -0.3067
  402TMC3    H1 6062   0.532   3.565  17.492 -1.4870 -2.5677 -1.6642
  402TMC3    H2 6063   0.294   3.338  17.749  1.5027  0.7232  2.4105
  402TMC3    C7 6064   0.496   3.338  17.598 -0.0794  0.2195 -0.3714
  402TMC3    C8 6065   0.226   3.539   0.140 -0.8551  0.7581 -0.3805
  402TMC3    O1 6066   0.534   3.310  17.483 -0.7940  0.8989  0.1787
  402TMC3    O2 6067   0.267   3.443   0.204  0.1571 -0.4193  0.1881
  403MPD2     C 6068   3.196   2.125  12.973 -0.0679 -0.4512  0.3761
  403MPD2    C1 6069   3.298   2.075  13.045 -0.8517  0.0902  0.1332
  403MPD2    C2 6070   3.411   2.155  13.070  0.5469 -0.6912 -0.8725
  403MPD2    C3 6071   3.414   2.294  13.044  0.1566 -0.0656  0.2604
  403MPD2    C4 6072   3.301   2.346  12.986 -0.0851 -0.3865  0.0356
  403MPD2    C5 6073   3.206   2.253  12.941 -0.6022  1.0208  0.4416
  403MPD2     H 6074   3.485   2.119  13.141  0.1072 -1.8303 -0.9785
  403MPD2    H1 6075   3.283   2.452  12.978  1.7254 -0.1123 -0.1781
  403MPD2    H2 6076   3.101   2.077  12.952  0.4074 -0.8280 -0.9039
  403MPD2    H3 6077   3.114   2.290  12.898 -0.4857  0.6365 -0.1320
  403MPD2     N 6078   3.524   2.366  13.090  0.1971  0.5950  0.4360
  403MPD2    H5 6079   3.595   2.302  13.123  0.4100  0.9453  0.6564
  403MPD2    N1 6080   3.285   1.943  13.092 -0.5625 -0.0085 -0.1045
  403MPD2    H7 6081   3.187   1.917  13.099 -0.0863 -1.5724  0.6335
  404TMC3    C1 6082   3.345   1.765  13.239  0.2327  0.3168 -0.0830
  404TMC3    C2 6083   3.431   1.740  13.337 -0.1057  0.0915 -0.2914
  404TMC3    C3 6084   3.395   1.660  13.439  0.7748 -0.7452 -0.3885
  404TMC3    C4 6085   3.217   1.712  13.234  0.0239  1.0380 -0.3049
  404TMC3    C5 6086   3.184   1.630  13.347  0.7579 -0.2368 -0.2411
  404TMC3    C6 6087   3.277   1.593  13.442  0.4910  0.0363 -0.0431
  404TMC3     C 6088   3.389   1.867  13.146 -0.0344  0.6645  0.0160
  404TMC3     O 6089   3.514   1.882  13.141  0.1000 -0.3653  0.2408
  404TMC3     H 6090   3.530   1.784  13.344  0.5713 -1.6257  1.0553
  404TMC3    H1 6091   3.153   1.731  13.149  0.8113  1.3092 -0.8414
  404TMC3    H2 6092   3.260   1.516  13.516  0.7777 -0.1636 -0.1832
  404TMC3    C7 6093   3.065   1.554  13.342  0.0368 -0.2084  0.3431
  404TMC3    C8 6094   3.491   1.649  13.548  0.0494  0.3503  0.9137
  404TMC3    O1 6095   3.045   1.472  13.430 -0.2356 -0.4109  0.4266
  404TMC3    O2 6096   3.606   1.653  13.511 -0.4301 -0.1994  0.0660
  405MPD2     C 6097   3.077   3.383  14.764 -0.0290 -0.9770  0.3570
  405MPD2    C1 6098   3.202   3.321  14.770 -0.7201 -0.5302 -0.6073
  405MPD2    C2 6099   3.284   3.319  14.657  0.0537  1.0101 -0.5440
  405MPD2    C3 6100   3.245   3.383  14.545  0.1232 -0.2604  0.3281
  405MPD2    C4 6101   3.135   3.462  14.542 -0.1607 -0.1674  0.2663
  405MPD2    C5 6102   3.054   3.456  14.654 -0.0250  0.1215  0.2617
  405MPD2     H 6103   3.377   3.264  14.664  0.3808  1.7175  0.6226
  405MPD2    H1 6104   3.104   3.518  14.455  3.3996 -0.4914 -1.2043
  405MPD2    H2 6105   3.006   3.382  14.846  0.0201  0.2926  0.4113
  405MPD2    H3 6106   2.966   3.518  14.648 -0.7416 -0.8952  0.2516
  405MPD2     N 6107   3.336   3.372  14.435  0.1392 -0.0188 -0.4497
  405MPD2    H5 6108   3.424   3.322  14.451 -0.5729 -1.7924 -2.1119
  405MPD2    N1 6109   3.239   3.254  14.890  0.1751 -0.3518 -0.2405
  405MPD2    H7 6110   3.168   3.233  14.960 -1.7455  1.9778 -1.5227
  406TMC3    C1 6111   3.277   3.269  14.063 -0.4242 -0.6317 -0.0271
  406TMC3    C2 6112   3.329   3.151  14.108  0.2521 -0.6773  0.1556
  406TMC3    C3 6113   3.435   3.165  14.199  0.7606 -0.7835  0.5681
  406TMC3    C4 6114   3.315   3.395  14.108 -0.1642 -0.3624 -0.5895
  406TMC3    C5 6115   3.404   3.394  14.212 -0.0653  0.6625  0.3433
  406TMC3    C6 6116   3.470   3.284  14.256  0.7420  0.3669  0.5107
  406TMC3     C 6117   3.139   3.269  14.021  0.4153 -0.2255  0.1642
  406TMC3     O 6118   3.117   3.332  13.922  0.0807 -0.4055  0.0629
  406TMC3     H 6119   3.310   3.054  14.065  0.7944 -0.4000 -0.7001
  406TMC3    H1 6120   3.274   3.487  14.068 -1.3294 -1.4760 -1.9433
  406TMC3    H2 6121   3.558   3.301  14.317  0.5440  1.7634  0.3909
  406TMC3    C7 6122   3.316   3.445  14.318  0.4241 -1.2506 -0.4652
  406TMC3    C8 6123   3.474   3.037  14.255  0.1352 -0.0591 -0.0364
  406TMC3    O1 6124   3.233   3.519  14.272 -1.1797  0.2843  0.7034
  406TMC3    O2 6125   3.478   2.938  14.183  0.5621  0.1463  0.1830
  407MPD2     C 6126   1.835   4.562   9.589  0.7218 -0.1359  0.6340
  407MPD2    C1 6127   1.873   4.612   9.717 -0.4131 -0.2410 -0.8247
  407MPD2    C2 6128   1.780   4.659   9.802 -1.2162 -0.5552 -0.1238
  407MPD2    C3 6129   1.647   4.672   9.769 -0.6682  0.0075  0.0179
  407MPD2    C4 6130   1.610   4.631   9.637 -0.0087  0.0473  0.3307
  407MPD2    C5 6131   1.698   4.568   9.555  0.5755 -0.0668  0.0811
  407MPD2     H 6132   1.816   4.677   9.903  3.9640  1.0301 -2.2754
  407MPD2    H1 6133   1.506   4.632   9.606 -0.4027 -1.3185  1.5639
  407MPD2    H2 6134   1.909   4.543   9.512  0.8145 -0.3616  0.7774
  407MPD2    H3 6135   1.678   4.526   9.457 -0.0810  0.3834  0.0232
  407MPD2     N 6136   1.559   4.725   9.864 -0.9516  0.7299  0.7367
  407MPD2    H5 6137   1.598   0.006   9.954  0.3227 -1.2579  0.6699
  407MPD2    N1 6138   2.008   4.610   9.758 -0.0705  0.0348 -0.3080
  407MPD2    H7 6139   2.042   4.634   9.851  1.8194 -1.7435 -0.5301
  408TMC3    C1 6140   2.243   4.589   9.755  0.0937 -0.2753 -0.2589
  408TMC3    C2 6141   2.348   4.499   9.726 -0.1149  0.4490  0.1247
  408TMC3    C3 6142   2.464   4.515   9.794  0.2518 -0.0315  0.1881
  408TMC3    C4 6143   2.259   4.685   9.853 -0.0625 -0.0147 -0.1022
  408TMC3    C5 6144   2.376   4.693   9.921 -0.4003 -0.4785 -0.3039
  408TMC3    C6 6145   2.478   4.609   9.895  0.0359 -0.2108  0.4864
  408TMC3     C 6146   2.118   4.561   9.692 -0.0041  0.2621 -0.1526
  408TMC3     O 6147   2.114   4.504   9.586  0.3690 -0.6568 -0.6711
  408TMC3     H 6148   2.336   4.431   9.642  1.5844 -0.6840  0.8039
  408TMC3    H1 6149   2.184   0.016   9.884  0.4878  0.1269  0.8733
  408TMC3    H2 6150   2.579   4.615   9.935  0.1728 -1.9245  0.4075
  408TMC3    C7 6151   2.395   0.084   9.981  0.7860 -0.2977  0.0827
  408TMC3    C8 6152   2.558   4.409   9.761 -0.0078  0.3397 -0.4393
  408TMC3    O1 6153   2.321   0.175   9.948  0.1102  0.1572 -0.0920
  408TMC3    O2 6154   2.509   4.310   9.706 -0.2947 -0.1245  0.3926
  409MPD2     C 6155   1.024   0.035  16.587  0.3531  0.3614 -0.4641
  409MPD2    C1 6156   1.084   0.123  16.663  0.0360  0.6406  0.4637
  409MPD2    C2 6157   1.084   0.258  16.630 -0.3738  0.0886  0.9015
  409MPD2    C3 6158   1.013   0.308  16.527  0.3596 -0.2890  0.1217
  409MPD2    C4 6159   0.945   0.217  16.448 -0.6079  0.7617 -0.0334
  409MPD2    C5 6160   0.950   0.087  16.477  0.4648 -0.4858  0.0559
  409MPD2     H 6161   1.152   0.314  16.693  0.9974 -0.0388 -0.4540
  409MPD2    H1 6162   0.890   0.244  16.359 -1.6377  2.2277  1.0450
  409MPD2    H2 6163   1.016   4.672  16.615 -1.4894  0.2164 -1.5731
  409MPD2    H3 6164   0.886   0.014  16.430 -0.4170 -0.0173  0.5395
  409MPD2     N 6165   0.999   0.448  16.493 -0.1664 -0.0847  0.0348
  409MPD2    H5 6166   0.958   0.476  16.405  0.1134  2.0894  0.5856
  409MPD2    N1 6167   1.144   0.091  16.790 -0.0079  0.3126  0.0907
  409MPD2    H7 6168   1.186   0.171  16.836 -2.2192  1.1690  0.6374
  410TMC3    C1 6169   0.991   0.674  16.528  0.9188  0.2137 -0.3663
  410TMC3    C2 6170   0.990   0.770  16.620  0.0351  0.8374 -0.1526
  410TMC3    C3 6171   1.051   0.888  16.599 -0.0791 -1.1817  0.1613
  410TMC3    C4 6172   1.039   0.701  16.404  0.8029 -0.4335  0.0144
  410TMC3    C5 6173   1.078   0.831  16.378  0.1126 -0.1583 -0.2148
  410TMC3    C6 6174   1.088   0.929  16.473 -0.4774  0.1415 -0.0562
  410TMC3     C 6175   1.018   0.550  16.583 -0.5720  0.1896  0.1994
  410TMC3     O 6176   1.041   0.548  16.707  0.3464  0.1813 -0.6801
  410TMC3     H 6177   0.950   0.759  16.721 -0.5425 -0.5901 -0.5425
  410TMC3    H1 6178   1.049   0.627  16.325 -0.5636 -0.9919  0.3663
  410TMC3    H2 6179   1.139   1.022  16.455  0.6070 -0.2307  1.1212
  410TMC3    C7 6180   1.105   0.865  16.244  0.1441  0.4490  0.8140
  410TMC3    C8 6181   1.153   0.913  16.696 -0.2766 -0.4174  0.2084
  410TMC3    O1 6182   1.129   0.773  16.167  0.4389 -0.0075 -0.0307
  410TMC3    O2 6183   1.200   1.029  16.699 -0.0734  0.9625  0.2721
  411MPD2     C 6184   1.437   1.482  14.818 -0.2739  0.7018  0.1829
  411MPD2    C1 6185   1.364   1.526  14.708  0.2328  0.2597  0.0524
  411MPD2    C2 6186   1.252   1.452  14.669  0.2531 -0.1829 -0.0980
  411MPD2    C3 6187   1.226   1.337  14.730  0.9628 -0.7878  0.8032
  411MPD2    C4 6188   1.308   1.278  14.827  0.3574  0.1930 -0.6190
  411MPD2    C5 6189   1.404   1.366  14.882  0.0927 -0.3861 -0.9828
  411MPD2     H 6190   1.186   1.479  14.587 -1.8286 -0.7605  1.4047
  411MPD2    H1 6191   1.286   1.183  14.875  0.7446 -0.2757 -1.3622
  411MPD2    H2 6192   1.509   1.553  14.855  0.6382 -0.1467  0.0261
  411MPD2    H3 6193   1.448   1.342  14.978 -0.9013  0.4686 -0.3184
  411MPD2     N 6194   1.117   1.263  14.674 -0.0686  0.0508 -0.2814
  411MPD2    H5 6195   1.054   1.330  14.631  0.4959  0.1456 -0.9690
  411MPD2    N1 6196   1.395   1.652  14.648 -0.2255  0.3475 -0.8369
  411MPD2    H7 6197   1.449   1.724  14.695 -1.2834  0.3199  0.4345
  412TMC3    C1 6198   0.943   1.115  14.638  0.2236  0.5718 -0.1993
  412TMC3    C2 6199   0.901   1.184  14.528  0.7618  0.2428 -0.1200
  412TMC3    C3 6200   0.764   1.187  14.503 -0.3448  0.4645  0.0039
  412TMC3    C4 6201   0.866   1.015  14.698  0.1685 -0.3745  0.1440
  412TMC3    C5 6202   0.729   1.025  14.670 -0.0628  0.3202 -0.3745
  412TMC3    C6 6203   0.678   1.110  14.577 -0.4930 -0.0673  0.3768
  412TMC3     C 6204   1.072   1.136  14.705  0.0507 -0.3994  0.0395
  412TMC3     O 6205   1.110   1.061  14.789 -0.3197 -0.2819  0.0135
  412TMC3     H 6206   0.972   1.241  14.469 -0.3563  1.5710 -0.1674
  412TMC3    H1 6207   0.903   0.954  14.780 -0.0368 -0.5483  0.1078
  412TMC3    H2 6208   0.572   1.124  14.561 -0.1208  2.0445 -0.2576
  412TMC3    C7 6209   0.653   0.904  14.670 -0.2744 -0.4774  0.3012
  412TMC3    C8 6210   0.721   1.177  14.364  0.6154  0.1067 -0.0439
  412TMC3    O1 6211   0.662   0.825  14.765 -0.5566  0.1637  0.3406
  412TMC3    O2 6212   0.650   1.083  14.340 -0.3767  0.6100  0.4780
  413MPD2     C 6213   2.591   4.190  15.715  0.3609 -0.3411  0.1394
  413MPD2    C1 6214   2.629   4.223  15.580 -1.5233  0.3259 -0.3622
  413MPD2    C2 6215   2.748   4.168  15.531 -0.2724 -0.2155 -0.6652
  413MPD2    C3 6216   2.821   4.074  15.608 -0.1078 -0.1763 -0.1818
  413MPD2    C4 6217   2.775   4.034  15.731  0.5174  0.1803 -0.2451
  413MPD2    C5 6218   2.655   4.089  15.783  0.4225  0.1953 -0.1031
  413MPD2     H 6219   2.787   4.200  15.435  1.7205  0.0552  0.2369
  413MPD2    H1 6220   2.820   3.956  15.791 -0.0040  0.0315 -0.0518
  413MPD2    H2 6221   2.495   4.218  15.757  0.8651  2.0185 -0.3027
  413MPD2    H3 6222   2.614   4.058  15.879 -0.7725  0.2146 -0.6130
  413MPD2     N 6223   2.931   4.010  15.547  0.5685  0.5170 -0.2702
  413MPD2    H5 6224   2.931   4.009  15.446 -0.1971  0.0665 -0.2690
  413MPD2    N1 6225   2.536   4.289  15.504  0.2528  0.0821 -0.4400
  413MPD2    H7 6226   2.453   4.324  15.552  0.3387 -0.7618  0.3351
  414TMC3    C1 6227   3.120   3.862  15.524  0.7642 -1.0869  0.6443
  414TMC3    C2 6228   3.210   3.785  15.587 -0.8208 -0.0322 -0.8339
  414TMC3    C3 6229   3.288   3.713  15.512 -0.2792 -0.0430  0.2343
  414TMC3    C4 6230   3.120   3.887  15.386  0.7882 -0.1767  0.1143
  414TMC3    C5 6231   3.210   3.818  15.311  0.4610  0.2518  0.5554
  414TMC3    C6 6232   3.289   3.727  15.373  0.2190  0.6374  0.3428
  414TMC3     C 6233   3.027   3.932  15.614  0.5670  0.0667  0.6602
  414TMC3     O 6234   3.055   3.929  15.732 -0.2216  0.5721  0.4343
  414TMC3     H 6235   3.191   3.752  15.689  0.8333  1.6547  0.0121
  414TMC3    H1 6236   3.067   3.971  15.343  1.9998  0.8106  0.5468
  414TMC3    H2 6237   3.347   3.660  15.311  1.6060 -0.0804  2.4206
  414TMC3    C7 6238   3.268   3.889  15.195 -0.6285  0.0605  0.5647
  414TMC3    C8 6239   3.404   3.636  15.565  0.0705 -0.2241  0.4119
  414TMC3    O1 6240   3.389   3.883  15.210 -0.0354 -0.3646  0.5551
  414TMC3    O2 6241   3.504   3.637  15.490  0.3308 -0.2838 -0.4376
  415TMC3    C1 6242   3.196   1.682  10.066 -0.0960 -0.0545  0.1212
  415TMC3    C2 6243   3.247   1.795   9.998 -0.3914 -0.2938 -0.6212
  415TMC3    C3 6244   3.187   1.811   9.874 -0.0159  0.2195 -0.0494
  415TMC3    C4 6245   3.084   1.609  10.017  0.6926 -0.1412 -0.2257
  415TMC3    C5 6246   3.028   1.647   9.900  0.2033 -0.1137 -0.1285
  415TMC3    C6 6247   3.078   1.748   9.825  0.2729  0.3952 -1.0367
  415TMC3     C 6248   3.223   1.663  10.208  0.0861  0.2804  0.1866
  415TMC3     O 6249   3.131   1.630  10.279 -0.1261  0.4029  0.7331
  415TMC3     H 6250   3.327   1.861  10.030  1.1360 -1.1991 -2.5484
  415TMC3    H1 6251   3.042   1.530  10.078  2.3624 -0.7058  0.1877
  415TMC3    H2 6252   3.052   1.761   9.721  1.4837 -0.5223 -1.4618
  415TMC3    C7 6253   2.896   1.593   9.865 -0.0251 -0.0795  0.1313
  415TMC3    C8 6254   3.243   1.919   9.794 -0.0914  0.0524 -0.5468
  415TMC3    O1 6255   2.851   1.634   9.762 -0.4105  0.0117 -0.1344
  415TMC3    O2 6256   3.184   1.963   9.698 -0.0842  0.5242  0.1095
  416MPD2     C 6257   0.685   0.728  11.737 -0.1722 -1.0478 -0.1077
  416MPD2    C1 6258   0.586   0.709  11.639  0.2523 -0.1653  0.1044
  416MPD2    C2 6259   0.606   0.628  11.528  0.2247 -0.0062 -0.3080
  416MPD2    C3 6260   0.729   0.560  11.515 -0.7633  0.6670  0.3316
  416MPD2    C4 6261   0.827   0.586  11.610  0.4620  0.3081 -0.2065
  416MPD2    C5 6262   0.806   0.667  11.717 -1.3805 -0.4275  0.3338
  416MPD2     H 6263   0.526   0.610  11.457  2.0775 -0.1531 -2.3779
  416MPD2    H1 6264   0.919   0.530  11.626 -0.6956 -1.0073  1.9167
  416MPD2    H2 6265   0.687   0.789  11.826  1.0528  0.6305 -1.2669
  416MPD2    H3 6266   0.886   0.680  11.789 -0.4922  0.4241 -0.8090
  416MPD2     N 6267   0.752   0.467  11.410 -0.2110  0.3495  0.3642
  416MPD2    H5 6268   0.844   0.430  11.389 -0.7581 -0.3882 -0.6975
  416MPD2    N1 6269   0.470   0.784  11.659 -0.2920  0.0545 -0.0123
  416MPD2    H7 6270   0.476   0.838  11.744  0.2691  0.7267 -0.4801
  417TMC3    C1 6271   0.265   0.879  11.631 -0.0643  0.6132 -0.3994
  417TMC3    C2 6272   0.248   0.902  11.762 -0.3691  0.3147  0.1157
  417TMC3    C3 6273   0.163   1.001  11.799 -0.9430  0.2113 -0.0466
  417TMC3    C4 6274   0.182   0.929  11.529 -0.2414 -0.3334  0.3449
  417TMC3    C5 6275   0.096   1.028  11.574  0.0587  0.0394 -0.0515
  417TMC3    C6 6276   0.098   1.069  11.704 -0.6945 -0.1499  0.0961
  417TMC3     C 6277   0.364   0.792  11.578 -0.4164 -0.7046 -0.1406
  417TMC3     O 6278   0.352   0.751  11.463 -0.2772  0.1260 -0.6010
  417TMC3     H 6279   0.315   0.863  11.837  0.4289  0.3018 -0.6022
  417TMC3    H1 6280   0.205   0.914  11.424 -1.1578 -3.8692  0.6624
  417TMC3    H2 6281   0.043   1.157  11.735 -1.7664  0.1560 -2.6238
  417TMC3    C7 6282   0.022   1.110  11.477  0.9221 -0.1322 -0.0904
  417TMC3    C8 6283   0.149   1.045  11.937  0.3847  0.0577 -0.1071
  417TMC3    O1 6284   0.048   1.084  11.358  1.0783  0.1026  0.4118
  417TMC3    O2 6285   0.129   1.161  11.960 -0.0675  0.8020  0.4515
  418TMC3    C1 6286   4.059   2.987   0.263  0.0146  0.6587 -0.5703
  418TMC3    C2 6287   3.932   3.017   0.247  0.0396  0.2954  0.3462
  418TMC3    C3 6288   3.835   2.946   0.318  0.4920 -0.2419 -0.2979
  418TMC3    C4 6289   4.096   2.882   0.348 -0.5641  0.3350 -0.4050
  418TMC3    C5 6290   3.998   2.830   0.434  0.7423  0.3195 -0.6130
  418TMC3    C6 6291   3.865   2.857   0.418 -0.0542  0.4879  0.2044
  418TMC3     C 6292   4.161   3.038   0.167  0.7167  0.2659  0.3071
  418TMC3     O 6293   4.146   3.142   0.102  0.3807  0.1529 -0.3309
  418TMC3     H 6294   3.904   3.099   0.182 -0.2509 -1.1237 -1.2994
  418TMC3    H1 6295   4.199   2.857   0.369 -0.4245  0.5205 -0.8689
  418TMC3    H2 6296   3.792   2.817   0.487  1.0948  1.1382  1.8252
  418TMC3    C7 6297   4.041   2.713   0.507  0.2853  0.0427  0.6287
  418TMC3    C8 6298   3.717   2.923   0.224 -0.9473  0.6698 -0.1169
  418TMC3    O1 6299   4.132   2.648   0.463 -0.3640 -0.5360  0.0727
  418TMC3    O2 6300   3.712   2.996   0.125  0.8889 -0.3428 -0.4598
  419MPD2     C 6301   2.207   0.600  12.231  0.2698 -0.1685  0.2312
  419MPD2    C1 6302   2.283   0.669  12.318  0.6677 -0.5335  0.8095
  419MPD2    C2 6303   2.239   0.713  12.438 -0.0140  0.3849  0.3693
  419MPD2    C3 6304   2.107   0.681  12.475 -0.9281 -0.0522  0.2181
  419MPD2    C4 6305   2.028   0.612  12.386  0.2778  0.0830 -0.0003
  419MPD2    C5 6306   2.075   0.572  12.265 -0.7778 -0.5889 -0.4474
  419MPD2     H 6307   2.305   0.774  12.499 -0.5106  1.7087 -0.4108
  419MPD2    H1 6308   1.943   0.555  12.422 -1.4322  2.3251 -0.5100
  419MPD2    H2 6309   2.248   0.575  12.133 -0.1285  0.6232 -0.1368
  419MPD2    H3 6310   2.013   0.514  12.197  2.1473 -1.4957 -2.3168
  419MPD2     N 6311   2.063   0.715  12.606  0.4460  0.0217 -0.1531
  419MPD2    H5 6312   2.137   0.741  12.671  0.2756  3.0105 -1.1567
  419MPD2    N1 6313   2.404   0.725  12.279  0.3793  0.3893 -0.6756
  419MPD2    H7 6314   2.448   0.789  12.344  0.9704 -2.6013  1.9147
  420TMC3    C1 6315   1.913   0.796  12.757 -0.2521  0.1022  0.2731
  420TMC3    C2 6316   1.795   0.865  12.778  0.3498 -0.3907  0.3942
  420TMC3    C3 6317   1.745   0.885  12.901 -0.9729 -0.2586 -0.4752
  420TMC3    C4 6318   1.979   0.741  12.863  0.0342 -0.6272 -0.1765
  420TMC3    C5 6319   1.935   0.771  12.991 -0.1520 -0.0530 -0.3971
  420TMC3    C6 6320   1.822   0.841  13.009  0.2349  0.1427 -0.0680
  420TMC3     C 6321   1.931   0.726  12.636  0.1946  0.4271  0.4757
  420TMC3     O 6322   1.828   0.703  12.573  0.4953  0.2120  0.1721
  420TMC3     H 6323   1.736   0.902  12.695 -0.5585 -1.6597  0.4649
  420TMC3    H1 6324   2.070   0.682  12.859  0.1217 -0.3659 -2.0477
  420TMC3    H2 6325   1.781   0.856  13.109 -0.7882 -1.8235 -0.1773
  420TMC3    C7 6326   2.022   0.764  13.109  0.4930  0.1270  0.2288
  420TMC3    C8 6327   1.666   0.996  12.915 -0.6208  0.2920 -0.8396
  420TMC3    O1 6328   1.971   0.783  13.217 -0.1650 -0.0520 -0.0339
  420TMC3    O2 6329   1.670   1.085  12.829  0.6077  0.4542  0.0276
  421TMC3    C1 6330   3.652   2.552  13.171 -0.1319  0.3618  0.1376
  421TMC3    C2 6331   3.685   2.688  13.159 -0.2907  0.1935  0.2573
  421TMC3    C3 6332   3.778   2.740  13.247 -0.5420 -0.3747 -0.8200
  421TMC3    C4 6333   3.714   2.471  13.267 -0.7144 -0.4136 -0.4136
  421TMC3    C5 6334   3.805   2.529  13.350 -0.4356  0.2746  0.7707
  421TMC3    C6 6335   3.841   2.658  13.337  0.1484 -0.8802  1.2056
  421TMC3     C 6336   3.537   2.504  13.093 -0.2166 -0.3325 -0.2439
  421TMC3     O 6337   3.467   2.594  13.043 -0.1151  0.5965 -0.0772
  421TMC3     H 6338   3.632   2.749  13.087 -0.6769 -0.6096 -0.1366
  421TMC3    H1 6339   3.675   2.372  13.286  0.2062 -0.3675  1.6937
  421TMC3    H2 6340   3.923   2.693  13.397  1.2898 -0.8888 -0.3582
  421TMC3    C7 6341   3.867   2.453  13.454  0.2450  0.4229  0.2284
  421TMC3    C8 6342   3.828   2.872  13.220 -0.0239 -0.1642 -0.1888
  421TMC3    O1 6343   3.915   2.507  13.555 -0.2447  0.6189  0.0199
  421TMC3    O2 6344   3.947   2.887  13.220  0.3129 -0.2418 -0.3149
  422TMC3    C1 6345   1.500   3.620  12.426 -0.1131  0.1503 -0.5210
  422TMC3    C2 6346   1.473   3.745  12.469  0.3003 -0.2577 -0.1776
  422TMC3    C3 6347   1.385   3.767  12.569 -0.9876  0.1685  0.1560
  422TMC3    C4 6348   1.436   3.514  12.473  0.4771  0.5638  0.3096
  422TMC3    C5 6349   1.352   3.535  12.577  0.1956  0.3624  0.5478
  422TMC3    C6 6350   1.323   3.657  12.626  0.0363  0.1251  0.3908
  422TMC3     C 6351   1.620   3.601  12.341 -0.1970  0.4562 -0.3048
  422TMC3     O 6352   1.684   3.704  12.320  0.0420 -0.3389  0.2516
  422TMC3     H 6353   1.527   3.827  12.424  0.8955  0.1389  1.2657
  422TMC3    H1 6354   1.460   3.414  12.438 -1.3964  0.2714 -0.1080
  422TMC3    H2 6355   1.258   3.657  12.714 -0.5226  0.7185 -0.0164
  422TMC3    C7 6356   1.277   3.413  12.627 -0.2117  0.6922 -0.4947
  422TMC3    C8 6357   1.325   3.898  12.578  0.2948  0.0468 -0.5235
  422TMC3    O1 6358   1.335   3.305  12.633  0.3052 -0.1126  0.3462
  422TMC3    O2 6359   1.371   3.987  12.509  0.3388 -0.0614  0.6807
  423MPD2     C 6360   2.421   0.246   0.564  0.2676 -0.2361 -0.5290
  423MPD2    C1 6361   2.388   0.119   0.596  0.5887 -0.1959 -0.5881
  423MPD2    C2 6362   2.421   0.020   0.510  0.0586  0.1461 -0.1419
  423MPD2    C3 6363   2.485   0.039   0.390  0.1170  0.9247 -0.1173
  423MPD2    C4 6364   2.510   0.172   0.357  0.6389  0.6164  0.0510
  423MPD2    C5 6365   2.486   0.266   0.447 -0.4551 -0.3328  0.7100
  423MPD2     H 6366   2.382   4.663   0.534 -1.7150  1.4302  2.1724
  423MPD2    H1 6367   2.561   0.197   0.265  1.7517 -2.7996 -0.2788
  423MPD2    H2 6368   2.399   0.334   0.623  1.4723  1.8981 -3.2504
  423MPD2    H3 6369   2.513   0.369   0.431  0.2087 -0.3689  1.5788
  423MPD2     N 6370   2.502   4.677   0.291 -0.6312  0.4253 -0.0072
  423MPD2    H5 6371   2.528   4.704   0.197 -3.5901  1.9319 -0.3936
  423MPD2    N1 6372   2.334   0.083   0.717 -0.0179  0.1382  0.1597
  423MPD2    H7 6373   2.342   4.725   0.737 -0.7221 -0.2143 -1.2889
  424TMC3    C1 6374   2.202   0.106   0.911  0.6234  0.1161 -0.5041
  424TMC3    C2 6375   2.280   0.016   0.987 -1.0158 -0.7425  0.1672
  424TMC3    C3 6376   2.240   4.727   1.117  0.4971 -0.5264  0.1875
  424TMC3    C4 6377   2.104   0.172   0.978 -0.2318 -0.0209  0.4667
  424TMC3    C5 6378   2.065   0.132   1.103  0.0542 -0.0725  0.4463
  424TMC3    C6 6379   2.127   0.029   1.171  0.1279 -0.0697  0.0940
  424TMC3     C 6380   2.252   0.168   0.787 -0.4567  0.1172  0.0791
  424TMC3     O 6381   2.226   0.289   0.769 -0.2699 -0.3858  0.2308
  424TMC3     H 6382   2.369   4.713   0.943  0.1650 -0.7245  2.5114
  424TMC3    H1 6383   2.066   0.263   0.933  0.1287  1.4416  3.1806
  424TMC3    H2 6384   2.099   4.733   1.269 -2.3360 -0.0076 -0.6049
  424TMC3    C7 6385   1.945   0.177   1.174 -0.6744 -0.2657 -0.2366
  424TMC3    C8 6386   2.316   4.625   1.191  0.1939  0.2419 -0.4956
  424TMC3    O1 6387   1.963   0.204   1.293  1.2397 -0.1357 -0.3721
  424TMC3    O2 6388   2.244   4.538   1.241  0.3449  0.1796 -0.0100
  425MPD2     C 6389   2.108   3.885  17.230 -0.0821  0.0262  0.2417
  425MPD2    C1 6390   2.028   3.777  17.258  0.6533  0.2870 -0.3221
  425MPD2    C2 6391   1.905   3.796  17.313 -0.4909  0.2734 -0.3272
  425MPD2    C3 6392   1.857   3.918  17.347 -0.5056  0.4195  1.1737
  425MPD2    C4 6393   1.944   4.023  17.327 -0.0599  0.5823  0.3084
  425MPD2    C5 6394   2.066   4.007  17.266 -0.8834  0.3150  0.4809
  425MPD2     H 6395   1.837   3.712  17.321 -0.1825  0.2003  1.4305
  425MPD2    H1 6396   1.921   4.127  17.346 -2.4481  0.2255 -0.5951
  425MPD2    H2 6397   2.204   3.864  17.186  0.9386  1.6022  1.7197
  425MPD2    H3 6398   2.130   4.091  17.242  0.0386 -0.0412  1.7436
  425MPD2     N 6399   1.724   3.940  17.368  0.7263 -0.5270 -0.1396
  425MPD2    H5 6400   1.661   3.863  17.348 -1.7146  1.4829 -0.1480
  425MPD2    N1 6401   2.078   3.639  17.226 -0.1746  0.2996 -0.3991
  425MPD2    H7 6402   2.168   3.643  17.180 -0.1539 -0.5857 -0.4246
  426TMC3    C1 6403   2.093   3.408  17.224  0.0546 -0.4409 -0.7391
  426TMC3    C2 6404   2.107   3.392  17.091 -0.2353  0.0041  0.1155
  426TMC3    C3 6405   2.129   3.267  17.036  0.2684  1.0485  0.2436
  426TMC3    C4 6406   2.095   3.297  17.303  1.2453  0.3247 -0.0507
  426TMC3    C5 6407   2.094   3.170  17.249  0.3089  0.0429 -0.2757
  426TMC3    C6 6408   2.125   3.158  17.119  0.5836  0.5517 -0.0640
  426TMC3     C 6409   2.031   3.524  17.280  0.0721  0.1981 -0.1367
  426TMC3     O 6410   1.929   3.503  17.348  0.9517  0.9605  0.1914
  426TMC3     H 6411   2.119   3.485  17.037  0.8063  0.1487  0.6080
  426TMC3    H1 6412   2.065   3.309  17.406 -0.1405  1.2227 -0.5524
  426TMC3    H2 6413   2.143   3.062  17.073 -1.8854  0.1634 -0.2031
  426TMC3    C7 6414   2.070   3.051  17.324  0.5583  0.2825  0.3818
  426TMC3    C8 6415   2.081   3.242  16.901 -0.0468  0.2685 -1.0426
  426TMC3    O1 6416   2.129   2.951  17.290  0.0998 -0.0673 -0.4357
  426TMC3    O2 6417   2.087   3.130  16.855 -0.6836  0.3302  0.4690
  427MPD2     C 6418   0.450   1.712  14.994  0.3086  0.0772  0.1394
  427MPD2    C1 6419   0.425   1.576  14.996 -0.1281 -0.1811 -0.3078
  427MPD2    C2 6420   0.308   1.532  14.932 -0.1609  0.1683  0.4483
  427MPD2    C3 6421   0.210   1.623  14.878  0.1895  0.0127 -0.3487
  427MPD2    C4 6422   0.240   1.757  14.889 -0.0651 -0.7168  0.5493
  427MPD2    C5 6423   0.362   1.799  14.939  0.5379 -0.2124 -0.7537
  427MPD2     H 6424   0.282   1.427  14.926  1.6012 -0.1339 -1.6890
  427MPD2    H1 6425   0.169   1.831  14.855  0.5788 -0.4662 -0.2708
  427MPD2    H2 6426   0.522   1.760  15.059  0.6598  0.0626 -0.2392
  427MPD2    H3 6427   0.386   1.905  14.939  0.0799 -0.0950  1.9040
  427MPD2     N 6428   0.082   1.584  14.834 -0.7132 -0.4904 -0.1766
  427MPD2    H5 6429   0.016   1.656  14.807  0.3016  0.0840 -1.0988
  427MPD2    N1 6430   0.515   1.495  15.066  0.0718 -0.3215 -0.2582
  427MPD2    H7 6431   0.592   1.549  15.104 -0.1142 -1.5866  1.9189
  428TMC3    C1 6432   0.608   1.307  15.167 -0.4940 -0.2673 -0.4035
  428TMC3    C2 6433   0.579   1.202  15.242 -0.6368 -0.1951  1.0141
  428TMC3    C3 6434   0.684   1.156  15.316 -0.8083 -0.0673 -0.7814
  428TMC3    C4 6435   0.735   1.355  15.145 -0.4474  0.4426 -0.1420
  428TMC3    C5 6436   0.843   1.291  15.200 -0.3311 -0.6578  0.6001
  428TMC3    C6 6437   0.818   1.188  15.286  0.1411 -0.2222 -0.2503
  428TMC3     C 6438   0.503   1.362  15.079  0.3352 -0.5748  0.6196
  428TMC3     O 6439   0.398   1.295  15.070 -0.1419  0.4227 -0.3394
  428TMC3     H 6440   0.479   1.161  15.256  0.0643 -2.1305  0.2730
  428TMC3    H1 6441   0.753   1.443  15.085  2.6918 -1.0063 -1.2969
  428TMC3    H2 6442   0.896   1.145  15.348 -0.5133 -1.9015 -0.5962
  428TMC3    C7 6443   0.959   1.374  15.237 -0.0275 -0.1293  0.1074
  428TMC3    C8 6444   0.668   1.038  15.400 -0.2453 -0.3119  0.4710
  428TMC3    O1 6445   0.975   1.374  15.358  0.1050 -0.5703  0.6769
  428TMC3    O2 6446   0.754   0.952  15.390  0.5954  0.0619 -0.1909
  429MPD2     C 6447   1.547   1.446  17.621 -0.8080  0.1085 -0.1999
  429MPD2    C1 6448   1.515   1.349  17.532  0.3947  0.4325 -0.1388
  429MPD2    C2 6449   1.461   1.400  17.412 -0.1032 -0.0545  0.4328
  429MPD2    C3 6450   1.460   1.537  17.385 -0.0552 -0.2605 -0.9416
  429MPD2    C4 6451   1.505   1.628  17.474  0.0525 -0.5744 -0.2004
  429MPD2    C5 6452   1.531   1.582  17.599 -0.0667 -0.4181  0.3755
  429MPD2     H 6453   1.420   1.335  17.336 -0.5070  1.8115 -0.9245
  429MPD2    H1 6454   1.500   1.736  17.462 -0.1009 -0.3203  2.1935
  429MPD2    H2 6455   1.578   1.421  17.722  0.9977  0.7079 -0.6010
  429MPD2    H3 6456   1.540   1.648  17.684 -2.0996  1.2545 -0.7318
  429MPD2     N 6457   1.426   1.584  17.251 -0.9369 -0.0570  0.1742
  429MPD2    H5 6458   1.396   1.519  17.178 -0.5338  0.3493 -0.3553
  429MPD2    N1 6459   1.523   1.209  17.551  0.1444  0.1070  0.6001
  429MPD2    H7 6460   1.500   1.144  17.477 -2.5271 -0.4619  1.9460
  430TMC3    C1 6461   1.412   1.711  17.054 -0.3334  0.1069  0.1794
  430TMC3    C2 6462   1.371   1.833  17.009 -0.1476  0.1245 -0.8283
  430TMC3    C3 6463   1.371   1.847  16.874 -0.1189 -0.3157  0.0902
  430TMC3    C4 6464   1.465   1.612  16.974 -0.0644 -0.3736  0.7928
  430TMC3    C5 6465   1.460   1.634  16.839  0.0562 -0.6305 -0.4875
  430TMC3    C6 6466   1.408   1.752  16.784 -0.3826 -0.9681 -0.4690
  430TMC3     C 6467   1.444   1.710  17.197 -0.1080  0.3239 -0.4083
  430TMC3     O 6468   1.482   1.817  17.241 -0.0268  0.0833  0.2127
  430TMC3     H 6469   1.322   1.898  17.079  1.5824 -1.1368  1.5436
  430TMC3    H1 6470   1.505   1.521  17.017  0.9125  0.2450  1.2009
  430TMC3    H2 6471   1.426   1.776  16.679  0.3750  3.0613  0.5796
  430TMC3    C7 6472   1.479   1.522  16.753  0.1509 -0.1377 -0.6889
  430TMC3    C8 6473   1.266   1.937  16.834  0.1292 -0.0399  0.0983
  430TMC3    O1 6474   1.540   1.429  16.801 -0.0956  0.1324 -0.0933
  430TMC3    O2 6475   1.244   2.042  16.889  0.3166 -0.1090 -0.6066
  431MPD2     C 6476   2.203   1.652  12.199 -0.0673 -1.1714 -0.4121
  431MPD2    C1 6477   2.273   1.597  12.300 -0.2276 -0.4016  0.4166
  431MPD2    C2 6478   2.345   1.484  12.275  0.5413 -0.1236 -0.4412
  431MPD2    C3 6479   2.345   1.434  12.142 -0.1194  0.1316 -0.7778
  431MPD2    C4 6480   2.267   1.484  12.043 -1.1903 -0.4983  0.2625
  431MPD2    C5 6481   2.199   1.601  12.066 -0.1408  0.2581 -0.7570
  431MPD2     H 6482   2.418   1.445  12.345  0.0278 -1.2862 -0.5510
  431MPD2    H1 6483   2.255   1.442  11.944  0.7824 -2.9452  1.0699
  431MPD2    H2 6484   2.142   1.738  12.222  0.1158 -0.9239 -0.8545
  431MPD2    H3 6485   2.118   1.632  12.002 -1.5177 -0.1630  0.7718
  431MPD2     N 6486   2.416   1.315  12.104  0.2536  0.5192 -0.1519
  431MPD2    H5 6487   2.427   1.308  12.004  1.3070  0.6440 -0.0385
  431MPD2    N1 6488   2.278   1.668  12.418  0.4228  0.6526  0.3376
  431MPD2    H7 6489   2.237   1.760  12.426 -0.7947  0.0651  0.7874
  432TMC3    C1 6490   2.503   1.094  12.133 -0.4193  0.2493  0.5258
  432TMC3    C2 6491   2.593   1.101  12.034 -0.5530 -0.3786  0.8954
  432TMC3    C3 6492   2.640   0.985  11.979  0.0113  0.0633 -0.3623
  432TMC3    C4 6493   2.465   0.972  12.188  0.0490  0.4810 -0.7014
  432TMC3    C5 6494   2.519   0.857  12.136 -0.0185  0.3002  0.5250
  432TMC3    C6 6495   2.602   0.861  12.028 -1.0574  0.0679  0.8066
  432TMC3     C 6496   2.439   1.210  12.196  0.2050 -0.8149  0.0617
  432TMC3     O 6497   2.407   1.216  12.312  0.1545  0.3678  0.0587
  432TMC3     H 6498   2.638   1.195  12.003 -0.0011 -0.5368  1.2255
  432TMC3    H1 6499   2.389   0.969  12.266  2.0477  2.5179  1.3141
  432TMC3    H2 6500   2.640   0.774  11.977  1.6984  2.5768 -1.4268
  432TMC3    C7 6501   2.456   0.727  12.155  0.2302 -0.1886 -0.0647
  432TMC3    C8 6502   2.747   0.995  11.879 -0.1868 -0.6280 -0.5230
  432TMC3    O1 6503   2.485   0.630  12.088 -0.6414 -0.3425  0.4704
  432TMC3    O2 6504   2.743   0.924  11.781  0.0345 -0.1435 -0.3745
  433MPD2     C 6505   1.137   4.332  10.639  0.2166 -0.3106 -0.0805
  433MPD2    C1 6506   1.253   4.258  10.675  0.3289 -0.2512  0.2783
  433MPD2    C2 6507   1.278   4.241  10.812 -0.2474  0.3672  0.0426
  433MPD2    C3 6508   1.202   4.304  10.912  1.1179  0.6042  0.1836
  433MPD2    C4 6509   1.088   4.375  10.874 -0.5385  0.3750 -0.0002
  433MPD2    C5 6510   1.065   4.391  10.743  0.5271  0.4148  0.1375
  433MPD2     H 6511   1.366   4.178  10.826 -1.4574 -1.4638 -0.6056
  433MPD2    H1 6512   1.010   4.411  10.941 -2.6683 -0.9872 -1.7349
  433MPD2    H2 6513   1.109   4.345  10.535  0.4096 -1.0741 -0.2257
  433MPD2    H3 6514   0.985   4.455  10.707 -0.1815 -0.6687 -0.1883
  433MPD2     N 6515   1.246   4.293  11.045 -0.3233 -0.4844 -0.5724
  433MPD2    H5 6516   1.322   4.227  11.062  0.4952  0.8092  0.8347
  433MPD2    N1 6517   1.327   4.191  10.568 -0.0186 -0.8216 -0.0149
  433MPD2    H7 6518   1.319   4.226  10.473  0.4906 -0.4668  0.0749
  434TMC3    C1 6519   1.490   4.040  10.477 -0.0278  0.0868  0.8010
  434TMC3    C2 6520   1.616   3.997  10.509 -0.3369  0.3280  0.3756
  434TMC3    C3 6521   1.665   3.878  10.466  0.5483  0.1231 -0.0998
  434TMC3    C4 6522   1.407   3.963  10.398  0.3899 -0.0095 -0.4271
  434TMC3    C5 6523   1.451   3.843  10.358  0.4461  0.1009 -0.5155
  434TMC3    C6 6524   1.580   3.795  10.397 -0.3270 -0.5097  0.7561
  434TMC3     C 6525   1.433   4.103  10.587 -0.3351 -0.0701 -0.5396
  434TMC3     O 6526   1.478   4.057  10.690  0.3684  0.1146  0.1729
  434TMC3     H 6527   1.685   4.065  10.559 -0.2766  0.4851  0.0826
  434TMC3    H1 6528   1.310   3.998  10.362  0.4754 -0.1141 -0.7619
  434TMC3    H2 6529   1.614   3.697  10.368 -1.3835 -0.3668 -0.9098
  434TMC3    C7 6530   1.358   3.749  10.297 -0.3686  0.2712  0.7450
  434TMC3    C8 6531   1.795   3.840  10.526 -0.0452 -0.1081  0.4106
  434TMC3    O1 6532   1.275   3.798  10.220 -0.1927 -0.1012  0.4967
  434TMC3    O2 6533   1.865   3.938  10.561 -0.2531  0.0580 -0.4081
  435MPD2     C 6534   3.370   0.153  15.479 -1.0337  0.3050  0.3838
  435MPD2    C1 6535   3.313   0.136  15.603  0.6769  0.8284 -0.1426
  435MPD2    C2 6536   3.363   0.034  15.685 -0.0378 -0.3924 -0.3624
  435MPD2    C3 6537   3.459   4.688  15.638  0.3364 -0.7895 -0.0554
  435MPD2    C4 6538   3.502   4.699  15.508 -0.0436 -1.1359  0.0045
  435MPD2    C5 6539   3.459   0.062  15.429  0.6421 -0.4572  0.4364
  435MPD2     H 6540   3.318   0.022  15.783 -1.1188 -2.4898 -1.1166
  435MPD2    H1 6541   3.569   4.626  15.463  2.1257  2.3953 -2.4393
  435MPD2    H2 6542   3.331   0.233  15.416  3.1881  0.7755 -1.6483
  435MPD2    H3 6543   3.515   0.075  15.337 -1.2264  2.4255 -0.3035
  435MPD2     N 6544   3.514   4.587  15.721  0.2157 -0.6413 -0.4901
  435MPD2    H5 6545   3.460   4.562  15.803  2.0946 -0.3671  0.8373
  435MPD2    N1 6546   3.202   0.211  15.646 -0.0119 -0.7487  0.6447
  435MPD2    H7 6547   3.174   0.187  15.740 -1.0430 -3.4181 -0.3560
  436TMC3    C1 6548   2.897   0.358  15.870  0.0817 -0.1588 -0.5241
  436TMC3    C2 6549   3.017   0.327  15.801 -0.0333 -0.1013 -0.5524
  436TMC3    C3 6550   3.032   0.378  15.673  0.3752  0.8594  0.5608
  436TMC3    C4 6551   2.798   0.432  15.815  0.4172 -0.6458 -0.2702
  436TMC3    C5 6552   2.826   0.486  15.692 -0.9849  0.6140  0.3488
  436TMC3    C6 6553   2.937   0.453  15.613 -0.0842  0.5640  0.0771
  436TMC3     C 6554   2.918   0.383  16.007  0.5967 -0.0052  0.3655
  436TMC3     O 6555   3.034   0.399  16.040  0.6860  0.0989  0.0726
  436TMC3     H 6556   3.089   0.274  15.862  1.2281  0.3605 -1.6408
  436TMC3    H1 6557   2.706   0.454  15.869  0.5375  0.6725 -0.5837
  436TMC3    H2 6558   2.950   0.500  15.516  1.4122 -0.9367 -0.4529
  436TMC3    C7 6559   2.730   0.584  15.643 -0.1711  0.0094 -0.1730
  436TMC3    C8 6560   3.140   0.322  15.591 -1.4893 -0.1531  0.0156
  436TMC3    O1 6561   2.610   0.569  15.643 -0.2931 -0.3696 -0.2864
  436TMC3    O2 6562   3.148   0.362  15.473 -0.1739  0.5469  0.0619
  437TMC3    C1 6563   1.542   1.808  13.242 -0.1026 -0.2719  0.5127
  437TMC3    C2 6564   1.434   1.845  13.319 -0.3000 -0.3187  0.8413
  437TMC3    C3 6565   1.404   1.978  13.310  0.1771 -0.0431 -0.5110
  437TMC3    C4 6566   1.617   1.889  13.159 -0.5824  0.2657 -0.2639
  437TMC3    C5 6567   1.586   2.021  13.162 -0.1700 -0.2142 -0.0598
  437TMC3    C6 6568   1.484   2.067  13.232 -0.4773 -0.5973  0.3660
  437TMC3     C 6569   1.574   1.669  13.257  0.2295 -0.4131  1.1663
  437TMC3     O 6570   1.511   1.610  13.342  0.5324 -0.2070  0.1584
  437TMC3     H 6571   1.363   1.782  13.372  1.3976 -2.3686  0.6822
  437TMC3    H1 6572   1.696   1.848  13.097  0.4115  3.8218 -1.3374
  437TMC3    H2 6573   1.456   2.171  13.221 -1.4848 -0.7505  1.4195
  437TMC3    C7 6574   1.647   2.111  13.069  0.0970  0.6423  0.3961
  437TMC3    C8 6575   1.271   2.017  13.356  0.5186  0.1276  0.4026
  437TMC3    O1 6576   1.581   2.202  13.026 -0.5578  0.1394  0.3577
  437TMC3    O2 6577   1.184   1.932  13.361  0.7318  0.6558  0.4162
  438MPD2     C 6578   0.010   3.002  17.170 -0.2340  0.4356  0.5632
  438MPD2    C1 6579   4.687   2.881  17.129  0.9165 -0.4903  0.1250
  438MPD2    C2 6580   4.578   2.851  17.206 -0.7319 -0.6889 -0.8693
  438MPD2    C3 6581   4.516   2.943  17.285 -0.5433 -1.3778  0.0725
  438MPD2    C4 6582   4.572   3.068  17.309  0.5130 -0.2305  0.1109
  438MPD2    C5 6583   4.695   3.090  17.254 -0.1852 -0.2175  0.6105
  438MPD2     H 6584   4.537   2.752  17.189  1.8160 -1.0623 -4.7619
  438MPD2    H1 6585   4.519   3.137  17.373 -0.8435 -1.2287  0.0522
  438MPD2    H2 6586   0.104   3.035  17.128  0.2506 -1.3270  0.2372
  438MPD2    H3 6587   0.002   3.186  17.268 -2.5772  0.5841  3.5042
  438MPD2     N 6588   4.402   2.917  17.360 -0.0078 -0.1396 -0.0261
  438MPD2    H5 6589   4.356   2.985  17.420  1.8202  0.7002  0.4259
  438MPD2    N1 6590   0.002   2.788  17.034 -0.3789 -0.0850 -0.2849
  438MPD2    H7 6591   4.701   2.696  17.029 -0.9796  0.0685  2.1582
  439TMC3    C1 6592   0.131   2.711  16.860 -0.1216  0.2675  0.4736
  439TMC3    C2 6593   0.105   2.716  16.726 -0.0710 -0.2706 -0.2698
  439TMC3    C3 6594   0.100   2.597  16.661 -0.2035  0.0123  0.4548
  439TMC3    C4 6595   0.174   2.598  16.923 -0.2102  1.1017 -0.7453
  439TMC3    C5 6596   0.190   2.485  16.842  0.1637  0.8090  0.4619
  439TMC3    C6 6597   0.151   2.475  16.713 -0.7292 -0.0932  0.1665
  439TMC3     C 6598   0.098   2.823  16.940 -1.0327 -0.4288  0.2079
  439TMC3     O 6599   0.151   2.931  16.913 -0.1025  0.0215 -0.5238
  439TMC3     H 6600   0.106   2.811  16.673 -3.1978  1.5327  2.9054
  439TMC3    H1 6601   0.180   2.606  17.031 -2.5212  1.1846 -0.6285
  439TMC3    H2 6602   0.172   2.387  16.653 -1.8878  0.3670 -0.9246
  439TMC3    C7 6603   0.225   2.369  16.922  0.3208  0.0734  0.3379
  439TMC3    C8 6604   0.067   2.593  16.518  0.4794 -0.2800  0.5393
  439TMC3    O1 6605   0.274   2.392  17.034  0.1993 -0.1316 -0.3095
  439TMC3    O2 6606   0.109   2.492  16.462  0.4528 -0.3744 -0.4213
  440MPD2     C 6607   3.318   3.380  15.280 -0.2024 -0.7284 -0.0955
  440MPD2    C1 6608   3.422   3.426  15.204  0.0921  0.8414 -1.0258
  440MPD2    C2 6609   3.548   3.373  15.215  0.1455  0.1938  0.6447
  440MPD2    C3 6610   3.565   3.273  15.311 -0.7569 -0.5132 -0.0215
  440MPD2    C4 6611   3.462   3.247  15.399  0.2094  0.7752  0.3667
  440MPD2    C5 6612   3.339   3.291  15.380  0.1763 -0.2787 -0.0993
  440MPD2     H 6613   3.630   3.405  15.152 -0.8849 -1.0683 -1.3068
  440MPD2    H1 6614   3.484   3.190  15.489 -1.1467 -0.7415 -0.2555
  440MPD2    H2 6615   3.214   3.405  15.261 -0.5326 -0.9499  1.4014
  440MPD2    H3 6616   3.255   3.254  15.436  0.3453  0.8915  0.9134
  440MPD2     N 6617   3.688   3.201  15.334 -0.0700  0.4151  0.3607
  440MPD2    H5 6618   3.690   3.140  15.416  0.9865  0.4605  0.3655
  440MPD2    N1 6619   3.393   3.517  15.094 -0.1206  0.0575  0.3219
  440MPD2    H7 6620   3.475   3.553  15.047 -0.2380 -0.4054 -0.2382
  441TMC3    C1 6621   3.912   3.152  15.311 -0.4953  0.4091 -0.5566
  441TMC3    C2 6622   3.920   3.205  15.435 -0.4109  0.2891 -0.2461
  441TMC3    C3 6623   3.932   3.128  15.549 -0.1870 -0.1261 -0.0551
  441TMC3    C4 6624   3.914   3.011  15.302  0.4333 -0.0858 -0.2056
  441TMC3    C5 6625   3.922   2.937  15.415  0.2739 -0.1043  0.0938
  441TMC3    C6 6626   3.943   2.998  15.540 -0.3465  0.3403 -0.8343
  441TMC3     C 6627   3.794   3.212  15.250  0.4467  0.0525  0.2325
  441TMC3     O 6628   3.804   3.247  15.136 -0.1144 -0.1044  0.2382
  441TMC3     H 6629   3.918   3.314  15.437 -2.1494  0.2762 -1.3081
  441TMC3    H1 6630   3.867   2.975  15.211  2.4217  2.6835 -2.3093
  441TMC3    H2 6631   3.911   2.936  15.624  0.3995  0.5445 -0.4045
  441TMC3    C7 6632   3.796   2.867  15.422  0.7412 -0.2530  0.9644
  441TMC3    C8 6633   3.859   3.171  15.670  1.2741  0.1113 -0.2778
  441TMC3    O1 6634   3.721   2.931  15.498  0.2549  0.0786  0.0648
  441TMC3    O2 6635   3.859   3.100  15.770 -0.2935  0.1506  0.1870
  442MPD2     C 6636   1.600   3.358  16.151 -0.5439  0.5709  0.4360
  442MPD2    C1 6637   1.534   3.260  16.231  0.1044  0.3312 -0.8120
  442MPD2    C2 6638   1.473   3.152  16.165 -0.0074 -0.1102  0.2919
  442MPD2    C3 6639   1.477   3.140  16.030  1.0739  0.3827 -0.8787
  442MPD2    C4 6640   1.551   3.230  15.961 -0.3445 -0.2942 -0.5190
  442MPD2    C5 6641   1.606   3.337  16.019 -0.3887 -0.0506 -0.0495
  442MPD2     H 6642   1.440   3.071  16.228 -0.2864  0.4315  0.8447
  442MPD2    H1 6643   1.568   3.213  15.855 -1.2580  0.4502 -0.7898
  442MPD2    H2 6644   1.653   3.444  16.190 -0.1215  0.6045 -0.2191
  442MPD2    H3 6645   1.667   3.403  15.958 -0.4867 -0.0976 -0.1979
  442MPD2     N 6646   1.434   3.031  15.953  0.9758  0.3022 -0.1766
  442MPD2    H5 6647   1.440   3.048  15.854 -1.3492  1.0401 -0.2055
  442MPD2    N1 6648   1.528   3.269  16.378  0.3442  0.1492 -0.2372
  442MPD2    H7 6649   1.507   3.181  16.424 -0.5956  0.6553  0.2995
  443TMC3    C1 6650   1.595   3.352  16.590 -0.3531 -0.7695 -0.3844
  443TMC3    C2 6651   1.564   3.450  16.679 -0.2968  0.8525  0.2527
  443TMC3    C3 6652   1.526   3.417  16.806  0.1581  0.3504  0.1228
  443TMC3    C4 6653   1.604   3.222  16.634  0.3695  0.2282  0.0996
  443TMC3    C5 6654   1.572   3.190  16.766 -0.3002  0.5436 -0.9161
  443TMC3    C6 6655   1.528   3.288  16.852 -0.1419 -0.4466  0.0378
  443TMC3     C 6656   1.566   3.379  16.452 -0.0436 -0.2157  0.6142
  443TMC3     O 6657   1.581   3.492  16.412  0.2183  0.3422 -0.6161
  443TMC3     H 6658   1.575   3.551  16.641  0.4587  0.6993  0.0550
  443TMC3    H1 6659   1.624   3.134  16.573  0.5664 -0.9634  1.8757
  443TMC3    H2 6660   1.505   3.266  16.956  0.0842 -0.1380  0.1541
  443TMC3    C7 6661   1.511   3.063  16.782 -0.2548 -0.1724 -0.8426
  443TMC3    C8 6662   1.468   3.521  16.887 -0.3696  0.6307  0.1709
  443TMC3    O1 6663   1.542   2.976  16.702  0.3417 -0.2650  0.0672
  443TMC3    O2 6664   1.548   3.609  16.903  0.6288 -0.4056 -0.5013
  444MPD2     C 6665   1.687   3.059  17.137  0.2841 -0.0891 -0.0179
  444MPD2    C1 6666   1.622   2.944  17.164 -0.8767 -0.6272  0.0537
  444MPD2    C2 6667   1.643   2.840  17.077  0.4773  0.1726  0.0612
  444MPD2    C3 6668   1.727   2.852  16.973 -0.0103 -0.3627 -0.3090
  444MPD2    C4 6669   1.799   2.964  16.954 -0.7251 -0.1319  0.2021
  444MPD2    C5 6670   1.777   3.069  17.034 -0.2015  0.6626 -0.7233
  444MPD2     H 6671   1.605   2.741  17.097 -0.5109  0.6514  0.5754
  444MPD2    H1 6672   1.866   2.982  16.871 -0.2872  0.9393  0.7868
  444MPD2    H2 6673   1.672   3.150  17.196 -0.1564 -0.0277 -0.2220
  444MPD2    H3 6674   1.831   3.162  17.026 -0.4136  0.6771 -1.9287
  444MPD2     N 6675   1.748   2.738  16.894 -0.3373 -0.9847 -0.1632
  444MPD2    H5 6676   1.673   2.671  16.877 -0.3088 -0.7892 -1.0569
  444MPD2    N1 6677   1.524   2.923  17.266  0.3682  0.2640 -0.1811
  444MPD2    H7 6678   1.478   2.833  17.273 -1.8991  1.3435 -1.1177
  445TMC3    C1 6679   1.856   2.576  16.763 -0.8809 -0.6875  0.7018
  445TMC3    C2 6680   1.764   2.560  16.668  0.0995 -0.2787 -0.9188
  445TMC3    C3 6681   1.772   2.468  16.570 -0.2265  0.1953 -0.1951
  445TMC3    C4 6682   1.968   2.512  16.744  0.4358  0.3374  0.3558
  445TMC3    C5 6683   1.982   2.426  16.642 -0.0944  0.2697 -0.7136
  445TMC3    C6 6684   1.888   2.408  16.546  0.4487  0.4444  0.1875
  445TMC3     C 6685   1.863   2.702  16.834  0.2781  0.0384 -0.6313
  445TMC3     O 6686   1.971   2.754  16.841 -0.2175 -0.4845 -0.5269
  445TMC3     H 6687   1.680   2.628  16.669  0.8770  0.6529  0.3381
  445TMC3    H1 6688   2.053   2.555  16.796 -0.3570 -0.0039  1.9616
  445TMC3    H2 6689   1.903   2.343  16.461 -1.2129 -0.0880  0.2871
  445TMC3    C7 6690   2.116   2.388  16.619 -0.2039  0.1104  0.1721
  445TMC3    C8 6691   1.657   2.449  16.480 -0.3290 -0.5114  0.2210
  445TMC3    O1 6692   2.150   2.377  16.499  0.6315 -0.1689  0.2514
  445TMC3    O2 6693   1.561   2.519  16.480  0.0202  0.1730 -0.4810
  446MPD2     C 6694   1.242   3.894  11.202 -0.1575 -0.1839  0.0724
  446MPD2    C1 6695   1.219   3.927  11.073  0.4541 -1.0800  0.2095
  446MPD2    C2 6696   1.326   3.970  10.993 -0.6020 -0.3988 -0.1418
  446MPD2    C3 6697   1.452   3.973  11.044 -0.0617  0.1329 -0.3098
  446MPD2    C4 6698   1.477   3.947  11.175 -0.7081  0.8115 -0.1875
  446MPD2    C5 6699   1.373   3.907  11.254 -0.3718 -0.2826  0.2104
  446MPD2     H 6700   1.305   3.985  10.887 -0.8264 -0.2772 -0.0821
  446MPD2    H1 6701   1.568   3.962  11.232 -0.2951 -1.4526 -0.2484
  446MPD2    H2 6702   1.160   3.878  11.271  0.6265 -0.7284  0.8735
  446MPD2    H3 6703   1.401   3.880  11.355 -0.9246  1.9289  0.9495
  446MPD2     N 6704   1.550   4.028  10.967 -0.0198  0.8017 -1.1650
  446MPD2    H5 6705   1.523   4.060  10.875 -1.3404  2.9060 -0.0468
  446MPD2    N1 6706   1.101   3.899  11.001  0.0813 -0.1324 -0.5982
  446MPD2    H7 6707   1.095   3.913  10.901  0.0580  0.5972 -0.4950
  447TMC3    C1 6708   1.757   4.112  10.900  0.0252  0.3441  0.4120
  447TMC3    C2 6709   1.696   4.216  10.827  0.0131  0.1156 -0.1744
  447TMC3    C3 6710   1.774   4.288  10.733  0.3163 -0.3097 -0.2681
  447TMC3    C4 6711   1.889   4.085  10.877  0.2183  0.5394  0.4514
  447TMC3    C5 6712   1.954   4.153  10.781 -1.1793  0.0862 -0.2859
  447TMC3    C6 6713   1.905   4.254  10.704 -1.1691 -0.1095 -0.1227
  447TMC3     C 6714   1.683   4.029  10.998 -0.0084 -0.0676 -0.0321
  447TMC3     O 6715   1.740   3.964  11.083 -0.3049 -0.3000  0.6688
  447TMC3     H 6716   1.589   4.234  10.832 -0.1583 -1.8418  3.0935
  447TMC3    H1 6717   1.938   4.010  10.938  0.1756 -0.6599 -0.9799
  447TMC3    H2 6718   1.962   4.305  10.628  2.9411 -0.2384  2.8809
  447TMC3    C7 6719   2.096   4.150  10.795 -0.1589 -0.0419 -0.1740
  447TMC3    C8 6720   1.710   4.394  10.650 -0.1741 -0.9027 -0.6673
  447TMC3    O1 6721   2.144   4.037  10.812  0.3526 -0.1436  0.0059
  447TMC3    O2 6722   1.757   4.416  10.541 -0.3613  0.1274  0.1577
  448TMC3    C1 6723   4.679   3.992  17.043  0.7851  0.8906 -0.2474
  448TMC3    C2 6724   4.735   3.889  16.969 -0.3621 -0.7988 -0.3566
  448TMC3    C3 6725   0.111   3.842  17.004  0.3050  0.3587 -0.2257
  448TMC3    C4 6726   0.007   4.045  17.153  0.0301 -0.0863 -0.6609
  448TMC3    C5 6727   0.110   3.971  17.203 -0.5147 -0.4648 -0.1654
  448TMC3    C6 6728   0.173   3.885  17.123 -0.1188 -0.3422 -0.7372
  448TMC3     C 6729   4.562   4.066  17.006 -0.4572 -0.2295 -0.0124
  448TMC3     O 6730   4.553   4.180  17.046 -0.0502  0.1911  0.3048
  448TMC3     H 6731   4.686   3.858  16.878 -0.3492 -0.6951 -0.3982
  448TMC3    H1 6732   4.694   4.116  17.215 -1.3871 -3.1958  1.6748
  448TMC3    H2 6733   0.267   3.835  17.143  0.3434  1.6341  2.0619
  448TMC3    C7 6734   0.068   3.906  17.321  0.1398 -0.5122 -0.3043
  448TMC3    C8 6735   0.154   3.717  16.955 -0.2952 -0.0070  0.1857
  448TMC3    O1 6736   4.697   3.930  17.352  0.4707  0.1651 -0.0519
  448TMC3    O2 6737   0.258   3.676  17.000 -0.5176  0.6169 -0.1884
  449MPD2     C 6738   0.823   2.926  13.987 -0.6930 -0.0188 -0.5897
  449MPD2    C1 6739   0.708   2.973  13.927 -0.4211  0.2862  0.3174
  449MPD2    C2 6740   0.594   2.906  13.959 -0.0769 -0.8170 -0.2967
  449MPD2    C3 6741   0.593   2.785  14.027 -0.5393 -0.1143  0.6367
  449MPD2    C4 6742   0.704   2.733  14.083  0.0668 -0.0051  0.1068
  449MPD2    C5 6743   0.822   2.809  14.064 -0.8288 -0.3552 -0.0900
  449MPD2     H 6744   0.498   2.922  13.910 -1.0504 -1.0485  1.5537
  449MPD2    H1 6745   0.707   2.643  14.143 -0.1888 -1.2493 -1.7500
  449MPD2    H2 6746   0.915   2.982  13.977 -1.1812  1.0895  1.1444
  449MPD2    H3 6747   0.917   2.779  14.108 -2.0542 -2.0125  1.4358
  449MPD2     N 6748   0.468   2.720  14.037 -0.0135  0.3255 -0.2409
  449MPD2    H5 6749   0.388   2.762  13.991 -0.5209  0.8385  1.1221
  449MPD2    N1 6750   0.703   3.075  13.836  0.8590 -0.1164  0.1670
  449MPD2    H7 6751   0.614   3.097  13.793  0.2356 -0.4196  1.3114
  450TMC3    C1 6752   0.770   3.239  13.679  0.1610 -0.0139 -0.6438
  450TMC3    C2 6753   0.824   3.189  13.562  0.3319 -0.4212 -0.5664
  450TMC3    C3 6754   0.731   3.173  13.465 -0.3501 -0.5396  0.0791
  450TMC3    C4 6755   0.631   3.266  13.694 -0.3499 -0.1173  0.2385
  450TMC3    C5 6756   0.547   3.244  13.590  0.1004  0.1621  0.2239
  450TMC3    C6 6757   0.595   3.200  13.469  0.0909 -0.5715 -0.4043
  450TMC3     C 6758   0.805   3.152  13.790 -0.7868  0.5506  0.0902
  450TMC3     O 6759   0.915   3.172  13.841 -0.4429  0.6556 -0.7179
  450TMC3     H 6760   0.928   3.161  13.548  0.3327 -0.5653 -0.2631
  450TMC3    H1 6761   0.593   3.296  13.791 -2.9150  3.0765 -1.7461
  450TMC3    H2 6762   0.534   3.192  13.380 -2.2116  0.3002  1.0938
  450TMC3    C7 6763   0.427   3.173  13.633 -0.0324 -0.2825 -1.0484
  450TMC3    C8 6764   0.762   3.102  13.343  0.3100 -0.4586 -0.2061
  450TMC3    O1 6765   0.422   3.145  13.754 -0.0723 -0.8211  0.7856
  450TMC3    O2 6766   0.680   3.101  13.253  0.5198 -0.2684  0.2374
  451MPD2     C 6767   1.701   0.619   1.128 -0.1407 -0.4152  0.5487
  451MPD2    C1 6768   1.790   0.724   1.113 -0.3227  0.3619 -0.4078
  451MPD2    C2 6769   1.908   0.697   1.044  0.0393  0.0300 -0.0545
  451MPD2    C3 6770   1.920   0.576   0.975 -0.2285  0.8139 -0.1013
  451MPD2    C4 6771   1.818   0.486   0.985 -0.5602  0.2484 -0.3427
  451MPD2    C5 6772   1.716   0.499   1.068 -0.4853  0.5293 -0.0677
  451MPD2     H 6773   1.983   0.772   1.023  0.3953  0.4079  2.6683
  451MPD2    H1 6774   1.822   0.402   0.917  1.8809 -0.4121  0.6271
  451MPD2    H2 6775   1.619   0.620   1.198 -1.3620  0.8807 -0.8894
  451MPD2    H3 6776   1.644   0.419   1.069  0.9060 -0.7222  0.0546
  451MPD2     N 6777   2.012   0.549   0.873 -0.2204  0.4237  0.5059
  451MPD2    H5 6778   2.003   0.457   0.831  1.7089 -0.1901  1.4357
  451MPD2    N1 6779   1.755   0.846   1.171 -0.2716  0.0282 -0.1419
  451MPD2    H7 6780   1.659   0.858   1.202  0.6613 -0.2685  2.8840
  452TMC3    C1 6781   2.181   0.611   0.710 -0.5615 -0.0336 -0.4487
  452TMC3    C2 6782   2.124   0.525   0.615 -0.0911  0.0523  0.4473
  452TMC3    C3 6783   2.191   0.508   0.497  0.0734  0.3009  0.2001
  452TMC3    C4 6784   2.295   0.678   0.678 -0.5907  0.3563 -0.6844
  452TMC3    C5 6785   2.358   0.653   0.560 -0.1615 -0.6189  0.1591
  452TMC3    C6 6786   2.311   0.568   0.466 -0.2312  0.1006 -0.4810
  452TMC3     C 6787   2.117   0.633   0.839  0.4892 -0.1462  0.3249
  452TMC3     O 6788   2.163   0.732   0.896  0.3963  0.0705  0.2148
  452TMC3     H 6789   2.035   0.464   0.622  0.3278 -0.7103 -0.8935
  452TMC3    H1 6790   2.327   0.761   0.741 -0.7027  1.0937 -1.6038
  452TMC3    H2 6791   2.373   0.564   0.377 -1.0734  3.0342 -1.2143
  452TMC3    C7 6792   2.424   0.757   0.494 -0.3995  0.8795 -0.1902
  452TMC3    C8 6793   2.115   0.439   0.384  0.3534  0.2732  0.6407
  452TMC3    O1 6794   2.390   0.786   0.382 -0.3508 -0.0036  0.4856
  452TMC3    O2 6795   2.027   0.356   0.418  0.1136  0.2069 -0.1517
  453TMC3    C1 6796   3.633   3.120  11.641  0.2226  0.3347  0.1757
  453TMC3    C2 6797   3.559   3.010  11.684  0.1538 -0.3507  0.3952
  453TMC3    C3 6798   3.432   3.004  11.638 -0.6663  0.8866  0.4371
  453TMC3    C4 6799   3.582   3.224  11.572 -0.5083 -0.0659 -0.0692
  453TMC3    C5 6800   3.457   3.211  11.519 -0.2161  0.0722 -0.0633
  453TMC3    C6 6801   3.385   3.096  11.560  0.4935  0.7185  0.2166
  453TMC3     C 6802   3.777   3.131  11.686  0.9531 -0.0302 -0.7996
  453TMC3     O 6803   3.837   3.239  11.668  0.0494  0.3598 -0.2202
  453TMC3     H 6804   3.591   2.946  11.765 -1.8723 -2.5341 -0.5436
  453TMC3    H1 6805   3.654   3.293  11.530 -0.1971  0.5866  1.5407
  453TMC3    H2 6806   3.280   3.085  11.535  0.2131 -1.8591  2.5782
  453TMC3    C7 6807   3.478   3.198  11.376 -0.5445  0.0646  0.8163
  453TMC3    C8 6808   3.333   2.940  11.727 -0.8032  0.0836 -0.3451
  453TMC3    O1 6809   3.432   3.100  11.325 -0.5778  0.1328 -0.0841
  453TMC3    O2 6810   3.224   2.995  11.750 -0.2043 -0.1432  0.4403
  454MPD2     C 6811   2.393   2.886  15.760  0.7325  0.3721  0.6543
  454MPD2    C1 6812   2.268   2.870  15.702 -0.4373  0.6537 -0.3306
  454MPD2    C2 6813   2.158   2.904  15.775  0.1890  0.4417 -0.6196
  454MPD2    C3 6814   2.154   2.955  15.902 -0.3642  0.0841  0.3132
  454MPD2    C4 6815   2.277   2.980  15.957  0.0401 -0.2752 -0.2275
  454MPD2    C5 6816   2.393   2.944  15.885 -1.1280  0.7462 -0.7628
  454MPD2     H 6817   2.062   2.882  15.729  0.1333  0.1794 -0.3748
  454MPD2    H1 6818   2.291   3.020  16.057 -0.8676 -0.7072  0.0672
  454MPD2    H2 6819   2.486   2.856  15.711 -0.4255 -0.6575 -0.9333
  454MPD2    H3 6820   2.491   2.963  15.929 -0.3788 -0.8567 -1.7468
  454MPD2     N 6821   2.041   2.980  15.978  0.0116  0.1065  0.3157
  454MPD2    H5 6822   2.053   2.993  16.078  2.6222  1.6507 -0.1830
  454MPD2    N1 6823   2.245   2.804  15.576  0.5591 -0.2955  0.0464
  454MPD2    H7 6824   2.150   2.810  15.541 -0.3549 -0.9752  2.4276
  455TMC3    C1 6825   1.833   2.995  16.054 -0.0820  0.5590 -0.1004
  455TMC3    C2 6826   1.894   3.048  16.167 -0.4247  0.2617  0.0001
  455TMC3    C3 6827   1.854   2.989  16.286 -0.2926 -0.5056  0.0727
  455TMC3    C4 6828   1.740   2.897  16.065  0.2875  0.0543  0.1153
  455TMC3    C5 6829   1.709   2.840  16.184 -0.2081  0.2637 -0.0317
  455TMC3    C6 6830   1.779   2.876  16.300 -0.6007 -0.1572  0.4556
  455TMC3     C 6831   1.914   2.971  15.938  0.4456  0.4157  0.2855
  455TMC3     O 6832   1.863   2.952  15.831  0.6114  0.1261 -0.0032
  455TMC3     H 6833   1.972   3.124  16.164 -0.6969  0.5444  0.1008
  455TMC3    H1 6834   1.698   2.848  15.978 -0.7577 -3.3213  2.5297
  455TMC3    H2 6835   1.768   2.840  16.402  0.6560 -0.1798  0.5907
  455TMC3    C7 6836   1.710   2.697  16.167 -0.2408 -0.6742 -1.1582
  455TMC3    C8 6837   1.888   3.052  16.409  0.7247  0.2858 -0.3057
  455TMC3    O1 6838   1.609   2.656  16.106  0.0521  0.0797 -0.0069
  455TMC3    O2 6839   1.921   2.985  16.504  0.2631 -0.0377 -0.1726
  456MPD2     C 6840   0.447   2.625  16.514 -0.5192 -0.7703  0.0362
  456MPD2    C1 6841   0.396   2.756  16.524  0.9515 -1.1456  0.1903
  456MPD2    C2 6842   0.403   2.831  16.638  0.0386  0.3222  0.8899
  456MPD2    C3 6843   0.454   2.763  16.752  0.2826  0.0101 -0.9706
  456MPD2    C4 6844   0.487   2.636  16.750 -0.1891  0.1319 -0.1748
  456MPD2    C5 6845   0.483   2.566  16.631  0.3856  0.1748 -0.3431
  456MPD2     H 6846   0.374   2.936  16.642 -0.0743  0.2939  0.8286
  456MPD2    H1 6847   0.545   2.595  16.832 -0.4593 -1.4922 -0.7933
  456MPD2    H2 6848   0.428   2.575  16.420 -0.8812 -1.8693  0.6852
  456MPD2    H3 6849   0.510   2.461  16.627  0.2110  0.1920 -1.8552
  456MPD2     N 6850   0.452   2.844  16.870  0.1901  0.7015 -0.1893
  456MPD2    H5 6851   0.429   2.942  16.858 -2.7958 -0.0008 -0.2073
  456MPD2    N1 6852   0.343   2.810  16.410 -0.5610 -0.0530  0.5392
  456MPD2    H7 6853   0.336   2.748  16.330  1.2280  2.5409 -1.6187
  457TMC3    C1 6854   0.447   2.917  17.088 -0.9023  0.0707 -0.5240
  457TMC3    C2 6855   0.420   3.039  17.038  0.0908 -0.5719 -0.1024
  457TMC3    C3 6856   0.364   3.134  17.118 -0.0297  0.3349  0.5656
  457TMC3    C4 6857   0.427   2.879  17.218  0.2273  0.3228  0.2967
  457TMC3    C5 6858   0.379   2.980  17.302  0.2184  0.0438 -0.0114
  457TMC3    C6 6859   0.350   3.112  17.253 -0.7229  0.2632  0.0985
  457TMC3     C 6860   0.489   2.809  16.997 -0.3148 -0.1478  0.0557
  457TMC3     O 6861   0.523   2.700  17.040  0.3095 -0.5416  0.3415
  457TMC3     H 6862   0.453   3.081  16.944 -0.7124  0.0808 -0.0910
  457TMC3    H1 6863   0.452   2.780  17.255  0.0801 -0.1168 -0.7956
  457TMC3    H2 6864   0.323   3.195  17.317  1.1271  1.9906 -1.3763
  457TMC3    C7 6865   0.335   2.929  17.433  0.1041 -0.7483 -0.3173
  457TMC3    C8 6866   0.296   3.243  17.052 -0.2571 -0.1240  0.1629
  457TMC3    O1 6867   0.378   2.818  17.463 -0.3395  0.1108 -0.1401
  457TMC3    O2 6868   0.268   3.327  17.139  0.5520 -1.2486 -0.0694
  458MPD2     C 6869   2.077   2.313  12.873  0.7915 -0.5570  0.9007
  458MPD2    C1 6870   2.110   2.233  12.972 -1.0045  0.1049 -0.1422
  458MPD2    C2 6871   2.011   2.182  13.058  0.0664  0.5927  0.0224
  458MPD2    C3 6872   1.877   2.189  13.022 -0.1338 -0.0122  0.3255
  458MPD2    C4 6873   1.846   2.266  12.916 -0.4286 -0.3864  0.3263
  458MPD2    C5 6874   1.943   2.337  12.845 -0.2358  0.0523  0.7728
  458MPD2     H 6875   2.042   2.128  13.148 -1.5313 -1.2783 -0.5431
  458MPD2    H1 6876   1.749   2.263  12.868  0.7873 -0.0340 -2.1636
  458MPD2    H2 6877   2.149   2.363  12.810 -1.0569 -0.1222 -0.8424
  458MPD2    H3 6878   1.901   2.406  12.773 -0.7794  0.0777  1.1098
  458MPD2     N 6879   1.788   2.101  13.081  0.1079  0.0220 -0.5124
  458MPD2    H5 6880   1.825   2.041  13.154  0.4682  0.3833 -0.4045
  458MPD2    N1 6881   2.249   2.214  12.991 -0.0311  0.7812  0.1426
  458MPD2    H7 6882   2.308   2.247  12.915 -1.2714 -0.2301 -1.2695
  459TMC3    C1 6883   2.457   2.137  13.101  0.3714  0.0440  0.0227
  459TMC3    C2 6884   2.526   2.188  12.991  1.2193 -0.0578 -0.1287
  459TMC3    C3 6885   2.659   2.183  12.999  0.2327 -0.0425 -0.2346
  459TMC3    C4 6886   2.514   2.084  13.212  0.3755  0.3281 -0.1665
  459TMC3    C5 6887   2.650   2.071  13.211  0.4777 -0.1921  0.4112
  459TMC3    C6 6888   2.722   2.117  13.103 -0.8937  0.2416 -0.4424
  459TMC3     C 6889   2.310   2.161  13.106  0.1914  0.4520 -0.1297
  459TMC3     O 6890   2.262   2.143  13.219 -1.3181  0.2673 -0.1871
  459TMC3     H 6891   2.473   2.251  12.921 -0.2467 -0.5345  0.5612
  459TMC3    H1 6892   2.457   2.021  13.279 -1.3068 -0.8625 -2.7088
  459TMC3    H2 6893   2.830   2.124  13.108 -0.8711 -0.7357  0.4057
  459TMC3    C7 6894   2.715   1.993  13.310 -0.1224  0.0950  0.0672
  459TMC3    C8 6895   2.738   2.216  12.880 -0.1932  0.6796  0.0010
  459TMC3    O1 6896   2.649   1.907  13.362 -0.8550 -0.1929  0.3031
  459TMC3    O2 6897   2.854   2.178  12.889 -0.9255 -0.2845 -0.3337
  460MPD2     C 6898   1.402   4.564  10.741  0.4866 -0.5546 -1.0450
  460MPD2    C1 6899   1.508   4.534  10.666 -0.2288  0.1268  0.2869
  460MPD2    C2 6900   1.505   4.590  10.537 -0.2741  0.1488  0.5872
  460MPD2    C3 6901   1.401   4.674  10.491 -0.2942  0.0484 -0.5484
  460MPD2    C4 6902   1.302   4.702  10.575  0.4990  0.1591 -0.0360
  460MPD2    C5 6903   1.297   4.641  10.695 -0.4285 -0.2988 -0.1453
  460MPD2     H 6904   1.585   4.563  10.469 -1.9869 -2.4683 -0.4198
  460MPD2    H1 6905   1.210   0.014  10.552  1.0278  1.3244  0.5745
  460MPD2    H2 6906   1.394   4.504  10.830 -1.6913  2.7553  0.9707
  460MPD2    H3 6907   1.207   4.648  10.755  0.5793  0.0286  1.3476
  460MPD2     N 6908   1.419   4.729  10.360 -0.0317 -0.3327 -0.2166
  460MPD2    H5 6909   1.504   4.712  10.307 -1.2141  0.1980 -2.2756
  460MPD2    N1 6910   1.602   4.446  10.715 -0.2574  0.0803 -0.3020
  460MPD2    H7 6911   1.601   4.413  10.811  4.3034 -2.7840 -1.2335
  461TMC3    C1 6912   1.358   0.150  10.188 -0.6764  0.2971 -0.3280
  461TMC3    C2 6913   1.417   0.073  10.084  0.1121 -0.8278 -0.7069
  461TMC3    C3 6914   1.368   0.093   9.962 -0.4318  0.9530  0.4058
  461TMC3    C4 6915   1.264   0.246  10.167 -0.0983  1.0285  0.4841
  461TMC3    C5 6916   1.201   0.248  10.050  0.4860  0.3059 -0.0977
  461TMC3    C6 6917   1.260   0.179   9.946 -0.5129  0.5989  0.6561
  461TMC3     C 6918   1.327   0.075  10.311 -0.3103  0.0511  0.4420
  461TMC3     O 6919   1.214   0.120  10.350 -0.0106 -0.3879 -0.1738
  461TMC3     H 6920   1.479   4.729  10.110 -0.6251 -0.8193  1.0215
  461TMC3    H1 6921   1.238   0.321  10.241 -3.0243  0.2925  0.1759
  461TMC3    H2 6922   1.227   0.192   9.844  2.8271  0.0824 -0.4841
  461TMC3    C7 6923   1.102   0.347  10.012  0.7601  0.4561  0.1756
  461TMC3    C8 6924   1.432   0.033   9.838 -0.8684 -0.5335  0.1145
  461TMC3    O1 6925   1.081   0.368   9.892  0.0631  0.2481  0.0145
  461TMC3    O2 6926   1.378   0.044   9.725  0.0920  0.1691  0.3785
  462TMC3    C1 6927   1.512   1.395   0.557  0.1291 -0.7455  0.6376
  462TMC3    C2 6928   1.575   1.485   0.470  0.1893 -0.2090 -0.9736
  462TMC3    C3 6929   1.584   1.458   0.335  0.1208  0.1950  0.0465
  462TMC3    C4 6930   1.456   1.281   0.504 -0.9354  0.2120 -0.2152
  462TMC3    C5 6931   1.452   1.274   0.362 -0.6808 -0.0433  0.2364
  462TMC3    C6 6932   1.529   1.351   0.282 -0.3622  0.3617  0.1450
  462TMC3     C 6933   1.459   1.434   0.685 -0.2576 -0.5217  0.7622
  462TMC3     O 6934   1.346   1.397   0.713 -0.1773 -0.6148  0.1292
  462TMC3     H 6935   1.609   1.582   0.503 -1.0637 -0.2475  0.4321
  462TMC3    H1 6936   1.410   1.203   0.563  0.9474 -1.6693 -1.1804
  462TMC3    H2 6937   1.510   1.363   0.176 -0.0483 -0.5460 -0.0117
  462TMC3    C7 6938   1.406   1.147   0.306 -0.3580 -0.4817  0.0192
  462TMC3    C8 6939   1.673   1.543   0.266 -0.4178  0.3412  0.0324
  462TMC3    O1 6940   1.398   1.054   0.385  0.5004 -0.4028  0.6085
  462TMC3    O2 6941   1.684   1.661   0.292 -0.4234 -0.1990  0.2552
  463MPD2     C 6942   2.389   4.053   2.003 -0.1189  0.3019  0.2905
  463MPD2    C1 6943   2.297   4.102   1.909 -0.1486 -0.0805 -0.5631
  463MPD2    C2 6944   2.316   4.232   1.854 -0.2583 -1.1407  0.3122
  463MPD2    C3 6945   2.435   4.303   1.875  0.1186 -0.5401 -0.4690
  463MPD2    C4 6946   2.518   4.251   1.974  0.1670 -0.2267  0.2340
  463MPD2    C5 6947   2.497   4.126   2.029 -0.7093  0.3216  0.1975
  463MPD2     H 6948   2.238   4.265   1.786  0.4610  0.9259  0.4855
  463MPD2    H1 6949   2.616   4.290   1.999 -0.2804  0.3415  1.1103
  463MPD2    H2 6950   2.371   3.955   2.046 -0.2923  0.5140  0.7011
  463MPD2    H3 6951   2.576   4.085   2.091 -0.0809 -1.1459 -1.5846
  463MPD2     N 6952   2.477   4.423   1.808  0.2526  0.4217 -0.3915
  463MPD2    H5 6953   2.556   4.474   1.847  0.9027 -0.7625 -0.1670
  463MPD2    N1 6954   2.179   4.029   1.867 -0.5410  0.1632 -0.1200
  463MPD2    H7 6955   2.118   4.075   1.800 -1.0971 -0.6021 -0.1323
  464TMC3    C1 6956   2.020   3.857   1.878 -0.7034  0.8029 -0.8920
  464TMC3    C2 6957   1.927   3.955   1.848 -0.1965 -0.1700  0.5295
  464TMC3    C3 6958   1.824   3.931   1.759 -0.5264  0.4328  0.6218
  464TMC3    C4 6959   1.995   3.728   1.823 -0.4999 -0.2943  0.2912
  464TMC3    C5 6960   1.892   3.707   1.731 -0.0561  0.0048  1.0319
  464TMC3    C6 6961   1.806   3.804   1.703 -0.1620 -0.1738  0.3861
  464TMC3     C 6962   2.153   3.900   1.909 -0.0677 -0.1530 -0.2322
  464TMC3     O 6963   2.231   3.819   1.951  0.0478 -0.3352  0.0210
  464TMC3     H 6964   1.935   4.058   1.882  2.5085  0.3272 -1.5671
  464TMC3    H1 6965   2.068   3.653   1.850 -1.5455 -1.2905  0.3502
  464TMC3    H2 6966   1.730   3.780   1.630  0.6940 -1.0260 -0.2268
  464TMC3    C7 6967   1.896   3.577   1.663  0.2858 -0.0847  0.7746
  464TMC3    C8 6968   1.716   4.026   1.738  0.0188  0.0399  0.3977
  464TMC3    O1 6969   2.000   3.511   1.667  0.6472 -0.0546  0.9751
  464TMC3    O2 6970   1.646   3.999   1.639 -0.5855  0.5522  0.5417
  465MPD2     C 6971   3.792   3.410  16.526 -0.2960 -1.0905 -0.2688
  465MPD2    C1 6972   3.715   3.334  16.607 -0.9479  0.3542 -0.2488
  465MPD2    C2 6973   3.591   3.299  16.558  0.4115 -0.4034 -0.2540
  465MPD2    C3 6974   3.542   3.338  16.437 -0.5556  0.0234  0.2019
  465MPD2    C4 6975   3.619   3.421  16.366  0.4703  0.7901 -0.5372
  465MPD2    C5 6976   3.746   3.460  16.409  0.5800  0.8560  0.0326
  465MPD2     H 6977   3.538   3.225  16.616 -0.3017 -0.0196 -0.4264
  465MPD2    H1 6978   3.590   3.450  16.266 -1.8313  0.0287 -0.0763
  465MPD2    H2 6979   3.890   3.449  16.549 -1.0269 -0.1449  1.2932
  465MPD2    H3 6980   3.812   3.516  16.344  1.5092 -2.0855 -1.5711
  465MPD2     N 6981   3.422   3.287  16.388  0.5331  0.0548  0.2759
  465MPD2    H5 6982   3.370   3.224  16.449  2.0548  0.3452  1.8796
  465MPD2    N1 6983   3.743   3.287  16.739  0.1436  0.2277 -0.6176
  465MPD2    H7 6984   3.682   3.217  16.778 -0.8880  0.7029 -1.3960
  466TMC3    C1 6985   3.125   3.040  16.284  0.7668 -0.4090 -0.4779
  466TMC3    C2 6986   3.026   3.094  16.210 -0.0696  0.6552 -0.4088
  466TMC3    C3 6987   3.056   3.211  16.139  0.1919  0.2901  0.3616
  466TMC3    C4 6988   3.234   3.112  16.310 -0.0169  0.2239  0.0426
  466TMC3    C5 6989   3.258   3.224  16.236  0.1492  0.2321  0.2377
  466TMC3    C6 6990   3.172   3.275  16.155  0.2126  0.4046 -0.1138
  466TMC3     C 6991   3.071   2.987  16.414  0.0552 -0.1248 -0.1625
  466TMC3     O 6992   3.041   3.066  16.501 -0.0459 -0.7581 -0.4247
  466TMC3     H 6993   2.928   3.047  16.212  1.1435 -1.9034 -0.4039
  466TMC3    H1 6994   3.306   3.071  16.380  0.9839 -0.0889 -1.1795
  466TMC3    H2 6995   3.190   3.370  16.107  0.5289  0.1056 -0.5855
  466TMC3    C7 6996   3.363   3.319  16.266  0.2612 -0.3321  0.6332
  466TMC3    C8 6997   2.949   3.290  16.090  0.4462 -0.1478 -0.0465
  466TMC3    O1 6998   3.395   3.408  16.190 -0.3697 -0.1388  0.5841
  466TMC3    O2 6999   2.943   3.302  15.969 -0.2520 -0.5293 -0.3483
  467TMC3    C1 7000   4.638   1.839  13.623  0.5030  0.1810 -0.2256
  467TMC3    C2 7001   4.640   1.902  13.498 -0.1096 -0.1753 -0.2910
  467TMC3    C3 7002   4.518   1.911  13.439 -0.1443  0.0626 -0.6527
  467TMC3    C4 7003   4.535   1.761  13.666  0.4450  0.4463 -0.2415
  467TMC3    C5 7004   4.421   1.770  13.591 -0.5052 -0.0204 -0.3821
  467TMC3    C6 7005   4.403   1.849  13.481  0.0937  0.2737 -0.0065
  467TMC3     C 7006   0.014   1.840  13.706 -0.2956 -0.3893 -0.6288
  467TMC3     O 7007   0.120   1.865  13.650  0.4321 -0.2594 -0.5761
  467TMC3     H 7008   4.719   1.973  13.479 -2.0258  1.2198 -2.9375
  467TMC3    H1 7009   4.537   1.701  13.756 -0.1824  1.5783  0.5149
  467TMC3    H2 7010   4.308   1.849  13.430  0.3976 -0.0905 -0.5785
  467TMC3    C7 7011   4.315   1.675  13.624  0.3171 -0.2449  0.4304
  467TMC3    C8 7012   4.508   1.980  13.315 -0.6935 -0.6932  0.0212
  467TMC3    O1 7013   4.242   1.642  13.529  0.1464  0.1273  0.6646
  467TMC3    O2 7014   4.405   2.033  13.280 -0.3659  0.5170  0.3830
  468MPD2     C 7015   3.957   4.048  10.455  0.0005 -0.1785  0.6607
  468MPD2    C1 7016   3.943   4.021  10.596  0.6003 -0.2542  0.4316
  468MPD2    C2 7017   3.923   3.891  10.641  0.1117 -0.2322  0.1423
  468MPD2    C3 7018   3.878   3.808  10.542 -0.1220 -1.0727 -0.0757
  468MPD2    C4 7019   3.893   3.828  10.407  0.1565  0.0719  0.3623
  468MPD2    C5 7020   3.945   3.945  10.364 -0.7136 -0.5297  0.1010
  468MPD2     H 7021   3.924   3.864  10.746  1.2583  0.3797  0.2910
  468MPD2    H1 7022   3.869   3.753  10.334  2.5132  0.4988 -0.8527
  468MPD2    H2 7023   3.980   4.145  10.414  0.9872  0.1651  2.0168
  468MPD2    H3 7024   3.957   3.959  10.258  3.5803  1.9797  0.9480
  468MPD2     N 7025   3.809   3.689  10.574  0.2544  0.3274  0.4289
  468MPD2    H5 7026   3.790   3.625  10.498  0.2329 -0.0146  0.7214
  468MPD2    N1 7027   3.957   4.114  10.703  0.7566  0.2670 -0.1708
  468MPD2    H7 7028   3.942   4.072  10.795  0.9535  1.9830  0.6487
  469TMC3    C1 7029   4.000   4.319  10.810  0.2382  0.6247  0.1021
  469TMC3    C2 7030   4.031   4.243  10.921  0.3188 -0.6035 -0.3432
  469TMC3    C3 7031   4.038   4.318  11.033 -0.4740 -0.6043  0.9218
  469TMC3    C4 7032   3.973   4.448  10.805 -0.1394 -0.5488  0.0771
  469TMC3    C5 7033   3.977   4.515  10.924 -0.5112 -0.3212  0.0273
  469TMC3    C6 7034   4.008   4.456  11.044 -0.1225 -0.0338  0.1997
  469TMC3     C 7035   3.969   4.248  10.687 -0.3669 -0.3246 -0.3157
  469TMC3     O 7036   3.963   4.316  10.581  0.4239 -0.5042 -0.0403
  469TMC3     H 7037   4.064   4.140  10.913 -1.3133 -1.1597 -0.0115
  469TMC3    H1 7038   3.941   4.496  10.713  1.6647 -1.6239 -1.0944
  469TMC3    H2 7039   4.006   4.511  11.138  1.2364  2.2043 -1.0722
  469TMC3    C7 7040   3.911   4.647  10.932 -0.1639  0.5712 -0.6293
  469TMC3    C8 7041   4.131   4.268  11.136  0.4336  0.3266  0.6062
  469TMC3    O1 7042   3.819   4.669  10.853 -0.2621  0.1968 -0.1015
  469TMC3    O2 7043   4.147   4.148  11.132 -0.4504  0.4136  0.2034
  470TMC3    C1 7044   0.870   0.423   0.369  0.6359  0.6082  0.4892
  470TMC3    C2 7045   0.939   0.518   0.446  1.1004  0.1047 -0.0714
  470TMC3    C3 7046   0.914   0.528   0.580 -0.2239 -0.5221  0.1914
  470TMC3    C4 7047   0.781   0.335   0.426 -0.0688  0.6681  0.4210
  470TMC3    C5 7048   0.750   0.356   0.559  0.5780  0.2753  0.4096
  470TMC3    C6 7049   0.824   0.447   0.639 -0.8246 -0.1355 -0.1664
  470TMC3     C 7050   0.914   0.408   0.232  0.4957  0.3083 -0.4106
  470TMC3     O 7051   0.985   0.499   0.193  0.0333 -0.2949  0.1208
  470TMC3     H 7052   1.017   0.578   0.400 -0.4480  2.0174 -0.2006
  470TMC3    H1 7053   0.710   0.279   0.366 -0.2609 -1.2730  2.4545
  470TMC3    H2 7054   0.776   0.472   0.733 -1.6449  0.1855 -0.6656
  470TMC3    C7 7055   0.631   0.280   0.618  0.3654 -0.3146  0.1946
  470TMC3    C8 7056   0.926   0.666   0.636 -0.2051  0.3596 -0.5856
  470TMC3    O1 7057   0.561   0.216   0.542  0.5671 -0.0002 -0.3724
  470TMC3    O2 7058   0.880   0.692   0.749 -0.0866  0.6616 -0.0491
  471MPD2     C 7059   0.886   2.048  16.515  0.0183  0.2582 -0.3782
  471MPD2    C1 7060   0.931   1.921  16.485 -0.0998 -0.1477 -0.7480
  471MPD2    C2 7061   1.032   1.865  16.562  0.3806  0.0832 -0.1464
  471MPD2    C3 7062   1.076   1.934  16.670 -0.2894 -0.2279  0.0834
  471MPD2    C4 7063   1.016   2.048  16.720  0.0183  0.0647  0.7723
  471MPD2    C5 7064   0.922   2.103  16.639  0.2671 -0.1693 -0.1080
  471MPD2     H 7065   1.077   1.770  16.536 -0.1006 -0.9731  2.9549
  471MPD2    H1 7066   1.050   2.101  16.808  0.0806 -0.8946  1.3259
  471MPD2    H2 7067   0.806   2.098  16.462  1.4985 -0.1351 -2.9818
  471MPD2    H3 7068   0.872   2.193  16.674  3.1314 -0.3675  4.4624
  471MPD2     N 7069   1.190   1.879  16.736 -0.2743  0.2643 -0.2801
  471MPD2    H5 7070   1.208   1.782  16.713 -0.7094 -0.0989  0.8871
  471MPD2    N1 7071   0.900   1.849  16.370  0.5919 -0.4630 -0.1658
  471MPD2    H7 7072   0.940   1.758  16.353 -0.2496 -0.8753  0.0714
  472TMC3    C1 7073   0.818   1.815  16.147  0.0678 -0.1985 -0.2565
  472TMC3    C2 7074   0.704   1.810  16.078  0.0029 -0.1462  1.0523
  472TMC3    C3 7075   0.688   1.699  16.003 -0.9430 -0.2635  0.4897
  472TMC3    C4 7076   0.915   1.721  16.138 -0.1125  0.2829  0.0873
  472TMC3    C5 7077   0.903   1.608  16.056 -0.2839  0.0544  0.0058
  472TMC3    C6 7078   0.783   1.597  15.988  0.0253  0.0175 -0.0613
  472TMC3     C 7079   0.818   1.905  16.272  0.9576 -0.5424 -0.1454
  472TMC3     O 7080   0.727   1.988  16.277  1.0867 -0.5626 -0.0839
  472TMC3     H 7081   0.617   1.871  16.097  0.0174 -0.2483  1.4507
  472TMC3    H1 7082   1.009   1.727  16.191 -0.8122  2.3315  1.0964
  472TMC3    H2 7083   0.757   1.516  15.921 -3.1801 -0.0550  1.2549
  472TMC3    C7 7084   0.983   1.487  16.085 -1.4858  0.0867 -0.4534
  472TMC3    C8 7085   0.549   1.661  15.991 -0.2404  0.3601  0.2602
  472TMC3    O1 7086   1.022   1.474  16.202  0.1972 -1.3305 -0.4433
  472TMC3    O2 7087   0.484   1.733  15.917 -0.1886  0.2777  0.4110
  473MPD2     C 7088   1.600   3.834  14.110  0.1550 -0.1797 -0.3853
  473MPD2    C1 7089   1.566   3.938  14.032 -0.3471  0.1887  0.1570
  473MPD2    C2 7090   1.554   4.063  14.086 -0.2452  0.0309  0.3900
  473MPD2    C3 7091   1.590   4.077  14.220 -0.6658 -0.0382  0.9950
  473MPD2    C4 7092   1.624   3.970  14.296 -0.1230 -0.0946  0.1552
  473MPD2    C5 7093   1.622   3.847  14.247  0.4026  0.2158  0.1384
  473MPD2     H 7094   1.522   4.146  14.024  0.5826 -1.3850 -1.9439
  473MPD2    H1 7095   1.660   3.974  14.398 -1.6594  0.0145  0.6978
  473MPD2    H2 7096   1.589   3.732  14.075 -0.2054  0.3674 -1.8537
  473MPD2    H3 7097   1.641   3.763  14.313 -3.3033 -1.1518 -0.4885
  473MPD2     N 7098   1.586   4.204  14.289  0.5441  0.2944  0.5432
  473MPD2    H5 7099   1.608   4.201  14.388 -2.8888 -0.7971  1.2768
  473MPD2    N1 7100   1.543   3.921  13.893 -0.5863 -0.2939 -0.3670
  473MPD2    H7 7101   1.504   4.002  13.847  0.8390  1.2362  1.1047
  474TMC3    C1 7102   1.558   4.436  14.341 -0.1350 -0.5367  0.4954
  474TMC3    C2 7103   1.478   4.545  14.321  0.4109 -0.8163 -0.0524
  474TMC3    C3 7104   1.515   4.662  14.369  0.3280 -0.4974  0.1875
  474TMC3    C4 7105   1.680   4.449  14.394 -0.5628 -0.0899  0.1142
  474TMC3    C5 7106   1.729   4.580  14.424 -0.0712  0.2205 -0.4914
  474TMC3    C6 7107   1.643   4.689  14.420  0.0795 -0.5366  0.3747
  474TMC3     C 7108   1.539   4.327  14.246 -0.0966 -0.4776 -0.2478
  474TMC3     O 7109   1.496   4.357  14.133 -0.0224  0.5504  0.6547
  474TMC3     H 7110   1.380   4.536  14.277  0.3069 -2.9613  0.6244
  474TMC3    H1 7111   1.750   4.367  14.397 -0.3851  0.0447 -0.3675
  474TMC3    H2 7112   1.678   0.045  14.452 -1.3471  0.4440 -1.0868
  474TMC3    C7 7113   1.863   4.588  14.470  0.5129 -0.9097  0.3229
  474TMC3    C8 7114   1.408   0.020  14.370  0.3676  0.1880 -0.0557
  474TMC3    O1 7115   1.946   4.516  14.415 -0.0573  0.2497  0.3793
  474TMC3    O2 7116   1.294   4.728  14.387 -0.0330 -0.0047  0.3721
  475MPD2     C 7117   0.056   1.464  10.071 -0.2319  0.1129  0.2263
  475MPD2    C1 7118   0.038   1.600  10.089 -0.1499  0.5843 -0.1257
  475MPD2    C2 7119   4.667   1.646  10.152 -0.3886 -0.1119 -0.8073
  475MPD2    C3 7120   4.561   1.558  10.185 -0.0004 -0.0207  0.5209
  475MPD2    C4 7121   4.575   1.423  10.154 -0.2387  0.2999  0.0069
  475MPD2    C5 7122   4.699   1.377  10.105 -0.2395  0.1636 -0.6303
  475MPD2     H 7123   4.657   1.753  10.168  1.9223 -0.3507  2.1885
  475MPD2    H1 7124   4.501   1.354  10.192 -0.2293  1.1617  1.5879
  475MPD2    H2 7125   0.145   1.418  10.030 -0.4652 -1.3899  1.4043
  475MPD2    H3 7126   4.702   1.269  10.100 -2.4304  0.1527 -1.6098
  475MPD2     N 7127   4.447   1.610  10.247 -0.6634 -0.0408  0.6742
  475MPD2    H5 7128   4.461   1.705  10.281 -0.6468 -0.3575  1.5596
  475MPD2    N1 7129   0.126   1.698  10.039 -0.7233  0.5886  0.1744
  475MPD2    H7 7130   0.094   1.791  10.063 -0.0946  0.8902 -0.1561
  476TMC3    C1 7131   0.299   1.813   9.959  0.2238  0.4694 -0.3592
  476TMC3    C2 7132   0.191   1.889   9.902  0.0255  0.0385  0.7888
  476TMC3    C3 7133   0.180   2.024   9.929 -0.7838  0.6587 -0.7149
  476TMC3    C4 7134   0.389   1.874  10.037 -0.0442 -0.7099 -0.0473
  476TMC3    C5 7135   0.375   2.004  10.068 -0.1349 -0.3848 -0.1816
  476TMC3    C6 7136   0.272   2.077  10.012  0.2970  0.2214 -0.2661
  476TMC3     C 7137   0.252   1.686   9.993  0.6087 -0.3269  0.5784
  476TMC3     O 7138   0.331   1.595   9.998 -0.0898  0.3034 -0.1870
  476TMC3     H 7139   0.135   1.834   9.828 -0.5131  0.3520  0.9676
  476TMC3    H1 7140   0.468   1.809  10.073  0.5384 -0.0404 -0.1175
  476TMC3    H2 7141   0.264   2.185  10.025  2.2978  0.4961 -1.2675
  476TMC3    C7 7142   0.479   2.070  10.136 -0.2486  0.3572  0.4647
  476TMC3    C8 7143   0.043   2.078   9.929 -0.3933  0.3857 -0.3577
  476TMC3    O1 7144   0.593   2.044  10.103 -0.5739  0.5313  0.0448
  476TMC3    O2 7145   0.028   2.202   9.927  0.3013 -0.0071  0.5445
  477MPD2     C 7146   2.476   3.897  11.717 -0.3939 -0.6721 -0.3853
  477MPD2    C1 7147   2.452   3.783  11.644  0.5480  0.6965  0.3653
  477MPD2    C2 7148   2.416   3.667  11.710 -0.4505 -0.1944  0.3596
  477MPD2    C3 7149   2.396   3.660  11.850 -0.3308  0.2299  0.4556
  477MPD2    C4 7150   2.437   3.774  11.923 -0.2468  0.9381 -0.6181
  477MPD2    C5 7151   2.464   3.887  11.851 -0.2814  0.1205  0.0281
  477MPD2     H 7152   2.397   3.578  11.651 -0.0411 -1.2546  1.8161
  477MPD2    H1 7153   2.439   3.771  12.032 -0.0490  2.0983 -0.5947
  477MPD2    H2 7154   2.515   3.992  11.683  2.0259 -1.9508 -1.1283
  477MPD2    H3 7155   2.492   3.976  11.906 -0.6832  0.3947 -0.2209
  477MPD2     N 7156   2.362   3.538  11.915  0.0837  0.3056  0.3968
  477MPD2    H5 7157   2.373   3.448  11.869  0.5826  1.1466 -1.1672
  477MPD2    N1 7158   2.462   3.799  11.505  0.0274 -0.2047 -0.6784
  477MPD2    H7 7159   2.490   3.892  11.473  1.7703  0.3308  2.3724
  478TMC3    C1 7160   2.403   3.764  11.288  0.4336 -0.5790 -0.0108
  478TMC3    C2 7161   2.391   3.906  11.276 -0.3158 -0.1612  0.4859
  478TMC3    C3 7162   2.306   3.946  11.176  0.1301 -0.8396  0.2727
  478TMC3    C4 7163   2.348   3.679  11.195 -0.6120  0.3883  0.1835
  478TMC3    C5 7164   2.284   3.730  11.086  0.1740  0.0597  0.7011
  478TMC3    C6 7165   2.254   3.864  11.079  0.4809  0.3454  0.0778
  478TMC3     C 7166   2.423   3.705  11.414  0.0423 -0.3922 -0.0082
  478TMC3     O 7167   2.394   3.589  11.434  0.1908  0.1965  0.2926
  478TMC3     H 7168   2.417   3.980  11.351 -1.1638  1.2014 -0.5627
  478TMC3    H1 7169   2.356   3.571  11.199 -3.8292  0.2305  2.1729
  478TMC3    H2 7170   2.194   3.913  11.003 -1.9285 -1.3962  0.8818
  478TMC3    C7 7171   2.234   3.642  10.982  0.0717  0.3656 -0.4374
  478TMC3    C8 7172   2.258   4.075  11.195 -0.5479  0.2081  0.2329
  478TMC3    O1 7173   2.247   3.525  11.007  0.3716  0.6394  0.2254
  478TMC3    O2 7174   2.340   4.154  11.229  0.0183  0.3267  0.4654
  479MPD2     C 7175   1.178   1.573  15.027  0.3678  0.0762 -0.4967
  479MPD2    C1 7176   1.128   1.527  15.141  0.0047 -0.7881  0.3580
  479MPD2    C2 7177   1.184   1.566  15.258 -0.0318  0.0615  0.5752
  479MPD2    C3 7178   1.255   1.682  15.265 -0.3626 -0.0374  0.3109
  479MPD2    C4 7179   1.313   1.727  15.146 -0.4755  1.0247  0.6541
  479MPD2    C5 7180   1.270   1.669  15.030  0.2107 -0.4493 -0.2639
  479MPD2     H 7181   1.157   1.516  15.350 -1.7086  0.3991  0.2613
  479MPD2    H1 7182   1.395   1.798  15.142  0.0620  0.2448 -1.7055
  479MPD2    H2 7183   1.143   1.538  14.931  1.8974 -1.0993 -0.6318
  479MPD2    H3 7184   1.321   1.709  14.943  0.5197 -0.6013 -0.1546
  479MPD2     N 7185   1.280   1.752  15.386  0.5200  0.5714 -0.4082
  479MPD2    H5 7186   1.358   1.816  15.391 -0.9217  2.4685 -2.6235
  479MPD2    N1 7187   1.022   1.435  15.133 -0.7369 -0.6870  0.4519
  479MPD2    H7 7188   0.987   1.417  15.040 -0.2496  2.2249 -0.3209
  480TMC3    C1 7189   0.866   1.611  15.560  0.3578  0.0873 -0.1536
  480TMC3    C2 7190   0.801   1.636  15.444  0.1877  0.4690  0.2932
  480TMC3    C3 7191   0.870   1.703  15.341  0.8608 -0.5364 -0.0898
  480TMC3    C4 7192   0.999   1.647  15.579  0.4515  0.7323  0.1783
  480TMC3    C5 7193   1.062   1.723  15.485 -0.4406 -0.6636  0.2203
  480TMC3    C6 7194   0.991   1.761  15.372  0.3827 -0.6850  0.5078
  480TMC3     C 7195   0.821   1.506  15.642 -0.3876  0.2182 -0.3438
  480TMC3     O 7196   0.899   1.455  15.720  0.1292  0.7057  0.4507
  480TMC3     H 7197   0.698   1.606  15.425  0.8690 -0.8578 -1.2559
  480TMC3    H1 7198   1.046   1.616  15.672 -1.7176  1.6202  1.5761
  480TMC3    H2 7199   1.038   1.827  15.301 -1.8538 -1.3254 -1.5788
  480TMC3    C7 7200   1.195   1.760  15.493 -0.0790  0.5914 -0.1649
  480TMC3    C8 7201   0.800   1.718  15.213 -0.0941  0.5495  0.6779
  480TMC3    O1 7202   1.236   1.810  15.596  0.1622  0.0155 -0.6725
  480TMC3    O2 7203   0.698   1.650  15.195  0.3431 -0.4230 -0.3747
  481MPD2     C 7204   2.890   0.595  13.969 -0.1195  0.3164 -0.0831
  481MPD2    C1 7205   2.786   0.617  14.051  0.3231 -0.4046 -0.0659
  481MPD2    C2 7206   2.808   0.599  14.185 -0.7392 -0.9102  0.0464
  481MPD2    C3 7207   2.929   0.552  14.238 -0.9267 -0.3257  0.1753
  481MPD2    C4 7208   3.028   0.518  14.144 -0.8242  0.1338  0.3486
  481MPD2    C5 7209   3.005   0.535  14.012 -0.2121 -0.2381  0.4939
  481MPD2     H 7210   2.728   0.621  14.255 -0.4890 -0.7117  0.2743
  481MPD2    H1 7211   3.125   0.481  14.178  0.0207  1.7520 -0.2993
  481MPD2    H2 7212   2.884   0.613  13.863  1.6986 -0.0875 -0.2535
  481MPD2    H3 7213   3.081   0.521  13.936 -0.3627 -1.4499  0.5692
  481MPD2     N 7214   2.959   0.534  14.378 -0.0318  0.0960  0.3992
  481MPD2    H5 7215   3.049   0.495  14.402 -0.4429 -1.6975 -0.9673
  481MPD2    N1 7216   2.664   0.662  13.996  0.2161  0.2039  0.1365
  481MPD2    H7 7217   2.680   0.701  13.904 -0.2166  1.1374  0.4542
  482TMC3    C1 7218   2.449   0.730  13.976 -0.3981  0.5687 -0.1296
  482TMC3    C2 7219   2.319   0.695  14.004 -0.2917  0.5612  0.0945
  482TMC3    C3 7220   2.222   0.721  13.913 -0.7261 -0.2083  0.1365
  482TMC3    C4 7221   2.484   0.779  13.855 -0.0691  0.1690  0.9266
  482TMC3    C5 7222   2.386   0.796  13.764 -0.0572 -0.3004 -0.3350
  482TMC3    C6 7223   2.256   0.765  13.789 -0.3780  0.6945 -0.3311
  482TMC3     C 7224   2.551   0.689  14.072 -0.5268  0.0806  0.1864
  482TMC3     O 7225   2.518   0.669  14.187 -0.4919 -0.4194  0.1590
  482TMC3     H 7226   2.283   0.680  14.106  1.0010 -0.6574  0.3685
  482TMC3    H1 7227   2.586   0.811  13.839  0.3394 -0.7627  1.6776
  482TMC3    H2 7228   2.181   0.793  13.716 -0.3246  0.4916 -0.4661
  482TMC3    C7 7229   2.438   0.822  13.634  0.3755  0.1783 -0.1147
  482TMC3    C8 7230   2.101   0.634  13.923 -0.1262  0.0291  0.5265
  482TMC3    O1 7231   2.551   0.873  13.620 -0.2249 -0.6299  0.1191
  482TMC3    O2 7232   2.115   0.517  13.968  0.0936 -0.4150  0.9850
  483TMC3    C1 7233   0.479   4.552   0.162  0.2184 -0.2536 -0.1207
  483TMC3    C2 7234   0.583   4.641   0.193 -0.1022 -0.3524  0.4874
  483TMC3    C3 7235   0.620   4.644   0.326 -0.0373 -0.2323  0.0084
  483TMC3    C4 7236   0.420   4.465   0.255  0.1441  0.4917 -0.3095
  483TMC3    C5 7237   0.470   4.474   0.385 -0.7593  0.2192  1.2967
  483TMC3    C6 7238   0.561   4.565   0.423 -0.7601  0.5644 -0.4186
  483TMC3     C 7239   0.497   4.501   0.025  0.1646  0.6154  0.1492
  483TMC3     O 7240   0.555   4.565  17.706 -0.2003  0.4464  0.2164
  483TMC3     H 7241   0.615   4.717   0.123 -0.3871 -0.6757  0.0016
  483TMC3    H1 7242   0.345   4.390   0.232  2.0690 -1.1773 -1.2598
  483TMC3    H2 7243   0.584   4.564   0.529 -2.9754  1.4488  0.0749
  483TMC3    C7 7244   0.474   4.350   0.456 -0.7065 -0.1839  0.6450
  483TMC3    C8 7245   0.745   4.720   0.350  0.0897 -0.1461  0.4153
  483TMC3    O1 7246   0.571   4.324   0.522 -0.4893 -0.0376 -0.0583
  483TMC3    O2 7247   0.793   0.034   0.254  0.6089 -0.7204 -0.1180
  484MPD2     C 7248   2.676   2.434  12.588 -0.3129  0.2488  0.3389
  484MPD2    C1 7249   2.737   2.336  12.657  0.1331 -0.4460 -0.0173
  484MPD2    C2 7250   2.853   2.277  12.612  1.0966  0.3368 -0.6563
  484MPD2    C3 7251   2.913   2.325  12.498  0.0001 -0.5896  0.1268
  484MPD2    C4 7252   2.850   2.424  12.421 -0.6609 -0.5798  0.0685
  484MPD2    C5 7253   2.737   2.477  12.474  0.1549 -0.0188 -0.5067
  484MPD2     H 7254   2.884   2.184  12.659 -0.8727 -0.6079 -1.2040
  484MPD2    H1 7255   2.882   2.469  12.328  1.1519 -1.7466  0.1265
  484MPD2    H2 7256   2.586   2.490  12.613 -0.1139  0.3639  0.7902
  484MPD2    H3 7257   2.674   2.542  12.413  0.7667 -0.4920 -1.6424
  484MPD2     N 7258   3.034   2.264  12.457 -0.4023  0.4029 -0.1312
  484MPD2    H5 7259   3.068   2.183  12.509 -0.8520 -2.5665 -4.4423
  484MPD2    N1 7260   2.671   2.280  12.772  0.3206  0.2947  0.5751
  484MPD2    H7 7261   2.576   2.310  12.791  0.3008 -0.0679  1.0444
  485TMC3    C1 7262   3.223   2.235  12.324 -0.7230  0.9074 -0.2400
  485TMC3    C2 7263   3.205   2.100  12.313  0.7886  0.0252  0.2364
  485TMC3    C3 7264   3.305   2.019  12.272 -0.1522  0.6927  0.4156
  485TMC3    C4 7265   3.343   2.287  12.295 -0.0696 -0.7398 -0.3337
  485TMC3    C5 7266   3.452   2.212  12.267 -0.2007  0.2975 -0.3008
  485TMC3    C6 7267   3.428   2.074  12.262 -0.0830  0.1616  0.7324
  485TMC3     C 7268   3.121   2.325  12.375  0.6738  0.2548 -0.6297
  485TMC3     O 7269   3.129   2.443  12.335 -0.0803 -0.0565 -0.1899
  485TMC3     H 7270   3.104   2.062  12.322  0.8428 -0.1249  0.2058
  485TMC3    H1 7271   3.350   2.394  12.315  0.4439 -1.1578  1.6520
  485TMC3    H2 7272   3.511   2.005  12.250 -1.7306 -1.4717 -1.2636
  485TMC3    C7 7273   3.527   2.252  12.154  0.4029 -0.4973 -0.4945
  485TMC3    C8 7274   3.280   1.915  12.186 -0.4281 -0.0343 -0.1792
  485TMC3    O1 7275   3.533   2.166  12.065 -0.2372  0.2041 -0.1928
  485TMC3    O2 7276   3.187   1.840  12.199  0.9165 -0.0142 -0.1738
  486MPD2     C 7277   0.498   1.411  12.786 -0.1033  0.7465 -0.0955
  486MPD2    C1 7278   0.478   1.328  12.678 -0.4633  0.0503  0.0328
  486MPD2    C2 7279   0.424   1.385  12.564  1.3037 -0.7143  0.0201
  486MPD2    C3 7280   0.391   1.523  12.556  0.2832 -0.2151  0.1264
  486MPD2    C4 7281   0.429   1.609  12.656 -0.0676 -0.6222  0.3719
  486MPD2    C5 7282   0.486   1.551  12.772  0.0775 -0.0976  0.2962
  486MPD2     H 7283   0.418   1.319  12.478 -1.6500 -1.5115  0.8697
  486MPD2    H1 7284   0.408   1.715  12.656  2.6080 -0.0943 -0.0557
  486MPD2    H2 7285   0.530   1.380  12.885 -1.6112 -0.5454 -0.0288
  486MPD2    H3 7286   0.507   1.612  12.859 -0.5623 -0.0005  0.3776
  486MPD2     N 7287   0.343   1.569  12.429 -0.6739 -0.5356  0.1863
  486MPD2    H5 7288   0.301   1.509  12.358 -1.0026  0.7314 -0.6894
  486MPD2    N1 7289   0.502   1.186  12.683  0.2315 -0.0635 -0.9503
  486MPD2    H7 7290   0.482   1.130  12.601 -0.2554 -0.8502 -0.2936
  487TMC3    C1 7291   0.551   0.981  12.795 -0.2738  0.5126  0.2782
  487TMC3    C2 7292   0.425   0.930  12.782  0.1058 -0.1638  0.3506
  487TMC3    C3 7293   0.403   0.811  12.841 -0.3859  0.5503 -0.2081
  487TMC3    C4 7294   0.651   0.916  12.868 -0.1440  0.2526 -0.0646
  487TMC3    C5 7295   0.625   0.798  12.920  0.2821 -1.1031 -0.2732
  487TMC3    C6 7296   0.504   0.740  12.906 -0.6599  0.3826 -0.0684
  487TMC3     C 7297   0.567   1.122  12.790  0.7545  0.2358  0.1745
  487TMC3     O 7298   0.666   1.168  12.845 -0.0644 -0.1208 -0.2319
  487TMC3     H 7299   0.357   1.003  12.738  1.2343 -0.6353 -2.1861
  487TMC3    H1 7300   0.746   0.964  12.889 -0.2631 -0.3403  1.7914
  487TMC3    H2 7301   0.481   0.663  12.979  0.2391  0.5335  0.3894
  487TMC3    C7 7302   0.673   0.794  13.054  0.4106  0.3742 -0.6488
  487TMC3    C8 7303   0.294   0.835  12.927 -0.1133  0.0160 -0.1024
  487TMC3    O1 7304   0.658   0.893  13.125 -0.0510  0.0590  0.0945
  487TMC3    O2 7305   0.262   0.954  12.948 -0.5043  0.6154  0.1614
  488MPD2     C 7306   0.986   2.678  16.172  0.3416  0.2902  0.2182
  488MPD2    C1 7307   1.036   2.746  16.280 -0.3335  0.0494  0.7549
  488MPD2    C2 7308   1.071   2.670  16.390 -0.7492  0.1957  0.0738
  488MPD2    C3 7309   1.084   2.533  16.378 -0.4152 -0.4366 -0.2459
  488MPD2    C4 7310   1.022   2.469  16.274 -0.6636  0.4291  0.4548
  488MPD2    C5 7311   0.977   2.544  16.169  0.1469  0.3069 -0.5069
  488MPD2     H 7312   1.085   2.718  16.486  1.4479  1.2528 -0.7900
  488MPD2    H1 7313   1.019   2.361  16.265  0.8581  0.6547 -2.6583
  488MPD2    H2 7314   0.957   2.736  16.084 -0.1115 -1.3096 -0.6915
  488MPD2    H3 7315   0.921   2.491  16.094 -1.5606 -1.3838  1.9619
  488MPD2     N 7316   1.140   2.472  16.492 -0.1298 -0.0406  0.1975
  488MPD2    H5 7317   1.184   2.527  16.565  0.0639 -1.3218  1.0473
  488MPD2    N1 7318   1.066   2.890  16.282  0.0371 -0.6528 -0.2583
  488MPD2    H7 7319   1.130   2.924  16.354 -0.2527  0.5012 -0.5436
  489TMC3    C1 7320   1.224   2.314  16.630 -0.1038  0.8041  0.7364
  489TMC3    C2 7321   1.251   2.414  16.723  0.3081  0.7276 -0.6831
  489TMC3    C3 7322   1.368   2.415  16.797 -0.2818  0.4850  0.1769
  489TMC3    C4 7323   1.313   2.209  16.623  0.5831  0.1405  0.1956
  489TMC3    C5 7324   1.434   2.218  16.696 -0.0239  0.5890  0.3428
  489TMC3    C6 7325   1.463   2.320  16.781  0.4144 -0.0149  0.4240
  489TMC3     C 7326   1.149   2.341  16.505 -0.2015 -0.2282 -0.1447
  489TMC3     O 7327   1.138   2.254  16.423 -0.4354 -0.4207 -0.4363
  489TMC3     H 7328   1.180   2.495  16.734 -0.5052  0.1226 -1.3439
  489TMC3    H1 7329   1.303   2.131  16.549  1.1837  1.9490 -1.8081
  489TMC3    H2 7330   1.562   2.339  16.823  0.9053 -1.2051 -0.2146
  489TMC3    C7 7331   1.530   2.115  16.703  0.1853  0.3203 -0.3601
  489TMC3    C8 7332   1.408   2.540  16.858 -0.5177  0.2733  0.4167
  489TMC3    O1 7333   1.612   2.112  16.796 -0.2311  0.3866 -0.3822
  489TMC3    O2 7334   1.522   2.565  16.888 -0.2954 -0.4938 -0.2767
  490MPD2     C 7335   1.528   2.411  17.180 -0.3623 -0.2304 -0.0367
  490MPD2    C1 7336   1.484   2.367  17.301 -0.6523  0.6462 -0.4714
  490MPD2    C2 7337   1.557   2.389  17.407 -0.2821  0.4955  0.5444
  490MPD2    C3 7338   1.688   2.448  17.393  0.4616  0.2127  0.9318
  490MPD2    C4 7339   1.734   2.483  17.263 -0.2472  0.6355  0.5209
  490MPD2    C5 7340   1.649   2.474  17.155 -0.5867  0.0695  0.2690
  490MPD2     H 7341   1.530   2.355  17.506  1.4030 -0.3572  0.7045
  490MPD2    H1 7342   1.836   2.519  17.254 -0.2271 -0.1081 -2.0732
  490MPD2    H2 7343   1.472   2.386  17.090 -0.5068 -0.9891  0.2638
  490MPD2    H3 7344   1.676   2.507  17.055  0.7812 -0.5231  0.4490
  490MPD2     N 7345   1.781   2.450  17.500  0.0266  0.1284  0.7338
  490MPD2    H5 7346   1.874   2.480  17.471  0.1381 -0.0724  0.8817
  490MPD2    N1 7347   1.358   2.310  17.319  0.0645 -0.0829 -0.1410
  490MPD2    H7 7348   1.353   2.284  17.417 -3.9320  2.1757  0.2532
  491TMC3    C1 7349   1.180   2.169  17.256 -0.1261 -0.3231  0.1314
  491TMC3    C2 7350   1.196   2.097  17.365  0.0393 -0.4341  0.5156
  491TMC3    C3 7351   1.124   1.988  17.391  0.5934 -0.2119 -0.4036
  491TMC3    C4 7352   1.079   2.133  17.171 -0.4443 -0.2522  0.0196
  491TMC3    C5 7353   0.997   2.030  17.201  0.2130 -0.7450 -0.1313
  491TMC3    C6 7354   1.025   1.947  17.307 -1.0170  0.2295  0.4089
  491TMC3     C 7355   1.263   2.281  17.221  0.3186  0.5803  0.0834
  491TMC3     O 7356   1.254   2.317  17.106 -0.5779  0.2487  0.3234
  491TMC3     H 7357   1.276   2.122  17.435 -0.0622 -0.8754  0.7861
  491TMC3    H1 7358   1.057   2.192  17.083 -1.8461  2.1795  2.0043
  491TMC3    H2 7359   0.950   1.869  17.316 -0.3303 -0.6621 -1.6574
  491TMC3    C7 7360   0.886   2.006  17.111  0.5510 -0.3260 -0.3704
  491TMC3    C8 7361   1.151   1.901  17.506 -0.8281  0.9421 -0.3071
  491TMC3    O1 7362   0.863   1.890  17.075 -0.6052  0.2093 -0.0049
  491TMC3    O2 7363   1.051   1.860  17.564  0.4279 -0.7104  0.8457
  492MPD2     C 7364   1.768   2.405  11.572  0.2148  0.0651 -0.0774
  492MPD2    C1 7365   1.717   2.287  11.518 -0.0257 -0.5328  0.2074
  492MPD2    C2 7366   1.619   2.212  11.583 -0.0054  0.2245  0.7174
  492MPD2    C3 7367   1.564   2.261  11.701  0.2462  0.2203 -0.2924
  492MPD2    C4 7368   1.614   2.385  11.755 -0.0938 -0.6372 -0.5508
  492MPD2    C5 7369   1.719   2.452  11.690  0.5624  0.1030  0.2700
  492MPD2     H 7370   1.573   2.123  11.540 -0.5556  1.0309 -0.3624
  492MPD2    H1 7371   1.595   2.417  11.856  0.1062  1.5312 -1.2030
  492MPD2    H2 7372   1.847   2.462  11.525  0.3220 -0.4089 -0.4755
  492MPD2    H3 7373   1.757   2.540  11.740 -2.6954  1.9463 -0.5160
  492MPD2     N 7374   1.451   2.203  11.763 -0.0611 -0.0380 -0.0414
  492MPD2    H5 7375   1.400   2.259  11.831 -1.9659 -1.6285 -0.1631
  492MPD2    N1 7376   1.769   2.245  11.394  0.6230 -0.4729 -0.3964
  492MPD2    H7 7377   1.833   2.311  11.351 -1.2099  0.1509 -2.1141
  493TMC3    C1 7378   1.769   2.127  11.178 -0.0864 -0.2717  1.0193
  493TMC3    C2 7379   1.893   2.179  11.150 -0.1926  0.6255  0.0359
  493TMC3    C3 7380   1.920   2.203  11.019  0.4659  0.5320 -0.5621
  493TMC3    C4 7381   1.682   2.086  11.080  0.0535 -0.3035  0.4719
  493TMC3    C5 7382   1.726   2.112  10.949  0.5716 -0.8013  0.7156
  493TMC3    C6 7383   1.838   2.174  10.918  0.3089 -0.3475  0.1934
  493TMC3     C 7384   1.714   2.144  11.311 -0.1413  0.3691 -0.7779
  493TMC3     O 7385   1.619   2.074  11.330  0.0732 -0.1101 -0.3137
  493TMC3     H 7386   1.961   2.207  11.230  0.4718  1.2003 -0.7390
  493TMC3    H1 7387   1.577   2.072  11.100  0.1337  0.6229  1.5385
  493TMC3    H2 7388   1.858   2.204  10.815  0.9765 -0.3080  0.3367
  493TMC3    C7 7389   1.647   2.047  10.839 -0.6730 -0.2592  0.2496
  493TMC3    C8 7390   2.053   2.262  11.001 -0.0526 -0.3684  0.6977
  493TMC3    O1 7391   1.674   2.079  10.723 -0.2929 -0.1712  0.3578
  493TMC3    O2 7392   2.142   2.225  11.080  0.0593 -0.2897  0.0310
  494TMC3    C1 7393   1.749   4.500   0.383 -0.4636  0.0582  0.4888
  494TMC3    C2 7394   1.705   4.367   0.358 -0.1757 -0.5567  0.1881
  494TMC3    C3 7395   1.781   4.287   0.284 -0.4524  0.5342  0.1533
  494TMC3    C4 7396   1.868   4.544   0.318 -0.6318  1.0025  0.8810
  494TMC3    C5 7397   1.937   4.454   0.239 -0.2829  0.4304 -0.4991
  494TMC3    C6 7398   1.887   4.323   0.209 -0.2087  0.0826 -0.1071
  494TMC3     C 7399   1.735   4.541   0.523 -1.1248  0.2843  0.0797
  494TMC3     O 7400   1.621   4.550   0.563  0.0611 -0.0457 -0.2748
  494TMC3     H 7401   1.622   4.333   0.420  0.1068 -0.6610  0.5097
  494TMC3    H1 7402   1.916   4.639   0.338  0.7983  0.5364 -0.3284
  494TMC3    H2 7403   1.942   4.259   0.141 -2.4968  0.9067 -2.7226
  494TMC3    C7 7404   2.049   4.497   0.153  0.2107 -0.3507  0.4748
  494TMC3    C8 7405   1.787   4.150   0.330  0.0483  0.6152  0.1499
  494TMC3    O1 7406   2.061   4.438   0.046  0.1796  0.0786  0.0052
  494TMC3    O2 7407   1.753   4.135   0.447 -0.1591 -0.2568  0.3175
  495TMC3    C1 7408   1.337   1.841  14.522  0.2448  0.2100  0.5721
  495TMC3    C2 7409   1.284   1.887  14.406 -0.0426  0.4031 -0.1532
  495TMC3    C3 7410   1.203   2.002  14.414 -0.2007  0.2485  0.3287
  495TMC3    C4 7411   1.336   1.910  14.640 -0.2944  0.2282  0.8430
  495TMC3    C5 7412   1.256   2.022  14.650 -0.7537  0.6561 -0.1086
  495TMC3    C6 7413   1.188   2.060  14.529 -0.0035  0.1809 -0.8831
  495TMC3     C 7414   1.330   1.698  14.534 -1.3680  0.3355  0.3499
  495TMC3     O 7415   1.263   1.645  14.447  0.1019 -0.3856  0.3993
  495TMC3     H 7416   1.298   1.824  14.319  2.8352  0.7608  0.0576
  495TMC3    H1 7417   1.372   1.862  14.730 -2.4471 -2.3352  0.3255
  495TMC3    H2 7418   1.115   2.139  14.540  0.2298  0.7845 -3.7998
  495TMC3    C7 7419   1.163   1.998  14.767  0.4343 -0.0230  0.2888
  495TMC3    C8 7420   1.076   1.968  14.358  0.1985 -0.1276  0.2045
  495TMC3    O1 7421   1.220   1.983  14.875 -0.3125 -0.0553  0.6227
  495TMC3    O2 7422   0.979   1.988  14.434  0.3703 -0.0917 -0.3631
  496MPD2     C 7423   2.484   1.396  14.869 -0.0744 -0.2058 -0.3732
  496MPD2    C1 7424   2.537   1.439  14.987 -0.1164 -0.2279 -0.1012
  496MPD2    C2 7425   2.450   1.456  15.096  0.3030  0.0180 -0.1145
  496MPD2    C3 7426   2.324   1.404  15.093 -0.8313 -0.1560  0.1307
  496MPD2    C4 7427   2.282   1.335  14.985  0.2855  0.7021 -0.2714
  496MPD2    C5 7428   2.356   1.341  14.872 -1.1912 -0.0802  0.5337
  496MPD2     H 7429   2.493   1.508  15.181  2.1127 -1.2473 -0.2660
  496MPD2    H1 7430   2.182   1.293  14.978  1.4483 -1.6435 -3.0554
  496MPD2    H2 7431   2.544   1.382  14.779 -0.3289 -4.9166  0.1969
  496MPD2    H3 7432   2.310   1.284  14.792  0.1065  1.7309 -1.5117
  496MPD2     N 7433   2.229   1.418  15.202 -0.5619 -0.4339 -0.4144
  496MPD2    H5 7434   2.148   1.356  15.199 -0.1470 -0.9755 -0.5163
  496MPD2    N1 7435   2.672   1.476  14.992  0.4869 -0.5415  0.1730
  496MPD2    H7 7436   2.723   1.479  14.904  2.7015  4.3303  1.6032
  497TMC3    C1 7437   2.141   1.472  15.401  0.3884 -0.0708 -0.0158
  497TMC3    C2 7438   2.021   1.440  15.346 -0.2635  0.4058 -0.0853
  497TMC3    C3 7439   1.946   1.353  15.419 -0.4458 -0.2563  0.7379
  497TMC3    C4 7440   2.184   1.427  15.520  0.7827  0.3167  0.1742
  497TMC3    C5 7441   2.104   1.335  15.586  0.3289 -1.3024 -0.5527
  497TMC3    C6 7442   1.987   1.296  15.531  0.6568 -0.1821 -0.1062
  497TMC3     C 7443   2.246   1.492  15.309  0.3839 -0.1588 -0.2281
  497TMC3     O 7444   2.340   1.559  15.341 -0.4771  0.0874 -0.3751
  497TMC3     H 7445   1.994   1.472  15.246 -0.2204 -3.5104 -1.3290
  497TMC3    H1 7446   2.288   1.443  15.546  1.0525 -0.6391 -0.3014
  497TMC3    H2 7447   1.929   1.226  15.590 -1.2736  0.4404 -1.2323
  497TMC3    C7 7448   2.156   1.248  15.689  0.5636  0.2312 -0.1901
  497TMC3    C8 7449   1.835   1.300  15.349 -0.3430  0.2191 -0.0815
  497TMC3    O1 7450   2.100   1.144  15.715  0.1438 -0.4680  0.3762
  497TMC3    O2 7451   1.856   1.265  15.234  0.3799  1.0175  0.7228
  498MPD2     C 7452   3.608   2.248   9.655 -0.0183 -0.0098  0.4555
  498MPD2    C1 7453   3.668   2.139   9.715 -0.2862 -0.0159 -0.8636
  498MPD2    C2 7454   3.592   2.034   9.771  0.1247  0.4171  0.1780
  498MPD2    C3 7455   3.454   2.036   9.761 -0.3087  0.4197  0.7571
  498MPD2    C4 7456   3.393   2.149   9.697  0.0742  0.0917  0.0910
  498MPD2    C5 7457   3.470   2.248   9.641 -0.2197 -0.8084 -0.2184
  498MPD2     H 7458   3.630   1.943   9.815  0.2631 -0.1233 -1.0718
  498MPD2    H1 7459   3.287   2.169   9.698  0.0227 -0.1778  0.0141
  498MPD2    H2 7460   3.670   2.323   9.609 -1.7220  0.3737 -1.1865
  498MPD2    H3 7461   3.416   2.336   9.608 -1.1237 -0.1778  3.0153
  498MPD2     N 7462   3.383   1.934   9.815  0.0094  0.4202 -0.4777
  498MPD2    H5 7463   3.435   1.864   9.867 -0.3372  0.9316  0.5475
  498MPD2    N1 7464   3.810   2.134   9.729  0.3180  0.1260 -0.1064
  498MPD2    H7 7465   3.861   2.047   9.727 -1.1292 -0.7644  1.8732
  499TMC3    C1 7466   4.019   2.224   9.722 -0.0553  0.2979  0.2845
  499TMC3    C2 7467   4.078   2.098   9.704  0.8530 -0.4546  0.1452
  499TMC3    C3 7468   4.206   2.088   9.662  0.2910 -0.1823  0.3545
  499TMC3    C4 7469   4.093   2.338   9.698  0.0258  0.3049 -0.1685
  499TMC3    C5 7470   4.223   2.320   9.645  0.6423 -0.0029  0.1628
  499TMC3    C6 7471   4.279   2.198   9.618 -0.1707  0.7072 -0.7219
  499TMC3     C 7472   3.881   2.248   9.743 -0.3338  0.5043  0.1933
  499TMC3     O 7473   3.848   2.366   9.752 -0.1632  0.3142 -0.0641
  499TMC3     H 7474   4.021   2.006   9.715  1.1636 -0.6249  0.3355
  499TMC3    H1 7475   4.061   2.436   9.729  3.4370  0.8176  1.7302
  499TMC3    H2 7476   4.385   2.183   9.600  0.0017 -0.3379  1.0862
  499TMC3    C7 7477   4.304   2.438   9.607  0.3554  0.2024 -0.2160
  499TMC3    C8 7478   4.256   1.955   9.620 -0.1793  0.4295 -0.0034
  499TMC3    O1 7479   4.425   2.433   9.597  0.2739  0.7053 -0.5992
  499TMC3    O2 7480   4.374   1.949   9.582  0.0922  0.3490  0.1415
  500MPD2     C 7481   1.123   3.874  10.578  0.1807 -0.1958 -0.6127
  500MPD2    C1 7482   1.093   3.742  10.548 -0.5257  1.1716  0.5083
  500MPD2    C2 7483   1.006   3.714  10.450 -0.3618  0.7962 -0.3167
  500MPD2    C3 7484   0.948   3.815  10.372 -0.4893 -0.1393 -0.0809
  500MPD2    C4 7485   0.978   3.949  10.398 -0.0093 -0.4264 -0.1007
  500MPD2    C5 7486   1.064   3.976  10.501 -0.2851 -0.2821 -0.7268
  500MPD2     H 7487   0.989   3.607  10.445  0.5234  0.6506 -0.1288
  500MPD2    H1 7488   0.943   4.035  10.343 -2.2718 -1.7440 -0.7208
  500MPD2    H2 7489   1.183   3.893  10.665  0.5515  1.0574 -1.1398
  500MPD2    H3 7490   1.084   4.078  10.531 -1.6199 -0.2426  0.0242
  500MPD2     N 7491   0.840   3.794  10.284  0.2960 -0.1232  0.0955
  500MPD2    H5 7492   0.807   3.879  10.240 -2.6204 -0.8553  0.9216
  500MPD2    N1 7493   1.135   3.634  10.624  0.1918  0.6981  0.5413
  500MPD2    H7 7494   1.090   3.547  10.597  0.8397  0.4011  0.4290
  501TMC3    C1 7495   1.239   3.507  10.782 -0.5366 -0.2837  0.4400
  501TMC3    C2 7496   1.190   3.403  10.713  1.1006 -0.2663 -0.0934
  501TMC3    C3 7497   1.271   3.299  10.683  0.1566 -0.5430 -0.1440
  501TMC3    C4 7498   1.359   3.495  10.846  0.1653 -0.6513  0.2642
  501TMC3    C5 7499   1.442   3.380  10.828 -0.0232  0.4023 -0.8940
  501TMC3    C6 7500   1.391   3.281  10.744  0.1374  0.3547  0.3356
  501TMC3     C 7501   1.211   3.636  10.738 -0.0297  0.5601 -0.2805
  501TMC3     O 7502   1.256   3.729  10.796 -0.5656  0.3038 -0.0088
  501TMC3     H 7503   1.096   3.404  10.659  1.3453 -0.7272 -0.5390
  501TMC3    H1 7504   1.405   3.587  10.881 -0.1318 -0.1583 -0.6556
  501TMC3    H2 7505   1.449   3.192  10.724 -0.5321 -0.5551  2.4772
  501TMC3    C7 7506   1.584   3.400  10.837 -0.1573 -0.1811  0.4234
  501TMC3    C8 7507   1.219   3.185  10.612 -0.1426  0.3696  0.1513
  501TMC3    O1 7508   1.643   3.377  10.732  0.3010 -0.0146 -0.3083
  501TMC3    O2 7509   1.216   3.082  10.673  0.3975  0.2235  0.3820
  502TMC3    C1 7510   0.433   2.692  14.855 -0.4119 -0.0862  0.7340
  502TMC3    C2 7511   0.386   2.816  14.903  0.4615 -0.5967 -0.1720
  502TMC3    C3 7512   0.252   2.820  14.936  0.0631  0.7481 -0.1288
  502TMC3    C4 7513   0.348   2.587  14.846  0.9897 -0.4761  0.1971
  502TMC3    C5 7514   0.213   2.606  14.863 -0.5517  0.2132 -0.1648
  502TMC3    C6 7515   0.166   2.719  14.914 -0.4597  0.4707 -0.0274
  502TMC3     C 7516   0.546   2.653  14.937  0.3910  0.1530 -0.2392
  502TMC3     O 7517   0.659   2.699  14.939 -0.3823 -0.2123 -0.1714
  502TMC3     H 7518   0.451   2.897  14.933  2.7869 -1.7112 -2.2507
  502TMC3    H1 7519   0.386   2.490  14.816 -1.7649 -1.8797  1.2585
  502TMC3    H2 7520   0.061   2.732  14.938 -0.3082  1.8447 -0.0751
  502TMC3    C7 7521   0.151   2.490  14.918  0.2486 -0.1393  0.4187
  502TMC3    C8 7522   0.210   2.927  15.030 -0.0244  0.0790 -0.6580
  502TMC3    O1 7523   0.219   2.412  14.983 -0.1835 -0.0790 -0.0555
  502TMC3    O2 7524   0.285   3.025  15.023 -0.0373  0.0940 -0.3506
  503MPD2     C 7525   2.549   2.886  17.201 -0.3236 -0.4252 -0.8752
  503MPD2    C1 7526   2.589   2.975  17.286 -0.7014  0.3975  0.0017
  503MPD2    C2 7527   2.654   2.927  17.397  0.1383  0.0929  0.7374
  503MPD2    C3 7528   2.674   2.792  17.425 -0.3292  0.3676  0.4850
  503MPD2    C4 7529   2.636   2.701  17.334 -0.8203  0.3603  0.2476
  503MPD2    C5 7530   2.577   2.754  17.220 -0.0459 -0.4025 -0.3695
  503MPD2     H 7531   2.669   3.001  17.474  0.8763  0.2251  0.4637
  503MPD2    H1 7532   2.644   2.594  17.347  2.9656  0.2672 -2.7497
  503MPD2    H2 7533   2.501   2.907  17.106 -1.1434  1.7033  0.0313
  503MPD2    H3 7534   2.575   2.690  17.133  2.2397 -1.4411  0.3401
  503MPD2     N 7535   2.741   2.760  17.543  0.1600  0.3246 -0.0970
  503MPD2    H5 7536   2.777   2.840  17.593  0.0490  0.9212 -0.9654
  503MPD2    N1 7537   2.562   3.115  17.273 -0.7755 -0.9614 -0.1010
  503MPD2    H7 7538   2.575   3.173  17.356 -1.0212 -1.6158  0.3920
  504TMC3    C1 7539   2.870   2.644  17.693  0.0325 -0.2627 -0.7954
  504TMC3    C2 7540   2.860   2.571   0.045  0.2418  0.3943 -0.3789
  504TMC3    C3 7541   2.962   2.606   0.133 -0.5165  0.0692 -0.1415
  504TMC3    C4 7542   2.978   2.722  17.658  0.4045 -0.0530  0.3912
  504TMC3    C5 7543   3.077   2.741  17.750  0.1911 -0.6873  0.0076
  504TMC3    C6 7544   3.068   2.686   0.115 -0.3972  0.7341  0.2648
  504TMC3     C 7545   2.774   2.638  17.587  0.0640 -0.5188  0.1056
  504TMC3     O 7546   2.758   2.532  17.524 -0.6824  0.0146  0.1352
  504TMC3     H 7547   2.778   2.504   0.068 -0.0307  1.6408  2.2567
  504TMC3    H1 7548   2.981   2.761  17.557 -0.8226 -1.6739 -0.2718
  504TMC3    H2 7549   3.148   2.703   0.187 -0.9930 -0.9874  1.3338
  504TMC3    C7 7550   3.185   2.819  17.702  0.3528 -0.2350  0.2885
  504TMC3    C8 7551   2.972   2.518   0.247 -0.1577 -0.3411 -0.0269
  504TMC3    O1 7552   3.225   2.908   0.011 -0.3730 -0.0558  0.4870
  504TMC3    O2 7553   2.999   2.578   0.354  0.5789 -0.2501 -0.0759
  505MPD2     C 7554   2.500   1.535  10.713  0.1097 -0.0111  0.0526
  505MPD2    C1 7555   2.546   1.407  10.704 -0.0702 -1.0152 -0.0054
  505MPD2    C2 7556   2.662   1.367  10.768  1.0001  0.5662 -0.0716
  505MPD2    C3 7557   2.738   1.461  10.836 -0.4071 -0.1612  0.1712
  505MPD2    C4 7558   2.685   1.588  10.848 -0.2174 -0.3223 -0.1227
  505MPD2    C5 7559   2.570   1.628  10.786  0.6694 -0.2295 -0.1916
  505MPD2     H 7560   2.706   1.268  10.771 -2.0593 -0.7277  1.8679
  505MPD2    H1 7561   2.740   1.666  10.900 -1.3948  1.5662 -1.7184
  505MPD2    H2 7562   2.411   1.568  10.662 -1.7805  0.8340  3.8645
  505MPD2    H3 7563   2.533   1.727  10.808  1.5192  0.4576 -1.8503
  505MPD2     N 7564   2.854   1.417  10.898  0.1003 -0.4618  0.0197
  505MPD2    H5 7565   2.876   1.320  10.878  0.9018  0.2760 -2.6824
  505MPD2    N1 7566   2.480   1.314  10.613 -0.2105  0.2146 -0.2573
  505MPD2    H7 7567   2.405   1.346  10.552 -0.0241  0.5441 -0.3099
  506TMC3    C1 7568   2.430   1.095  10.528  0.5007 -0.0234 -0.2101
  506TMC3    C2 7569   2.421   1.142  10.403  0.4576 -0.2679 -0.3180
  506TMC3    C3 7570   2.427   1.056  10.297  0.1310 -0.4392  0.0322
  506TMC3    C4 7571   2.463   0.961  10.541  0.7521 -0.0095 -0.0629
  506TMC3    C5 7572   2.476   0.883  10.428  0.0169  0.8059  0.6107
  506TMC3    C6 7573   2.434   0.920  10.303  0.3022 -0.6769 -0.5302
  506TMC3     C 7574   2.505   1.177  10.621  0.0482  0.9629  0.0446
  506TMC3     O 7575   2.571   1.116  10.707  0.1749 -0.4250  0.3019
  506TMC3     H 7576   2.422   1.249  10.387 -0.1728 -0.4184 -1.3316
  506TMC3    H1 7577   2.472   0.913  10.638 -1.3052  1.9632  1.0933
  506TMC3    H2 7578   2.452   0.861  10.214  0.8585  1.1969 -1.6646
  506TMC3    C7 7579   2.609   0.810  10.426 -0.4636  0.2828  0.0206
  506TMC3    C8 7580   2.429   1.118  10.164 -0.5710 -0.3614  0.2965
  506TMC3    O1 7581   2.637   0.734  10.335  0.0576  0.2742  0.3870
  506TMC3    O2 7582   2.361   1.066  10.075  0.0401 -0.8842  0.1718
  507TMC3    C1 7583   3.305   2.930  15.135 -1.1018  0.2380 -0.2705
  507TMC3    C2 7584   3.428   2.872  15.131 -0.5566 -0.1012  0.2847
  507TMC3    C3 7585   3.529   2.932  15.062  0.6451  0.0767 -0.0788
  507TMC3    C4 7586   3.284   3.042  15.068  0.2789 -0.6437 -0.0214
  507TMC3    C5 7587   3.388   3.119  15.025 -1.1063 -0.1734  0.1673
  507TMC3    C6 7588   3.514   3.065  15.022 -0.7668  0.6453  0.1400
  507TMC3     C 7589   3.245   2.950  15.270 -0.3588  0.1514  0.1304
  507TMC3     O 7590   3.137   3.005  15.269  0.6097  0.1407  0.2523
  507TMC3     H 7591   3.448   2.778  15.183  0.8879 -0.1463 -0.3483
  507TMC3    H1 7592   3.186   3.087  15.068  1.7122  2.4832 -2.0127
  507TMC3    H2 7593   3.594   3.116  14.969  0.3572 -1.0094  0.2349
  507TMC3    C7 7594   3.373   3.223  14.922  1.3686 -0.1898 -0.0949
  507TMC3    C8 7595   3.565   2.856  14.951 -0.0985  0.0688 -0.0630
  507TMC3    O1 7596   3.472   3.269  14.867 -0.0290  0.3849 -0.6113
  507TMC3    O2 7597   3.552   2.738  14.970  0.2021  0.0855  0.6681
  508MPD2     C 7598   4.107   0.314  16.085 -0.1005 -0.5658 -0.2781
  508MPD2    C1 7599   4.214   0.406  16.081  0.2121  0.2017  0.1337
  508MPD2    C2 7600   4.209   0.505  15.979 -0.9526 -0.5206  0.1266
  508MPD2    C3 7601   4.109   0.513  15.889  0.0314  0.0606  0.1097
  508MPD2    C4 7602   4.008   0.419  15.897 -0.8549 -0.1812 -0.0920
  508MPD2    C5 7603   4.006   0.322  15.991  0.3109 -0.1452 -0.5576
  508MPD2     H 7604   4.280   0.587  15.979 -2.3699  0.7080 -0.2416
  508MPD2    H1 7605   3.927   0.416  15.825  0.2729  0.4791 -1.3690
  508MPD2    H2 7606   4.102   0.241  16.165 -1.1495  1.1304  1.2190
  508MPD2    H3 7607   3.926   0.250  15.999  0.3219 -0.0836  0.1527
  508MPD2     N 7608   4.114   0.612  15.787  0.4154 -0.0484 -0.3448
  508MPD2    H5 7609   4.197   0.670  15.781  0.1022  0.8072  4.1473
  508MPD2    N1 7610   4.320   0.382  16.169  0.2718 -0.6779  0.1011
  508MPD2    H7 7611   4.308   0.310  16.240  1.1498 -0.8836  0.0345
  509TMC3    C1 7612   4.096   0.798  15.367 -0.4047  0.2429  0.5148
  509TMC3    C2 7613   4.231   0.785  15.349  0.4349 -0.8290 -0.1106
  509TMC3    C3 7614   4.307   0.735  15.455  0.1307  0.0099 -0.3918
  509TMC3    C4 7615   4.031   0.745  15.477 -0.5781  0.9223  0.1245
  509TMC3    C5 7616   4.110   0.688  15.573 -0.6227 -0.4642 -0.3916
  509TMC3    C6 7617   4.249   0.679  15.563 -0.1136  0.5596 -0.6465
  509TMC3     C 7618   4.015   0.866  15.268  0.3769  0.0334 -0.4681
  509TMC3     O 7619   3.894   0.870  15.291  0.0765  0.4035  0.1351
  509TMC3     H 7620   4.281   0.821  15.260  0.7927  0.0738  0.4549
  509TMC3    H1 7621   3.923   0.748  15.479 -0.6890 -1.5217 -1.8842
  509TMC3    H2 7622   4.311   0.644  15.645 -0.6559  0.5481 -0.2379
  509TMC3    C7 7623   4.038   0.618  15.678 -0.1916 -0.1284  0.6839
  509TMC3    C8 7624   4.452   0.718  15.449 -0.2026  0.4858 -0.0389
  509TMC3    O1 7625   3.926   0.580  15.658  0.3623  0.0536 -0.2608
  509TMC3    O2 7626   4.501   0.617  15.498  0.1434  1.0684 -0.0004
  510MPD2     C 7627   2.594   2.047  14.572 -0.4125  0.2175 -0.8011
  510MPD2    C1 7628   2.602   1.919  14.619  0.3359  0.2874 -0.2546
  510MPD2    C2 7629   2.715   1.850  14.583 -0.2015  0.3531  0.0710
  510MPD2    C3 7630   2.823   1.904  14.514 -0.2928  0.0009  0.2198
  510MPD2    C4 7631   2.815   2.032  14.474 -0.7722 -0.1098 -0.2852
  510MPD2    C5 7632   2.706   2.105  14.507 -0.4686 -0.7161  0.3238
  510MPD2     H 7633   2.720   1.747  14.617  1.8847  0.3522 -0.2503
  510MPD2    H1 7634   2.888   2.079  14.409 -0.3889 -1.8754 -1.1118
  510MPD2    H2 7635   2.510   2.109  14.601  0.2401  0.3716  0.7684
  510MPD2    H3 7636   2.694   2.207  14.471  1.7261  0.7024  3.5758
  510MPD2     N 7637   2.936   1.820  14.506 -0.5076  0.8163  0.4183
  510MPD2    H5 7638   2.927   1.731  14.552 -4.2363  0.7641 -0.4017
  510MPD2    N1 7639   2.485   1.863  14.684  0.0450 -0.1558  0.0000
  510MPD2    H7 7640   2.408   1.930  14.690  0.2818  0.1184 -0.0133
  511TMC3    C1 7641   2.323   1.686  14.712 -0.4409  0.1750  0.8998
  511TMC3    C2 7642   2.238   1.744  14.803  0.2113 -0.6631  0.0374
  511TMC3    C3 7643   2.110   1.694  14.821  0.3406  0.3521  0.5652
  511TMC3    C4 7644   2.290   1.575  14.640 -0.3920  0.7804  0.1549
  511TMC3    C5 7645   2.161   1.531  14.657  0.0074 -0.6537  0.0845
  511TMC3    C6 7646   2.076   1.578  14.752 -0.5207 -0.1265 -0.8098
  511TMC3     C 7647   2.466   1.726  14.702  0.3390 -0.1490  0.3488
  511TMC3     O 7648   2.540   1.632  14.675 -0.6746 -0.3038  0.1289
  511TMC3     H 7649   2.266   1.829  14.864  1.4768 -0.0283 -1.4083
  511TMC3    H1 7650   2.359   1.535  14.566 -0.7674 -1.1802  0.8761
  511TMC3    H2 7651   1.974   1.540  14.756 -0.0656 -1.1388  1.4280
  511TMC3    C7 7652   2.126   1.415  14.581  0.3383 -0.1117 -1.3625
  511TMC3    C8 7653   2.037   1.742  14.939  0.1454 -0.0388 -0.4696
  511TMC3    O1 7654   2.139   1.429  14.459  0.4518 -0.4474  0.2994
  511TMC3    O2 7655   2.090   1.822  15.015 -0.6284  0.8133 -0.6464
  512TMC3    C1 7656   0.915   0.972  13.366  0.0839 -0.2036  0.5809
  512TMC3    C2 7657   0.989   0.905  13.464 -0.2159  0.4224 -0.3099
  512TMC3    C3 7658   1.087   0.823  13.420  0.1905 -0.2119 -0.0581
  512TMC3    C4 7659   0.946   0.956  13.234  0.1646 -0.6127 -0.4877
  512TMC3    C5 7660   1.025   0.849  13.201  0.1020 -0.4515 -0.0421
  512TMC3    C6 7661   1.105   0.792  13.292  0.7231 -0.3861  0.1668
  512TMC3     C 7662   0.819   1.069  13.399 -0.2606  0.6051 -0.7581
  512TMC3     O 7663   0.823   1.117  13.508 -0.6603 -0.2354 -0.0775
  512TMC3     H 7664   0.976   0.917  13.571  0.7073  0.2760 -0.1776
  512TMC3    H1 7665   0.879   0.995  13.158 -1.1450 -0.7941  0.5668
  512TMC3    H2 7666   1.186   0.726  13.263 -0.4935 -2.6854  1.9751
  512TMC3    C7 7667   1.034   0.830  13.054 -0.2544 -0.3163 -0.0363
  512TMC3    C8 7668   1.209   0.833  13.494  0.1042 -0.0253 -0.0088
  512TMC3    O1 7669   0.987   0.911  12.982 -0.0815  0.5148  0.2056
  512TMC3    O2 7670   1.284   0.740  13.464 -0.1587  0.0870 -0.2928
  513MPD2     C 7671   3.131   0.850  13.503 -0.7802 -0.4752  0.2947
  513MPD2    C1 7672   3.208   0.923  13.408 -0.3742 -0.1854  0.6675
  513MPD2    C2 7673   3.294   1.018  13.466  0.1856  0.0937 -0.5269
  513MPD2    C3 7674   3.295   1.041  13.599  0.3616 -0.4449  0.3448
  513MPD2    C4 7675   3.208   0.983  13.682 -0.5134  0.1544 -0.5760
  513MPD2    C5 7676   3.131   0.880  13.632 -0.2940  0.7659  0.2448
  513MPD2     H 7677   3.358   1.075  13.400  0.5586 -1.0307 -1.1322
  513MPD2    H1 7678   3.208   1.002  13.789  1.5067 -0.6558 -0.4322
  513MPD2    H2 7679   3.062   0.775  13.466 -1.5807  0.3672  0.0858
  513MPD2    H3 7680   3.057   0.836  13.697  1.0052 -1.0541  0.4841
  513MPD2     N 7681   3.386   1.142  13.638 -0.0331  0.5290 -1.1227
  513MPD2    H5 7682   3.452   1.172  13.566  0.3153  0.3390 -0.8840
  513MPD2    N1 7683   3.214   0.875  13.271 -0.2704  0.4661  0.1242
  513MPD2    H7 7684   3.142   0.807  13.246 -1.2191  1.2276  0.7848
  514TMC3    C1 7685   3.295   0.853  13.054  0.2584 -0.7213 -0.3533
  514TMC3    C2 7686   3.207   0.946  13.001  0.0728  0.9026 -0.1107
  514TMC3    C3 7687   3.247   1.015  12.891  0.2532 -0.6473  0.5381
  514TMC3    C4 7688   3.410   0.820  12.993  0.6205  0.4039 -0.7745
  514TMC3    C5 7689   3.440   0.882  12.874  0.5577  0.2607  0.3369
  514TMC3    C6 7690   3.357   0.976  12.820 -0.4050 -0.1638  0.1061
  514TMC3     C 7691   3.312   0.903  13.182 -0.0003 -0.3529 -0.0903
  514TMC3     O 7692   3.406   0.983  13.183 -0.4749 -0.9218 -0.5599
  514TMC3     H 7693   3.118   0.980  13.054 -0.8687  0.2309 -1.2568
  514TMC3    H1 7694   3.489   0.775  13.053 -0.2313  0.1638  0.1705
  514TMC3    H2 7695   3.406   1.021  12.734 -2.1015 -0.4278 -0.9976
  514TMC3    C7 7696   3.570   0.934  12.868 -0.8260 -0.1603 -0.7227
  514TMC3    C8 7697   3.147   1.100  12.828  0.5855  0.4304 -0.1898
  514TMC3    O1 7698   3.654   0.882  12.794 -0.0290 -0.3843 -0.8366
  514TMC3    O2 7699   3.027   1.074  12.847  0.2286 -0.0145  0.1929
  515MPD2     C 7700   0.985   3.504  14.723 -0.0372 -0.4141  0.1444
  515MPD2    C1 7701   1.062   3.433  14.631 -0.3761  0.0546 -0.3574
  515MPD2    C2 7702   1.195   3.423  14.658 -0.2366  0.2329 -0.6414
  515MPD2    C3 7703   1.253   3.484  14.769  0.6265 -1.0803  0.2829
  515MPD2    C4 7704   1.176   3.559  14.852  0.6099  0.5718  0.3836
  515MPD2    C5 7705   1.044   3.582  14.825 -0.2639 -0.1419 -0.3244
  515MPD2     H 7706   1.260   3.369  14.590 -0.1901 -0.3819 -0.0994
  515MPD2    H1 7707   1.224   3.610  14.935 -0.0514  1.0729  0.4570
  515MPD2    H2 7708   0.877   3.512  14.719  0.0811 -0.6667 -3.5571
  515MPD2    H3 7709   0.985   3.654  14.879 -2.1379 -2.2303  0.3892
  515MPD2     N 7710   1.384   3.461  14.810 -0.7629 -0.5318 -0.4237
  515MPD2    H5 7711   1.406   3.494  14.903 -3.8035  0.0980  0.0685
  515MPD2    N1 7712   1.004   3.356  14.529  0.0610  0.8518  0.2168
  515MPD2    H7 7713   1.066   3.295  14.476  0.8788  1.9676 -0.1192
  516TMC3    C1 7714   0.849   3.284  14.381 -0.5456  0.5710  0.5266
  516TMC3    C2 7715   0.776   3.326  14.281  0.1182 -0.0011  0.5671
  516TMC3    C3 7716   0.694   3.237  14.209 -1.3511 -0.4088 -0.0638
  516TMC3    C4 7717   0.842   3.157  14.423  0.7190  0.2893 -0.0205
  516TMC3    C5 7718   0.764   3.069  14.353 -0.1695 -0.3382  0.5994
  516TMC3    C6 7719   0.697   3.103  14.236 -0.2426  0.1033 -0.5363
  516TMC3     C 7720   0.877   3.379  14.479  0.6579 -0.2023  0.2446
  516TMC3     O 7721   0.790   3.452  14.518 -0.5149  0.2690 -0.2802
  516TMC3     H 7722   0.767   3.434  14.276  1.0166  0.0541  0.1433
  516TMC3    H1 7723   0.888   3.129  14.517 -1.5935  2.3845  1.7436
  516TMC3    H2 7724   0.640   3.041  14.167  1.4417  0.5347 -2.3008
  516TMC3    C7 7725   0.743   2.936  14.408 -0.1707  0.8132  0.2045
  516TMC3    C8 7726   0.584   3.285  14.122  1.6349 -0.2765 -0.3466
  516TMC3    O1 7727   0.835   2.889  14.475 -0.4693 -0.3217 -0.5844
  516TMC3    O2 7728   0.487   3.211  14.094  0.1279 -0.2361  0.4826
  517MPD2     C 7729   1.106   4.533  17.374 -0.9172  0.5570  0.5427
  517MPD2    C1 7730   1.217   4.507  17.450  0.4673  0.4639  0.2579
  517MPD2    C2 7731   1.266   4.612  17.531  0.0676 -0.4014 -0.5498
  517MPD2    C3 7732   1.211   4.739  17.530  0.9843 -0.8605  0.2296
  517MPD2    C4 7733   1.109   0.025  17.444  0.2862 -0.1751 -0.0542
  517MPD2    C5 7734   1.052   4.662  17.378  0.0136 -0.2977  0.5053
  517MPD2     H 7735   1.347   4.582  17.595  0.0409  3.0657  1.1287
  517MPD2    H1 7736   1.055   0.119  17.442 -0.2441 -0.5089 -1.2697
  517MPD2    H2 7737   1.061   4.464  17.304 -0.3926 -0.2878  1.0353
  517MPD2    H3 7738   0.965   4.674  17.314  0.4332  1.5904  0.2919
  517MPD2     N 7739   1.245   0.095  17.622  0.3398 -0.4303  0.1823
  517MPD2    H5 7740   1.174   0.166  17.640  0.6999  0.3270 -1.3967
  517MPD2    N1 7741   1.282   4.378  17.461  0.3976  0.1576 -0.1035
  517MPD2    H7 7742   1.364   4.363  17.519  0.1940  0.5013  0.2768
  518TMC3    C1 7743   1.313   4.150  17.428 -0.6111  0.4919 -0.2190
  518TMC3    C2 7744   1.251   4.028  17.433 -0.8094  0.1894  0.9634
  518TMC3    C3 7745   1.330   3.913  17.429  0.6038  0.5431 -0.0285
  518TMC3    C4 7746   1.448   4.159  17.414  0.1291  0.8268  0.0839
  518TMC3    C5 7747   1.518   4.040  17.416 -0.5663  0.4701  0.4014
  518TMC3    C6 7748   1.466   3.915  17.423  0.7872  0.3434 -0.0696
  518TMC3     C 7749   1.224   4.264  17.417  0.6351 -0.2917  0.3051
  518TMC3     O 7750   1.124   4.242  17.349  0.5715  0.7655  0.0135
  518TMC3     H 7751   1.145   4.014  17.449 -0.6604 -0.3126  1.4794
  518TMC3    H1 7752   1.495   4.251  17.383  2.8410 -0.3944  0.5939
  518TMC3    H2 7753   1.533   3.832  17.443  0.4409  0.3469  1.1117
  518TMC3    C7 7754   1.660   4.057  17.409  0.9373 -0.0667  0.6218
  518TMC3    C8 7755   1.272   3.783  17.444 -0.7004  0.2105  0.6067
  518TMC3    O1 7756   1.713   4.145  17.472 -0.1184 -0.2203  0.6954
  518TMC3    O2 7757   1.338   3.696  17.493 -0.2023 -0.0141 -0.4066
  519MPD2     C 7758   2.943   2.829  14.184 -0.3512 -0.3439  0.0080
  519MPD2    C1 7759   2.886   2.865  14.067  0.0464 -0.5611  0.1508
  519MPD2    C2 7760   2.962   2.859  13.952 -0.4976 -0.0338 -0.2840
  519MPD2    C3 7761   3.097   2.818  13.954 -0.2101  0.9326  0.0564
  519MPD2    C4 7762   3.150   2.786  14.077 -0.8044 -0.5688 -0.5334
  519MPD2    C5 7763   3.075   2.797  14.194  0.1223 -1.0970 -0.1913
  519MPD2     H 7764   2.911   2.885  13.859 -1.3082  1.1554  0.4956
  519MPD2    H1 7765   3.252   2.750  14.083 -1.2403 -1.7495 -0.1955
  519MPD2    H2 7766   2.884   2.835  14.275  1.2822 -0.5013  1.0740
  519MPD2    H3 7767   3.117   2.782  14.293 -0.6984 -1.3537  0.1176
  519MPD2     N 7768   3.175   2.807  13.838 -0.0742  1.1274  0.0502
  519MPD2    H5 7769   3.255   2.747  13.853 -0.4314  0.3710 -1.0673
  519MPD2    N1 7770   2.753   2.906  14.071 -0.2637 -0.1881  0.2975
  519MPD2    H7 7771   2.713   2.911  14.164 -0.5495 -2.8808  0.3150
  520TMC3    C1 7772   3.238   2.836  13.604 -0.1077 -0.2013  0.2483
  520TMC3    C2 7773   3.186   2.844  13.476  0.4430 -0.4902  0.4416
  520TMC3    C3 7774   3.239   2.750  13.390 -0.5399  0.4741 -0.1918
  520TMC3    C4 7775   3.345   2.753  13.631  0.0821  0.4442  0.3278
  520TMC3    C5 7776   3.378   2.662  13.542  0.1061 -0.3488 -0.2711
  520TMC3    C6 7777   3.336   2.659  13.417 -0.0566 -0.3177 -0.1466
  520TMC3     C 7778   3.138   2.861  13.716 -0.4445 -0.2975  0.9179
  520TMC3     O 7779   3.050   2.941  13.689  0.3812  0.3046  0.2531
  520TMC3     H 7780   3.098   2.903  13.456  1.2910 -0.4751 -3.2298
  520TMC3    H1 7781   3.391   2.745  13.729 -0.1160  0.5903  0.4329
  520TMC3    H2 7782   3.364   2.588  13.340 -0.1208  2.3045 -2.5714
  520TMC3    C7 7783   3.457   2.548  13.589  0.0570  0.1138 -0.3982
  520TMC3    C8 7784   3.163   2.716  13.272  0.5179  1.0214  1.0555
  520TMC3    O1 7785   3.522   2.555  13.696 -0.0006 -0.2562  0.0451
  520TMC3    O2 7786   3.229   2.706  13.170  0.2000 -0.6386 -0.3809
  521MPD2     C 7787   3.505   0.996  17.639 -0.1762 -0.7016 -0.4869
  521MPD2    C1 7788   3.453   0.927  17.532 -0.5824 -1.0511 -0.8797
  521MPD2    C2 7789   3.544   0.870  17.446 -0.6170  0.0045 -0.4397
  521MPD2    C3 7790   3.676   0.864  17.480  0.3828 -0.3779  0.2817
  521MPD2    C4 7791   3.729   0.929  17.589  0.4530 -0.2831 -0.3206
  521MPD2    C5 7792   3.645   0.997  17.668  0.1493  0.4332  0.7600
  521MPD2     H 7793   3.512   0.813  17.359 -3.5329  0.0457  0.5989
  521MPD2    H1 7794   3.835   0.942  17.607  0.4128  0.7349 -0.8182
  521MPD2    H2 7795   3.437   1.058  17.697  0.9427  0.2933 -0.2414
  521MPD2    H3 7796   3.685   1.063  17.745 -1.0339  0.1017  1.6454
  521MPD2     N 7797   3.765   0.793  17.402 -0.2221  0.4720 -0.2973
  521MPD2    H5 7798   3.715   0.756  17.321  0.7768 -1.0997 -0.2061
  521MPD2    N1 7799   3.316   0.924  17.516  0.2583 -0.1105  0.3625
  521MPD2    H7 7800   3.247   0.954  17.584 -0.0734  1.5921 -0.7354
  522TMC3    C1 7801   3.953   0.689  17.323 -0.8240 -0.3483 -0.1140
  522TMC3    C2 7802   4.060   0.614  17.354  0.5574  0.0807 -0.0910
  522TMC3    C3 7803   4.107   0.527  17.266  0.4063 -0.2071 -0.5966
  522TMC3    C4 7804   3.884   0.670  17.207  0.2292  0.3412 -0.4277
  522TMC3    C5 7805   3.926   0.565  17.131 -0.3528 -0.8105  0.5675
  522TMC3    C6 7806   4.037   0.491  17.157  0.1160  0.3472 -0.3083
  522TMC3     C 7807   3.894   0.762  17.425  0.2626 -0.6114  0.2185
  522TMC3     O 7808   3.960   0.765  17.528  0.0274  0.1793 -0.1621
  522TMC3     H 7809   4.118   0.628  17.445 -1.1558 -0.0150  1.0039
  522TMC3    H1 7810   3.815   0.741  17.164 -0.7336 -0.4194 -0.1425
  522TMC3    H2 7811   4.051   0.397  17.104 -0.0388 -0.0443  0.3477
  522TMC3    C7 7812   3.897   0.563  16.987  0.5659 -0.3272  0.0118
  522TMC3    C8 7813   4.244   0.487  17.264  0.4961 -0.1077  0.2150
  522TMC3    O1 7814   3.976   0.509  16.911 -0.2247 -0.1159 -0.3563
  522TMC3    O2 7815   4.298   0.462  17.372 -0.7061 -0.7311  0.4106
  523MPD2     C 7816   0.914   0.548  10.249  0.6069  0.5907 -0.3981
  523MPD2    C1 7817   0.946   0.502  10.124 -0.5214  0.8444  0.1803
  523MPD2    C2 7818   0.893   0.558  10.008 -0.0901 -0.0378  0.3612
  523MPD2    C3 7819   0.808   0.666  10.017 -0.1006  0.1658  0.1729
  523MPD2    C4 7820   0.779   0.718  10.147 -0.1646  0.2148 -0.0617
  523MPD2    C5 7821   0.815   0.646  10.262  0.2981 -0.0053 -0.2228
  523MPD2     H 7822   0.915   0.521   9.909  2.0009  3.9747 -0.7069
  523MPD2    H1 7823   0.710   0.798  10.171  0.1039  0.0436  1.2895
  523MPD2    H2 7824   0.955   0.500  10.337 -0.6839  1.3028  0.5945
  523MPD2    H3 7825   0.793   0.682  10.362  0.6394 -1.0199  0.2134
  523MPD2     N 7826   0.749   0.733   9.906 -0.0331  0.7706  0.3708
  523MPD2    H5 7827   0.679   0.802   9.932 -0.6367  0.6792 -0.9871
  523MPD2    N1 7828   1.045   0.400  10.121 -0.4579  1.4987  0.6871
  523MPD2    H7 7829   1.100   0.386  10.204 -1.6642  0.4468  1.3235
  524TMC3    C1 7830   0.707   0.793   9.683 -0.2127  0.3610  0.0388
  524TMC3    C2 7831   0.781   0.823   9.572 -0.5409  0.0229 -0.0320
  524TMC3    C3 7832   0.739   0.933   9.503  0.3683 -0.4830  0.1390
  524TMC3    C4 7833   0.602   0.874   9.723  0.6593  0.4929  0.0376
  524TMC3    C5 7834   0.554   0.973   9.644  0.2563  0.5398  0.0114
  524TMC3    C6 7835   0.628   1.009   9.533  0.1426  0.1832 -0.7798
  524TMC3     C 7836   0.770   0.703   9.778 -0.7725  0.1641 -0.4298
  524TMC3     O 7837   0.851   0.633   9.723  0.4953 -0.2006 -0.3307
  524TMC3     H 7838   0.880   0.787   9.547  0.3091  1.9083  0.6565
  524TMC3    H1 7839   0.550   0.850   9.815  0.8112  1.9387  0.4996
  524TMC3    H2 7840   0.596   1.091   9.470 -0.1654 -0.1260 -1.0260
  524TMC3    C7 7841   0.431   1.047   9.680 -0.1623 -0.1918  0.5234
  524TMC3    C8 7842   0.804   0.974   9.380 -0.3126  0.0608  0.1642
  524TMC3    O1 7843   0.380   1.018   9.788  0.0433 -0.0436 -1.0345
  524TMC3    O2 7844   0.788   1.090   9.348 -0.2686 -0.4447 -0.0625
  525MPD2     C 7845   4.062   2.398  14.200 -0.4070 -0.3869  0.1048
  525MPD2    C1 7846   4.131   2.422  14.318 -0.5568  0.2295  0.5470
  525MPD2    C2 7847   4.191   2.545  14.334 -0.2871 -0.3875  0.5075
  525MPD2    C3 7848   4.165   2.647  14.245 -0.9650  0.7898  0.0248
  525MPD2    C4 7849   4.086   2.620  14.139 -0.2164 -0.0378 -0.1914
  525MPD2    C5 7850   4.043   2.497  14.109  0.3876 -0.4756  0.2854
  525MPD2     H 7851   4.248   2.560  14.425 -1.1881  0.1644  0.9803
  525MPD2    H1 7852   4.066   2.708  14.080 -1.2977  1.3093  2.1580
  525MPD2    H2 7853   4.039   2.296  14.170  1.8179 -0.7547 -0.3256
  525MPD2    H3 7854   3.997   2.486  14.012  1.8474 -1.0917 -0.3348
  525MPD2     N 7855   4.201   2.781  14.259 -0.2793  0.1332 -0.0407
  525MPD2    H5 7856   4.170   2.840  14.182 -0.3460 -0.9063 -0.8153
  525MPD2    N1 7857   4.147   2.329  14.424 -0.1790  0.9683  0.2292
  525MPD2    H7 7858   4.217   2.358  14.491 -1.4694  0.1145  1.9332
  526TMC3    C1 7859   4.112   2.132  14.553 -0.0384  0.1425 -0.7055
  526TMC3    C2 7860   4.016   2.054  14.613  0.1763 -0.3954 -0.4633
  526TMC3    C3 7861   4.054   1.979  14.727 -0.2333  0.4165 -0.4223
  526TMC3    C4 7862   4.238   2.130  14.584 -0.4809  0.0077 -0.7854
  526TMC3    C5 7863   4.275   2.040  14.682 -0.2113 -0.2005  0.6291
  526TMC3    C6 7864   4.186   1.970  14.757 -0.2313 -0.4974 -0.3189
  526TMC3     C 7865   4.069   2.215  14.439 -0.0960  0.9276  0.1155
  526TMC3     O 7866   3.970   2.183  14.371  0.0633  0.1609 -0.4001
  526TMC3     H 7867   3.913   2.063  14.581  0.1546 -0.4649 -0.4139
  526TMC3    H1 7868   4.319   2.171  14.525 -0.4509 -0.4447 -1.0641
  526TMC3    H2 7869   4.228   1.927  14.848 -1.7613 -0.0350  0.6072
  526TMC3    C7 7870   4.416   2.028  14.706  0.3239  0.0189  0.4189
  526TMC3    C8 7871   3.966   1.955  14.844  0.0707  0.8259  0.2254
  526TMC3    O1 7872   4.458   1.937  14.777 -0.1234 -0.2784  0.5447
  526TMC3    O2 7873   4.014   1.909  14.942 -0.4796 -0.7797 -0.0758
  527MPD2     C 7874   1.438   0.092   1.196 -0.3734  0.1422  0.0357
  527MPD2    C1 7875   1.484   0.072   1.066  0.0771  0.6743  0.0230
  527MPD2    C2 7876   1.616   0.087   1.027  0.2987  0.1473  0.3087
  527MPD2    C3 7877   1.703   0.148   1.120  0.3089 -0.5905  0.1212
  527MPD2    C4 7878   1.656   0.191   1.242 -0.8106  0.2564 -0.4951
  527MPD2    C5 7879   1.525   0.149   1.281  0.0942 -0.0248  0.3231
  527MPD2     H 7880   1.647   0.059   0.927 -1.3010  1.2587 -0.5118
  527MPD2    H1 7881   1.722   0.223   1.321  1.2081 -0.8060 -1.7477
  527MPD2    H2 7882   1.336   0.084   1.230 -0.5457 -1.1325 -0.7853
  527MPD2    H3 7883   1.498   0.171   1.384 -0.6706 -4.6732  1.1006
  527MPD2     N 7884   1.841   0.158   1.087  0.0983 -0.9011  0.5673
  527MPD2    H5 7885   1.868   0.124   0.996 -2.2498  1.7228 -1.1250
  527MPD2    N1 7886   1.399   0.025   0.962  1.4780  0.3855 -0.0478
  527MPD2    H7 7887   1.438   0.012   0.869 -0.4805 -0.2547 -0.7740
  528TMC3    C1 7888   1.196   4.682   0.870 -0.5814  0.4249 -0.7077
  528TMC3    C2 7889   1.252   4.661   0.750  0.3588  0.9541  0.1351
  528TMC3    C3 7890   1.175   4.592   0.664  0.6319  0.9962  0.0515
  528TMC3    C4 7891   1.077   4.628   0.918 -0.5802  0.3242  0.3366
  528TMC3    C5 7892   1.010   4.553   0.824  0.1199 -0.5888 -0.7181
  528TMC3    C6 7893   1.062   4.522   0.702  0.2103 -0.2474  0.0997
  528TMC3     C 7894   1.261   0.020   0.974 -0.2114 -0.0114  0.5614
  528TMC3     O 7895   1.181   0.053   1.065 -0.0838 -0.6728  0.2012
  528TMC3     H 7896   1.342   4.718   0.728 -0.0490 -0.3644 -4.8300
  528TMC3    H1 7897   1.021   4.659   1.007  1.2630 -0.4492  1.7531
  528TMC3    H2 7898   1.006   4.453   0.641  0.6678 -2.2791  1.9864
  528TMC3    C7 7899   0.873   4.505   0.845 -0.0311 -0.2626 -0.1223
  528TMC3    C8 7900   1.240   4.585   0.533 -0.7255  0.6503 -0.0751
  528TMC3    O1 7901   0.829   4.425   0.764  0.2857  0.3009  0.1330
  528TMC3    O2 7902   1.336   4.659   0.505 -0.0111  0.2242  0.0770
  529MPD2     C 7903   4.005   3.079   0.709 -0.1500  0.6425 -0.2485
  529MPD2    C1 7904   4.132   3.059   0.661 -0.0918 -0.2762 -0.2627
  529MPD2    C2 7905   4.179   3.144   0.564  0.3820 -0.0921  0.3694
  529MPD2    C3 7906   4.108   3.241   0.500 -0.1893  0.1073  0.3119
  529MPD2    C4 7907   3.977   3.251   0.542  0.3253 -0.5174  0.2752
  529MPD2    C5 7908   3.930   3.169   0.641  0.3093 -0.4711  0.4359
  529MPD2     H 7909   4.285   3.137   0.543  0.6878 -0.2075  1.9207
  529MPD2    H1 7910   3.908   3.323   0.499  0.5533  0.6083  1.7896
  529MPD2    H2 7911   3.970   3.030   0.800  0.1797  1.9468  0.5808
  529MPD2    H3 7912   3.826   3.181   0.666  0.8819  2.5349  1.3158
  529MPD2     N 7913   4.171   3.329   0.405  0.3696 -0.0966 -0.2602
  529MPD2    H5 7914   4.104   3.395   0.366 -1.4568 -0.0113  3.0271
  529MPD2    N1 7915   4.234   2.970   0.712  0.2324 -0.0426 -0.4810
  529MPD2    H7 7916   4.311   2.958   0.647  0.3987 -0.1439 -0.2684
  530TMC3    C1 7917   4.340   2.815   0.851  0.8327  0.4272  0.3788
  530TMC3    C2 7918   4.456   2.886   0.856 -0.1562  0.2593 -0.0971
  530TMC3    C3 7919   4.561   2.831   0.923 -0.8131 -0.2976  0.2482
  530TMC3    C4 7920   4.333   2.698   0.915 -0.0396 -0.2174  0.6552
  530TMC3    C5 7921   4.439   2.650   0.985 -0.0230  0.6386 -1.0226
  530TMC3    C6 7922   4.562   2.707   0.972  0.7984 -0.0438 -0.0228
  530TMC3     C 7923   4.216   2.889   0.820 -0.5055  0.5197  0.1249
  530TMC3     O 7924   4.130   2.880   0.911 -1.1364  0.2991  0.2007
  530TMC3     H 7925   4.473   2.983   0.810 -0.2599 -0.2651 -1.2382
  530TMC3    H1 7926   4.239   2.645   0.911  0.1405 -0.4023 -1.0984
  530TMC3    H2 7927   4.630   2.666   1.046  0.7698  1.5331  0.8699
  530TMC3    C7 7928   4.426   2.514   1.040 -0.4091  0.0512 -0.0953
  530TMC3    C8 7929   4.668   2.928   0.956  0.2568 -0.1527 -0.4416
  530TMC3    O1 7930   4.527   2.447   1.052  0.3539 -0.5572 -0.3369
  530TMC3    O2 7931   4.680   3.033   0.898 -0.5590  0.0365 -0.2991
  531MPD2     C 7932   3.944   1.077  13.195  0.6583 -0.4709 -0.3260
  531MPD2    C1 7933   3.823   1.113  13.245  0.0856 -0.0751 -0.3363
  531MPD2    C2 7934   3.711   1.092  13.170  0.1690 -0.2441 -0.8781
  531MPD2    C3 7935   3.717   1.031  13.045 -0.2671  0.5579 -0.0741
  531MPD2    C4 7936   3.835   1.012  12.990  0.1138 -0.0446  0.7419
  531MPD2    C5 7937   3.950   1.034  13.063  0.8851  0.3488 -0.3365
  531MPD2     H 7938   3.614   1.108  13.217  0.4604  0.2999 -0.4728
  531MPD2    H1 7939   3.845   0.977  12.888  1.4106 -0.8250  1.1309
  531MPD2    H2 7940   4.036   1.081  13.252  0.2824  0.8173  0.2012
  531MPD2    H3 7941   4.050   1.007  13.030 -0.0131 -2.1564 -1.0563
  531MPD2     N 7942   3.591   1.009  12.977 -0.2425  0.0929 -0.1803
  531MPD2    H5 7943   3.514   1.034  13.039  0.5340  0.1851  0.7601
  531MPD2    N1 7944   3.806   1.165  13.377  0.0454 -0.0499 -0.0041
  531MPD2    H7 7945   3.896   1.187  13.419  0.1399 -0.4113 -0.0146
  532TMC3    C1 7946   3.716   1.236  13.589 -0.2369  0.8351  0.3563
  532TMC3    C2 7947   3.595   1.282  13.645  0.2246  0.1482  0.5043
  532TMC3    C3 7948   3.556   1.226  13.767  0.0697 -0.4751  0.0803
  532TMC3    C4 7949   3.802   1.150  13.652 -0.3450 -0.3797  0.3538
  532TMC3    C5 7950   3.760   1.104  13.779 -0.1058 -0.6976 -0.3939
  532TMC3    C6 7951   3.642   1.143  13.837 -0.2838  0.7332 -0.1555
  532TMC3     C 7952   3.692   1.199  13.445  0.4780 -0.2478  0.6923
  532TMC3     O 7953   3.574   1.202  13.412  0.3944 -0.4090 -0.4897
  532TMC3     H 7954   3.541   1.352  13.581 -1.3689 -1.0935  0.4890
  532TMC3    H1 7955   3.883   1.102  13.599 -0.4217 -0.1726  0.0495
  532TMC3    H2 7956   3.606   1.080  13.918  0.9957 -1.8376 -1.5888
  532TMC3    C7 7957   3.830   0.987  13.839  0.3205 -0.0052  0.2076
  532TMC3    C8 7958   3.417   1.181  13.768  0.0753  0.0123  0.0165
  532TMC3    O1 7959   3.890   1.000  13.948 -0.2940 -0.0340 -0.6315
  532TMC3    O2 7960   3.383   1.141  13.874 -0.0908  0.3380 -0.1231
  533TMC3    C1 7961   4.288   2.977  14.332  0.2188 -0.1006  0.2103
  533TMC3    C2 7962   4.396   3.034  14.400 -0.2361 -0.1034 -0.0943
  533TMC3    C3 7963   4.388   3.172  14.411  0.7023 -0.0040  0.1468
  533TMC3    C4 7964   4.173   3.044  14.317 -0.6858 -0.6869  0.3291
  533TMC3    C5 7965   4.155   3.171  14.350  0.1540 -0.3326  0.7530
  533TMC3    C6 7966   4.273   3.244  14.378 -0.6225 -0.2275 -0.2081
  533TMC3     C 7967   4.281   2.841  14.351 -0.5799  0.4412 -1.0008
  533TMC3     O 7968   4.348   2.801  14.445 -0.0130 -0.2846 -0.0979
  533TMC3     H 7969   4.486   2.981  14.428 -0.0236  0.4323  0.2242
  533TMC3    H1 7970   4.089   2.978  14.296 -2.3842  1.4492  0.4077
  533TMC3    H2 7971   4.264   3.350  14.396  2.2809 -0.2467  1.3561
  533TMC3    C7 7972   4.065   3.192  14.460  0.4586 -0.5281  0.1438
  533TMC3    C8 7973   4.500   3.233  14.476  0.0471  0.3601  0.1364
  533TMC3    O1 7974   4.068   3.300  14.514  0.3341  0.5741 -0.1571
  533TMC3    O2 7975   4.566   3.173  14.560 -0.3726 -0.3287  0.3314
  534MPD2     C 7976   1.887   3.369   1.447  0.1758  0.0982  0.1942
  534MPD2    C1 7977   1.787   3.456   1.487  0.2957 -0.5905  0.5013
  534MPD2    C2 7978   1.672   3.458   1.412 -1.4028 -0.0702  0.3025
  534MPD2    C3 7979   1.645   3.362   1.318 -0.0821  1.3198 -0.1715
  534MPD2    C4 7980   1.742   3.274   1.285  0.3770  0.1203 -0.3867
  534MPD2    C5 7981   1.859   3.279   1.349  0.4794  0.1338 -0.3994
  534MPD2     H 7982   1.603   3.539   1.434  2.4791  3.6528 -1.2832
  534MPD2    H1 7983   1.740   3.203   1.203  2.0501 -1.1243  0.6396
  534MPD2    H2 7984   1.984   3.360   1.495 -0.1359 -1.3329  0.5517
  534MPD2    H3 7985   1.941   3.217   1.314  0.0923  0.8805 -2.6465
  534MPD2     N 7986   1.528   3.351   1.237 -0.8050  0.6629  0.3152
  534MPD2    H5 7987   1.538   3.283   1.163 -0.3271 -1.2082  2.0965
  534MPD2    N1 7988   1.794   3.560   1.580 -0.1465  0.0549  0.0570
  534MPD2    H7 7989   1.721   3.629   1.570  0.2346  0.5467  0.6417
  535TMC3    C1 7990   1.356   3.422   1.112  0.0156  0.5605 -0.0857
  535TMC3    C2 7991   1.222   3.435   1.111 -0.3137 -0.1887 -0.2375
  535TMC3    C3 7992   1.152   3.430   1.000  0.1250  0.7788  0.1482
  535TMC3    C4 7993   1.430   3.405   0.995 -0.6358 -0.6277 -0.7428
  535TMC3    C5 7994   1.355   3.416   0.879 -0.2999 -0.5841 -0.1108
  535TMC3    C6 7995   1.215   3.420   0.884  0.6329  0.3416  0.4265
  535TMC3     C 7996   1.426   3.444   1.233 -0.5303 -0.2835  0.3302
  535TMC3     O 7997   1.390   3.529   1.315  0.0956 -0.2176  0.2438
  535TMC3     H 7998   1.180   3.466   1.206  1.7431  0.6638  0.3838
  535TMC3    H1 7999   1.539   3.399   0.998 -0.5546  0.1831 -2.1436
  535TMC3    H2 8000   1.159   3.413   0.791  1.1438 -0.2650  0.1653
  535TMC3    C7 8001   1.429   3.433   0.749  0.2499  0.0468  0.1064
  535TMC3    C8 8002   1.008   3.453   1.002  0.1476  0.1518 -0.3703
  535TMC3    O1 8003   1.545   3.471   0.755  0.1926 -0.2991 -0.3989
  535TMC3    O2 8004   0.960   3.451   0.891 -1.0084 -0.0423 -0.8598
  536MPD2     C 8005   0.048   1.770  16.115 -0.1304  0.1184  0.0739
  536MPD2    C1 8006   0.169   1.834  16.134 -0.3920 -0.3619 -0.1927
  536MPD2    C2 8007   0.205   1.942  16.058  0.9735 -0.3214  0.5488
  536MPD2    C3 8008   0.121   1.984  15.957 -0.2855  0.1809 -1.1736
  536MPD2    C4 8009   0.009   1.911  15.935 -0.4761 -0.2843 -0.2931
  536MPD2    C5 8010   4.712   1.806  16.012 -0.2479 -0.0199  0.2046
  536MPD2     H 8011   0.297   1.999  16.065 -0.2497  1.6237  0.8288
  536MPD2    H1 8012   4.685   1.946  15.857 -0.5153 -2.9016 -1.4428
  536MPD2    H2 8013   0.016   1.681  16.169  1.0153 -0.8255 -0.8114
  536MPD2    H3 8014   4.616   1.755  16.006 -0.3663  0.0281  1.6850
  536MPD2     N 8015   0.141   2.100  15.880 -0.3736 -0.5870  0.1714
  536MPD2    H5 8016   0.062   2.145  15.834 -0.1477  0.4364  0.7900
  536MPD2    N1 8017   0.246   1.780  16.240 -0.0935  0.7555 -0.1898
  536MPD2    H7 8018   0.194   1.704  16.283  0.0239  1.6320  1.4955
  537TMC3    C1 8019   0.427   1.748  16.388  0.2766  0.4438 -0.6561
  537TMC3    C2 8020   0.518   1.809  16.471  0.3613 -0.3530 -0.3491
  537TMC3    C3 8021   0.529   1.744  16.594 -0.0407  0.1421 -0.2369
  537TMC3    C4 8022   0.366   1.627  16.415  0.6986  0.1255 -0.4424
  537TMC3    C5 8023   0.398   1.556  16.529 -0.6233  0.4830 -0.0250
  537TMC3    C6 8024   0.467   1.627  16.625 -0.1743  0.1269  0.5342
  537TMC3     C 8025   0.366   1.834  16.291  0.1205 -0.8920 -0.4937
  537TMC3     O 8026   0.422   1.940  16.255 -0.2832 -0.0597 -0.0716
  537TMC3     H 8027   0.553   1.910  16.455  1.4868 -0.4163  1.6453
  537TMC3    H1 8028   0.289   1.580  16.356 -1.4661 -0.1431  2.5653
  537TMC3    H2 8029   0.498   1.585  16.720  1.5715 -2.1981 -1.0661
  537TMC3    C7 8030   0.305   1.456  16.576 -0.7684 -0.1993  0.5197
  537TMC3    C8 8031   0.582   1.816  16.703  0.2031  0.4150 -0.6043
  537TMC3    O1 8032   0.211   1.433  16.499 -0.8958 -0.4267  0.6617
  537TMC3    O2 8033   0.639   1.746  16.788 -0.3777  0.8763 -0.1708
  538TMC3    C1 8034   2.126   0.072  11.073 -0.3103 -0.3447 -0.4488
  538TMC3    C2 8035   2.225   0.106  10.987 -0.4297  1.1560  0.7247
  538TMC3    C3 8036   2.196   0.088  10.853 -0.4993  0.4690 -0.1522
  538TMC3    C4 8037   2.008   0.021  11.033  0.3465 -0.2803 -0.5739
  538TMC3    C5 8038   1.985   0.003  10.896  0.0766 -0.0532  0.1083
  538TMC3    C6 8039   2.072   0.043  10.808 -0.5853 -0.3227  0.5614
  538TMC3     C 8040   2.166   0.056  11.218  1.1030  0.2776 -0.3094
  538TMC3     O 8041   2.069   0.025  11.286 -0.5279  0.2783  0.5141
  538TMC3     H 8042   2.324   0.140  11.016  1.3541 -2.6533 -0.8386
  538TMC3    H1 8043   1.936   4.713  11.097 -0.7641  0.1684 -1.4743
  538TMC3    H2 8044   2.061   0.044  10.700  1.0474  2.7168  0.4362
  538TMC3    C7 8045   1.847   0.029  10.870 -0.5850 -0.1686  0.1858
  538TMC3    C8 8046   2.308   0.055  10.768 -0.2587  0.6199  0.6741
  538TMC3    O1 8047   1.769   4.736  10.956 -0.4480  0.0388 -0.0323
  538TMC3    O2 8048   2.275   4.721  10.678  0.5653 -0.3487  0.4325
  539MPD2     C 8049   2.100   4.308  11.160 -0.1835  0.3608 -1.0026
  539MPD2    C1 8050   2.044   4.190  11.196  0.9347  0.4428  0.2137
  539MPD2    C2 8051   1.912   4.192  11.233 -0.1064  0.4118  0.2183
  539MPD2    C3 8052   1.836   4.310  11.220  0.1853  0.3927 -0.2731
  539MPD2    C4 8053   1.893   4.425  11.178 -0.3209 -0.7472  0.7467
  539MPD2    C5 8054   2.024   4.420  11.148  0.0075 -0.2590 -0.0847
  539MPD2     H 8055   1.861   4.101  11.262 -0.1265  0.2782 -0.2365
  539MPD2    H1 8056   1.834   4.515  11.189  0.9100  0.0677  0.7537
  539MPD2    H2 8057   2.203   4.309  11.127 -0.3897 -1.5553 -1.7024
  539MPD2    H3 8058   2.070   4.509  11.104 -0.3729 -1.7211 -3.4758
  539MPD2     N 8059   1.700   4.320  11.253 -0.2188 -0.0016  0.5005
  539MPD2    H5 8060   1.648   4.392  11.203  1.3775  0.6027 -0.2879
  539MPD2    N1 8061   2.124   4.077  11.201  0.2635  0.6045 -0.6155
  539MPD2    H7 8062   2.078   3.988  11.214 -0.3829  1.3676  2.4332
  540TMC3    C1 8063   1.500   4.257  11.351 -0.5014 -0.2932 -0.0503
  540TMC3    C2 8064   1.429   4.287  11.240 -0.6084 -0.3472  0.4474
  540TMC3    C3 8065   1.302   4.350  11.262  0.4512  0.4034  0.0217
  540TMC3    C4 8066   1.451   4.273  11.477  0.3187 -0.4813  0.5387
  540TMC3    C5 8067   1.326   4.327  11.494  0.2552 -0.0561  0.1224
  540TMC3    C6 8068   1.257   4.375  11.394 -0.0725  0.2221  0.1683
  540TMC3     C 8069   1.639   4.230  11.341  0.3260  0.1709 -0.0986
  540TMC3     O 8070   1.690   4.149  11.414  0.1084  0.2791  0.1071
  540TMC3     H 8071   1.475   4.274  11.143 -0.5068 -0.0340  0.4524
  540TMC3    H1 8072   1.522   4.247  11.555  0.5066 -2.7827 -0.4019
  540TMC3    H2 8073   1.152   4.398  11.408  0.2217 -0.5285  3.5738
  540TMC3    C7 8074   1.253   4.323  11.620  0.1053 -0.3206 -0.7820
  540TMC3    C8 8075   1.198   4.359  11.160  0.4155  0.7077  0.1419
  540TMC3    O1 8076   1.134   4.349  11.628  0.0538 -0.6773 -0.3905
  540TMC3    O2 8077   1.099   4.432  11.180  0.3976  0.3458  0.6020
  541MPD2     C 8078   0.135   1.584  13.381  0.6433 -0.4732 -0.2181
  541MPD2    C1 8079   0.093   1.465  13.313 -0.6125  0.5875  0.4728
  541MPD2    C2 8080   0.098   1.455  13.173 -0.2162 -0.3703  0.2537
  541MPD2    C3 8081   0.137   1.557  13.096  0.1948 -0.1887  0.7993
  541MPD2    C4 8082   0.162   1.679  13.165  0.0280  0.3350  0.7559
  541MPD2    C5 8083   0.166   1.692  13.304  0.2006 -0.2006  0.1689
  541MPD2     H 8084   0.061   1.364  13.128 -0.8537 -0.1952  0.4201
  541MPD2    H1 8085   0.182   1.765  13.102  1.6413  0.0532  0.8950
  541MPD2    H2 8086   0.144   1.588  13.489  0.5523 -0.4600 -0.2112
  541MPD2    H3 8087   0.192   1.788  13.348 -0.5103 -0.0501  0.2693
  541MPD2     N 8088   0.134   1.557  12.956 -0.3671  0.2360  0.2043
  541MPD2    H5 8089   0.171   1.639  12.909 -1.0632  0.6467  0.3654
  541MPD2    N1 8090   0.069   1.346  13.390 -0.1846  0.2604  0.3508
  541MPD2    H7 8091   0.054   1.262  13.335 -0.2612 -0.9243  2.1763
  542TMC3    C1 8092   0.110   1.477  12.738  0.8541  0.3871  0.3037
  542TMC3    C2 8093   0.103   1.375  12.654 -0.0939 -0.1509 -0.2160
  542TMC3    C3 8094   0.046   1.395  12.531 -0.4958 -0.1957  0.2228
  542TMC3    C4 8095   0.057   1.602  12.711 -0.0048  0.2652 -0.3870
  542TMC3    C5 8096   4.741   1.612  12.590  0.2791  1.0529  0.2416
  542TMC3    C6 8097   4.735   1.512  12.499 -0.0842  0.0896 -0.3606
  542TMC3     C 8098   0.117   1.444  12.879 -0.5749  0.3951 -0.1688
  542TMC3     O 8099   0.124   1.328  12.912 -0.0288 -0.1754 -0.5602
  542TMC3     H 8100   0.161   1.287  12.678 -0.6726 -0.4180  0.2026
  542TMC3    H1 8101   0.072   1.693  12.767 -2.3614  0.0041  0.6633
  542TMC3    H2 8102   4.685   1.523  12.404 -0.8187  1.0814  0.1396
  542TMC3    C7 8103   4.709   1.746  12.546 -0.1808 -0.8482 -0.0498
  542TMC3    C8 8104   0.074   1.304  12.423 -0.1529  0.1180 -0.2038
  542TMC3    O1 8105   0.041   1.836  12.586  0.3799  0.5600  0.2281
  542TMC3    O2 8106   0.077   1.345  12.310 -0.0195  0.3575 -0.2136
  543TMC3    C1 8107   4.213   2.793  17.448 -0.3572 -0.6843 -0.1254
  543TMC3    C2 8108   4.190   2.680  17.523  0.9467 -0.2928  0.4276
  543TMC3    C3 8109   4.102   2.690  17.625 -0.3103 -1.3184 -1.2964
  543TMC3    C4 8110   4.163   2.918  17.479 -0.1407  0.4472  0.8217
  543TMC3    C5 8111   4.073   2.927  17.583  0.0116 -0.8060 -0.2330
  543TMC3    C6 8112   4.041   2.809  17.649  0.3692 -0.0559  0.2321
  543TMC3     C 8113   4.333   2.793  17.363 -0.1220 -0.2169 -0.1677
  543TMC3     O 8114   4.358   2.684  17.318 -0.0723  0.4707 -0.0575
  543TMC3     H 8115   4.250   2.593  17.499  0.7228 -0.5803  0.9143
  543TMC3    H1 8116   4.172   2.996  17.404  2.0506 -0.4759  0.1269
  543TMC3    H2 8117   3.947   2.796  17.702  0.7574 -1.5967  0.5364
  543TMC3    C7 8118   3.957   3.012  17.559  0.0822 -0.4584  0.3728
  543TMC3    C8 8119   4.033   2.566  17.657  0.8044 -1.3384  0.4950
  543TMC3    O1 8120   3.847   2.961  17.567  0.3569 -0.0864  0.0084
  543TMC3    O2 8121   4.023   2.474  17.583 -0.5599 -0.0146  0.0906
  544MPD2     C 8122   3.712   2.310   0.213 -0.2958 -0.0586 -0.0636
  544MPD2    C1 8123   3.757   2.278   0.090 -0.7474  0.1429  0.5252
  544MPD2    C2 8124   3.841   2.370   0.021 -0.3895  0.6826 -0.1280
  544MPD2    C3 8125   3.879   2.488   0.076 -0.3839 -1.0176  0.2487
  544MPD2    C4 8126   3.842   2.510   0.209  0.3471  0.0121  1.1301
  544MPD2    C5 8127   3.755   2.427   0.268 -0.2409 -0.3264  0.1630
  544MPD2     H 8128   3.875   2.339  17.687 -1.0009  1.7221 -0.6744
  544MPD2    H1 8129   3.886   2.591   0.265  2.5880 -0.6779  0.3654
  544MPD2    H2 8130   3.654   2.237   0.268 -1.0206 -0.1592 -0.9493
  544MPD2    H3 8131   3.743   2.437   0.376 -1.7954 -0.6110  0.0088
  544MPD2     N 8132   3.972   2.577   0.017 -0.2857 -0.2249  0.6031
  544MPD2    H5 8133   3.994   2.659   0.071 -0.1443 -1.0869  1.8537
  544MPD2    N1 8134   3.724   2.146   0.041  0.1461  0.3240 -0.4299
  544MPD2    H7 8135   3.683   2.083   0.109 -1.7999  1.2951 -0.6932
  545TMC3    C1 8136   3.732   1.959  17.665 -0.1245  0.2083  0.4628
  545TMC3    C2 8137   3.699   1.921  17.534  0.1625 -0.2280  0.0900
  545TMC3    C3 8138   3.657   1.788  17.513  0.0832  0.1937  0.2651
  545TMC3    C4 8139   3.740   1.871   0.006  0.2777  0.3314 -0.0218
  545TMC3    C5 8140   3.705   1.742  17.742  0.2600 -0.0229  0.1582
  545TMC3    C6 8141   3.672   1.696  17.617  0.3908  0.2083  0.8353
  545TMC3     C 8142   3.740   2.103  17.677  0.9036 -0.4622  0.2738
  545TMC3     O 8143   3.749   2.173  17.576 -0.0129 -0.3153  0.7446
  545TMC3     H 8144   3.677   2.000  17.463 -1.3980 -0.3346  0.4507
  545TMC3    H1 8145   3.765   1.899   0.108 -0.2484  0.0413  0.1874
  545TMC3    H2 8146   3.655   1.590  17.602 -1.4811  0.5115  0.7343
  545TMC3    C7 8147   3.711   1.646   0.083 -0.2310 -0.2890 -0.5183
  545TMC3    C8 8148   3.584   1.744  17.395 -0.1976  0.4173  0.1895
  545TMC3    O1 8149   3.641   1.663   0.184  0.2762  0.4275 -0.8997
  545TMC3    O2 8150   3.581   1.628  17.370 -0.6548 -0.1454  0.3442
  546MPD2     C 8151   1.183   2.208  17.693 -0.8458 -0.0376 -0.4613
  546MPD2    C1 8152   1.085   2.266  17.618  0.4403  0.2291  1.1189
  546MPD2    C2 8153   1.087   2.404  17.584 -0.5017  1.5450  0.2848
  546MPD2    C3 8154   1.205   2.475  17.601  0.2418 -0.3518 -0.4243
  546MPD2    C4 8155   1.304   2.408  17.672 -0.0642  0.1478 -0.4915
  546MPD2    C5 8156   1.297   2.282  17.721  0.0828  0.4245 -0.1182
  546MPD2     H 8157   0.998   2.444  17.537 -0.8157  1.2189  0.6063
  546MPD2    H1 8158   1.398   2.461  17.689  0.3026 -0.6720  0.0058
  546MPD2    H2 8159   1.178   2.103  17.721 -0.1447 -0.3709 -1.5781
  546MPD2    H3 8160   1.389   2.240  17.761  1.0398 -0.3234 -3.1695
  546MPD2     N 8161   1.232   2.611  17.567 -0.0086 -0.5141  0.1764
  546MPD2    H5 8162   1.327   2.641  17.587  1.1017 -2.2490 -2.5425
  546MPD2    N1 8163   0.970   2.187  17.591  0.2207  0.2605 -0.0478
  546MPD2    H7 8164   0.963   2.102  17.646 -1.2991 -0.2746 -1.0686
  547TMC3    C1 8165   0.753   2.129  17.498 -0.2083 -0.5742 -0.7496
  547TMC3    C2 8166   0.664   2.144  17.397  0.0921 -1.2063 -0.4247
  547TMC3    C3 8167   0.580   2.044  17.356  0.0469 -0.1195  0.3804
  547TMC3    C4 8168   0.752   2.010  17.569  0.1165 -0.6204  0.1694
  547TMC3    C5 8169   0.678   1.900  17.521 -0.4428  0.7211 -0.3340
  547TMC3    C6 8170   0.592   1.916  17.410 -0.6428  0.3878  0.0496
  547TMC3     C 8171   0.870   2.221  17.501  0.0738  0.2984  0.6800
  547TMC3     O 8172   0.878   2.306  17.410  0.2475 -0.8042  0.1738
  547TMC3     H 8173   0.671   2.232  17.334  2.7447 -1.0045  0.1337
  547TMC3    H1 8174   0.821   1.993  17.651 -1.0158  1.1159  1.4783
  547TMC3    H2 8175   0.519   1.844  17.376  0.8368 -0.9565 -0.2547
  547TMC3    C7 8176   0.644   1.793  17.616 -0.2642  0.8679 -0.5442
  547TMC3    C8 8177   0.477   2.081  17.266 -0.6085 -0.1783  0.2081
  547TMC3    O1 8178   0.645   1.816  17.734  0.4421 -0.6225 -0.1234
  547TMC3    O2 8179   0.461   2.203  17.265  0.3881 -0.2631 -0.2489
  548MPD2     C 8180   0.766   2.859  12.712 -0.3934 -0.3272 -0.1893
  548MPD2    C1 8181   0.693   2.801  12.608  0.1931  0.2013  0.3124
  548MPD2    C2 8182   0.760   2.725  12.516 -0.5586 -0.5838  0.2270
  548MPD2    C3 8183   0.894   2.697  12.523 -0.6223  0.7755 -0.4347
  548MPD2    C4 8184   0.968   2.757  12.619 -0.0897  0.4132  0.8036
  548MPD2    C5 8185   0.902   2.840  12.710  0.0367 -0.3724  0.1418
  548MPD2     H 8186   0.711   2.668  12.438  0.5052 -0.3692 -0.5982
  548MPD2    H1 8187   1.075   2.748  12.626 -0.1187 -1.4522 -0.9499
  548MPD2    H2 8188   0.716   2.925  12.781  2.5941  2.7518 -0.9554
  548MPD2    H3 8189   0.963   2.892  12.784  0.2547 -0.0636 -0.2579
  548MPD2     N 8190   0.946   2.622  12.420  0.4063  0.6270  0.0659
  548MPD2    H5 8191   0.884   2.590  12.346  0.6675  2.1180 -0.8054
  548MPD2    N1 8192   0.554   2.823  12.604  0.4487  0.1188  0.2783
  548MPD2    H7 8193   0.522   2.906  12.653  0.7139 -0.4326  1.3740
  549TMC3    C1 8194   0.327   2.783  12.551  0.4512  0.5945 -0.0097
  549TMC3    C2 8195   0.309   2.919  12.546 -0.1646  0.0307  0.2914
  549TMC3    C3 8196   0.179   2.967  12.525  0.1828 -0.2302 -0.6741
  549TMC3    C4 8197   0.231   2.691  12.519 -0.3584  0.1937 -0.3662
  549TMC3    C5 8198   0.100   2.742  12.505 -0.0608  0.2454 -0.8166
  549TMC3    C6 8199   0.080   2.874  12.525  0.2565 -0.3364  0.0215
  549TMC3     C 8200   0.463   2.741  12.548 -0.2105  0.1455  0.5518
  549TMC3     O 8201   0.485   2.630  12.504 -0.0334  0.2134  0.1571
  549TMC3     H 8202   0.394   2.985  12.542 -0.1406  0.0261  0.7539
  549TMC3    H1 8203   0.259   2.587  12.513 -0.7718 -0.0681  1.9390
  549TMC3    H2 8204   4.722   2.910  12.507  0.5181  0.9627  1.1145
  549TMC3    C7 8205   0.002   2.669  12.433 -0.1683  0.3906 -0.3152
  549TMC3    C8 8206   0.158   3.062  12.418  0.5398  0.7187 -0.1845
  549TMC3    O1 8207   4.648   2.730  12.380 -0.1690  0.2721  0.3346
  549TMC3    O2 8208   0.049   3.066  12.367  0.3374  0.0966 -0.3378
  550TMC3    C1 8209   3.982   1.445  12.886  0.3903  0.4769 -0.6616
  550TMC3    C2 8210   3.865   1.453  12.945 -0.1269  0.7332  0.1996
  550TMC3    C3 8211   3.801   1.571  12.947  0.7702 -0.2825  0.1004
  550TMC3    C4 8212   4.037   1.553  12.825  0.1600 -0.9227  0.1738
  550TMC3    C5 8213   3.970   1.668  12.821 -0.1748  0.1950  0.4438
  550TMC3    C6 8214   3.847   1.679  12.886  0.6595 -0.1998  0.0502
  550TMC3     C 8215   4.025   1.318  12.827  0.0252  0.2030 -1.1223
  550TMC3     O 8216   4.142   1.291  12.834  0.2589 -0.0528  0.1833
  550TMC3     H 8217   3.817   1.360  12.972  5.0421 -1.9588  0.1655
  550TMC3    H1 8218   4.121   1.531  12.760  0.1100 -0.6568  0.0193
  550TMC3    H2 8219   3.794   1.773  12.884  0.9797 -0.0375 -0.7748
  550TMC3    C7 8220   3.957   1.735  12.691  0.4938  0.4488 -0.2735
  550TMC3    C8 8221   3.656   1.575  12.943  0.0103  0.2055 -0.5424
  550TMC3    O1 8222   3.859   1.801  12.665  0.1417 -0.9132  0.3628
  550TMC3    O2 8223   3.601   1.658  12.872  0.5593  0.2328  0.3764
  551TMC3    C1 8224   1.811   3.493  13.161 -0.0429 -0.1001  0.5574
  551TMC3    C2 8225   1.906   3.529  13.073  0.3479 -0.1630  0.0529
  551TMC3    C3 8226   1.970   3.648  13.087 -0.8593 -0.3983  0.8159
  551TMC3    C4 8227   1.773   3.576  13.267 -0.1537  0.3894 -0.1766
  551TMC3    C5 8228   1.832   3.701  13.278  0.7499  0.3436 -0.0051
  551TMC3    C6 8229   1.923   3.741  13.187  0.7500 -1.0790  0.1645
  551TMC3     C 8230   1.733   3.377  13.113 -0.0943  0.0967  0.0310
  551TMC3     O 8231   1.730   3.350  12.993 -0.2416 -0.0841  0.2439
  551TMC3     H 8232   1.943   3.455  13.003  1.2977 -1.1799  1.6088
  551TMC3    H1 8233   1.698   3.539  13.337  0.3231 -2.8599 -1.3972
  551TMC3    H2 8234   1.956   3.844  13.194 -1.7572 -0.2567 -0.1590
  551TMC3    C7 8235   1.822   3.771  13.407  0.2152  0.2144  0.2738
  551TMC3    C8 8236   2.033   3.693  12.966 -0.3093 -0.4681 -0.1445
  551TMC3    O1 8237   1.796   3.710  13.510 -0.3491 -0.2233 -0.3619
  551TMC3    O2 8238   2.077   3.611  12.887  0.2626  0.0132  0.4875
  552MPD2     C 8239   3.629   0.837  14.219 -0.4478  0.1725 -0.4542
  552MPD2    C1 8240   3.747   0.785  14.172 -0.3956  0.2766  0.0359
  552MPD2    C2 8241   3.867   0.817  14.237  0.2520 -0.0763 -0.0126
  552MPD2    C3 8242   3.868   0.903  14.347  0.2137 -0.5527  0.5087
  552MPD2    C4 8243   3.749   0.959  14.388 -0.2191 -0.1854  0.0943
  552MPD2    C5 8244   3.631   0.923  14.327  0.1563 -0.4896 -0.7745
  552MPD2     H 8245   3.960   0.773  14.202  0.0121 -1.6183  1.2999
  552MPD2    H1 8246   3.739   1.031  14.468 -0.8054 -0.0464 -0.1030
  552MPD2    H2 8247   3.532   0.823  14.173 -0.2942  1.4502 -1.1629
  552MPD2    H3 8248   3.539   0.955  14.375  0.1258 -0.0742 -1.1173
  552MPD2     N 8249   3.980   0.939  14.422 -0.6979 -0.1532 -0.3622
  552MPD2    H5 8250   3.971   0.985  14.512 -0.1572 -0.3159 -0.2236
  552MPD2    N1 8251   3.751   0.686  14.079  0.5786 -0.7116 -0.5214
  552MPD2    H7 8252   3.831   0.624  14.079 -0.2099 -1.7104 -0.1054
  553TMC3    C1 8253   3.681   0.536  13.917  0.0045 -0.4827 -0.7481
  553TMC3    C2 8254   3.620   0.534  13.789  0.2080  0.1731 -0.4038
  553TMC3    C3 8255   3.664   0.432  13.707  0.1831 -0.4329 -0.1186
  553TMC3    C4 8256   3.773   0.448  13.964  0.6249  0.0224 -1.5315
  553TMC3    C5 8257   3.796   0.344  13.876  0.9454  0.7542 -0.2779
  553TMC3    C6 8258   3.759   0.345  13.746 -0.5728 -0.9135  0.0913
  553TMC3     C 8259   3.644   0.649  13.998 -0.0225  0.8657  0.2694
  553TMC3     O 8260   3.542   0.706  13.970 -0.2250  0.0757  0.2313
  553TMC3     H 8261   3.563   0.620  13.756  2.3894  1.3833 -1.0302
  553TMC3    H1 8262   3.786   0.448  14.071  0.0620  1.8289 -1.4798
  553TMC3    H2 8263   3.801   0.276  13.673 -0.1299 -1.3371  0.7462
  553TMC3    C7 8264   3.877   0.233  13.913 -0.3993  0.3546 -0.2193
  553TMC3    C8 8265   3.620   0.424  13.569 -0.4939  0.4274  0.4143
  553TMC3    O1 8266   3.861   0.127  13.856  0.0559 -0.0866 -0.0166
  553TMC3    O2 8267   3.689   0.359  13.497  0.3815 -0.5870 -0.2175
  554TMC3    C1 8268   0.498   4.276  11.643 -0.4094  0.4758  0.1914
  554TMC3    C2 8269   0.441   4.208  11.537 -0.4378  0.2744  0.5818
  554TMC3    C3 8270   0.413   4.275  11.423 -0.0942  0.7139 -0.3702
  554TMC3    C4 8271   0.531   4.413  11.638  0.6147 -0.0523 -0.0919
  554TMC3    C5 8272   0.482   4.476  11.526 -0.0883 -0.0751 -0.4420
  554TMC3    C6 8273   0.419   4.410  11.428  0.3151  0.0610 -0.2768
  554TMC3     C 8274   0.482   4.207  11.769  0.2867  1.0665 -0.0166
  554TMC3     O 8275   0.374   4.147  11.783  0.0134  0.7015  0.7683
  554TMC3     H 8276   0.428   4.100  11.544 -0.8825  0.2107 -1.0841
  554TMC3    H1 8277   0.585   4.451  11.724 -1.8346 -0.6841  1.7212
  554TMC3    H2 8278   0.367   4.467  11.353  0.4309  3.0013  1.8857
  554TMC3    C7 8279   0.557   4.591  11.468  0.2389  0.4234  0.2021
  554TMC3    C8 8280   0.451   4.221  11.285 -0.4220  0.3706 -0.1033
  554TMC3    O1 8281   0.574   4.599  11.346 -0.6878  0.1005  0.3754
  554TMC3    O2 8282   0.509   4.298  11.217 -0.5206 -0.3178  0.2437
  555TMC3    C1 8283   4.641   4.411  14.839  0.3566  0.1208  0.0258
  555TMC3    C2 8284   4.702   4.495  14.931  0.2894 -0.5582 -0.3598
  555TMC3    C3 8285   4.713   4.459  15.063 -0.4911  0.4130 -0.3108
  555TMC3    C4 8286   4.601   4.290  14.884  0.1078  0.3112 -0.6502
  555TMC3    C5 8287   4.617   4.252  15.013  0.6694 -0.0026  0.1681
  555TMC3    C6 8288   4.675   4.336  15.110 -0.2681 -0.3000 -0.4725
  555TMC3     C 8289   4.617   4.452  14.700  0.7321  0.4128 -0.0709
  555TMC3     O 8290   4.696   4.526  14.644 -0.5912  0.1344 -0.0190
  555TMC3     H 8291   4.717   4.596  14.894  0.5215  0.0254  1.2870
  555TMC3    H1 8292   4.558   4.216  14.817  1.3564 -2.9564  2.1637
  555TMC3    H2 8293   4.663   4.316  15.216 -1.7916  1.0204 -0.3979
  555TMC3    C7 8294   4.612   4.114  15.046 -0.3686  0.1158 -0.3764
  555TMC3    C8 8295   0.049   4.557  15.140 -0.7073 -0.1311 -0.2785
  555TMC3    O1 8296   4.522   4.049  14.999  0.2060 -0.0459  0.2818
  555TMC3    O2 8297   0.104   4.647  15.082  0.1612  0.0093  0.1759
  556MPD2     C 8298   3.035   1.082  11.314 -0.4123 -0.1104  0.6575
  556MPD2    C1 8299   2.926   1.011  11.274  0.2726  0.2931 -0.4294
  556MPD2    C2 8300   2.938   0.913  11.178  0.4685 -0.5928 -0.2378
  556MPD2    C3 8301   3.058   0.886  11.111  0.1386 -0.1754 -0.1453
  556MPD2    C4 8302   3.169   0.951  11.159 -0.4413 -0.2779 -0.4528
  556MPD2    C5 8303   3.155   1.049  11.257  0.6731 -0.3930 -0.1227
  556MPD2     H 8304   2.857   0.852  11.141 -1.1949  1.1203  0.6138
  556MPD2    H1 8305   3.267   0.929  11.117 -0.7897 -0.4011 -1.1933
  556MPD2    H2 8306   3.025   1.149  11.399 -1.9039 -0.2660  0.5947
  556MPD2    H3 8307   3.240   1.099  11.302 -0.2103  0.7018  0.3461
  556MPD2     N 8308   3.060   0.778  11.015 -1.0450 -0.0951  0.6343
  556MPD2    H5 8309   2.974   0.731  10.992 -0.7063 -0.5853  0.3623
  556MPD2    N1 8310   2.800   1.024  11.337  0.7396 -0.0226  0.3182
  556MPD2    H7 8311   2.728   0.965  11.297  0.4266  0.0923  0.7091
  557TMC3    C1 8312   3.131   0.638  10.857 -0.7150  0.1900 -0.1678
  557TMC3    C2 8313   3.228   0.618  10.756  0.0154  0.2398 -0.1872
  557TMC3    C3 8314   3.213   0.511  10.672  0.1853 -0.1498 -1.0405
  557TMC3    C4 8315   3.023   0.557  10.872 -0.3071  0.1641 -0.4252
  557TMC3    C5 8316   3.009   0.454  10.786 -0.2260 -0.3102  0.5389
  557TMC3    C6 8317   3.105   0.432  10.689 -0.3503 -0.3529  0.2365
  557TMC3     C 8318   3.170   0.737  10.954  0.4227 -1.7077  0.2675
  557TMC3     O 8319   3.287   0.776  10.958  0.2787  0.1276 -0.2271
  557TMC3     H 8320   3.310   0.687  10.741 -0.3807  0.7937  0.2077
  557TMC3    H1 8321   2.954   0.566  10.955  0.7193 -0.8708  0.5388
  557TMC3    H2 8322   3.091   0.356  10.613 -2.8066 -0.4556  0.7891
  557TMC3    C7 8323   2.880   0.376  10.790  0.1441 -0.0874  0.5841
  557TMC3    C8 8324   3.292   0.510  10.551  0.1173  0.3493  0.1905
  557TMC3    O1 8325   2.796   0.421  10.867  0.3391  0.3479  0.7087
  557TMC3    O2 8326   3.327   0.615  10.500  0.0769 -0.1407  0.8373
  558TMC3    C1 8327   0.659   3.697  10.180  0.0983  0.7134 -0.2942
  558TMC3    C2 8328   0.538   3.646  10.218 -0.0192 -0.1161  0.4910
  558TMC3    C3 8329   0.425   3.701  10.156  0.0356  0.1428  0.2181
  558TMC3    C4 8330   0.675   3.799  10.084  1.0456  0.2957 -0.1202
  558TMC3    C5 8331   0.562   3.853  10.026 -0.7039  0.1389  0.5611
  558TMC3    C6 8332   0.442   3.795  10.058  0.3303  0.1156 -0.2066
  558TMC3     C 8333   0.767   3.675  10.274  0.2085 -0.3078 -0.0546
  558TMC3     O 8334   0.781   3.572  10.333  0.3504 -0.0916 -0.2088
  558TMC3     H 8335   0.542   3.563  10.287 -2.9268 -0.8931 -0.2622
  558TMC3    H1 8336   0.772   3.837  10.056  0.7479 -1.3021 -3.3668
  558TMC3    H2 8337   0.349   3.834  10.018  1.2216  1.8060 -0.6232
  558TMC3    C7 8338   0.573   3.824   9.884  0.2561 -0.4595  0.0843
  558TMC3    C8 8339   0.316   3.615  10.115  0.3158 -0.2975  0.3324
  558TMC3    O1 8340   0.680   3.870   9.835  0.3150 -0.1500  0.7620
  558TMC3    O2 8341   0.258   3.635  10.011 -0.1341 -0.0251  0.8394
  559MPD2     C 8342   0.261   3.866  10.482 -0.1716  0.1190  0.4081
  559MPD2    C1 8343   0.279   3.743  10.535 -0.1915 -0.0460  0.4431
  559MPD2    C2 8344   0.404   3.710  10.582  0.0842 -0.5796 -0.8573
  559MPD2    C3 8345   0.508   3.797  10.574 -0.1650  0.1385 -0.5454
  559MPD2    C4 8346   0.492   3.912  10.506 -0.0526  0.3779  0.5456
  559MPD2    C5 8347   0.368   3.950  10.457 -0.0735 -0.4094 -0.1134
  559MPD2     H 8348   0.426   3.614  10.628 -3.0218 -1.7404 -1.7631
  559MPD2    H1 8349   0.575   3.980  10.485  0.4023 -0.3922 -0.1192
  559MPD2    H2 8350   0.168   3.909  10.446  0.8797  1.2775 -0.9347
  559MPD2    H3 8351   0.351   4.040  10.399  1.5699 -0.0933 -0.0916
  559MPD2     N 8352   0.627   3.764  10.639 -1.0432 -0.6885  0.1108
  559MPD2    H5 8353   0.637   3.670  10.677  0.3908  0.2637  2.0892
  559MPD2    N1 8354   0.174   3.655  10.542 -0.8287 -0.3760  0.6584
  559MPD2    H7 8355   0.081   3.682  10.512 -0.2436  0.2659 -0.5665
  560TMC3    C1 8356   0.841   3.762  10.739  0.0903 -0.1039  0.6132
  560TMC3    C2 8357   0.810   3.630  10.755 -0.5908 -0.0403 -0.1050
  560TMC3    C3 8358   0.826   3.577  10.880 -0.5882 -0.4079 -0.6064
  560TMC3    C4 8359   0.895   3.832  10.835 -0.6930  0.1749  0.4711
  560TMC3    C5 8360   0.909   3.776  10.962 -0.7084 -0.4462  0.3682
  560TMC3    C6 8361   0.863   3.652  10.984  0.5422 -0.1617 -0.2261
  560TMC3     C 8362   0.737   3.839  10.659 -0.0257  0.6083  0.3214
  560TMC3     O 8363   0.741   3.962  10.647 -0.1954  0.6000 -0.5731
  560TMC3     H 8364   0.761   3.572  10.677  0.0279 -0.3005 -0.3015
  560TMC3    H1 8365   0.931   3.932  10.814  0.7157 -0.6983 -1.2651
  560TMC3    H2 8366   0.882   3.601  11.078  1.0090 -0.2962 -0.3951
  560TMC3    C7 8367   0.998   3.835  11.059 -0.0979  0.7693  0.6835
  560TMC3    C8 8368   0.729   3.471  10.904 -0.3544 -1.3744 -0.0260
  560TMC3    O1 8369   0.975   3.800  11.173  0.2804 -1.3564  0.1350
  560TMC3    O2 8370   0.769   3.361  10.933 -0.3266 -0.4334  0.0098
  561TMC3    C1 8371   3.170   2.849  11.413  0.2309 -0.0024 -0.5001
  561TMC3    C2 8372   3.083   2.805  11.510 -0.3117 -0.1906  0.0865
  561TMC3    C3 8373   2.989   2.893  11.558 -0.4628 -0.5261 -0.6401
  561TMC3    C4 8374   3.162   2.970  11.354 -0.3485  0.2170  0.6401
  561TMC3    C5 8375   3.049   3.047  11.385 -0.1928 -0.0323 -0.3681
  561TMC3    C6 8376   2.962   3.007  11.486  0.4190  1.0409 -0.7918
  561TMC3     C 8377   3.283   2.757  11.390  0.3899 -0.2721  0.1669
  561TMC3     O 8378   3.277   2.654  11.450  0.2017  0.0435  0.6064
  561TMC3     H 8379   3.099   2.714  11.567  0.6022 -0.0195  0.1127
  561TMC3    H1 8380   3.232   2.995  11.275 -1.6885 -1.0352 -0.9391
  561TMC3    H2 8381   2.884   3.076  11.516 -1.1847 -0.9139 -0.5108
  561TMC3    C7 8382   3.051   3.189  11.362  0.8400  0.8755  0.1451
  561TMC3    C8 8383   2.879   2.832  11.614  0.3073 -0.1005 -0.1880
  561TMC3    O1 8384   2.968   3.260  11.424 -0.4220  0.3886  0.0644
  561TMC3    O2 8385   2.864   2.717  11.588  0.0439  0.4043 -0.0036
  562TMC3    C1 8386   4.143   4.516  16.142  0.0752 -0.2599 -0.1708
  562TMC3    C2 8387   4.041   4.603  16.121  0.0421  0.2950 -0.1244
  562TMC3    C3 8388   3.915   4.564  16.165 -0.4949 -0.3696 -0.3778
  562TMC3    C4 8389   4.127   4.395  16.206  0.0757 -0.2712  0.3337
  562TMC3    C5 8390   3.999   4.354  16.237  1.0197  0.3438  0.8225
  562TMC3    C6 8391   3.892   4.436  16.218 -0.6182 -0.1468  0.4815
  562TMC3     C 8392   4.274   4.569  16.122  0.2462  0.4631  0.5162
  562TMC3     O 8393   4.368   4.538  16.194  0.0963  0.0875 -0.2130
  562TMC3     H 8394   4.062   4.702  16.082  2.0291 -1.1538 -2.7695
  562TMC3    H1 8395   4.216   4.334  16.214  0.7419  0.6670  0.0763
  562TMC3    H2 8396   3.792   4.394  16.220 -1.6297  2.2473  0.9705
  562TMC3    C7 8397   3.976   4.210  16.246  1.1241 -0.2682  0.1970
  562TMC3    C8 8398   3.797   4.632  16.117 -0.6918  0.2231  0.7874
  562TMC3    O1 8399   3.855   4.185  16.241  0.1709 -0.2603 -0.1666
  562TMC3    O2 8400   3.689   4.606  16.167 -0.3003 -0.2560  0.4334
  563MPD2     C 8401   1.735   0.670  15.665  0.3508 -0.0796  0.2733
  563MPD2    C1 8402   1.751   0.795  15.711 -0.2249  0.3993 -0.6565
  563MPD2    C2 8403   1.830   0.817  15.823 -0.2822  0.0867 -0.1244
  563MPD2    C3 8404   1.902   0.720  15.888  0.6816 -0.0647  0.4795
  563MPD2    C4 8405   1.895   0.595  15.834  0.7541  0.1507  0.0764
  563MPD2    C5 8406   1.806   0.570  15.725  0.0514 -0.3727  0.5024
  563MPD2     H 8407   1.846   0.915  15.867 -0.5072 -0.9395  2.2691
  563MPD2    H1 8408   1.926   0.509  15.891 -2.2895 -0.6670  0.4485
  563MPD2    H2 8409   1.669   0.648  15.582 -0.2114  0.2309  0.6403
  563MPD2    H3 8410   1.794   0.470  15.686  3.4112 -0.1977 -0.9572
  563MPD2     N 8411   1.980   0.753  16.002 -0.1774 -0.3040 -0.7086
  563MPD2    H5 8412   1.959   0.848  16.031  3.2396 -0.7095  2.9939
  563MPD2    N1 8413   1.671   0.901  15.662 -0.9787 -1.2542  0.3252
  563MPD2    H7 8414   1.601   0.873  15.594  0.1310 -4.2411  0.4037
  564TMC3    C1 8415   1.556   1.031  15.816 -0.5237 -0.0907 -0.0862
  564TMC3    C2 8416   1.442   0.968  15.776 -0.1759  0.1210  0.0580
  564TMC3    C3 8417   1.369   0.892  15.861  0.7421  0.0223  0.5601
  564TMC3    C4 8418   1.610   1.012  15.938 -0.1278 -0.0135 -0.2582
  564TMC3    C5 8419   1.529   0.945  16.027 -0.2340 -0.5248 -0.1647
  564TMC3    C6 8420   1.410   0.887  15.987 -0.0725 -0.4059  0.4520
  564TMC3     C 8421   1.667   1.033  15.716 -0.0340 -0.3821  0.0701
  564TMC3     O 8422   1.771   1.097  15.745  0.0147  0.3187 -0.2207
  564TMC3     H 8423   1.404   0.974  15.675 -0.6374 -1.6909  0.1093
  564TMC3    H1 8424   1.705   1.051  15.974 -0.9319  1.1052  0.6384
  564TMC3    H2 8425   1.349   0.830  16.057  0.6069 -0.1724  1.2374
  564TMC3    C7 8426   1.606   0.870  16.127  0.4377  0.2379 -0.8112
  564TMC3    C8 8427   1.357   0.755  15.805 -0.1790 -0.7146 -0.5834
  564TMC3    O1 8428   1.703   0.930  16.180 -0.4880 -0.1669 -0.0041
  564TMC3    O2 8429   1.356   0.661  15.886  0.1844  0.4655  0.2437
  565TMC3    C1 8430   2.464   2.086  10.203 -0.0190  0.0024 -0.1669
  565TMC3    C2 8431   2.479   2.055  10.337 -0.0393 -0.9596  0.3625
  565TMC3    C3 8432   2.413   1.944  10.384  1.1342 -0.5472  0.5490
  565TMC3    C4 8433   2.375   2.016  10.130 -0.6931 -0.6471 -0.5859
  565TMC3    C5 8434   2.297   1.919  10.185  0.4445 -0.5142 -0.8020
  565TMC3    C6 8435   2.317   1.874  10.311  0.7542  0.2760  0.5976
  565TMC3     C 8436   2.548   2.189  10.140 -0.7390  0.1578 -0.0770
  565TMC3     O 8437   2.529   2.209  10.020  0.5749 -0.0416  0.3184
  565TMC3     H 8438   2.548   2.118  10.393  1.0765 -0.8030 -1.1868
  565TMC3    H1 8439   2.366   2.036  10.024 -1.3318  0.5214 -0.3117
  565TMC3    H2 8440   2.244   1.811  10.360 -2.1016  2.3752 -0.9753
  565TMC3    C7 8441   2.224   1.834  10.091 -0.4452  0.5703  0.2594
  565TMC3    C8 8442   2.411   1.921  10.529  0.0854 -0.4276 -0.2486
  565TMC3    O1 8443   2.223   1.867   9.976 -0.0284 -0.5028 -0.2305
  565TMC3    O2 8444   2.321   1.846  10.560 -0.0862  0.4803 -0.6140
  566MPD2     C 8445   3.998   3.182  14.051 -1.0712 -0.4375  0.4334
  566MPD2    C1 8446   4.004   3.322  14.036 -0.5164 -0.0899 -0.1352
  566MPD2    C2 8447   3.890   3.384  13.991  0.1993  0.1007 -0.3851
  566MPD2    C3 8448   3.774   3.313  13.952 -0.0833 -0.6487 -0.4172
  566MPD2    C4 8449   3.776   3.178  13.964  0.2031  0.2113 -0.4026
  566MPD2    C5 8450   3.890   3.112  14.018  0.2939 -0.8494 -0.1432
  566MPD2     H 8451   3.873   3.491  13.981  0.9936  0.1823 -0.8919
  566MPD2    H1 8452   3.690   3.115  13.946 -0.3952  0.9637 -0.1426
  566MPD2    H2 8453   4.090   3.130  14.073 -1.0881 -0.4620  0.4464
  566MPD2    H3 8454   3.897   3.004  14.024 -0.2261 -0.7945  1.5152
  566MPD2     N 8455   3.670   3.387  13.899  0.0882 -0.1307 -0.8849
  566MPD2    H5 8456   3.688   3.485  13.883 -1.0756  0.4096  1.0328
  566MPD2    N1 8457   4.125   3.396  14.051 -0.0966  0.0787  0.6133
  566MPD2    H7 8458   4.211   3.350  14.077  0.8930  0.5012 -1.9348
  567TMC3    C1 8459   4.264   3.584  14.048  0.1265  0.1835  0.7460
  567TMC3    C2 8460   4.344   3.540  13.945 -0.1516 -0.1473  0.0248
  567TMC3    C3 8461   4.453   3.619  13.919  0.5086 -0.8347  0.1781
  567TMC3    C4 8462   4.283   3.692  14.129 -0.4337  0.4255  0.0695
  567TMC3    C5 8463   4.394   3.766  14.100 -0.3669  0.8509 -0.6645
  567TMC3    C6 8464   4.478   3.731  13.994 -0.1946 -0.5916  0.0932
  567TMC3     C 8465   4.131   3.535  14.043 -0.0995  0.9122 -0.4809
  567TMC3     O 8466   4.047   3.621  14.026 -0.5142  0.5701 -0.5006
  567TMC3     H 8467   4.310   3.463  13.877  2.1350 -0.6922 -0.5032
  567TMC3    H1 8468   4.209   3.717  14.205 -0.4445  0.8318 -0.0737
  567TMC3    H2 8469   4.570   3.785  13.972 -0.2772  0.7863  3.2027
  567TMC3    C7 8470   4.421   3.879  14.182 -0.4142  0.3424 -0.0703
  567TMC3    C8 8471   4.476   3.650  13.780  0.8145  0.1573  0.0901
  567TMC3    O1 8472   4.538   3.919  14.181  1.0827  0.2127  0.2831
  567TMC3    O2 8473   4.532   3.756  13.760  0.0113  0.5907  0.2000
  568MPD2     C 8474   1.520   3.954  16.035 -0.0984  0.3660 -0.3113
  568MPD2    C1 8475   1.588   4.053  16.103 -0.2650  0.4416 -0.4370
  568MPD2    C2 8476   1.563   4.184  16.063 -0.4608 -0.6993 -0.6566
  568MPD2    C3 8477   1.487   4.210  15.957  0.2265 -0.9146 -0.0665
  568MPD2    C4 8478   1.428   4.109  15.882 -0.0638  0.6315  0.1094
  568MPD2    C5 8479   1.431   3.984  15.929 -0.0081  0.3057  0.1138
  568MPD2     H 8480   1.598   4.274  16.112 -1.3065  0.4852 -2.2239
  568MPD2    H1 8481   1.378   4.128  15.788  0.4749  2.0391  0.1106
  568MPD2    H2 8482   1.541   3.852  16.066 -0.2879  0.1329 -0.9494
  568MPD2    H3 8483   1.377   3.903  15.883  1.2863 -0.3417 -0.2558
  568MPD2     N 8484   1.477   4.346  15.914 -0.0010 -0.0373 -0.5213
  568MPD2    H5 8485   1.510   4.413  15.982 -1.5434  1.6789 -1.4594
  568MPD2    N1 8486   1.668   4.012  16.207  0.2111  0.0327 -0.3134
  568MPD2    H7 8487   1.656   3.914  16.230  2.7184 -0.1234  0.3225
  569TMC3    C1 8488   1.386   4.539  15.798 -0.2139  0.5885  0.2400
  569TMC3    C2 8489   1.329   4.580  15.912  0.1030 -0.9268  0.5760
  569TMC3    C3 8490   1.326   4.712  15.953  0.0871 -0.0321 -0.4328
  569TMC3    C4 8491   1.445   4.632  15.717  0.2301  0.2543 -0.1578
  569TMC3    C5 8492   1.442   0.023  15.756  0.4516  0.1605  0.8800
  569TMC3    C6 8493   1.386   0.064  15.875 -0.3374  0.8039 -1.1777
  569TMC3     C 8494   1.438   4.399  15.792 -0.1322  0.4056 -0.0067
  569TMC3     O 8495   1.446   4.352  15.683 -0.3840 -0.9434 -0.0553
  569TMC3     H 8496   1.305   4.503  15.984  0.3299 -1.4729  0.0721
  569TMC3    H1 8497   1.505   4.602  15.632 -0.9931  0.5211 -1.1191
  569TMC3    H2 8498   1.385   0.170  15.896 -0.6864  0.6314 -0.3587
  569TMC3    C7 8499   1.447   0.122  15.648 -0.8457 -0.5194 -0.4932
  569TMC3    C8 8500   1.280   0.001  16.087 -0.4463  0.5881  0.9226
  569TMC3    O1 8501   1.442   0.076  15.534  0.4670  0.8241  0.3594
  569TMC3    O2 8502   1.217   4.647  16.138  0.5714  0.0827  0.1548
  570TMC3    C1 8503   1.084   3.113  16.200 -0.4914  0.1015  0.6039
  570TMC3    C2 8504   1.112   3.187  16.087  0.9593  0.4599 -0.4983
  570TMC3    C3 8505   1.181   3.304  16.099  0.0659  0.6625 -0.4924
  570TMC3    C4 8506   1.112   3.165  16.320  0.7856 -0.4367 -0.4932
  570TMC3    C5 8507   1.168   3.290  16.330  0.1353 -0.2530  0.0460
  570TMC3    C6 8508   1.204   3.356  16.222  0.4516  0.7396  0.0766
  570TMC3     C 8509   1.036   2.981  16.187  0.1577  0.4077 -0.4886
  570TMC3     O 8510   0.973   2.957  16.083  0.1325 -0.1604 -0.2287
  570TMC3     H 8511   1.111   3.137  15.990  0.3773 -0.7514  0.1272
  570TMC3    H1 8512   1.098   3.098  16.404 -2.9339  1.2834  0.2691
  570TMC3    H2 8513   1.265   3.445  16.234  1.0752  0.4527 -0.9986
  570TMC3    C7 8514   1.183   3.355  16.462  0.1625 -0.2080 -0.3336
  570TMC3    C8 8515   1.229   3.389  15.987  0.1895 -0.1200  0.4655
  570TMC3    O1 8516   1.236   3.464  16.466  0.1383  0.4343 -0.2265
  570TMC3    O2 8517   1.279   3.501  16.017  0.0661 -0.2901 -0.0998
  571MPD2     C 8518   3.130   0.223  17.335 -0.0707 -0.2565  0.6027
  571MPD2    C1 8519   3.121   0.160  17.462  0.6649 -0.2632  0.4861
  571MPD2    C2 8520   3.135   0.241  17.578 -0.0922 -0.1823 -0.5032
  571MPD2    C3 8521   3.179   0.370  17.565 -0.0011 -0.0907  0.5169
  571MPD2    C4 8522   3.200   0.421  17.446  0.0864  0.0946  0.4335
  571MPD2    C5 8523   3.179   0.352  17.336 -0.4857 -0.0172 -0.3599
  571MPD2     H 8524   3.117   0.200  17.677  0.6484  0.2662 -0.1810
  571MPD2    H1 8525   3.249   0.516  17.432 -0.7421  0.3795 -0.5560
  571MPD2    H2 8526   3.115   0.171  17.241  0.3169 -1.7234  1.3498
  571MPD2    H3 8527   3.201   0.400  17.242  0.1972 -0.5407 -0.4679
  571MPD2     N 8528   3.224   0.447  17.679  0.2201  0.3725  0.2883
  571MPD2    H5 8529   3.260   0.539  17.656  0.4236  0.3851  0.6616
  571MPD2    N1 8530   3.090   0.021  17.464  0.3093  0.2627  0.1973
  571MPD2    H7 8531   3.083   4.715  17.375  2.7803  0.6285 -0.1935
  572TMC3    C1 8532   3.300   0.491   0.132 -0.0791  0.4018  0.4910
  572TMC3    C2 8533   3.390   0.439   0.225  0.1232  0.1506 -0.2034
  572TMC3    C3 8534   3.466   0.524   0.301  0.7415 -0.4797  0.3767
  572TMC3    C4 8535   3.287   0.628   0.121  0.0905 -0.3439 -0.1597
  572TMC3    C5 8536   3.357   0.706   0.202 -0.2562 -0.3080  0.0326
  572TMC3    C6 8537   3.448   0.656   0.288  0.4492  0.1383  0.7314
  572TMC3     C 8538   3.230   0.401   0.043 -0.8074 -0.6587 -0.3067
  572TMC3     O 8539   3.225   0.290   0.090 -0.0760  0.2975 -0.4474
  572TMC3     H 8540   3.419   0.335   0.220  0.0711  0.0747  0.9967
  572TMC3    H1 8541   3.224   0.667   0.042 -1.0310 -2.2902 -0.2086
  572TMC3    H2 8542   3.519   0.719   0.342  2.5929 -1.4651 -0.2261
  572TMC3    C7 8543   3.342   0.850   0.187  1.0640  0.8380  0.5367
  572TMC3    C8 8544   3.569   0.468   0.378  0.1289 -0.2287  0.4902
  572TMC3    O1 8545   3.289   0.894   0.083 -0.6963  0.1958  0.2639
  572TMC3    O2 8546   3.605   0.354   0.348  0.1269 -0.1514 -0.1278
  573MPD2     C 8547   0.003   0.374   0.269 -0.0245 -1.0435  0.9168
  573MPD2    C1 8548   4.714   0.491   0.342  0.5083 -0.3443 -0.3855
  573MPD2    C2 8549   4.638   0.583   0.273 -0.4487 -0.1420  0.9609
  573MPD2    C3 8550   4.604   0.570   0.136  0.0000  0.3521  0.1464
  573MPD2    C4 8551   4.632   0.452   0.075 -0.3266 -0.5512 -0.0484
  573MPD2    C5 8552   4.701   0.356   0.142  0.2892 -0.0251 -0.3908
  573MPD2     H 8553   4.616   0.678   0.321 -0.2374 -1.3928  3.5248
  573MPD2    H1 8554   4.600   0.431  17.738  0.1787 -2.9293  0.2896
  573MPD2    H2 8555   0.060   0.294   0.314  0.9763 -1.0292 -0.3511
  573MPD2    H3 8556   4.714   0.256   0.103 -0.4800 -0.0947 -0.4757
  573MPD2     N 8557   4.520   0.669   0.071  0.0687  0.0761 -0.3251
  573MPD2    H5 8558   4.481   0.646  17.744  0.7737  0.9108 -0.8390
  573MPD2    N1 8559   0.023   0.511   0.473 -0.1420 -0.3443 -0.0713
  573MPD2    H7 8560   4.727   0.595   0.516 -1.9393 -1.6220  0.8455
  574TMC3    C1 8561   4.345   0.821   0.054 -0.2229 -0.0284 -0.1201
  574TMC3    C2 8562   4.246   0.880   0.129  0.2233 -0.7093  0.6092
  574TMC3    C3 8563   4.149   0.936   0.064 -0.1809  0.2826  0.2972
  574TMC3    C4 8564   4.354   0.845  17.687  0.3615  0.5213  0.4227
  574TMC3    C5 8565   4.249   0.904  17.617  0.4058 -0.3499 -0.0486
  574TMC3    C6 8566   4.150   0.952  17.697  0.2263 -0.3865 -0.7374
  574TMC3     C 8567   4.458   0.779   0.129 -0.6208 -0.0723  0.0691
  574TMC3     O 8568   4.472   0.824   0.243 -0.0788  0.4427  0.1117
  574TMC3     H 8569   4.238   0.873   0.237 -1.2936  0.0811  0.5386
  574TMC3    H1 8570   4.437   0.802  17.632  0.1979  3.6170 -2.2751
  574TMC3    H2 8571   4.057   0.993  17.659 -0.4374 -1.3872 -0.2174
  574TMC3    C7 8572   4.260   0.939  17.481  0.0236  0.5184  0.0725
  574TMC3    C8 8573   4.060   1.013   0.151  0.3422 -0.3798  1.1124
  574TMC3    O1 8574   4.367   0.911  17.437  0.1137 -0.3104  0.2530
  574TMC3    O2 8575   4.038   0.979   0.269 -0.5545  0.0017  0.0010
  575TMC3    C1 8576   2.070   1.834  11.363  0.2832 -1.1024  0.8393
  575TMC3    C2 8577   2.060   1.701  11.406  0.9473  0.2246 -0.4658
  575TMC3    C3 8578   2.098   1.605  11.317 -0.7319  0.2378  0.3967
  575TMC3    C4 8579   2.133   1.872  11.252 -0.2747  0.4295 -0.9001
  575TMC3    C5 8580   2.165   1.774  11.164  0.2315 -0.1340 -0.4387
  575TMC3    C6 8581   2.144   1.644  11.195  0.2365 -0.2514  0.1923
  575TMC3     C 8582   2.053   1.938  11.464  0.1232  0.0852 -0.4135
  575TMC3     O 8583   2.045   2.052  11.425 -0.0609  0.0653 -0.0207
  575TMC3     H 8584   2.001   1.672  11.492 -1.4242 -1.7499 -2.7305
  575TMC3    H1 8585   2.141   1.979  11.231  2.6401  0.1826 -1.0124
  575TMC3    H2 8586   2.155   1.575  11.112  1.3107 -1.7761  1.6093
  575TMC3    C7 8587   2.236   1.818  11.046 -0.5071 -0.5857  0.1638
  575TMC3    C8 8588   2.058   1.463  11.340  0.1658  0.0637 -0.0756
  575TMC3    O1 8589   2.241   1.743  10.947  0.2369 -0.4287  0.2449
  575TMC3    O2 8590   1.965   1.444  11.415 -0.0888 -0.0851 -0.2575
  576MPD2     C 8591   1.845   3.339  12.532 -0.1596 -0.1249 -0.1681
  576MPD2    C1 8592   1.934   3.438  12.503 -0.1379 -0.2077 -0.0428
  576MPD2    C2 8593   1.915   3.567  12.554  0.4879  0.0877  0.0610
  576MPD2    C3 8594   1.811   3.591  12.645 -0.0706  0.0229  0.0493
  576MPD2    C4 8595   1.723   3.487  12.672 -0.6442  0.2774 -0.1936
  576MPD2    C5 8596   1.738   3.373  12.612  0.0744  0.3406  0.0917
  576MPD2     H 8597   1.973   3.653  12.524 -0.4940  0.9371  0.6220
  576MPD2    H1 8598   1.634   3.494  12.733 -0.9827 -0.6021 -0.5814
  576MPD2    H2 8599   1.836   3.240  12.487 -1.7793 -0.4028  0.7741
  576MPD2    H3 8600   1.660   3.298  12.622  0.5658 -0.6899 -3.8487
  576MPD2     N 8601   1.783   3.722  12.689  0.2401 -0.4152 -0.6299
  576MPD2    H5 8602   1.839   3.790  12.640  0.2449  1.0632  1.4426
  576MPD2    N1 8603   2.044   3.408  12.421  0.9409  0.1053  0.6923
  576MPD2    H7 8604   2.103   3.488  12.401 -0.2908  0.9756  0.5436
  577TMC3    C1 8605   2.184   3.288  12.279  0.0479 -0.1658 -0.1242
  577TMC3    C2 8606   2.284   3.194  12.272  0.2482  0.1882  0.4638
  577TMC3    C3 8607   2.371   3.200  12.173  0.5012  0.4453 -0.7183
  577TMC3    C4 8608   2.191   3.393  12.188  0.2686 -0.5182 -0.4146
  577TMC3    C5 8609   2.293   3.404  12.100 -0.4978  0.0329  0.4542
  577TMC3    C6 8610   2.381   3.304  12.079 -0.1515 -0.7044  0.1586
  577TMC3     C 8611   2.090   3.282  12.389  0.4061  0.8009 -0.5242
  577TMC3     O 8612   2.063   3.172  12.441  0.4584  0.1057 -0.0518
  577TMC3     H 8613   2.276   3.118  12.349  0.9066  1.3922  1.7225
  577TMC3    H1 8614   2.108   3.463  12.185 -0.0121 -0.8232  0.2909
  577TMC3    H2 8615   2.466   3.327  12.017  0.0723 -2.6117 -0.2424
  577TMC3    C7 8616   2.315   3.535  12.047  0.2242  0.5069  0.1360
  577TMC3    C8 8617   2.454   3.086  12.159 -0.4775 -0.5701  0.2924
  577TMC3    O1 8618   2.273   3.624  12.120 -1.1314  0.4408 -0.6754
  577TMC3    O2 8619   2.449   2.998  12.246  0.0382  0.5474  0.4295
  578MPD2     C 8620   4.673   3.697   0.296 -0.2703  0.4366  0.4380
  578MPD2    C1 8621   0.038   3.608   0.282 -0.2377  0.4629 -0.1032
  578MPD2    C2 8622   0.065   3.513   0.382 -0.2144  0.7729  0.4666
  578MPD2    C3 8623   4.738   3.518   0.502  0.0423  0.3652  0.0384
  578MPD2    C4 8624   4.633   3.604   0.511  0.0139  0.2738  0.3268
  578MPD2    C5 8625   4.603   3.695   0.413  0.0989 -0.8607  0.2027
  578MPD2     H 8626   0.145   3.441   0.372 -0.0762  0.6195  2.6686
  578MPD2    H1 8627   4.579   3.617   0.603 -0.3123 -1.8268  0.4241
  578MPD2    H2 8628   4.647   3.764   0.216  1.7336  0.5092 -0.1464
  578MPD2    H3 8629   4.528   3.774   0.417  2.9655  1.9605 -1.3457
  578MPD2     N 8630   0.042   3.431   0.606  0.1924 -0.1261 -0.7946
  578MPD2    H5 8631   0.110   3.360   0.581 -1.4187 -1.9439 -0.0525
  578MPD2    N1 8632   0.121   3.626   0.168 -0.1747 -0.4430  0.6257
  578MPD2    H7 8633   0.099   3.701   0.104  0.4884 -1.0401 -0.2951
  579TMC3    C1 8634   0.092   3.353   0.819  0.3896 -0.4337  0.1886
  579TMC3    C2 8635   0.165   3.427   0.906 -0.5492  0.3113 -0.7726
  579TMC3    C3 8636   0.287   3.377   0.943 -0.5462 -0.5457 -0.6029
  579TMC3    C4 8637   0.132   3.235   0.768 -0.1254 -0.0957 -0.1485
  579TMC3    C5 8638   0.261   3.190   0.809 -0.4883  0.7934  0.0875
  579TMC3    C6 8639   0.338   3.259   0.899 -0.4933 -0.1217 -0.1604
  579TMC3     C 8640   0.007   3.431   0.737 -0.2160 -0.4131  0.5006
  579TMC3     O 8641   4.677   3.508   0.798 -0.2180  0.0285 -0.3172
  579TMC3     H 8642   0.144   3.526   0.945 -0.5121 -0.8478  2.1873
  579TMC3    H1 8643   0.075   3.190   0.687 -0.9876  1.7527 -0.5790
  579TMC3    H2 8644   0.427   3.222   0.947 -0.7950  0.4002  0.8048
  579TMC3    C7 8645   0.303   3.058   0.778  0.2332 -0.8405  0.3089
  579TMC3    C8 8646   0.361   3.454   1.041 -0.7416  0.2115  0.5063
  579TMC3    O1 8647   0.422   3.039   0.793 -0.0220 -0.4511  0.1351
  579TMC3    O2 8648   0.300   3.519   1.120 -0.1475 -0.5169 -0.1061
  580TMC3    C1 8649   4.410   2.326  11.397  0.4637  0.2660 -0.4605
  580TMC3    C2 8650   4.429   2.254  11.288  0.2079 -0.1691  0.4172
  580TMC3    C3 8651   4.440   2.115  11.283 -0.3038 -0.4240  0.5478
  580TMC3    C4 8652   4.390   2.262  11.519 -0.3853 -0.0634  0.1812
  580TMC3    C5 8653   4.394   2.123  11.520 -0.3496  0.1618  0.4846
  580TMC3    C6 8654   4.420   2.050  11.406  0.1909 -0.0304  0.0650
  580TMC3     C 8655   4.469   2.460  11.388 -0.6315 -0.0180 -0.0548
  580TMC3     O 8656   4.558   2.480  11.306  0.1934  0.5643 -0.2299
  580TMC3     H 8657   4.451   2.310  11.198 -1.6230 -0.3510 -0.1319
  580TMC3    H1 8658   4.383   2.318  11.612 -0.7477  0.0753  0.0725
  580TMC3    H2 8659   4.429   1.943  11.402 -0.5589 -0.0199 -2.4177
  580TMC3    C7 8660   4.427   2.063  11.650 -0.2866 -0.8012  0.2079
  580TMC3    C8 8661   4.546   2.062  11.200 -0.1711 -0.1692 -0.4813
  580TMC3    O1 8662   4.494   2.128  11.729 -0.3306  0.1567  0.1937
  580TMC3    O2 8663   4.533   1.944  11.175 -0.3612 -0.1850 -0.2066
  581MPD2     C 8664   3.168   2.547  14.946 -0.0438 -0.0423  0.0692
  581MPD2    C1 8665   3.068   2.454  14.964  0.3981  0.0958  0.3445
  581MPD2    C2 8666   2.939   2.483  14.920 -0.2054  0.5880  0.7965
  581MPD2    C3 8667   2.916   2.600  14.848  0.2040  0.1282  1.1216
  581MPD2    C4 8668   3.017   2.692  14.837 -0.4862  0.0853 -0.5696
  581MPD2    C5 8669   3.147   2.671  14.889 -0.3559  0.3198  0.1275
  581MPD2     H 8670   2.856   2.419  14.948 -0.0506 -0.0405 -0.1720
  581MPD2    H1 8671   2.993   2.792  14.802 -3.3496 -0.4090  0.0005
  581MPD2    H2 8672   3.262   2.541  15.000  1.0229  1.9292 -1.5610
  581MPD2    H3 8673   3.226   2.745  14.896 -0.8377  0.9658 -1.2299
  581MPD2     N 8674   2.789   2.626  14.791  0.4087  0.2442 -0.2955
  581MPD2    H5 8675   2.785   2.719  14.750 -0.5719 -0.0194 -0.7971
  581MPD2    N1 8676   3.087   2.344  15.057 -0.5006 -0.2284  0.6778
  581MPD2    H7 8677   3.004   2.291  15.084  0.6113 -1.7888  0.9998
  582TMC3    C1 8678   3.199   2.183  15.184  0.3551 -0.4240  0.5619
  582TMC3    C2 8679   3.240   2.191  15.320 -0.8597 -0.4583 -0.1966
  582TMC3    C3 8680   3.172   2.120  15.412  0.4547 -0.2387  0.3800
  582TMC3    C4 8681   3.114   2.087  15.141 -0.1790 -0.0242 -0.4481
  582TMC3    C5 8682   3.055   2.011  15.242 -0.5349 -0.1490 -0.5840
  582TMC3    C6 8683   3.074   2.029  15.376 -0.1563  0.1166 -0.4025
  582TMC3     C 8684   3.208   2.304  15.109  0.5681 -0.2082  0.3494
  582TMC3     O 8685   3.320   2.345  15.088  0.7101  0.2232  0.1944
  582TMC3     H 8686   3.302   2.275  15.351 -1.6158 -0.2869  0.8460
  582TMC3    H1 8687   3.133   2.050  15.041 -2.3616  1.3462 -1.3602
  582TMC3    H2 8688   3.005   1.989  15.449 -0.1402 -1.3506 -1.1970
  582TMC3    C7 8689   2.943   1.938  15.199  0.1845 -0.9318 -0.6534
  582TMC3    C8 8690   3.148   2.171  15.545 -0.4955  0.3270  0.3873
  582TMC3    O1 8691   2.896   1.853  15.271 -0.6435 -0.1544  0.0034
  582TMC3    O2 8692   3.030   2.168  15.582  1.0228  0.0974  0.5297
  583MPD2     C 8693   2.443   4.047  16.639 -0.5459  0.3063  0.0290
  583MPD2    C1 8694   2.490   4.171  16.597  0.5133  0.0195 -0.8832
  583MPD2    C2 8695   2.457   4.277  16.683 -0.1096  0.2499  0.4280
  583MPD2    C3 8696   2.393   4.264  16.805 -0.3126  0.2188  0.2813
  583MPD2    C4 8697   2.363   4.134  16.844  0.2857 -0.2776 -0.0422
  583MPD2    C5 8698   2.394   4.024  16.761 -0.1477  0.0120 -0.0530
  583MPD2     H 8699   2.490   4.380  16.670  1.5111 -0.0973  1.8157
  583MPD2    H1 8700   2.304   4.110  16.931 -0.4768  0.0459 -0.4693
  583MPD2    H2 8701   2.458   3.957  16.579 -2.1003 -0.4457  0.7882
  583MPD2    H3 8702   2.356   3.922  16.770 -2.9395  1.0227 -0.3295
  583MPD2     N 8703   2.383   4.376  16.887 -0.3871 -0.2341 -0.0068
  583MPD2    H5 8704   2.405   4.463  16.840  0.7410 -1.0178 -0.9030
  583MPD2    N1 8705   2.554   4.196  16.471 -0.1072  0.7828  0.0986
  583MPD2    H7 8706   2.579   4.290  16.443 -1.8219  1.5175  1.0415
  584TMC3    C1 8707   2.352   4.497  17.098 -0.2217 -0.0665  0.2626
  584TMC3    C2 8708   2.386   4.613  17.030 -0.9444  0.0234  0.0519
  584TMC3    C3 8709   2.390   4.733  17.099 -0.4349  0.1852  0.1101
  584TMC3    C4 8710   2.302   4.504  17.224  0.2047 -0.7836 -0.2687
  584TMC3    C5 8711   2.312   4.626  17.293 -0.1274  0.6418 -0.9362
  584TMC3    C6 8712   2.362   4.740  17.235  0.1384  0.0375  0.0758
  584TMC3     C 8713   2.344   4.374  17.022  0.3001 -0.1511  0.0291
  584TMC3     O 8714   2.292   4.281  17.080  0.1836 -0.3616  0.5614
  584TMC3     H 8715   2.428   4.609  16.930 -2.7875 -0.4666 -0.7081
  584TMC3    H1 8716   2.262   4.416  17.273 -1.0217  0.1427  0.3837
  584TMC3    H2 8717   2.351   0.093  17.287 -0.4267  0.8957 -1.5786
  584TMC3    C7 8718   2.273   4.616  17.437 -0.4280  0.3525  0.3107
  584TMC3    C8 8719   2.452   0.104  17.037  0.4097 -0.2835 -0.5267
  584TMC3    O1 8720   2.222   4.513  17.479 -0.1080  0.3492  0.9414
  584TMC3    O2 8721   2.474   0.091  16.920  0.2202 -0.1585  0.0054
  585MPD2     C 8722   1.799   2.772   0.641  0.0809  0.4908 -0.0055
  585MPD2    C1 8723   1.904   2.793   0.557  0.0343 -0.1094 -0.3850
  585MPD2    C2 8724   1.936   2.695   0.460 -0.5980  0.4534  0.6714
  585MPD2    C3 8725   1.865   2.574   0.455 -0.1582 -0.0776 -0.4288
  585MPD2    C4 8726   1.748   2.565   0.530  0.1463 -0.3854 -0.3996
  585MPD2    C5 8727   1.729   2.654   0.633 -0.5576  0.4097 -0.2983
  585MPD2     H 8728   2.008   2.717   0.382 -0.4857  0.6789  0.8371
  585MPD2    H1 8729   1.680   2.480   0.524  0.4521 -0.7309  1.1474
  585MPD2    H2 8730   1.773   2.829   0.729  2.1778 -1.7517  2.0855
  585MPD2    H3 8731   1.651   2.633   0.705  0.4010  3.5995  1.6640
  585MPD2     N 8732   1.882   2.482   0.348  0.2072 -0.3705 -0.0730
  585MPD2    H5 8733   1.798   2.431   0.324  0.2538 -0.2720 -0.4462
  585MPD2    N1 8734   1.974   2.919   0.560 -0.5459 -0.1956  0.1514
  585MPD2    H7 8735   1.933   2.993   0.617 -0.8607  0.2085 -0.5968
  586TMC3    C1 8736   1.982   2.414   0.150 -0.0118  0.2217 -0.3524
  586TMC3    C2 8737   2.095   2.378   0.089 -0.7411 -0.1552  0.3101
  586TMC3    C3 8738   2.107   2.366  17.719 -0.6370  0.3340  0.1163
  586TMC3    C4 8739   1.873   2.445   0.075  0.2076  0.6600  0.1821
  586TMC3    C5 8740   1.881   2.435  17.707 -0.7167  0.5783 -0.9086
  586TMC3    C6 8741   1.998   2.391  17.642 -0.0121  0.3978 -0.1853
  586TMC3     C 8742   2.001   2.466   0.278  1.4665  0.1712  0.2127
  586TMC3     O 8743   2.120   2.485   0.309  0.5811 -0.7479  0.2146
  586TMC3     H 8744   2.183   2.343   0.142 -2.3913 -2.3793  1.5489
  586TMC3    H1 8745   1.784   2.485   0.122  0.0365 -1.9724  2.1132
  586TMC3    H2 8746   2.003   2.362  17.538 -3.0441  0.3086 -0.3152
  586TMC3    C7 8747   1.758   2.437  17.636 -0.0911 -0.5086 -0.5078
  586TMC3    C8 8748   2.227   2.304  17.666  0.0298  0.1473  0.4953
  586TMC3    O1 8749   1.653   2.443  17.701  0.3393  0.0658 -0.0526
  586TMC3    O2 8750   2.287   2.210  17.715 -0.2251  0.2120 -0.0257
  587TMC3    C1 8751   3.745   1.749  16.575 -0.9131 -0.1339  0.0341
  587TMC3    C2 8752   3.721   1.737  16.709  0.0119  0.6503 -0.0733
  587TMC3    C3 8753   3.826   1.725  16.789  0.5384  0.1706  0.5654
  587TMC3    C4 8754   3.878   1.732  16.523 -0.3240 -0.7939 -0.2336
  587TMC3    C5 8755   3.986   1.719  16.613  0.5112  0.2106  0.1475
  587TMC3    C6 8756   3.959   1.707  16.745  0.2986 -0.2384 -0.2767
  587TMC3     C 8757   3.630   1.741  16.484  0.2553 -0.0434 -0.2241
  587TMC3     O 8758   3.534   1.687  16.539 -0.7125 -0.4438  0.3632
  587TMC3     H 8759   3.619   1.751  16.743 -0.7980  0.1493 -2.2972
  587TMC3    H1 8760   3.894   1.733  16.416  0.6099  1.1559 -0.0848
  587TMC3    H2 8761   4.039   1.706  16.819 -0.1975  0.3348  0.2598
  587TMC3    C7 8762   4.117   1.691  16.559 -0.6195 -0.4150  0.0091
  587TMC3    C8 8763   3.805   1.776  16.921  0.0026 -0.2366  0.6727
  587TMC3    O1 8764   4.127   1.721  16.442 -0.0455 -0.1491  0.8933
  587TMC3    O2 8765   3.887   1.735  17.003 -0.8653  0.3530  0.5609
  588TMC3    C1 8766   1.895   3.682   9.630  1.1083 -0.1057  0.3800
  588TMC3    C2 8767   1.809   3.576   9.652  0.6487  0.5292  0.4853
  588TMC3    C3 8768   1.865   3.453   9.680 -0.2413  0.0075 -0.6814
  588TMC3    C4 8769   2.033   3.659   9.637  0.5533 -0.0854  0.0912
  588TMC3    C5 8770   2.085   3.532   9.658 -0.6462  0.1419 -0.3583
  588TMC3    C6 8771   1.999   3.428   9.682  0.2368  0.5436 -0.0376
  588TMC3     C 8772   1.856   3.820   9.668  0.0718  0.4405 -0.8080
  588TMC3     O 8773   1.749   3.861   9.630 -0.1123 -0.2183  0.4975
  588TMC3     H 8774   1.704   3.604   9.657  0.1009 -1.8832  2.4583
  588TMC3    H1 8775   2.097   3.732   9.588 -0.7963 -0.1006 -1.6744
  588TMC3    H2 8776   2.027   3.323   9.690 -2.3552 -0.2220 -0.8759
  588TMC3    C7 8777   2.220   3.516   9.713 -0.2444 -0.7487 -0.6368
  588TMC3    C8 8778   1.782   3.370   9.759 -0.0622  0.3681  0.0467
  588TMC3    O1 8779   2.275   3.406   9.702  0.2985 -0.5972  0.3131
  588TMC3    O2 8780   1.670   3.344   9.712  0.0994  0.6185  0.4393
  589TMC3    C1 8781   0.425   1.302   0.944  0.6892  0.9882 -0.3957
  589TMC3    C2 8782   0.508   1.382   1.021 -0.5046  0.2486 -0.3937
  589TMC3    C3 8783   0.641   1.380   0.999 -0.0402  0.4814  1.5414
  589TMC3    C4 8784   0.465   1.234   0.838 -0.3001 -0.1647  0.5190
  589TMC3    C5 8785   0.599   1.228   0.823 -0.0255 -1.1270  0.3774
  589TMC3    C6 8786   0.687   1.300   0.897 -0.1507  0.1626  0.5979
  589TMC3     C 8787   0.282   1.326   0.951  0.2211 -0.2822  0.1318
  589TMC3     O 8788   0.217   1.321   0.850 -0.0840  0.1057 -0.2781
  589TMC3     H 8789   0.459   1.443   1.097  1.6760  1.8530 -0.2660
  589TMC3    H1 8790   0.403   1.166   0.780  0.2542 -2.3986  2.5496
  589TMC3    H2 8791   0.791   1.281   0.877  0.0352  1.0331  0.7064
  589TMC3    C7 8792   0.656   1.110   0.760 -0.7138  0.0438  0.0213
  589TMC3    C8 8793   0.730   1.395   1.115  0.3548 -0.1909  0.6571
  589TMC3    O1 8794   0.619   0.993   0.783 -0.0134  0.8734  0.6089
  589TMC3    O2 8795   0.672   1.411   1.219  0.3925 -0.2288 -0.1213
  590MPD2     C 8796   0.399   0.449  16.595  0.2825 -0.5535 -0.0303
  590MPD2    C1 8797   0.331   0.506  16.492  0.1921 -0.5763 -0.3904
  590MPD2    C2 8798   0.407   0.555  16.383 -0.3837 -0.8559  0.1680
  590MPD2    C3 8799   0.543   0.553  16.377  0.4292  0.0371  0.2219
  590MPD2    C4 8800   0.608   0.495  16.484 -1.2764  0.5169 -0.5533
  590MPD2    C5 8801   0.534   0.452  16.592  0.3731  0.3982  0.0400
  590MPD2     H 8802   0.352   0.608  16.307  0.6351 -0.3852 -0.2392
  590MPD2    H1 8803   0.716   0.484  16.485 -1.2442  0.9656  0.7555
  590MPD2    H2 8804   0.349   0.419  16.687  0.3902 -1.7434 -0.3621
  590MPD2    H3 8805   0.588   0.422  16.682  2.7993 -0.2935 -1.6573
  590MPD2     N 8806   0.606   0.618  16.267  0.0888  0.2405  0.0797
  590MPD2    H5 8807   0.549   0.655  16.191 -1.3516  0.0434  1.0582
  590MPD2    N1 8808   0.189   0.506  16.485  0.4362 -0.4899 -0.6888
  590MPD2    H7 8809   0.143   0.458  16.561 -2.9642  1.4698 -1.5110
  591TMC3    C1 8810   0.777   0.705  16.138  0.0370  0.7708  0.0287
  591TMC3    C2 8811   0.855   0.653  16.042 -0.7806  0.1654  0.1291
  591TMC3    C3 8812   0.869   0.714  15.919  0.0155  1.2157 -0.0720
  591TMC3    C4 8813   0.719   0.826  16.124 -0.4807  0.0570  1.0588
  591TMC3    C5 8814   0.730   0.878  15.999 -0.0426 -0.4312 -0.3923
  591TMC3    C6 8815   0.793   0.823  15.892  0.5673  0.3013  0.0035
  591TMC3     C 8816   0.740   0.619  16.243  0.3843  0.7683  0.1465
  591TMC3     O 8817   0.817   0.533  16.288  0.1639 -0.0857 -0.2503
  591TMC3     H 8818   0.908   0.560  16.062 -1.4349 -0.0387  0.9190
  591TMC3    H1 8819   0.660   0.875  16.201  0.5396  2.5508  0.2543
  591TMC3    H2 8820   0.778   0.858  15.791  0.4036  0.1389 -0.0284
  591TMC3    C7 8821   0.629   0.975  15.970 -1.0794 -0.2746 -0.1604
  591TMC3    C8 8822   0.937   0.648  15.808  0.2878  1.0820 -0.5804
  591TMC3    O1 8823   0.528   0.982  16.038  0.5508  0.0552 -0.6005
  591TMC3    O2 8824   0.949   0.528  15.828 -0.0258 -0.5530 -0.5405
  592MPD2     C 8825   1.137   1.866  11.223  0.1469 -0.2339 -0.3851
  592MPD2    C1 8826   1.095   1.952  11.321  0.0063  0.9484 -0.3230
  592MPD2    C2 8827   0.990   1.916  11.402 -0.0825  0.4537 -0.3948
  592MPD2    C3 8828   0.924   1.795  11.382  0.0763  0.1941 -0.1423
  592MPD2    C4 8829   0.982   1.709  11.291  0.0429  0.2378  0.1032
  592MPD2    C5 8830   1.087   1.748  11.211  0.5545 -0.0979 -0.0239
  592MPD2     H 8831   0.952   1.977  11.484  0.4433 -0.5138  0.5770
  592MPD2    H1 8832   0.944   1.608  11.282  0.6145  0.0028  0.3204
  592MPD2    H2 8833   1.228   1.875  11.164 -0.0035  0.2620 -0.5452
  592MPD2    H3 8834   1.137   1.674  11.150  0.5578  2.2877 -2.9331
  592MPD2     N 8835   0.814   1.766  11.469 -0.1732  0.0450 -0.5345
  592MPD2    H5 8836   0.779   1.839  11.530 -1.5111 -2.4432  1.7108
  592MPD2    N1 8837   1.161   2.073  11.326 -0.4429  0.0212 -0.1042
  592MPD2    H7 8838   1.216   2.087  11.242 -2.7406  0.1254 -1.5875
  593TMC3    C1 8839   1.230   2.278  11.430  0.1678 -0.1972 -0.3178
  593TMC3    C2 8840   1.204   2.367  11.527 -0.3099 -0.9122 -0.6179
  593TMC3    C3 8841   1.295   2.467  11.543 -1.1263 -0.1170  0.8476
  593TMC3    C4 8842   1.345   2.288  11.352  0.2377  0.5194 -0.4526
  593TMC3    C5 8843   1.428   2.392  11.382  0.8592 -0.0996  0.8060
  593TMC3    C6 8844   1.407   2.483  11.478 -0.6020  0.8538  0.9842
  593TMC3     C 8845   1.151   2.163  11.432  0.2568 -0.3018  0.0420
  593TMC3     O 8846   1.086   2.150  11.537  0.0890 -0.4662 -0.0972
  593TMC3     H 8847   1.113   2.372  11.584  0.8891  0.9047  1.1124
  593TMC3    H1 8848   1.376   2.206  11.289 -0.1191 -0.0100  0.0629
  593TMC3    H2 8849   1.476   2.566  11.488 -2.0277  2.5400 -3.1984
  593TMC3    C7 8850   1.531   2.434  11.282 -0.2890  0.3348 -0.0869
  593TMC3    C8 8851   1.249   2.569  11.630 -0.9869  0.4647 -0.1815
  593TMC3    O1 8852   1.614   2.516  11.320 -0.8361  0.8023  0.0084
  593TMC3    O2 8853   1.132   2.592  11.624 -0.5030 -0.3812  0.2902
  594MPD2     C 8854   0.127   0.957  14.704 -0.3651  0.6105  0.0754
  594MPD2    C1 8855   0.043   1.026  14.622  0.2946  0.4332  0.2495
  594MPD2    C2 8856   0.083   1.142  14.567  0.0158 -0.7609 -0.4819
  594MPD2    C3 8857   0.211   1.192  14.585  0.3494  0.8073  0.7904
  594MPD2    C4 8858   0.295   1.126  14.666 -0.0106 -0.2935  0.1135
  594MPD2    C5 8859   0.251   1.005  14.716  0.0656  0.3180 -0.4719
  594MPD2     H 8860   0.023   1.198  14.497  1.1622  0.1882 -0.7197
  594MPD2    H1 8861   0.398   1.155  14.684  0.6279 -1.3734 -1.6936
  594MPD2    H2 8862   0.103   0.857  14.739  0.0082  0.2710 -0.6523
  594MPD2    H3 8863   0.324   0.951  14.777  1.7615  0.2720 -2.5481
  594MPD2     N 8864   0.239   1.313  14.521 -0.0349  0.5280 -0.6427
  594MPD2    H5 8865   0.161   1.356  14.473  0.3785 -0.0916 -1.8669
  594MPD2    N1 8866   4.660   0.974  14.600  0.0101  0.1588  0.1399
  594MPD2    H7 8867   4.637   0.887  14.646 -0.5732 -0.5758 -1.5132
  595TMC3    C1 8868   0.467   1.706  14.417 -0.6005  0.2082  0.5679
  595TMC3    C2 8869   0.446   1.570  14.413  0.5025  0.6216  0.0740
  595TMC3    C3 8870   0.342   1.515  14.476 -0.5302  0.2831  0.0068
  595TMC3    C4 8871   0.375   1.790  14.477  0.2933 -0.6512  0.3821
  595TMC3    C5 8872   0.268   1.737  14.540 -0.8872  0.3388  0.3003
  595TMC3    C6 8873   0.256   1.599  14.545 -0.2078  0.2361 -0.5547
  595TMC3     C 8874   0.588   1.767  14.367  0.7156  0.3168  0.5217
  595TMC3     O 8875   0.646   1.837  14.450 -0.1434  0.2737  0.0282
  595TMC3     H 8876   0.527   1.511  14.371  1.0030  0.3745  1.3896
  595TMC3    H1 8877   0.379   1.898  14.464  1.2187 -0.9548 -1.7618
  595TMC3    H2 8878   0.167   1.556  14.589  1.4275  0.2697  2.8597
  595TMC3    C7 8879   0.156   1.821  14.560 -0.5406 -0.0725 -0.3023
  595TMC3    C8 8880   0.357   1.380  14.519  0.7330  0.1038  0.6763
  595TMC3    O1 8881   0.047   1.763  14.550  0.3228  0.0344  0.1700
  595TMC3    O2 8882   0.466   1.352  14.559 -0.2302 -0.1874  0.1128
  596MPD2     C 8883   3.103   3.680  16.643  0.1177  0.6968  0.4700
  596MPD2    C1 8884   3.136   3.804  16.594  0.4179 -0.2544 -0.3183
  596MPD2    C2 8885   3.182   3.813  16.463 -0.2993 -0.2024 -0.0300
  596MPD2    C3 8886   3.193   3.695  16.379  0.0578  0.0717 -0.1362
  596MPD2    C4 8887   3.155   3.577  16.431  0.8350 -0.5426 -0.5454
  596MPD2    C5 8888   3.105   3.571  16.558 -0.6697 -0.2156  0.0426
  596MPD2     H 8889   3.213   3.911  16.428  0.1062  0.1435  1.2711
  596MPD2    H1 8890   3.155   3.490  16.367 -1.1698 -0.9192 -0.0278
  596MPD2    H2 8891   3.067   3.668  16.744 -1.2231  2.8184  0.2254
  596MPD2    H3 8892   3.079   3.474  16.598 -1.4072 -0.4993 -1.1310
  596MPD2     N 8893   3.246   3.707  16.247  0.2380 -0.9698  0.2915
  596MPD2    H5 8894   3.265   3.620  16.198 -0.3427 -1.2223  0.5223
  596MPD2    N1 8895   3.129   3.924  16.669 -0.2005  0.3424  0.7094
  596MPD2    H7 8896   3.170   4.002  16.618 -0.0996 -0.6568 -0.7451
  597TMC3    C1 8897   3.118   4.066  16.853 -1.1700  0.1475  0.1041
  597TMC3    C2 8898   3.206   4.147  16.791  0.1529  0.0528  0.7243
  597TMC3    C3 8899   3.224   4.266  16.852  0.0247 -0.4380 -0.1634
  597TMC3    C4 8900   3.037   4.108  16.950 -0.6365  0.8782  0.0323
  597TMC3    C5 8901   3.034   4.241  16.992  0.4423 -0.0131  0.1272
  597TMC3    C6 8902   3.141   4.319  16.956  0.0285 -0.7073  1.3168
  597TMC3     C 8903   3.101   3.934  16.799  0.1951  0.3339 -0.1280
  597TMC3     O 8904   3.035   3.853  16.862 -0.1846 -0.3770 -0.1218
  597TMC3     H 8905   3.281   4.106  16.725  0.3551 -1.8767  2.1359
  597TMC3    H1 8906   2.963   4.044  16.997 -0.8199  1.4229  0.4834
  597TMC3    H2 8907   3.157   4.409  17.013  1.0610  0.5202 -0.9018
  597TMC3    C7 8908   2.924   4.277  17.088  0.1719 -0.3528  0.2556
  597TMC3    C8 8909   3.335   4.362  16.812 -0.1756  0.0561 -0.8572
  597TMC3    O1 8910   2.868   4.191  17.152  0.2039  0.0789  0.1226
  597TMC3    O2 8911   3.336   4.476  16.857 -1.2267 -0.3342 -0.6741
  598TMC3    C1 8912   1.906   0.528  14.909  0.8358  0.5260  0.3561
  598TMC3    C2 8913   1.795   0.456  14.946 -0.2754 -0.1095 -0.1277
  598TMC3    C3 8914   1.686   0.478  14.867  0.4005 -0.7140  0.3999
  598TMC3    C4 8915   1.902   0.634  14.821 -0.7634 -0.4194  0.3270
  598TMC3    C5 8916   1.785   0.664  14.755  0.1426 -0.1253  0.5175
  598TMC3    C6 8917   1.673   0.581  14.771  0.7372  0.9336  0.1717
  598TMC3     C 8918   2.022   0.522  14.998  0.3993  0.4725  0.8368
  598TMC3     O 8919   2.127   0.546  14.942 -0.1697 -0.0304  0.3107
  598TMC3     H 8920   1.809   0.382  15.023 -2.1379 -1.8552 -1.4655
  598TMC3    H1 8921   1.990   0.691  14.794 -0.0215 -1.1182  1.2865
  598TMC3    H2 8922   1.576   0.614  14.737  0.2412  0.8655  1.5563
  598TMC3    C7 8923   1.778   0.777  14.665  0.1793 -0.1359  0.2171
  598TMC3    C8 8924   1.572   0.398  14.896  0.1113  0.7996 -0.0801
  598TMC3    O1 8925   1.688   0.782  14.584 -0.0358 -0.3533  0.0459
  598TMC3    O2 8926   1.549   0.362  15.010  0.1026  0.2877  0.1845
  599MPD2     C 8927   1.637   2.405  15.215 -0.0710  0.4115  0.8030
  599MPD2    C1 8928   1.697   2.508  15.281 -0.4806 -0.0854 -0.5403
  599MPD2    C2 8929   1.639   2.575  15.381 -0.1854  0.1172 -0.4515
  599MPD2    C3 8930   1.518   2.523  15.416  0.8260  0.3518 -1.1603
  599MPD2    C4 8931   1.459   2.412  15.361  0.0609  0.2746  0.8268
  599MPD2    C5 8932   1.519   2.352  15.255 -0.0754 -0.6521  0.0786
  599MPD2     H 8933   1.685   2.668  15.412 -0.4919 -0.2250  1.0259
  599MPD2    H1 8934   1.361   2.373  15.386 -0.1359 -0.8444 -1.5821
  599MPD2    H2 8935   1.701   2.350  15.147 -0.4315 -1.2789  1.8241
  599MPD2    H3 8936   1.488   2.257  15.212 -3.0325 -0.5850  2.0478
  599MPD2     N 8937   1.445   2.573  15.527 -0.4484  0.2275  0.2481
  599MPD2    H5 8938   1.362   2.519  15.549 -0.7168 -0.4446 -2.3630
  599MPD2    N1 8939   1.832   2.534  15.238 -0.7901  0.2108 -0.2006
  599MPD2    H7 8940   1.861   2.472  15.162  2.0805 -0.0204  1.1203
  600TMC3    C1 8941   1.388   2.707  15.705  0.4704 -0.0088  0.2091
  600TMC3    C2 8942   1.261   2.641  15.700 -0.4268 -0.3406  0.0861
  600TMC3    C3 8943   1.173   2.683  15.797 -0.4407 -0.3135 -0.5988
  600TMC3    C4 8944   1.423   2.801  15.799  0.2459 -0.2268 -0.2103
  600TMC3    C5 8945   1.326   2.832  15.897 -0.0905 -0.7031  0.2963
  600TMC3    C6 8946   1.204   2.771  15.902 -0.2057  0.0897  0.4441
  600TMC3     C 8947   1.487   2.682  15.598 -0.1367  0.0467 -0.5586
  600TMC3     O 8948   1.565   2.773  15.578  0.3199  0.0338  0.4670
  600TMC3     H 8949   1.232   2.562  15.631 -0.1584 -0.0490 -0.3602
  600TMC3    H1 8950   1.520   2.845  15.816 -0.1919  0.0430  1.6560
  600TMC3    H2 8951   1.129   2.810  15.970  2.4240  3.4622  1.3903
  600TMC3    C7 8952   1.356   2.929  16.000  0.1530 -0.0669  0.3366
  600TMC3    C8 8953   1.037   2.650  15.773  0.3346  0.0959  0.0719
  600TMC3    O1 8954   1.302   2.918  16.111  0.7329  0.0743  0.1888
  600TMC3    O2 8955   1.022   2.567  15.690  0.0550  0.0558  0.5007
  601MPD2     C 8956   3.378   1.326   0.373 -0.3650 -0.1449 -0.0231
  601MPD2    C1 8957   3.361   1.284   0.241 -0.5849  0.0264 -0.0369
  601MPD2    C2 8958   3.368   1.149   0.209  0.7273 -1.2137 -0.9180
  601MPD2    C3 8959   3.380   1.060   0.317 -0.4195  0.2200 -0.3135
  601MPD2    C4 8960   3.389   1.108   0.449  0.5129 -0.1308 -0.7940
  601MPD2    C5 8961   3.385   1.242   0.475  0.2641  0.0055 -0.1209
  601MPD2     H 8962   3.348   1.118   0.107  1.7331 -1.1976 -1.1259
  601MPD2    H1 8963   3.388   1.043   0.535  0.0704  0.7959 -0.0943
  601MPD2    H2 8964   3.371   1.430   0.403 -1.9878  0.2415 -1.7498
  601MPD2    H3 8965   3.377   1.278   0.577  1.9792  1.2040 -0.4211
  601MPD2     N 8966   3.379   0.918   0.302  0.0685  0.4650  0.2392
  601MPD2    H5 8967   3.382   0.854   0.381  0.7343  0.4950  0.2374
  601MPD2    N1 8968   3.337   1.376   0.136 -0.0027  0.0046  0.0176
  601MPD2    H7 8969   3.371   1.340   0.047  0.2015  0.5989 -0.1475
  602TMC3    C1 8970   3.291   1.582   0.021  0.6083  0.1817  0.6146
  602TMC3    C2 8971   3.309   1.720   0.023  0.4554 -0.1012  0.6449
  602TMC3    C3 8972   3.305   1.777  17.664  0.4716  0.2602  0.8052
  602TMC3    C4 8973   3.267   1.506  17.671 -0.2360  0.0202 -0.8522
  602TMC3    C5 8974   3.255   1.572  17.556 -0.2663 -0.1499 -0.9700
  602TMC3    C6 8975   3.276   1.707  17.548 -0.0772  0.2515  0.2201
  602TMC3     C 8976   3.296   1.506   0.149  0.8007 -0.6394 -0.1626
  602TMC3     O 8977   3.267   1.566   0.250  0.3199  0.1080 -0.3062
  602TMC3     H 8978   3.338   1.772   0.113 -0.0414  1.5017 -0.1273
  602TMC3    H1 8979   3.237   1.401  17.669  0.9679 -0.3291 -0.3821
  602TMC3    H2 8980   3.309   1.749  17.454 -2.4451 -1.0677 -1.1875
  602TMC3    C7 8981   3.175   1.507  17.450  0.2517  0.0829  0.4129
  602TMC3    C8 8982   3.337   1.912  17.653 -0.4095 -0.0761  0.1386
  602TMC3    O1 8983   3.138   1.395  17.458 -0.3871  0.5250 -0.5361
  602TMC3    O2 8984   3.431   1.951  17.724  0.9307 -0.8261  0.1844
  603TMC3    C1 8985   1.621   1.420  11.245  0.0651  0.7046 -0.5707
  603TMC3    C2 8986   1.602   1.455  11.376  0.6026  0.6368  1.1448
  603TMC3    C3 8987   1.638   1.580  11.410  0.1387  0.0414  0.0677
  603TMC3    C4 8988   1.668   1.503  11.152 -0.0346  1.1297  0.4210
  603TMC3    C5 8989   1.708   1.628  11.191 -0.3849  0.0042 -0.7303
  603TMC3    C6 8990   1.714   1.657  11.323  0.0962  0.2590 -0.3566
  603TMC3     C 8991   1.620   1.275  11.226  0.0053  1.2734  0.0721
  603TMC3     O 8992   1.551   1.203  11.298 -0.2089  0.1613 -0.1062
  603TMC3     H 8993   1.547   1.386  11.439 -0.4329 -0.3074 -0.8010
  603TMC3    H1 8994   1.678   1.474  11.048 -0.5676  1.1402  0.3710
  603TMC3    H2 8995   1.748   1.755  11.353 -0.6842  0.0578  1.1942
  603TMC3    C7 8996   1.786   1.711  11.102 -0.2101  0.2596 -0.3695
  603TMC3    C8 8997   1.685   1.581  11.547 -0.4156 -0.4666  0.0039
  603TMC3    O1 8998   1.828   1.815  11.149  0.0455 -0.1039 -0.3075
  603TMC3    O2 8999   1.675   1.476  11.608  0.2521  0.3451  0.1571
  604MPD2     C 9000   2.747   0.483  16.474 -0.1503 -0.2687  0.5864
  604MPD2    C1 9001   2.641   0.426  16.405 -0.3709  0.4543 -0.2492
  604MPD2    C2 9002   2.666   0.384  16.276  0.3804  0.1826  0.3455
  604MPD2    C3 9003   2.793   0.395  16.217 -0.2402 -0.4066  0.6751
  604MPD2    C4 9004   2.895   0.450  16.294 -0.4249  0.7072  0.3624
  604MPD2    C5 9005   2.877   0.500  16.421 -0.0786 -0.3035  0.5255
  604MPD2     H 9006   2.595   0.339  16.208  1.1307  0.9891 -0.9831
  604MPD2    H1 9007   2.996   0.462  16.258  0.0522 -0.8368  1.2068
  604MPD2    H2 9008   2.721   0.543  16.561  1.8254 -0.0873  1.0332
  604MPD2    H3 9009   2.955   0.558  16.469 -1.6578  0.0981  2.6167
  604MPD2     N 9010   2.806   0.367  16.082 -0.4815  0.7532  0.4460
  604MPD2    H5 9011   2.724   0.332  16.034 -1.3044  2.0733  0.9105
  604MPD2    N1 9012   2.513   0.417  16.463  0.3521 -0.6395 -0.0118
  604MPD2    H7 9013   2.508   0.451  16.559 -1.9093  0.9054 -0.6631
  605TMC3    C1 9014   2.290   0.396  16.497 -0.0213 -0.3517  0.5573
  605TMC3    C2 9015   2.337   0.429  16.621 -0.4147 -0.2456 -0.0704
  605TMC3    C3 9016   2.275   0.537  16.682 -0.5895 -0.8338 -0.0994
  605TMC3    C4 9017   2.186   0.460  16.447  0.1690  0.4008 -0.0829
  605TMC3    C5 9018   2.115   0.554  16.514 -0.2960 -0.4769 -0.1598
  605TMC3    C6 9019   2.162   0.600  16.630  0.3030 -0.0836  0.6563
  605TMC3     C 9020   2.397   0.374  16.409  1.0672  0.8272  0.6689
  605TMC3     O 9021   2.378   0.344  16.292 -0.0480  0.0042 -0.2305
  605TMC3     H 9022   2.414   0.376  16.676 -0.4861 -0.4206 -0.1394
  605TMC3    H1 9023   2.166   0.427  16.346 -1.8318 -1.4548  0.9210
  605TMC3    H2 9024   2.115   0.676  16.690  0.4624 -0.1850  0.9102
  605TMC3    C7 9025   1.997   0.610  16.459 -0.3873  0.2443 -0.0805
  605TMC3    C8 9026   2.385   0.621  16.727 -0.2917 -0.2187 -0.0150
  605TMC3    O1 9027   1.971   0.728  16.478 -0.3497 -0.0491 -0.3824
  605TMC3    O2 9028   2.487   0.616  16.659 -0.1986 -0.2399 -0.2386
  606TMC3    C1 9029   3.483   4.061  17.555 -0.0363  0.3060  0.1079
  606TMC3    C2 9030   3.596   4.119  17.599 -0.8342 -0.0630 -0.1464
  606TMC3    C3 9031   3.715   4.079  17.540  0.3260  0.5930 -0.6437
  606TMC3    C4 9032   3.475   3.971  17.454 -0.0741 -0.6898 -0.3341
  606TMC3    C5 9033   3.585   3.949  17.382 -0.3596  0.3438  0.5351
  606TMC3    C6 9034   3.708   3.984  17.436 -0.2060  0.1417 -0.1439
  606TMC3     C 9035   3.353   4.094  17.607 -0.4507  0.1116  0.0589
  606TMC3     O 9036   3.265   4.011  17.625 -0.1582  0.2033  0.0375
  606TMC3     H 9037   3.596   4.203  17.667  1.6886 -0.6895  0.6211
  606TMC3    H1 9038   3.377   3.944  17.416 -0.8051  2.2013 -0.5519
  606TMC3    H2 9039   3.807   3.960  17.399 -0.7479  0.0250 -1.5416
  606TMC3    C7 9040   3.592   3.851  17.280  0.5410 -0.1104  0.0154
  606TMC3    C8 9041   3.818   4.037  17.638 -0.4690  0.8163 -0.2861
  606TMC3    O1 9042   3.682   3.862  17.200  0.1135 -0.2298 -0.1630
  606TMC3    O2 9043   3.914   3.974  17.597  0.4496 -0.0232 -0.2357
  607MPD2     C 9044   0.824   1.637  11.931 -0.4717  0.5350  0.7638
  607MPD2    C1 9045   0.846   1.729  12.029 -0.0818  0.1038  0.7184
  607MPD2    C2 9046   0.834   1.698  12.159  0.0797 -0.5463 -0.0699
  607MPD2    C3 9047   0.804   1.565  12.199  0.1176  0.8507  0.1856
  607MPD2    C4 9048   0.784   1.469  12.094  0.9180  0.1086 -0.3591
  607MPD2    C5 9049   0.783   1.506  11.958  0.2692 -0.0445 -0.1022
  607MPD2     H 9050   0.848   1.770  12.239  1.3474 -0.4761 -0.3494
  607MPD2    H1 9051   0.764   1.364  12.117  1.4192 -0.1107 -0.9563
  607MPD2    H2 9052   0.822   1.664  11.826 -1.9356 -1.1229  0.3713
  607MPD2    H3 9053   0.764   1.429  11.884  2.7258 -1.5250  0.8060
  607MPD2     N 9054   0.809   1.546  12.340 -0.0010  0.2421 -0.1244
  607MPD2    H5 9055   0.807   1.626  12.403  2.0134 -0.9511  1.4496
  607MPD2    N1 9056   0.896   1.861  11.995 -0.2869  0.0057 -0.7745
  607MPD2    H7 9057   0.899   1.925  12.073  1.5534 -0.2566 -0.6190
  608TMC3    C1 9058   1.067   1.998  11.889 -0.4720  0.0656 -0.0784
  608TMC3    C2 9059   1.077   2.051  12.012 -0.2181 -0.4284 -0.3547
  608TMC3    C3 9060   1.198   2.106  12.039  0.2969 -0.1847 -0.0073
  608TMC3    C4 9061   1.167   2.000  11.795 -0.2645  0.2836  0.6057
  608TMC3    C5 9062   1.289   2.055  11.830  0.5041 -0.3951 -0.2115
  608TMC3    C6 9063   1.312   2.107  11.955  0.5382  0.5296 -0.0151
  608TMC3     C 9064   0.966   1.894  11.873  0.2644 -0.4310 -0.3665
  608TMC3     O 9065   0.970   1.823  11.771  0.1200  0.5362 -0.0724
  608TMC3     H 9066   0.994   2.054  12.082 -1.3882 -1.6727 -1.6854
  608TMC3    H1 9067   1.158   1.956  11.697 -1.1550  0.3361  0.6647
  608TMC3    H2 9068   1.408   2.120  12.002  0.3050  0.4214  0.4949
  608TMC3    C7 9069   1.389   2.082  11.732  0.2420 -0.1537 -0.2666
  608TMC3    C8 9070   1.236   2.135  12.178  0.2417  0.2579 -0.1718
  608TMC3    O1 9071   1.395   2.002  11.640 -0.2306  0.7209 -0.3085
  608TMC3    O2 9072   1.323   2.213  12.212  0.2651  0.0631  0.5324
  609TMC3    C1 9073   0.225   0.722   9.010  0.4422 -0.7009  0.0441
  609TMC3    C2 9074   0.271   0.799   8.906 -0.3618  0.2151 -0.0924
  609TMC3    C3 9075   0.399   0.775   8.860 -0.2029 -0.1163 -0.3350
  609TMC3    C4 9076   0.293   0.621   9.057  0.2268 -0.3115 -0.4187
  609TMC3    C5 9077   0.418   0.603   9.021  0.2522 -0.1730 -0.1169
  609TMC3    C6 9078   0.475   0.677   8.922  0.8234 -0.2328  0.1478
  609TMC3     C 9079   0.093   0.742   9.076 -0.0792 -0.2364  0.3264
  609TMC3     O 9080   0.062   0.662   9.162  0.1694 -0.4660 -0.4174
  609TMC3     H 9081   0.215   0.885   8.871 -1.5644  0.1732  1.7997
  609TMC3    H1 9082   0.250   0.556   9.133 -0.9671 -0.9600 -1.6381
  609TMC3    H2 9083   0.580   0.672   8.896  1.2247  1.7482  1.4075
  609TMC3    C7 9084   0.491   0.500   9.087 -0.1123  0.3971  0.7671
  609TMC3    C8 9085   0.445   0.819   8.728  0.3305 -0.3922 -0.5881
  609TMC3    O1 9086   0.454   0.470   9.198  0.1335  0.1732 -0.0745
  609TMC3    O2 9087   0.535   0.762   8.670 -0.7137  0.5650 -0.1403
  610TMC3    C1 9088   1.399   1.852  12.879 -0.1249  0.0158  0.5955
  610TMC3    C2 9089   1.418   1.877  12.747 -0.2842  0.9649  0.5877
  610TMC3    C3 9090   1.426   1.768  12.669 -0.0263  0.4762 -0.2573
  610TMC3    C4 9091   1.395   1.724  12.931 -0.5677 -0.2176 -0.4901
  610TMC3    C5 9092   1.393   1.615  12.842 -0.4687  0.4820  0.1094
  610TMC3    C6 9093   1.410   1.639  12.706  0.7682 -0.5159  0.3587
  610TMC3     C 9094   1.320   1.944  12.962  0.4702 -0.6443 -0.3636
  610TMC3     O 9095   1.248   1.889  13.049 -0.7356 -0.1390 -0.4990
  610TMC3     H 9096   1.416   1.976  12.703 -1.4268  0.1820 -1.1175
  610TMC3    H1 9097   1.406   1.724  13.039  0.5344  2.7901 -0.5851
  610TMC3    H2 9098   1.419   1.555  12.639 -1.1329  0.9097 -1.6599
  610TMC3    C7 9099   1.453   1.493  12.885 -0.4027 -0.5521  0.4691
  610TMC3    C8 9100   1.406   1.795  12.526 -0.2575  0.8074  0.0136
  610TMC3    O1 9101   1.537   1.437  12.816 -0.1702 -0.0974 -0.2081
  610TMC3    O2 9102   1.447   1.906  12.481  0.2317 -0.2041 -0.7517
  611MPD2     C 9103   1.276   1.200   9.900  0.4553  0.8977 -0.4162
  611MPD2    C1 9104   1.252   1.289  10.004  0.4761 -0.8441 -0.1007
  611MPD2    C2 9105   1.338   1.393  10.031  0.0792  0.1974  0.1030
  611MPD2    C3 9106   1.447   1.415   9.942 -0.9291 -0.2285  0.2691
  611MPD2    C4 9107   1.461   1.331   9.832  0.2226  0.4025  0.0603
  611MPD2    C5 9108   1.388   1.218   9.823  0.0919 -0.2432  0.0727
  611MPD2     H 9109   1.307   1.466  10.106 -0.3857  0.5296 -0.4155
  611MPD2    H1 9110   1.542   1.346   9.761 -0.1728  0.1944 -0.4372
  611MPD2    H2 9111   1.209   1.118   9.881  0.5366  0.5787  0.7001
  611MPD2    H3 9112   1.418   1.153   9.742 -0.7477  0.4109 -0.7665
  611MPD2     N 9113   1.541   1.508   9.968 -0.4117  0.1800  0.1605
  611MPD2    H5 9114   1.613   1.526   9.899 -1.9391  1.0883 -1.1724
  611MPD2    N1 9115   1.130   1.263  10.072  0.2725  0.7416 -0.1310
  611MPD2    H7 9116   1.072   1.188  10.036 -0.0650  1.5306 -1.2314
  612TMC3    C1 9117   1.678   1.649  10.101  0.1379 -0.1412  0.4532
  612TMC3    C2 9118   1.724   1.668  10.228 -0.1758  0.1498 -0.0088
  612TMC3    C3 9119   1.819   1.766  10.259 -0.1929 -0.4199  0.4033
  612TMC3    C4 9120   1.704   1.739   9.998 -0.0390 -0.0811 -0.8541
  612TMC3    C5 9121   1.795   1.839  10.040 -0.1423  1.0435 -0.0300
  612TMC3    C6 9122   1.857   1.854  10.161  0.0464  0.1199 -0.5189
  612TMC3     C 9123   1.561   1.564  10.094 -0.2838 -0.0466  1.3664
  612TMC3     O 9124   1.502   1.544  10.197  0.0788 -0.2473 -0.1610
  612TMC3     H 9125   1.701   1.592  10.302  0.8812  0.2011  0.3741
  612TMC3    H1 9126   1.649   1.731   9.906  1.1398  4.4168 -1.9803
  612TMC3    H2 9127   1.923   1.934  10.189 -0.8094  0.8724 -0.6430
  612TMC3    C7 9128   1.843   1.910   9.925 -0.4151  0.6070  1.3297
  612TMC3    C8 9129   1.882   1.784  10.387  0.3730  0.2096 -0.0792
  612TMC3    O1 9130   1.791   1.889   9.814  0.3996 -0.6794  0.6706
  612TMC3    O2 9131   1.995   1.823  10.385  0.2847  0.3531 -0.4205
  613MPD2     C 9132   0.263   4.216  16.466  0.8319  1.1225  0.3326
  613MPD2    C1 9133   0.296   4.120  16.376 -0.5709 -0.7325  0.0683
  613MPD2    C2 9134   0.238   3.997  16.395 -0.1056  0.3451  0.1511
  613MPD2    C3 9135   0.162   3.966  16.502  0.6037  0.1690  0.3540
  613MPD2    C4 9136   0.140   4.058  16.600 -0.1082  0.5033 -0.4192
  613MPD2    C5 9137   0.196   4.184  16.584 -0.3430  0.5509 -0.4731
  613MPD2     H 9138   0.241   3.921  16.317  0.5676 -1.8368  2.2927
  613MPD2    H1 9139   0.087   4.033  16.691 -2.2271  0.2996 -1.7180
  613MPD2    H2 9140   0.303   4.315  16.446  0.3688  1.2410  0.0020
  613MPD2    H3 9141   0.179   4.267  16.651  1.9237  0.5807  0.0541
  613MPD2     N 9142   0.119   3.833  16.515 -0.2000 -0.0048  0.0924
  613MPD2    H5 9143   0.155   3.773  16.442  0.4238  0.2821  0.1628
  613MPD2    N1 9144   0.353   4.139  16.247 -0.2640 -0.0559 -0.2033
  613MPD2    H7 9145   0.367   4.059  16.187 -0.6462  0.3737 -0.8567
  614TMC3    C1 9146   0.431   4.238  16.059  0.9834 -0.0195 -1.1624
  614TMC3    C2 9147   0.410   4.114  16.007 -0.0457  0.0109 -0.1165
  614TMC3    C3 9148   0.403   4.103  15.869  0.7121  0.2206 -0.2673
  614TMC3    C4 9149   0.453   4.345  15.981  0.9885  0.8419 -0.5039
  614TMC3    C5 9150   0.455   4.327  15.846  0.1124  0.0321  0.0869
  614TMC3    C6 9151   0.424   4.210  15.784  0.0865 -0.2932 -0.6902
  614TMC3     C 9152   0.385   4.259  16.190  0.9733  0.1543 -0.2580
  614TMC3     O 9153   0.394   4.364  16.251  0.2725  0.1117 -0.2076
  614TMC3     H 9154   0.399   4.028  16.072 -4.1036  1.2408  0.8593
  614TMC3    H1 9155   0.476   4.437  16.033  0.9318 -0.1225  1.2404
  614TMC3    H2 9156   0.419   4.197  15.677  0.3875 -0.5620 -0.6706
  614TMC3    C7 9157   0.438   4.439  15.756  0.3456  0.0120 -1.3732
  614TMC3    C8 9158   0.336   3.988  15.811 -0.2369  0.4757 -0.6864
  614TMC3    O1 9159   0.508   4.537  15.789 -0.5651 -0.2529 -0.1383
  614TMC3    O2 9160   0.332   3.985  15.687  0.7012  0.9726 -0.0507
  615MPD2     C 9161   4.327   0.823  16.128 -0.3474 -0.6444 -0.2097
  615MPD2    C1 9162   4.194   0.839  16.155  0.3247  0.4062 -0.6367
  615MPD2    C2 9163   4.112   0.878  16.048 -0.2446 -0.5654  0.1049
  615MPD2    C3 9164   4.171   0.917  15.926  0.5771 -0.3345 -0.2156
  615MPD2    C4 9165   4.310   0.908  15.906 -0.0396  0.2190  0.1708
  615MPD2    C5 9166   4.382   0.858  16.013 -0.5637  0.2288 -0.2705
  615MPD2     H 9167   4.005   0.884  16.059 -0.1017  0.5147  0.9456
  615MPD2    H1 9168   4.367   0.943  15.821  1.3115  0.1324  1.0423
  615MPD2    H2 9169   4.392   0.780  16.203  3.1172  4.8241 -0.0469
  615MPD2    H3 9170   4.489   0.844  16.003 -0.2706  0.4245  2.3981
  615MPD2     N 9171   4.096   0.961  15.814  0.1921 -0.1695 -0.0319
  615MPD2    H5 9172   4.151   0.999  15.738  0.6174  1.2705  1.0179
  615MPD2    N1 9173   4.136   0.815  16.279 -0.3814  0.3244  0.2498
  615MPD2    H7 9174   4.038   0.841  16.293 -0.4390 -1.7706  3.7753
  616TMC3    C1 9175   4.107   0.773  16.515 -1.1947  0.5953 -0.6404
  616TMC3    C2 9176   4.160   0.713  16.623  0.2116  0.2202  0.6455
  616TMC3    C3 9177   4.113   0.734  16.752  0.3077 -1.1058 -0.1680
  616TMC3    C4 9178   4.008   0.868  16.537  0.0026  0.0635 -0.5552
  616TMC3    C5 9179   3.970   0.895  16.668  0.0559 -0.5185 -0.3242
  616TMC3    C6 9180   4.015   0.826  16.776  0.2277 -0.7564 -0.4495
  616TMC3     C 9181   4.196   0.778  16.399  0.3185  0.2029  0.3923
  616TMC3     O 9182   4.311   0.761  16.433 -0.4208  0.1284 -0.0583
  616TMC3     H 9183   4.243   0.645  16.610  0.0610  0.5172 -1.8305
  616TMC3    H1 9184   3.984   0.939  16.459 -3.3489 -1.1465 -0.6079
  616TMC3    H2 9185   3.972   0.847  16.873  3.4107  0.8382  0.6339
  616TMC3    C7 9186   3.872   1.010  16.679 -0.3334  0.0612 -0.0477
  616TMC3    C8 9187   4.222   0.726  16.850 -0.7164  0.2877  0.3708
  616TMC3    O1 9188   3.853   1.051  16.792  0.1820 -0.0976  0.1171
  616TMC3    O2 9189   4.217   0.707  16.972 -0.0619  0.4796  0.0755
  617MPD2     C 9190   2.296   3.577  13.488 -0.0821 -0.1413  0.2185
  617MPD2    C1 9191   2.343   3.491  13.588  0.2362 -0.1686 -0.5828
  617MPD2    C2 9192   2.252   3.429  13.671 -0.4090  0.4905 -0.0265
  617MPD2    C3 9193   2.118   3.449  13.655 -0.8514  0.1636 -0.5753
  617MPD2    C4 9194   2.073   3.529  13.551 -0.8017 -0.5558 -0.0466
  617MPD2    C5 9195   2.158   3.596  13.472 -0.7744 -0.2439 -0.6674
  617MPD2     H 9196   2.297   3.368  13.749 -3.0699 -0.0759  1.0831
  617MPD2    H1 9197   1.972   3.549  13.519  0.2059  2.0846 -1.5385
  617MPD2    H2 9198   2.363   3.648  13.442  0.6562 -1.0541 -0.1021
  617MPD2    H3 9199   2.128   3.682  13.413 -3.0093 -2.4313 -2.7269
  617MPD2     N 9200   2.021   3.384  13.738  0.2214 -0.2648 -0.2018
  617MPD2    H5 9201   1.925   3.391  13.707  0.6722  1.6824 -1.1613
  617MPD2    N1 9202   2.489   3.467  13.590  0.0446 -0.5723 -0.2268
  617MPD2    H7 9203   2.554   3.525  13.537  1.6906 -0.9902  1.3228
  618TMC3    C1 9204   2.695   3.352  13.656  0.1830  0.2534 -0.2590
  618TMC3    C2 9205   2.745   3.240  13.600  0.0079 -0.5832  0.0334
  618TMC3    C3 9206   2.859   3.253  13.522 -0.7783  0.3770  0.0806
  618TMC3    C4 9207   2.762   3.473  13.641  0.6959  0.4440  0.3451
  618TMC3    C5 9208   2.867   3.486  13.557  0.3984  0.8091  0.3649
  618TMC3    C6 9209   2.918   3.372  13.492  0.0174 -0.0077 -0.0978
  618TMC3     C 9210   2.549   3.362  13.657 -0.8181  0.0348 -0.1741
  618TMC3     O 9211   2.495   3.260  13.697 -0.2436  0.0631  0.5142
  618TMC3     H 9212   2.687   3.148  13.600  0.1822 -0.6936  0.2182
  618TMC3    H1 9213   2.727   3.563  13.689 -2.6462 -0.0591 -1.1518
  618TMC3    H2 9214   3.018   3.367  13.451 -0.6340  0.1570 -1.6734
  618TMC3    C7 9215   2.955   3.599  13.582 -0.2679  0.0682 -0.1792
  618TMC3    C8 9216   2.860   3.154  13.418  0.6681  0.3838  0.3101
  618TMC3    O1 9217   2.990   3.622  13.698  0.2308 -0.1803  0.0562
  618TMC3    O2 9218   2.831   3.038  13.447 -0.3849  0.7219 -0.0079
  619MPD2     C 9219   3.697   4.613  13.388  0.0194  0.3202  0.1731
  619MPD2    C1 9220   3.641   4.735  13.373 -0.5924  0.0359 -0.3743
  619MPD2    C2 9221   3.509   0.011  13.407 -0.6704 -0.3963  0.1812
  619MPD2    C3 9222   3.434   4.644  13.447  0.6933 -0.6399  0.0617
  619MPD2    C4 9223   3.486   4.517  13.438  0.1209  0.0300 -0.0525
  619MPD2    C5 9224   3.617   4.500  13.417 -0.0910 -0.0194  0.1824
  619MPD2     H 9225   3.478   0.114  13.392 -0.8076 -0.4032  0.4005
  619MPD2    H1 9226   3.415   4.435  13.443 -0.8222  0.7138 -2.3261
  619MPD2    H2 9227   3.801   4.602  13.359  0.2004 -0.0596  0.9779
  619MPD2    H3 9228   3.659   4.402  13.398  0.4820  0.5203 -1.3488
  619MPD2     N 9229   3.299   4.663  13.479 -0.3344 -1.0873 -0.1970
  619MPD2    H5 9230   3.241   4.579  13.485 -0.2464 -1.1711 -0.5454
  619MPD2    N1 9231   3.709   0.105  13.313  0.1097  0.4977 -0.2979
  619MPD2    H7 9232   3.665   0.194  13.332  0.4833  0.2276  1.8298
  620TMC3    C1 9233   3.863   0.240  13.214 -0.6975 -0.9204 -0.5806
  620TMC3    C2 9234   3.755   0.278  13.131  0.9708 -0.3902 -0.7833
  620TMC3    C3 9235   3.734   0.410  13.124  0.0926 -0.4127 -0.0395
  620TMC3    C4 9236   3.934   0.328  13.289  0.3397  0.5550  0.3517
  620TMC3    C5 9237   3.917   0.461  13.272  0.1377 -0.0677 -0.5495
  620TMC3    C6 9238   3.820   0.501  13.185 -0.0239  0.2176 -0.3132
  620TMC3     C 9239   3.840   0.112  13.274  0.3604 -0.4821  0.3984
  620TMC3     O 9240   3.909   0.019  13.237 -0.3682  0.3964  0.0678
  620TMC3     H 9241   3.714   0.214  13.054 -0.9107  0.9471 -0.8780
  620TMC3    H1 9242   4.011   0.292  13.357  0.7062 -1.3291 -1.0537
  620TMC3    H2 9243   3.816   0.608  13.173 -3.4627 -0.0766 -1.7578
  620TMC3    C7 9244   3.947   0.557  13.376 -1.4062  0.0878 -0.1688
  620TMC3    C8 9245   3.656   0.461  13.017  0.6244  0.7438 -0.2876
  620TMC3    O1 9246   3.921   0.670  13.353 -0.3169  0.2626 -0.3446
  620TMC3    O2 9247   3.709   0.457  12.905 -0.0885  0.2742 -0.1246
  621MPD2     C 9248   4.417   4.134   9.823  0.3085 -0.1975  0.4625
  621MPD2    C1 9249   4.449   4.130   9.963 -0.1917  0.5613  0.6671
  621MPD2    C2 9250   4.516   4.232  10.017 -0.0681  0.2666  0.0942
  621MPD2    C3 9251   4.541   4.347   9.946 -0.0648  0.7465 -0.5929
  621MPD2    C4 9252   4.520   4.347   9.812  0.2962 -0.0880  0.2687
  621MPD2    C5 9253   4.461   4.243   9.750  1.0265  0.0476 -0.3847
  621MPD2     H 9254   4.548   4.230  10.121 -0.9699 -2.0545  0.3161
  621MPD2    H1 9255   4.552   4.431   9.751 -2.6652 -0.6309 -2.0062
  621MPD2    H2 9256   4.353   4.058   9.778 -2.7315  1.0899  2.6134
  621MPD2    H3 9257   4.453   4.256   9.643  1.2273 -1.3793 -0.5702
  621MPD2     N 9258   4.597   4.460  10.019 -0.4663  0.4624  0.1643
  621MPD2    H5 9259   4.611   4.442  10.118 -0.4429 -0.1523  0.0483
  621MPD2    N1 9260   4.411   4.030  10.051 -0.4375 -0.0830 -0.4517
  621MPD2    H7 9261   4.426   4.037  10.151  1.6923 -0.2369 -0.7525
  622TMC3    C1 9262   4.301   3.828  10.120  0.4648  0.0559 -0.3768
  622TMC3    C2 9263   4.345   3.853  10.247  0.3326 -0.6683  0.2450
  622TMC3    C3 9264   4.292   3.781  10.348  0.0134 -0.3771  0.1205
  622TMC3    C4 9265   4.215   3.725  10.094  0.5036 -0.5736  0.0442
  622TMC3    C5 9266   4.162   3.651  10.200 -0.6258 -0.2621 -0.4176
  622TMC3    C6 9267   4.209   3.672  10.327 -0.4020  0.7102 -0.1650
  622TMC3     C 9268   4.335   3.922  10.015 -0.4267 -0.2581  0.0163
  622TMC3     O 9269   4.255   3.921   9.921  0.5165  0.2031  0.0378
  622TMC3     H 9270   4.421   3.926  10.273  0.1022 -1.0465  1.9200
  622TMC3    H1 9271   4.180   3.716   9.992 -0.4298 -0.6744  0.3746
  622TMC3    H2 9272   4.156   3.630  10.412 -1.6485  1.5590 -0.5194
  622TMC3    C7 9273   4.051   3.558  10.176 -0.4837  0.0958  0.4947
  622TMC3    C8 9274   4.318   3.827  10.482 -0.5406  0.5315 -0.2744
  622TMC3    O1 9275   3.964   3.534  10.264  0.1533 -0.1790  0.6632
  622TMC3    O2 9276   4.347   3.746  10.571 -0.3986 -0.8924 -0.4417
  623MPD2     C 9277   2.732   0.753  16.085  0.1684 -0.0751 -0.1173
  623MPD2    C1 9278   2.675   0.768  16.203 -0.3902  0.1245  0.2788
  623MPD2    C2 9279   2.748   0.796  16.318  0.2465  0.2042 -0.0532
  623MPD2    C3 9280   2.882   0.821  16.302 -0.5707 -0.5360  0.7023
  623MPD2    C4 9281   2.943   0.815  16.181  0.0344  0.5625  0.6844
  623MPD2    C5 9282   2.865   0.787  16.071 -0.1997  0.5184 -0.0600
  623MPD2     H 9283   2.705   0.813  16.415  2.9833 -0.3750  1.2672
  623MPD2    H1 9284   3.049   0.827  16.167 -0.3068  2.8398  0.1044
  623MPD2    H2 9285   2.677   0.735  15.994 -1.7082  0.3731  0.9457
  623MPD2    H3 9286   2.911   0.785  15.973 -1.6503 -1.5619 -0.6943
  623MPD2     N 9287   2.945   0.870  16.415 -0.1185 -0.6824  0.8614
  623MPD2    H5 9288   2.889   0.874  16.499 -0.5692  1.2757  0.4484
  623MPD2    N1 9289   2.529   0.772  16.200  0.7928  0.1107 -0.3677
  623MPD2    H7 9290   2.480   0.751  16.114  0.7013 -2.5029  0.3094
  624TMC3    C1 9291   3.194   0.876  16.758 -0.1257 -0.2209  0.9925
  624TMC3    C2 9292   3.079   0.900  16.831 -0.0637  0.2029  0.1390
  624TMC3    C3 9293   2.973   0.965  16.771  0.0753  0.1397 -0.0886
  624TMC3    C4 9294   3.211   0.909  16.630  0.1074 -0.1817 -0.2821
  624TMC3    C5 9295   3.092   0.964  16.574  0.0122 -0.1705 -0.0236
  624TMC3    C6 9296   2.978   0.999  16.642 -0.5930 -0.0699  0.2695
  624TMC3     C 9297   3.307   0.797  16.811 -0.0080 -0.3512 -0.1342
  624TMC3     O 9298   3.316   0.781  16.932  0.1863  0.2488 -0.0188
  624TMC3     H 9299   3.071   0.853  16.928 -0.9933 -0.8982 -0.4703
  624TMC3    H1 9300   3.293   0.896  16.562 -0.6371  1.1898 -1.4529
  624TMC3    H2 9301   2.888   1.042  16.600  0.0045  1.2022  0.3057
  624TMC3    C7 9302   3.071   0.920  16.432 -0.4678  1.0114  0.4770
  624TMC3    C8 9303   2.843   0.904  16.784  0.7510  0.3059 -0.0603
  624TMC3    O1 9304   3.169   0.921  16.359 -0.0746 -0.0800 -0.4073
  624TMC3    O2 9305   2.808   0.845  16.681  0.3448  0.6630 -0.1412
  625MPD2     C 9306   3.405   1.626   0.888 -0.4477  0.1020  0.5049
  625MPD2    C1 9307   3.379   1.733   0.805  0.3589  0.1229 -0.6313
  625MPD2    C2 9308   3.443   1.733   0.687 -0.0102 -0.1230 -0.0365
  625MPD2    C3 9309   3.547   1.650   0.659 -0.1932 -0.0075  0.3292
  625MPD2    C4 9310   3.584   1.550   0.742  0.7747  0.3951  0.4249
  625MPD2    C5 9311   3.507   1.539   0.861  1.1362  0.6779 -0.3919
  625MPD2     H 9312   3.443   1.813   0.613 -2.9769 -0.7315 -0.6641
  625MPD2    H1 9313   3.666   1.480   0.727  0.9293  1.0347 -1.7359
  625MPD2    H2 9314   3.355   1.623   0.984  1.0954  0.8487  1.3427
  625MPD2    H3 9315   3.547   1.483   0.945  0.4721  0.0733 -0.4817
  625MPD2     N 9316   3.632   1.692   0.550  0.1849  0.1122 -0.0690
  625MPD2    H5 9317   3.589   1.766   0.494 -1.7458 -0.1546  1.0791
  625MPD2    N1 9318   3.291   1.839   0.826 -0.0751  0.4759  0.0777
  625MPD2    H7 9319   3.285   1.898   0.744 -0.8076  0.8491  0.4003
  626TMC3    C1 9320   3.182   2.005   0.956 -0.1075 -0.0566 -0.4742
  626TMC3    C2 9321   3.136   2.059   0.841  0.4876  0.8224  0.4926
  626TMC3    C3 9322   3.089   2.186   0.851  0.5417  0.2022  0.6769
  626TMC3    C4 9323   3.169   2.068   1.081  0.3492 -0.8166  0.2082
  626TMC3    C5 9324   3.102   2.185   1.082 -0.1403 -0.6632 -0.3052
  626TMC3    C6 9325   3.071   2.255   0.964  0.4184 -0.8591  0.1210
  626TMC3     C 9326   3.242   1.881   0.955  0.4980  0.2118 -0.2385
  626TMC3     O 9327   3.269   1.839   1.071 -0.3744 -0.2325  1.1718
  626TMC3     H 9328   3.146   2.005   0.748  0.3088  0.9341  0.4077
  626TMC3    H1 9329   3.197   2.021   1.175  0.7472 -2.2921 -0.6411
  626TMC3    H2 9330   3.031   2.356   0.965  2.5210 -0.0490  2.1656
  626TMC3    C7 9331   3.088   2.262   1.205  0.6030  0.2931 -0.1341
  626TMC3    C8 9332   3.043   2.251   0.729  0.4280  0.1961  0.5136
  626TMC3    O1 9333   3.173   2.249   1.293  0.4077  0.3865 -0.5425
  626TMC3    O2 9334   3.061   2.372   0.720 -0.2722  0.4551 -0.4683
  627MPD2     C 9335   2.472   2.266  14.210 -0.1331 -0.2939 -0.0553
  627MPD2    C1 9336   2.373   2.287  14.305 -0.3001  0.8778 -0.1737
  627MPD2    C2 9337   2.253   2.225  14.295 -0.1100 -0.1785  0.0599
  627MPD2    C3 9338   2.219   2.142  14.190 -0.1954 -0.1597 -0.2474
  627MPD2    C4 9339   2.316   2.126  14.094 -0.0638 -0.4326 -0.5985
  627MPD2    C5 9340   2.436   2.189  14.101  0.1815  0.2229  0.4426
  627MPD2     H 9341   2.171   2.245  14.363  0.6121 -1.5273  1.3345
  627MPD2    H1 9342   2.300   2.072  14.001 -3.7206  1.5837 -1.1759
  627MPD2    H2 9343   2.569   2.315  14.210 -0.2945  0.0161  2.9872
  627MPD2    H3 9344   2.504   2.170  14.019  2.0493  0.5976  1.8830
  627MPD2     N 9345   2.088   2.090  14.196  0.1835 -0.5049  0.6698
  627MPD2    H5 9346   2.031   2.116  14.276  0.9031  2.6642  0.1444
  627MPD2    N1 9347   2.404   2.372  14.410  0.7279 -0.3931 -0.0821
  627MPD2    H7 9348   2.495   2.416  14.403  1.1105 -1.3269 -0.9632
  628TMC3    C1 9349   2.379   2.511  14.593 -0.2644 -0.7196 -0.1966
  628TMC3    C2 9350   2.495   2.479  14.646 -0.0278  0.7020 -0.6690
  628TMC3    C3 9351   2.576   2.579  14.697  0.1663  0.9203 -0.2235
  628TMC3    C4 9352   2.333   2.639  14.571 -0.0668 -0.0639  0.4043
  628TMC3    C5 9353   2.416   2.735  14.628 -0.2594  0.5824 -0.0412
  628TMC3    C6 9354   2.534   2.709  14.694  0.1381 -1.1172 -0.6975
  628TMC3     C 9355   2.320   2.407  14.513 -0.2378 -0.9446 -0.1667
  628TMC3     O 9356   2.203   2.394  14.531 -0.0951  0.9722 -0.0383
  628TMC3     H 9357   2.527   2.376  14.638 -2.1836 -0.0860  0.8264
  628TMC3    H1 9358   2.239   2.658  14.522 -0.4256 -1.2492  0.6320
  628TMC3    H2 9359   2.604   2.792  14.703 -3.2841  1.5738  1.2517
  628TMC3    C7 9360   2.380   2.874  14.619  0.2183  0.0882 -0.0564
  628TMC3    C8 9361   2.688   2.534  14.779 -0.3895 -0.0238  0.3317
  628TMC3    O1 9362   2.441   2.955  14.688  0.6459  0.6565  0.1923
  628TMC3    O2 9363   2.692   2.412  14.798 -0.2079  0.1165  0.1122
  629MPD2     C 9364   4.729   0.778  16.939 -0.0919 -0.1283 -0.2104
  629MPD2    C1 9365   4.714   0.795  16.807  0.2443  0.7867  0.3652
  629MPD2    C2 9366   4.581   0.800  16.757  0.4518 -0.2625  0.3243
  629MPD2    C3 9367   4.469   0.781  16.840 -0.6447  1.1350 -0.2923
  629MPD2    C4 9368   4.493   0.753  16.974  0.4425 -0.8553  0.3099
  629MPD2    C5 9369   4.622   0.764  17.025  0.4976  1.2656 -0.0683
  629MPD2     H 9370   4.561   0.841  16.659  0.9402 -0.1322  0.2766
  629MPD2    H1 9371   4.419   0.740  17.053  0.9094 -1.0755  0.7080
  629MPD2    H2 9372   0.088   0.774  16.979 -0.3346  1.3597  0.5741
  629MPD2    H3 9373   4.648   0.756  17.130 -0.4903 -0.7442  0.0244
  629MPD2     N 9374   4.336   0.774  16.785  0.4202 -0.3433 -0.2763
  629MPD2    H5 9375   4.330   0.782  16.684  0.0102  3.9904  0.1031
  629MPD2    N1 9376   0.091   0.830  16.733 -0.0240  0.2609  0.0572
  629MPD2    H7 9377   0.179   0.819  16.783  1.9256 -0.7788 -3.5716
  630TMC3    C1 9378   0.218   0.910  16.554  0.8755  0.4466  0.4400
  630TMC3    C2 9379   0.237   0.997  16.452 -0.8692 -0.0925  0.0709
  630TMC3    C3 9380   0.362   1.045  16.427 -0.8450  0.2729  0.2142
  630TMC3    C4 9381   0.319   0.862  16.630  0.4472 -0.7834 -0.4345
  630TMC3    C5 9382   0.443   0.907  16.597  0.3360 -0.5114 -0.1030
  630TMC3    C6 9383   0.468   1.005  16.505 -0.9415  0.0469 -0.0369
  630TMC3     C 9384   0.088   0.873  16.607  0.0905  0.0683 -0.3214
  630TMC3     O 9385   4.738   0.881  16.523 -0.1943 -0.3666  0.5598
  630TMC3     H 9386   0.150   1.045  16.408  0.4149  1.3224 -0.9248
  630TMC3    H1 9387   0.318   0.765  16.678 -0.2923 -1.0020 -0.8881
  630TMC3    H2 9388   0.569   1.044  16.490 -0.7670 -0.1860  0.5362
  630TMC3    C7 9389   0.549   0.870  16.690 -0.4443  0.1725  0.5323
  630TMC3    C8 9390   0.380   1.164  16.347  0.5608  0.4109 -0.1702
  630TMC3    O1 9391   0.537   0.766  16.757 -0.0869 -1.4188  0.2218
  630TMC3    O2 9392   0.479   1.220  16.381  0.3906 -0.0503  0.0278
  631MPD2     C 9393   3.102   1.133  15.470 -0.1872  0.9238  0.5234
  631MPD2    C1 9394   3.189   1.224  15.408  0.9703  0.1150  0.0361
  631MPD2    C2 9395   3.324   1.210  15.410 -0.9102  0.5411  0.1207
  631MPD2    C3 9396   3.380   1.105  15.477  0.0274  0.3176 -0.7178
  631MPD2    C4 9397   3.300   1.009  15.533 -0.6324 -0.3845  0.6931
  631MPD2    C5 9398   3.162   1.026  15.532 -0.0338 -0.9731 -0.6485
  631MPD2     H 9399   3.391   1.277  15.359 -0.3659  0.3184  0.5355
  631MPD2    H1 9400   3.331   0.916  15.579  0.5827 -0.9827 -1.3293
  631MPD2    H2 9401   2.995   1.149  15.465 -0.4496 -1.1785 -0.3974
  631MPD2    H3 9402   3.095   0.951  15.574 -1.0624 -0.5852 -1.6006
  631MPD2     N 9403   3.516   1.094  15.466  0.7811  0.6542  0.3369
  631MPD2    H5 9404   3.575   1.161  15.416 -1.0566  1.5707 -0.6212
  631MPD2    N1 9405   3.128   1.334  15.342  0.9147 -0.3501  0.3725
  631MPD2    H7 9406   3.027   1.332  15.344  0.9575 -0.5462  3.2184
  632TMC3    C1 9407   3.093   1.505  15.191  0.1877  0.0158  0.2692
  632TMC3    C2 9408   2.962   1.458  15.170  0.1366 -0.2048  0.4326
  632TMC3    C3 9409   2.886   1.519  15.081  0.4565  0.2247  0.7060
  632TMC3    C4 9410   3.144   1.612  15.125  0.5281  0.0318 -0.3772
  632TMC3    C5 9411   3.064   1.666  15.024 -0.4383  0.4628 -0.2946
  632TMC3    C6 9412   2.931   1.627  15.004  0.1152 -0.2162 -0.0772
  632TMC3     C 9413   3.187   1.432  15.267 -0.2770  0.0852  0.0320
  632TMC3     O 9414   3.303   1.450  15.242 -0.3890 -0.2388 -0.4984
  632TMC3     H 9415   2.927   1.367  15.218  2.3111 -2.4380 -2.2137
  632TMC3    H1 9416   3.243   1.643  15.157  0.6216 -0.4304 -0.2277
  632TMC3    H2 9417   2.867   1.670  14.928  1.2484 -1.0761 -1.5169
  632TMC3    C7 9418   3.114   1.762  14.931  0.3955 -0.7319 -0.9377
  632TMC3    C8 9419   2.746   1.509  15.106 -0.3535 -0.0094 -0.0489
  632TMC3    O1 9420   3.039   1.818  14.855  0.1047  0.3901  0.1652
  632TMC3    O2 9421   2.720   1.501  15.226  0.2094  0.1303 -0.1681
  633MPD2     C 9422   2.739   3.726  17.286  0.0599 -0.9197 -0.3909
  633MPD2    C1 9423   2.756   3.658  17.162 -0.7510  0.1631 -0.1207
  633MPD2    C2 9424   2.802   3.529  17.159  0.4042  0.9882 -0.2362
  633MPD2    C3 9425   2.816   3.462  17.280  0.3302 -1.1461  0.3009
  633MPD2    C4 9426   2.793   3.524  17.398 -0.3281  0.2360 -0.3461
  633MPD2    C5 9427   2.752   3.657  17.405 -0.0263  0.1120 -0.0187
  633MPD2     H 9428   2.840   3.488  17.066 -0.4027 -0.5598  0.1101
  633MPD2    H1 9429   2.795   3.479  17.497  0.4446  1.6794  0.2792
  633MPD2    H2 9430   2.703   3.828  17.280 -1.0325 -1.1739  2.0737
  633MPD2    H3 9431   2.751   3.701  17.503  0.6540 -1.4715  0.7045
  633MPD2     N 9432   2.874   3.335  17.295  0.2087  0.2595  0.3355
  633MPD2    H5 9433   2.896   3.304  17.389  1.2480  1.3009  0.4337
  633MPD2    N1 9434   2.744   3.725  17.036  0.0645  0.3533 -0.1658
  633MPD2    H7 9435   2.771   3.672  16.954  0.2375  1.9242 -1.1323
  634TMC3    C1 9436   2.699   3.876  16.859  0.0009 -0.7136  0.6060
  634TMC3    C2 9437   2.729   3.776  16.772  0.1401  0.1343 -0.2349
  634TMC3    C3 9438   2.767   3.802  16.643  0.2844 -0.1341  0.4328
  634TMC3    C4 9439   2.728   4.001  16.821  0.1319 -0.9023 -0.1269
  634TMC3    C5 9440   2.774   4.020  16.690  0.6268 -0.1277  0.2077
  634TMC3    C6 9441   2.787   3.923  16.599  0.2231  0.2440 -0.1272
  634TMC3     C 9442   2.699   3.854  17.000  0.2374 -0.1417 -0.3889
  634TMC3     O 9443   2.662   3.950  17.066  0.5790  0.3713  0.5099
  634TMC3     H 9444   2.696   3.677  16.801  0.1766  0.7717  1.9866
  634TMC3    H1 9445   2.694   4.081  16.886  1.2330 -0.4747 -0.0734
  634TMC3    H2 9446   2.837   3.936  16.504  0.1696 -1.0548 -0.3389
  634TMC3    C7 9447   2.825   4.151  16.655  0.6337 -0.1588  0.0200
  634TMC3    C8 9448   2.757   3.689  16.548 -0.1463  0.1643 -0.7485
  634TMC3    O1 9449   2.874   4.161  16.548 -0.2624  0.2956 -0.2141
  634TMC3    O2 9450   2.774   3.574  16.587  0.2338 -0.1302 -0.6555
  635TMC3    C1 9451   3.022   4.553  17.547 -0.3257  0.1328  0.0275
  635TMC3    C2 9452   3.102   4.475  17.457  0.6686  0.4433 -0.1094
  635TMC3    C3 9453   3.098   4.338  17.467 -0.1720  0.6884 -0.7564
  635TMC3    C4 9454   2.949   4.492  17.637 -0.0140 -0.0182 -0.1329
  635TMC3    C5 9455   2.931   4.360  17.628  0.4371 -0.2625 -0.8741
  635TMC3    C6 9456   3.016   4.276  17.555  0.4949 -0.2526  0.3585
  635TMC3     C 9457   3.057   4.685  17.583  0.3522  0.3265 -0.1181
  635TMC3     O 9458   3.041   4.722  17.698 -0.0856 -0.1289  0.7209
  635TMC3     H 9459   3.181   4.528  17.405  1.3064 -0.7847 -0.3883
  635TMC3    H1 9460   2.896   4.545  17.716 -1.4094 -0.6235 -0.6696
  635TMC3    H2 9461   3.027   4.169  17.558 -1.9229 -0.4629  1.1278
  635TMC3    C7 9462   2.858   4.303  17.732 -0.0577 -0.0414  0.0065
  635TMC3    C8 9463   3.166   4.259  17.369  0.5232  0.6562 -0.3714
  635TMC3    O1 9464   2.840   4.373   0.069  0.0292  0.0536 -0.2072
  635TMC3    O2 9465   3.125   4.139  17.357 -0.7291 -0.1210 -0.7804
  636MPD2     C 9466   3.985   3.909  16.241  0.4821 -0.2630 -0.3330
  636MPD2    C1 9467   4.089   3.992  16.273 -0.1304  0.3086  0.4052
  636MPD2    C2 9468   4.207   3.933  16.312 -0.2988  0.2847  0.4008
  636MPD2    C3 9469   4.231   3.792  16.314  0.4533  0.2132  0.4736
  636MPD2    C4 9470   4.128   3.713  16.272 -0.5939 -0.2482  1.2183
  636MPD2    C5 9471   4.010   3.775  16.232  0.1969 -0.0030  0.1986
  636MPD2     H 9472   4.295   3.988  16.346  0.6946 -0.6536 -0.6484
  636MPD2    H1 9473   4.130   3.605  16.266 -2.0674 -0.2450  0.7124
  636MPD2    H2 9474   3.884   3.946  16.222  0.6979  0.5731  0.1427
  636MPD2    H3 9475   3.928   3.709  16.205  0.7055  0.8869 -3.4570
  636MPD2     N 9476   4.361   3.745  16.342  0.5434 -0.1753 -0.0121
  636MPD2    H5 9477   4.432   3.812  16.370  0.9865 -0.3900 -0.6065
  636MPD2    N1 9478   4.084   4.132  16.273 -0.2318  0.6326  0.1203
  636MPD2    H7 9479   4.168   4.184  16.297 -0.9306  1.3873  0.8984
  637TMC3    C1 9480   4.546   3.596  16.378 -0.3367  0.3312  0.0554
  637TMC3    C2 9481   4.574   3.669  16.490 -0.6059 -0.1363  0.5922
  637TMC3    C3 9482   4.706   3.662  16.532 -0.1889  0.7866  0.0080
  637TMC3    C4 9483   4.643   3.539  16.297  0.6009  0.3257  0.6849
  637TMC3    C5 9484   0.028   3.536  16.340  0.9556  1.1171  0.7782
  637TMC3    C6 9485   0.059   3.593  16.461  0.7356 -0.2138 -0.1729
  637TMC3     C 9486   4.410   3.616  16.321  0.4193  0.1908  0.4287
  637TMC3     O 9487   4.360   3.511  16.281  0.2678 -0.1476  0.5871
  637TMC3     H 9488   4.501   3.717  16.553 -0.9485 -1.0408  0.8879
  637TMC3    H1 9489   4.598   3.504  16.204 -1.4926  2.5557  0.8680
  637TMC3    H2 9490   0.160   3.586  16.500  1.6474  0.6049 -2.3809
  637TMC3    C7 9491   0.121   3.582  16.240 -0.1836 -0.0548  0.4831
  637TMC3    C8 9492   0.007   3.791  16.576  0.6682  0.5848  0.1476
  637TMC3    O1 9493   0.186   3.681  16.274  0.2762  0.1807 -0.4057
  637TMC3    O2 9494   4.669   3.868  16.632  0.6918  0.1043  0.2420
  638MPD2     C 9495   3.908   3.155  14.705 -0.3584  0.2911  0.0966
  638MPD2    C1 9496   3.955   3.055  14.626  0.8018  0.0557 -0.3115
  638MPD2    C2 9497   3.944   2.925  14.676  0.7620  0.3783  0.0847
  638MPD2    C3 9498   3.906   2.900  14.803 -0.2879  0.0307 -0.1399
  638MPD2    C4 9499   3.867   3.006  14.886 -0.1045 -0.3909  0.6384
  638MPD2    C5 9500   3.867   3.137  14.834  0.3671 -0.2170  0.2134
  638MPD2     H 9501   3.978   2.848  14.608  0.9814 -0.1694  0.8135
  638MPD2    H1 9502   3.843   2.998  14.991 -2.1661 -0.7230  0.1391
  638MPD2    H2 9503   3.902   3.257  14.669 -0.3546 -0.4133 -1.8812
  638MPD2    H3 9504   3.861   3.228  14.893 -2.2355  0.8755 -1.7061
  638MPD2     N 9505   3.923   2.767  14.850  0.2568 -0.3691 -0.1067
  638MPD2    H5 9506   3.941   2.695  14.780 -0.0372 -0.4900 -0.0556
  638MPD2    N1 9507   4.023   3.074  14.504  0.0043 -0.0917 -0.5086
  638MPD2    H7 9508   4.048   2.990  14.453 -1.4102  0.2337 -1.7232
  639TMC3    C1 9509   3.923   2.580  14.989  0.2819 -0.5241 -0.4216
  639TMC3    C2 9510   3.823   2.510  14.917  0.0800  0.3524 -0.1936
  639TMC3    C3 9511   3.838   2.382  14.881  0.4641  0.3841  0.0132
  639TMC3    C4 9512   4.050   2.529  15.020  0.1274  0.3144 -0.3873
  639TMC3    C5 9513   4.059   2.396  14.975 -0.3283 -0.5041  0.2639
  639TMC3    C6 9514   3.960   2.323  14.917 -0.6241  0.2400  0.2116
  639TMC3     C 9515   3.912   2.723  14.979 -0.3380 -0.6145  0.0655
  639TMC3     O 9516   3.900   2.786  15.084 -0.5391  0.5359 -0.2214
  639TMC3     H 9517   3.743   2.570  14.874 -0.4955 -0.9821 -1.0003
  639TMC3    H1 9518   4.132   2.582  15.066  0.5265 -2.4518  2.0834
  639TMC3    H2 9519   3.977   2.228  14.867 -2.1628 -0.6340  1.3323
  639TMC3    C7 9520   4.182   2.325  14.991 -0.0229 -0.1396 -0.6868
  639TMC3    C8 9521   3.803   2.354  14.749  0.1172  0.2748  0.2449
  639TMC3    O1 9522   4.185   2.209  15.026  0.4191  0.4468 -0.4340
  639TMC3    O2 9523   3.897   2.346  14.670  0.1615 -0.6455 -0.0712
  640MPD2     C 9524   4.610   0.932  10.071 -0.4850  0.4125  0.8008
  640MPD2    C1 9525   4.589   0.978   9.940  0.0862 -0.0208 -0.1926
  640MPD2    C2 9526   4.491   1.075   9.924 -0.7981  0.3802  0.5395
  640MPD2    C3 9527   4.406   1.109  10.031 -0.3456  0.0586  0.1904
  640MPD2    C4 9528   4.412   1.044  10.153  0.3096  0.1529 -0.5027
  640MPD2    C5 9529   4.518   0.960  10.171  0.1095  0.3287 -0.5901
  640MPD2     H 9530   4.471   1.118   9.826  1.0386  1.8323  0.7976
  640MPD2    H1 9531   4.346   1.062  10.236  0.2651 -2.0223 -0.0533
  640MPD2    H2 9532   4.690   0.864  10.100  0.7598  1.2999 -0.5785
  640MPD2    H3 9533   4.516   0.890  10.254 -2.9603  0.0760 -0.8879
  640MPD2     N 9534   4.309   1.213  10.017 -0.4455 -0.1447  0.4201
  640MPD2    H5 9535   4.239   1.222  10.090 -2.2807 -1.8848 -1.1204
  640MPD2    N1 9536   4.679   0.943   9.841 -0.0475  0.1565 -0.0168
  640MPD2    H7 9537   0.018   0.897   9.880 -0.2463  0.3870  0.6654
  641TMC3    C1 9538   0.028   0.919   9.632 -0.5027 -0.7259  1.0197
  641TMC3    C2 9539   0.099   0.812   9.677  0.2729  0.4444 -0.4825
  641TMC3    C3 9540   0.184   0.747   9.587 -0.7430 -0.2364  0.2855
  641TMC3    C4 9541   0.043   0.965   9.501  0.3922  0.5690 -0.3581
  641TMC3    C5 9542   0.131   0.897   9.418 -0.8287  0.3392 -0.3595
  641TMC3    C6 9543   0.199   0.787   9.456 -0.5032 -0.3946  0.5685
  641TMC3     C 9544   4.663   0.968   9.705 -0.2516 -0.1714 -0.0580
  641TMC3     O 9545   4.574   1.022   9.634  0.4627  0.2662 -0.2372
  641TMC3     H 9546   0.082   0.776   9.778  2.2217  0.0543 -0.2937
  641TMC3    H1 9547   0.006   1.065   9.484  1.5669  0.8774 -1.1115
  641TMC3    H2 9548   0.277   0.750   9.390  0.9531  0.4212  1.8102
  641TMC3    C7 9549   0.187   0.979   9.308  0.4657 -0.1199  0.0370
  641TMC3    C8 9550   0.287   0.658   9.632 -0.1364  0.6813 -0.1034
  641TMC3    O1 9551   0.124   1.084   9.292  0.2484  0.0585  0.2285
  641TMC3    O2 9552   0.359   0.604   9.550  0.7156  0.1585  0.4297
  642TMC3    C1 9553   1.101   2.515  12.277 -0.3299 -0.2562  0.0770
  642TMC3    C2 9554   1.216   2.559  12.210  0.0035 -0.4111  0.5918
  642TMC3    C3 9555   1.234   2.528  12.082  0.1852 -0.2839  0.7928
  642TMC3    C4 9556   0.999   2.444  12.218 -0.4294 -0.5154 -0.0010
  642TMC3    C5 9557   1.024   2.428  12.084  0.5246  0.3753  0.8091
  642TMC3    C6 9558   1.129   2.473  12.014 -0.4056  0.5917 -0.7834
  642TMC3     C 9559   1.079   2.580  12.409  0.0916  0.6427  0.6703
  642TMC3     O 9560   1.174   2.602  12.486 -0.1197 -0.9667  0.2402
  642TMC3     H 9561   1.288   2.625  12.257  1.2355 -1.0143 -0.4279
  642TMC3    H1 9562   0.907   2.419  12.268  0.0578  1.0811  1.6824
  642TMC3    H2 9563   1.140   2.447  11.909 -0.8450  0.3344 -0.7679
  642TMC3    C7 9564   0.930   2.355  12.003  0.3345 -0.3549  0.2332
  642TMC3    C8 9565   1.365   2.476  12.038  0.3386  0.0540 -0.2803
  642TMC3    O1 9566   0.960   2.301  11.898 -0.2344 -0.5375 -0.1422
  642TMC3    O2 9567   1.361   2.389  11.955 -0.0812 -0.0947 -0.4253
  643TMC3    C1 9568   0.345   1.577   0.648 -0.4975  0.4715  0.5167
  643TMC3    C2 9569   0.210   1.544   0.642  0.5298 -0.1950 -0.1792
  643TMC3    C3 9570   0.149   1.510   0.523  0.7646  0.7534 -0.1102
  643TMC3    C4 9571   0.425   1.569   0.536 -0.2297  0.1772 -0.2230
  643TMC3    C5 9572   0.351   1.546   0.423 -0.7590  0.0831 -0.2579
  643TMC3    C6 9573   0.217   1.514   0.410  0.3464  0.2992 -0.2691
  643TMC3     C 9574   0.389   1.622   0.777  0.7511 -0.3759  0.6652
  643TMC3     O 9575   0.303   1.676   0.842  0.1026  0.1119 -0.5631
  643TMC3     H 9576   0.149   1.555   0.731 -0.9324  0.0975 -1.2032
  643TMC3    H1 9577   0.524   1.611   0.523  1.6708 -3.7341  1.6184
  643TMC3    H2 9578   0.164   1.530   0.317  0.2586 -0.3678 -0.3357
  643TMC3    C7 9579   0.427   1.566   0.295 -0.5101 -0.3595 -0.3015
  643TMC3    C8 9580   0.023   1.585   0.514  0.0539  0.4604  0.2237
  643TMC3    O1 9581   0.532   1.625   0.300  0.4737 -0.6172 -0.0412
  643TMC3    O2 9582   4.658   1.530   0.538  0.1357 -0.4088  0.5059
  644MPD2     C 9583   4.171   1.922   9.265 -0.7905  0.2860 -0.0133
  644MPD2    C1 9584   4.286   1.975   9.211  0.2350  0.4406  0.1408
  644MPD2    C2 9585   4.312   2.113   9.199 -0.3275  0.3232  0.0635
  644MPD2    C3 9586   4.201   2.202   9.229 -0.3020  0.2688  0.1328
  644MPD2    C4 9587   4.081   2.144   9.262 -0.2632 -0.6796  0.3824
  644MPD2    C5 9588   4.068   2.008   9.291 -0.5735 -0.5946  0.3132
  644MPD2     H 9589   4.404   2.153   9.158 -0.8401  2.1768  0.7308
  644MPD2    H1 9590   3.992   2.200   9.289  0.2533 -0.4005  1.4995
  644MPD2    H2 9591   4.154   1.823   9.305 -1.8118 -0.0329 -1.2417
  644MPD2    H3 9592   3.987   1.971   9.354  1.2467  0.1986  3.1007
  644MPD2     N 9593   4.219   2.344   9.229  0.4742  1.0076 -0.4498
  644MPD2    H5 9594   4.313   2.380   9.218  0.3678  1.5447  0.3950
  644MPD2    N1 9595   4.389   1.871   9.191  0.2547  0.6023 -0.8376
  644MPD2    H7 9596   4.361   1.776   9.211  0.5788  0.2905 -1.8623
  645TMC3    C1 9597   4.148   2.573   9.210 -0.1734 -0.4243  0.3639
  645TMC3    C2 9598   4.044   2.665   9.190 -0.9259  1.2417 -0.5608
  645TMC3    C3 9599   4.070   2.787   9.134  0.5559  0.5753 -0.9663
  645TMC3    C4 9600   4.275   2.608   9.179  0.3384  0.0162  0.4744
  645TMC3    C5 9601   4.301   2.736   9.134  0.0134  0.0720 -0.2613
  645TMC3    C6 9602   4.199   2.823   9.107 -0.1095 -0.1172  0.1851
  645TMC3     C 9603   4.112   2.435   9.246 -0.2408  0.0630  0.2959
  645TMC3     O 9604   4.001   2.416   9.288  0.6932  0.6521 -0.4422
  645TMC3     H 9605   3.942   2.636   9.211 -0.8406  0.4302 -1.2546
  645TMC3    H1 9606   4.353   2.536   9.201  0.0397 -0.5973 -0.4390
  645TMC3    H2 9607   4.229   2.913   9.055  0.2626 -0.8978 -0.9346
  645TMC3    C7 9608   4.443   2.773   9.134  0.3591 -0.6124 -1.0755
  645TMC3    C8 9609   3.959   2.881   9.110 -0.7466  1.0140  0.2006
  645TMC3    O1 9610   4.519   2.680   9.124  0.1768  0.1826 -0.0833
  645TMC3    O2 9611   3.866   2.862   9.188 -0.5831  0.2749 -0.1239
  646MPD2     C 9612   4.535   1.916  14.395  0.4973  0.2858  0.7660
  646MPD2    C1 9613   4.436   1.823  14.419 -0.4906  0.3538  0.8612
  646MPD2    C2 9614   4.308   1.835  14.365  0.0611  0.0911 -0.6042
  646MPD2    C3 9615   4.283   1.939  14.282  0.0539  0.5416 -0.0014
  646MPD2    C4 9616   4.382   2.036  14.267  0.1194  0.1714 -0.6701
  646MPD2    C5 9617   4.506   2.027  14.329 -0.1496 -0.1032  0.0644
  646MPD2     H 9618   4.232   1.759  14.379 -0.9327  1.3697  0.8498
  646MPD2    H1 9619   4.365   2.123  14.205 -0.3824 -0.3280 -1.2386
  646MPD2    H2 9620   4.639   1.905  14.423  0.7397 -0.6873 -0.5024
  646MPD2    H3 9621   4.572   2.113  14.322 -0.9567  0.5056 -0.1875
  646MPD2     N 9622   4.152   1.948  14.228 -0.4371  0.2972 -0.1251
  646MPD2    H5 9623   4.095   1.865  14.243  1.9706 -0.6607  3.9291
  646MPD2    N1 9624   4.482   1.720  14.507 -0.3773 -0.0926  0.3826
  646MPD2    H7 9625   4.580   1.724  14.533 -0.7375  2.5380  1.2393
  647TMC3    C1 9626   4.470   1.519  14.634  0.5376 -0.1316 -0.8876
  647TMC3    C2 9627   4.400   1.399  14.666  0.3448 -0.6752  0.5039
  647TMC3    C3 9628   4.442   1.317  14.764 -0.8506  0.5329 -0.6662
  647TMC3    C4 9629   4.590   1.544  14.688 -0.2267  0.3482  0.2261
  647TMC3    C5 9630   4.640   1.447  14.776  0.2542 -0.5279 -0.1106
  647TMC3    C6 9631   4.565   1.342  14.818 -0.0190 -0.1517  0.0669
  647TMC3     C 9632   4.408   1.611  14.542  0.4906  0.6459  0.2626
  647TMC3     O 9633   4.288   1.589  14.525 -0.0387  0.0532  0.5911
  647TMC3     H 9634   4.307   1.378  14.614  0.4925  1.7522 -0.7126
  647TMC3    H1 9635   4.649   1.623  14.644  1.8546 -0.3146  1.8535
  647TMC3    H2 9636   4.602   1.270  14.890  1.2578  1.0786  0.6403
  647TMC3    C7 9637   0.027   1.458  14.836  0.1846  0.2012  0.3782
  647TMC3    C8 9638   4.344   1.225  14.830 -0.0371  0.4074  0.7444
  647TMC3    O1 9639   0.070   1.350  14.874  0.1675 -1.3635 -0.3650
  647TMC3    O2 9640   4.404   1.137  14.888  0.2562 -0.1523 -0.3762
  648TMC3    C1 9641   3.329   3.815  16.047 -0.1852 -0.3483 -0.2993
  648TMC3    C2 9642   3.445   3.738  16.054  0.2856  0.4790  0.0971
  648TMC3    C3 9643   3.543   3.768  15.961 -0.7584  0.5679  0.7977
  648TMC3    C4 9644   3.308   3.923  15.968  0.4801 -0.0594 -0.0830
  648TMC3    C5 9645   3.410   3.949  15.878  0.1016 -0.6819  0.0914
  648TMC3    C6 9646   3.521   3.871  15.868  0.2535  0.0085 -0.2032
  648TMC3     C 9647   3.263   3.833  16.176  0.2687  0.0717 -0.1108
  648TMC3     O 9648   3.231   3.949  16.203  0.5563 -0.9406 -0.5599
  648TMC3     H 9649   3.450   3.657  16.126  0.9644 -0.5035 -1.0478
  648TMC3    H1 9650   3.209   3.967  15.975  0.1822 -0.9627  1.3303
  648TMC3    H2 9651   3.597   3.893  15.794 -0.2716  0.2803 -0.6549
  648TMC3    C7 9652   3.408   4.074  15.803 -0.4311  0.1580 -0.2225
  648TMC3    C8 9653   3.677   3.720  15.995 -0.1636 -0.1241  0.0326
  648TMC3    O1 9654   3.471   4.088  15.701 -0.0176 -0.2776 -0.1638
  648TMC3    O2 9655   3.701   3.694  16.109 -0.0434 -0.0316 -0.3269
  649TMC3    C1 9656   2.303   0.321  13.022 -0.4445 -1.0706  0.5263
  649TMC3    C2 9657   2.434   0.282  13.001  0.1832 -0.4619 -0.5392
  649TMC3    C3 9658   2.485   0.180  13.072 -0.1479  0.7236 -0.4476
  649TMC3    C4 9659   2.234   0.261  13.121  0.2493 -0.1395  0.0986
  649TMC3    C5 9660   2.282   0.145  13.176 -0.1169 -0.2889 -0.0589
  649TMC3    C6 9661   2.410   0.102  13.160 -0.0635 -0.0447  0.7258
  649TMC3     C 9662   2.219   0.353  12.906  0.1604  0.4717  0.2684
  649TMC3     O 9663   2.107   0.391  12.929  0.1174 -0.2721 -0.1123
  649TMC3     H 9664   2.495   0.351  12.944 -0.3379 -0.4028 -1.0211
  649TMC3    H1 9665   2.134   0.293  13.150  0.3879  0.7793 -0.4461
  649TMC3    H2 9666   2.456   0.019  13.212 -1.4357  0.2686  2.4451
  649TMC3    C7 9667   2.207   0.081  13.282 -0.1571 -0.2738 -0.0808
  649TMC3    C8 9668   2.625   0.187  13.118  0.2086 -0.8008  0.1745
  649TMC3    O1 9669   2.157   0.165  13.355 -0.3385 -0.2897 -0.0895
  649TMC3    O2 9670   2.642   0.136  13.228 -0.0282  0.1421  0.8601
  650TMC3    C1 9671   0.296   1.731  12.265 -0.0502  0.0473  0.2593
  650TMC3    C2 9672   0.313   1.863  12.234  0.0078  0.8432 -0.9862
  650TMC3    C3 9673   0.206   1.933  12.183  0.1608 -0.5377 -0.0886
  650TMC3    C4 9674   0.177   1.672  12.230  0.1164 -0.2085  0.8271
  650TMC3    C5 9675   0.079   1.752  12.180 -0.4973 -0.7322 -0.4264
  650TMC3    C6 9676   0.076   1.884  12.163  0.2965  0.0043 -0.5808
  650TMC3     C 9677   0.348   1.700  12.397  0.1152 -0.1690  0.0937
  650TMC3     O 9678   0.414   1.791  12.444  0.3694  0.0361  0.0282
  650TMC3     H 9679   0.404   1.916  12.259  0.5110  0.2663 -1.5769
  650TMC3    H1 9680   0.164   1.569  12.260 -1.0025  0.5769  3.0658
  650TMC3    H2 9681   4.727   1.943  12.158  0.1581 -0.3359 -2.0296
  650TMC3    C7 9682   4.709   1.689  12.114  0.0184  0.1531 -0.6062
  650TMC3    C8 9683   0.200   2.071  12.214  0.6232  0.3886  0.9378
  650TMC3    O1 9684   4.661   1.585  12.164  0.7531  0.3358  0.2320
  650TMC3    O2 9685   0.263   2.112  12.312  0.1532 -0.2858  0.2943
  651MPD2     C 9686   4.065   3.060  10.544 -0.4952 -0.2616  0.3557
  651MPD2    C1 9687   4.069   3.173  10.617  0.1716 -0.2143 -0.4414
  651MPD2    C2 9688   4.192   3.220  10.654 -0.9293 -0.0351  0.1539
  651MPD2    C3 9689   4.312   3.172  10.612 -0.4143  0.3380 -0.8054
  651MPD2    C4 9690   4.309   3.058  10.541 -0.1272  0.5738  1.0066
  651MPD2    C5 9691   4.185   3.009  10.503 -0.0489  0.6989 -0.1566
  651MPD2     H 9692   4.192   3.311  10.714  0.3956 -0.0443  0.1640
  651MPD2    H1 9693   4.396   3.001  10.513 -0.6387  0.9243 -1.3101
  651MPD2    H2 9694   3.979   3.012  10.497  0.2823  0.8313 -2.1817
  651MPD2    H3 9695   4.175   2.926  10.434  0.3451 -0.0911  0.7468
  651MPD2     N 9696   4.428   3.244  10.655 -0.5736 -0.1843 -0.8105
  651MPD2    H5 9697   4.408   3.334  10.697  2.2376 -0.1219  0.4329
  651MPD2    N1 9698   3.953   3.246  10.636  0.5601 -0.3942 -0.9363
  651MPD2    H7 9699   3.967   3.337  10.680  2.6295 -1.4697  0.6544
  652TMC3    C1 9700   0.077   3.475  10.648 -0.5403 -0.4519 -0.0549
  652TMC3    C2 9701   0.017   3.359  10.614  0.3479  0.6488 -0.3342
  652TMC3    C3 9702   4.645   3.320  10.681 -0.4264  0.3574  0.0200
  652TMC3    C4 9703   0.030   3.551  10.750  0.8690 -1.0884 -0.4982
  652TMC3    C5 9704   4.665   3.505  10.826 -0.0029  0.1683  0.9144
  652TMC3    C6 9705   4.591   3.391  10.786 -0.7500  0.0411  0.2158
  652TMC3     C 9706   0.188   3.525  10.579 -0.1840 -0.2344  1.0103
  652TMC3     O 9707   0.284   3.452  10.554 -0.1324  0.5870  0.3857
  652TMC3     H 9708   0.038   3.306  10.522  1.6128  2.9975 -1.3916
  652TMC3    H1 9709   0.087   3.639  10.778  1.1116 -2.2964  2.8305
  652TMC3    H2 9710   4.509   3.354  10.846 -0.3906 -0.5648  0.3341
  652TMC3    C7 9711   4.642   3.563  10.954  0.0870 -0.0110 -0.6329
  652TMC3    C8 9712   4.557   3.214  10.632  1.0147 -0.3096 -0.1986
  652TMC3    O1 9713   4.595   3.490  11.042 -0.0105  0.1435  0.2683
  652TMC3    O2 9714   4.610   3.133  10.559  0.1045 -0.5528 -0.7419
  653MPD2     C 9715   2.199   3.915   0.001  0.2306 -0.2189 -0.0036
  653MPD2    C1 9716   2.289   3.976  17.672  0.0117  0.3581 -0.1537
  653MPD2    C2 9717   2.342   3.908  17.565 -0.1213 -0.2896 -0.1139
  653MPD2    C3 9718   2.312   3.768  17.557  0.0682 -1.0095  0.3357
  653MPD2    C4 9719   2.224   3.711  17.647 -0.0861  0.1902  0.2135
  653MPD2    C5 9720   2.175   3.781  17.756  0.1215  0.2876  0.4755
  653MPD2     H 9721   2.408   3.956  17.494 -0.0057 -1.3001 -0.6956
  653MPD2    H1 9722   2.195   3.607  17.648 -2.2845  0.7808 -1.0343
  653MPD2    H2 9723   2.164   3.960   0.093 -1.6568 -0.6861 -0.4922
  653MPD2    H3 9724   2.122   3.731   0.073 -0.5138 -0.3516 -0.3433
  653MPD2     N 9725   2.377   3.693  17.453  0.3913  0.0810  0.1794
  653MPD2    H5 9726   2.428   3.741  17.380  1.8949 -1.6636  0.1104
  653MPD2    N1 9727   2.328   4.110  17.684 -0.1705 -0.0435  1.2562
  653MPD2    H7 9728   2.382   4.150  17.607 -0.7252 -1.3473  0.1903
  654TMC3    C1 9729   2.437   3.500  17.319  0.3082  1.1448  0.6144
  654TMC3    C2 9730   2.413   3.581  17.206  0.6286 -0.1957 -0.3229
  654TMC3    C3 9731   2.432   3.523  17.088  0.3794 -0.6997 -0.2498
  654TMC3    C4 9732   2.465   3.369  17.312 -0.6656  0.2270  0.6077
  654TMC3    C5 9733   2.480   3.315  17.185 -0.1281 -0.2034 -0.3682
  654TMC3    C6 9734   2.476   3.397  17.073 -1.4455 -0.2050 -0.4642
  654TMC3     C 9735   2.370   3.552  17.447 -0.3499  0.2522 -0.9818
  654TMC3     O 9736   2.351   3.469  17.534 -0.1714 -0.2597 -0.6664
  654TMC3     H 9737   2.375   3.682  17.213  2.5030  0.5751 -1.2593
  654TMC3    H1 9738   2.460   3.310  17.403 -0.2610 -0.1718  0.3715
  654TMC3    H2 9739   2.458   3.345  16.980  0.7700 -0.5358 -0.7155
  654TMC3    C7 9740   2.506   3.174  17.159  0.7268  0.4181  0.0980
  654TMC3    C8 9741   2.370   3.586  16.974 -0.1190  0.5017  0.5908
  654TMC3    O1 9742   2.511   3.137  17.041 -0.2085  0.2303  0.1986
  654TMC3    O2 9743   2.277   3.656  17.010 -0.2856  0.1271  0.0949
  655MPD2     C 9744   3.990   3.944  15.587  0.4312 -0.5677  0.0159
  655MPD2    C1 9745   3.908   4.046  15.551  0.1234 -0.6858 -0.5149
  655MPD2    C2 9746   3.905   4.086  15.416  0.2710 -0.3129 -0.1463
  655MPD2    C3 9747   3.992   4.026  15.316  0.1460  0.3355  0.1104
  655MPD2    C4 9748   4.073   3.926  15.358  0.4669 -0.0465 -0.6709
  655MPD2    C5 9749   4.073   3.885  15.490  0.0533 -0.4272 -0.4599
  655MPD2     H 9750   3.829   4.157  15.385  1.6126  0.3326 -1.9544
  655MPD2    H1 9751   4.132   3.865  15.291  1.1403 -1.9327  1.6239
  655MPD2    H2 9752   4.000   3.914  15.690 -0.1981 -1.2867 -0.1268
  655MPD2    H3 9753   4.129   3.797  15.519 -1.6265 -0.5826  2.2756
  655MPD2     N 9754   3.999   4.075  15.182  0.2329 -0.2613 -0.4269
  655MPD2    H5 9755   4.062   4.029  15.117  0.1856 -0.6669 -0.1843
  655MPD2    N1 9756   3.828   4.115  15.636  0.0539 -0.1345  0.0401
  655MPD2    H7 9757   3.783   4.195  15.593  0.7446 -0.3430 -1.0662
  656TMC3    C1 9758   3.742   4.216  15.821 -0.2044  0.4112 -0.6145
  656TMC3    C2 9759   3.690   4.212  15.946 -0.2549 -0.1528  0.5134
  656TMC3    C3 9760   3.610   4.312  15.991  0.4021 -0.6264  0.1045
  656TMC3    C4 9761   3.744   4.336  15.748 -0.2926 -1.0821 -0.4825
  656TMC3    C5 9762   3.667   4.433  15.801  0.2907 -0.3288  0.2999
  656TMC3    C6 9763   3.594   4.427  15.919 -0.0031 -0.2495 -0.3779
  656TMC3     C 9764   3.803   4.098  15.767 -0.4238 -0.2799  0.6892
  656TMC3     O 9765   3.836   4.004  15.834 -0.4107  0.5026 -0.5298
  656TMC3     H 9766   3.692   4.114  15.991 -0.1163  0.0837  1.0150
  656TMC3    H1 9767   3.788   4.350  15.650  3.1163 -1.5089  1.0044
  656TMC3    H2 9768   3.539   4.516  15.951  1.6924 -0.2226  2.5215
  656TMC3    C7 9769   3.641   4.530  15.705 -0.6339 -0.2582 -0.0907
  656TMC3    C8 9770   3.522   4.286  16.100 -0.1454  0.2201  0.1024
  656TMC3    O1 9771   3.732   4.567  15.634  1.1224  0.0081 -0.5120
  656TMC3    O2 9772   3.499   4.171  16.134  0.3440 -0.0805 -0.0283
  657TMC3    C1 9773   3.276   3.648  14.923 -0.2847 -0.2952 -0.4215
  657TMC3    C2 9774   3.157   3.687  14.869 -0.3792 -0.2380 -0.3598
  657TMC3    C3 9775   3.156   3.760  14.755  0.0606  0.2503 -0.2626
  657TMC3    C4 9776   3.396   3.687  14.863 -0.0358 -0.1244 -0.1490
  657TMC3    C5 9777   3.389   3.764  14.746 -0.2750 -0.0634 -0.4089
  657TMC3    C6 9778   3.271   3.808  14.698  0.8130 -0.0116 -0.2496
  657TMC3     C 9779   3.273   3.566  15.047  0.4492  0.1816  0.0527
  657TMC3     O 9780   3.160   3.566  15.098 -0.5961  0.1601 -0.6087
  657TMC3     H 9781   3.061   3.658  14.911 -0.1325 -0.2569  0.1826
  657TMC3    H1 9782   3.494   3.655  14.894  0.5784  1.4632 -0.4100
  657TMC3    H2 9783   3.263   3.865  14.607 -4.7040  1.2150  1.0396
  657TMC3    C7 9784   3.492   3.736  14.649 -0.3999  0.3368 -0.9442
  657TMC3    C8 9785   3.043   3.818  14.699 -0.5460 -0.0242 -0.0682
  657TMC3    O1 9786   3.606   3.719  14.691 -0.0853  0.5127 -0.4780
  657TMC3    O2 9787   3.040   3.806  14.577  0.0055  0.3567  0.5085
  658MPD2     C 9788   4.355   4.064  14.652  0.0928  0.2019  0.7522
  658MPD2    C1 9789   4.238   4.012  14.610 -0.3870 -0.3385 -0.3040
  658MPD2    C2 9790   4.228   3.968  14.482 -0.1889 -0.2561 -0.2168
  658MPD2    C3 9791   4.337   3.972  14.392  0.1178  0.1278  0.1109
  658MPD2    C4 9792   4.451   4.023  14.447  0.9941  0.1155  0.1434
  658MPD2    C5 9793   4.465   4.071  14.576 -0.2221 -0.0183  0.2265
  658MPD2     H 9794   4.133   3.924  14.456  1.0226 -3.2885  0.4773
  658MPD2    H1 9795   4.541   4.019  14.387  0.3664 -0.9085 -0.7346
  658MPD2    H2 9796   4.353   4.123  14.744  0.6621  0.6645  0.4690
  658MPD2    H3 9797   4.555   4.122  14.606 -0.3219  0.2286  0.1052
  658MPD2     N 9798   4.320   3.917  14.269 -0.1746 -0.3893 -0.1462
  658MPD2    H5 9799   4.223   3.900  14.246  0.5457 -2.8036 -1.4922
  658MPD2    N1 9800   4.134   4.026  14.706  0.7121  0.3786 -0.2425
  658MPD2    H7 9801   4.162   4.077  14.789 -0.3903  1.1846 -0.3623
  659TMC3    C1 9802   3.930   4.068  14.792 -0.4277  0.8136  0.3142
  659TMC3    C2 9803   3.997   4.102  14.905  0.0671 -0.0368 -0.2387
  659TMC3    C3 9804   3.927   4.184  14.980  0.4478  0.5239 -0.8304
  659TMC3    C4 9805   3.800   4.095  14.758 -0.4298  0.0280 -0.0682
  659TMC3    C5 9806   3.735   4.176  14.837  0.4924 -0.1311 -0.1274
  659TMC3    C6 9807   3.801   4.228  14.946  0.7470 -0.0981 -0.1759
  659TMC3     C 9808   3.999   4.018  14.682 -0.1977 -0.4861 -0.8872
  659TMC3     O 9809   3.939   3.971  14.584  0.0528  0.8720 -0.0893
  659TMC3     H 9810   4.074   4.032  14.937  1.2672  2.3450  2.0842
  659TMC3    H1 9811   3.759   4.036  14.676 -1.1298 -0.5002  0.6685
  659TMC3    H2 9812   3.749   4.309  14.996  1.3869  0.0441  0.2690
  659TMC3    C7 9813   3.621   4.117  14.895  0.1145 -0.4946  0.3824
  659TMC3    C8 9814   3.929   4.184  15.129  0.0328 -1.4673  0.6188
  659TMC3    O1 9815   3.640   4.053  14.999 -0.1690  0.5521 -0.2001
  659TMC3    O2 9816   3.863   4.265  15.190  0.0116 -0.0121 -0.6785
  660MPD2     C 9817   2.110   2.714  12.680  0.0922 -0.0203 -0.0135
  660MPD2    C1 9818   1.987   2.765  12.653 -0.4689  0.1774  0.3156
  660MPD2    C2 9819   1.883   2.740  12.744  0.0491  0.9001  0.3616
  660MPD2    C3 9820   1.904   2.683  12.868 -0.4868 -0.6311  0.9542
  660MPD2    C4 9821   2.035   2.647  12.897 -0.1610  0.5902  1.1927
  660MPD2    C5 9822   2.129   2.651  12.801  0.5404  0.3208 -0.4570
  660MPD2     H 9823   1.787   2.787  12.726 -2.4197 -4.6662 -0.7191
  660MPD2    H1 9824   2.057   2.597  12.990 -0.8849 -0.2595  0.9147
  660MPD2    H2 9825   2.187   2.727  12.604  1.6702 -2.4525  1.1812
  660MPD2    H3 9826   2.226   2.610  12.826  0.8101  2.3389  1.7801
  660MPD2     N 9827   1.792   2.640  12.950  0.1929  0.4478 -0.4606
  660MPD2    H5 9828   1.815   2.590  13.036  0.5171  1.2155 -0.0993
  660MPD2    N1 9829   1.957   2.843  12.535 -0.0604  0.2178 -0.3012
  660MPD2    H7 9830   2.020   2.835  12.455 -1.2793  1.8152 -1.4249
  661TMC3    C1 9831   1.839   2.959  12.363 -0.8945 -0.3370 -0.4955
  661TMC3    C2 9832   1.939   2.943  12.279 -0.3019 -0.3928 -0.0034
  661TMC3    C3 9833   1.909   2.974  12.146  0.3709 -0.1899 -0.1019
  661TMC3    C4 9834   1.710   2.997  12.325  0.0527 -0.4831 -0.4557
  661TMC3    C5 9835   1.687   3.015  12.193  0.2055  0.1669  0.2399
  661TMC3    C6 9836   1.788   3.004  12.095  0.3782  0.2843 -0.7456
  661TMC3     C 9837   1.848   2.916  12.502 -0.6477  0.3476 -0.0601
  661TMC3     O 9838   1.748   2.939  12.567 -0.3259  0.0839 -0.0267
  661TMC3     H 9839   2.042   2.930  12.310 -0.4162 -0.4028  0.3675
  661TMC3    H1 9840   1.623   2.990  12.389 -0.5638 -1.1432 -1.3689
  661TMC3    H2 9841   1.767   3.020  11.990  0.1772 -2.9116 -1.1861
  661TMC3    C7 9842   1.554   2.990  12.151 -0.2552 -0.7220  0.5541
  661TMC3    C8 9843   2.016   2.967  12.058  0.1674  0.7640  0.5266
  661TMC3    O1 9844   1.470   3.041  12.218 -0.4185  0.0270  0.1600
  661TMC3    O2 9845   2.090   2.869  12.079 -0.5465  0.1777 -0.4800
  662MPD2     C 9846   2.460   2.280  17.197 -0.0389 -0.4476  0.7104
  662MPD2    C1 9847   2.448   2.186  17.303 -0.5271 -0.2950 -0.4539
  662MPD2    C2 9848   2.393   2.224  17.425 -0.3284 -0.0888 -0.8423
  662MPD2    C3 9849   2.327   2.346  17.439 -0.2958 -0.3878 -0.1721
  662MPD2    C4 9850   2.343   2.441  17.341  1.0025  0.0313 -0.1819
  662MPD2    C5 9851   2.404   2.406  17.220  0.0597 -0.2588  0.6242
  662MPD2     H 9852   2.404   2.160  17.513  2.8274 -1.3521 -2.1383
  662MPD2    H1 9853   2.306   2.541  17.360 -0.6430 -0.3045 -1.5739
  662MPD2    H2 9854   2.509   2.267  17.101 -0.5080 -1.3487  0.5926
  662MPD2    H3 9855   2.401   2.482  17.142 -2.8191  0.0314  1.0313
  662MPD2     N 9856   2.250   2.377  17.552  0.0946 -0.5442  0.0479
  662MPD2    H5 9857   2.195   2.462  17.540  0.3711 -0.1679  1.5525
  662MPD2    N1 9858   2.490   2.057  17.292  0.1726 -0.1991  0.1170
  662MPD2    H7 9859   2.450   1.997  17.364 -2.3466 -0.1388 -1.2393
  663TMC3    C1 9860   2.589   1.869  17.191  0.0011 -0.1164 -0.4161
  663TMC3    C2 9861   2.536   1.799  17.298  0.3517 -0.3101  0.2701
  663TMC3    C3 9862   2.531   1.663  17.283  0.0592 -0.2476 -0.0108
  663TMC3    C4 9863   2.616   1.814  17.070  0.2702  0.5945 -0.0045
  663TMC3    C5 9864   2.596   1.682  17.057  0.5158 -0.5312  0.6111
  663TMC3    C6 9865   2.576   1.600  17.166 -0.0383 -0.4038  0.5758
  663TMC3     C 9866   2.572   2.009  17.193  0.1406 -0.4193 -0.3303
  663TMC3     O 9867   2.632   2.071  17.108 -0.2763  0.7691  0.0868
  663TMC3     H 9868   2.533   1.834  17.400  4.0803  1.7552 -0.3364
  663TMC3    H1 9869   2.639   1.877  16.984 -2.2975  2.6789  0.8088
  663TMC3    H2 9870   2.558   1.495  17.149 -0.5112 -0.1035 -0.7783
  663TMC3    C7 9871   2.545   1.633  16.929 -0.8106 -0.5581 -1.1004
  663TMC3    C8 9872   2.555   1.583  17.399  0.4502  0.4599 -0.3118
  663TMC3    O1 9873   2.570   1.702  16.829 -0.1610  0.1376  0.5574
  663TMC3    O2 9874   2.625   1.486  17.394  0.6510 -0.2194 -0.6446
  664MPD2     C 9875   0.022   0.518  17.378 -0.0367  0.5562 -0.2416
  664MPD2    C1 9876   0.152   0.537  17.425  0.0750 -0.3879 -0.6891
  664MPD2    C2 9877   0.215   0.442  17.494  0.5323  0.3984  0.3499
  664MPD2    C3 9878   0.145   0.340  17.547 -0.1056  0.8880 -0.1740
  664MPD2    C4 9879   0.009   0.323  17.518  0.0342  0.2336  0.0264
  664MPD2    C5 9880   4.691   0.406  17.428  0.8010 -0.4101 -0.4379
  664MPD2     H 9881   0.317   0.462  17.525  0.6249  0.4157  0.0322
  664MPD2    H1 9882   4.705   0.230  17.549  0.6659  0.2132  0.9268
  664MPD2    H2 9883   4.717   0.589  17.312  1.8343  0.8147 -1.2750
  664MPD2    H3 9884   4.591   0.380  17.398  0.2933  2.2602 -1.0122
  664MPD2     N 9885   0.218   0.261  17.633  0.1965 -0.2959 -0.1634
  664MPD2    H5 9886   0.312   0.298  17.643 -0.1594  0.1923  1.4058
  664MPD2    N1 9887   0.227   0.653  17.387 -0.2714  0.5365  0.0220
  664MPD2    H7 9888   0.328   0.654  17.397 -0.0192  0.6428 -2.5241
  665TMC3    C1 9889   0.289   0.124   0.039 -1.0443 -0.5232  0.2811
  665TMC3    C2 9890   0.255   0.033   0.136 -0.4826  0.8266 -0.0244
  665TMC3    C3 9891   0.263   0.071   0.269  0.7818 -0.1142  0.3887
  665TMC3    C4 9892   0.365   0.233   0.071 -0.3157 -0.3814 -0.5110
  665TMC3    C5 9893   0.379   0.262   0.199  0.1924 -0.3115  0.1958
  665TMC3    C6 9894   0.335   0.184   0.302 -0.3172 -0.5096 -1.1923
  665TMC3     C 9895   0.177   0.156  17.714 -0.5113 -0.3449 -0.7535
  665TMC3     O 9896   0.072   0.090  17.712 -0.5202 -0.2262  0.5011
  665TMC3     H 9897   0.198   4.687   0.108 -0.6518  1.6446 -2.2357
  665TMC3    H1 9898   0.409   0.301  17.763 -0.9996 -1.0359 -1.5469
  665TMC3    H2 9899   0.371   0.198   0.403  0.1697  0.2729 -1.4777
  665TMC3    C7 9900   0.463   0.373   0.226  0.0834  0.7504  0.1895
  665TMC3    C8 9901   0.200   4.732   0.370 -0.2580 -0.4936 -0.1524
  665TMC3    O1 9902   0.549   0.399   0.144 -0.2577  0.5281  1.0930
  665TMC3    O2 9903   0.182   4.617   0.335  0.1979  0.2528  0.1924
  666TMC3    C1 9904   4.681   4.674  10.077 -0.0946  0.2108 -0.1456
  666TMC3    C2 9905   4.727   4.636  10.203  0.1074 -0.6943 -0.3919
  666TMC3    C3 9906   0.016   4.738  10.287 -0.3384  0.1090  0.0635
  666TMC3    C4 9907   4.675   0.062  10.032 -0.0384 -0.6190  0.1563
  666TMC3    C5 9908   4.697   0.164  10.124  0.5554  0.4999  0.4718
  666TMC3    C6 9909   0.003   0.134  10.252 -0.2279 -0.1109 -0.2690
  666TMC3     C 9910   4.634   4.581   9.969 -1.0781 -0.0288 -0.0099
  666TMC3     O 9911   4.613   4.620   9.857 -0.4566 -0.2201  0.2246
  666TMC3     H 9912   0.009   4.535  10.234 -1.8247 -0.4509  1.8912
  666TMC3    H1 9913   4.619   0.089   9.943  0.5108 -2.6918 -0.8082
  666TMC3    H2 9914   0.013   0.211  10.328 -1.4623  0.3204 -0.5534
  666TMC3    C7 9915   4.639   0.294  10.099  0.0081  0.9348 -0.3070
  666TMC3    C8 9916   0.091   4.705  10.405 -0.5873  0.1425 -0.6103
  666TMC3    O1 9917   4.596   0.356  10.194  0.1364  0.2395  0.2340
  666TMC3    O2 9918   0.070   4.591  10.451  0.3188  0.2018 -0.3436
  667MPD2     C 9919   1.241   1.094  14.223  0.3668  0.0071  0.0930
  667MPD2    C1 9920   1.258   1.047  14.348  0.8901 -0.9986  0.3227
  667MPD2    C2 9921   1.166   0.959  14.397 -0.1029 -0.2307 -0.1416
  667MPD2    C3 9922   1.060   0.918  14.322  0.1192  0.5004 -0.7977
  667MPD2    C4 9923   1.041   0.969  14.193  0.4145 -0.1851  0.0105
  667MPD2    C5 9924   1.132   1.053  14.144  0.3515 -0.3123 -0.9266
  667MPD2     H 9925   1.191   0.897  14.482 -0.2443  3.5640  2.6748
  667MPD2    H1 9926   0.974   0.926  14.120  0.0996  1.5342 -0.7209
  667MPD2    H2 9927   1.307   1.164  14.175  2.3658 -0.6897  1.8433
  667MPD2    H3 9928   1.125   1.088  14.041  2.9345 -1.0377 -1.3584
  667MPD2     N 9929   0.972   0.819  14.364 -0.0774  0.0795  0.3904
  667MPD2    H5 9930   0.903   0.794  14.294  0.1893  1.4256 -0.3487
  667MPD2    N1 9931   1.375   1.080  14.431 -0.0015  0.5827 -0.3384
  667MPD2    H7 9932   1.369   1.033  14.520  1.9460  1.7387  0.4002
  668TMC3    C1 9933   1.572   1.199  14.503  0.5911 -0.1288  0.5778
  668TMC3    C2 9934   1.628   1.322  14.491  0.4356  0.0905  0.1661
  668TMC3    C3 9935   1.669   1.382  14.608  0.4168 -0.0900  0.7187
  668TMC3    C4 9936   1.589   1.117  14.613 -0.3561  0.6145  0.6043
  668TMC3    C5 9937   1.627   1.181  14.729 -0.7598 -0.1511  0.3009
  668TMC3    C6 9938   1.675   1.310  14.723 -0.0949  0.0177 -0.4749
  668TMC3     C 9939   1.477   1.162  14.396 -0.2046 -0.3256  0.1477
  668TMC3     O 9940   1.492   1.231  14.294  0.3424  0.1693  0.3698
  668TMC3     H 9941   1.618   1.381  14.401  0.2512  0.1909  0.2536
  668TMC3    H1 9942   1.548   1.017  14.619 -0.2567  0.5269 -0.2231
  668TMC3    H2 9943   1.694   1.355  14.819  0.8655  0.6863 -0.9713
  668TMC3    C7 9944   1.650   1.113  14.853 -0.2846 -0.3163 -0.0125
  668TMC3    C8 9945   1.720   1.511  14.618  0.3926  0.0055  0.0813
  668TMC3    O1 9946   1.713   1.165  14.944  0.0035 -0.3468  0.6103
  668TMC3    O2 9947   1.719   1.562  14.730 -0.1554  0.0430 -0.8659
  669TMC3    C1 9948   4.277   0.874  14.705  1.0776 -0.8671  0.6678
  669TMC3    C2 9949   4.170   0.894  14.614 -0.0159 -0.2695  0.0388
  669TMC3    C3 9950   4.203   0.944  14.490 -0.2659  0.1307 -0.3882
  669TMC3    C4 9951   4.400   0.915  14.671 -0.4491 -0.3347  0.1825
  669TMC3    C5 9952   4.428   0.976  14.549 -0.5988 -0.4035  0.3669
  669TMC3    C6 9953   4.328   0.989  14.456  0.1465 -0.2728 -0.7072
  669TMC3     C 9954   4.244   0.803  14.820  0.9814  0.7006  0.2041
  669TMC3     O 9955   4.128   0.815  14.853 -0.2062  0.9200  0.2083
  669TMC3     H 9956   4.067   0.863  14.630 -0.6271  1.9828  0.4720
  669TMC3    H1 9957   4.479   0.902  14.745  0.9006  0.3683 -1.1410
  669TMC3    H2 9958   4.355   1.017  14.355 -0.4689  0.2379 -0.7321
  669TMC3    C7 9959   4.558   1.032  14.530  0.1552  0.0100 -0.1885
  669TMC3    C8 9960   4.108   0.913  14.386  0.2863  0.9414 -0.0325
  669TMC3    O1 9961   4.562   1.114  14.438  0.3870  0.7504 -0.4914
  669TMC3    O2 9962   4.147   0.884  14.280 -0.0046  0.1917  0.1092
  670MPD2     C 9963   2.078   3.153  13.358  0.6375  0.3068 -0.5092
  670MPD2    C1 9964   2.215   3.167  13.362  0.0170  0.2612 -0.2740
  670MPD2    C2 9965   2.287   3.140  13.481  0.1821  0.0869 -0.2215
  670MPD2    C3 9966   2.217   3.091  13.588  0.4736  0.4541  0.5667
  670MPD2    C4 9967   2.084   3.062  13.575 -0.2351  0.0325 -0.1022
  670MPD2    C5 9968   2.018   3.094  13.465  0.2835  0.3779  0.0227
  670MPD2     H 9969   2.394   3.154  13.485  0.2871  0.3547 -3.7318
  670MPD2    H1 9970   2.031   3.015  13.657 -1.0515 -2.3436 -1.9952
  670MPD2    H2 9971   2.019   3.179  13.270  1.3754  0.3355 -0.9900
  670MPD2    H3 9972   1.913   3.081  13.442  0.6594  0.1146 -1.5681
  670MPD2     N 9973   2.285   3.068  13.708  0.3190  0.0916  0.0807
  670MPD2    H5 9974   2.379   3.107  13.708  1.5669 -2.9061 -1.1347
  670MPD2    N1 9975   2.285   3.221  13.249  0.6399  0.3211 -0.4431
  670MPD2    H7 9976   2.383   3.243  13.266  0.4629  0.8164 -0.0453
  671TMC3    C1 9977   2.317   2.999  13.941 -0.7667  0.3566  0.0353
  671TMC3    C2 9978   2.449   3.025  13.930  0.0057  0.2029  0.5856
  671TMC3    C3 9979   2.534   2.960  14.010 -0.3558  0.8669 -0.1555
  671TMC3    C4 9980   2.276   2.941  14.054 -0.5852  0.0995 -0.5565
  671TMC3    C5 9981   2.364   2.883  14.149  0.7732  1.0058 -0.1532
  671TMC3    C6 9982   2.496   2.876  14.113  0.2590  0.1425 -0.7289
  671TMC3     C 9983   2.231   3.016  13.826 -0.0154  0.3501  0.7276
  671TMC3     O 9984   2.119   2.976  13.845 -0.1695  0.4954  0.3287
  671TMC3     H 9985   2.490   3.070  13.840  1.2927 -0.5135  0.8213
  671TMC3    H1 9986   2.170   2.936  14.075  0.0335  0.8341  2.8162
  671TMC3    H2 9987   2.560   2.807  14.167  0.3012  0.1885 -0.7205
  671TMC3    C7 9988   2.304   2.754  14.186 -0.3410 -0.3773 -0.0071
  671TMC3    C8 9989   2.676   2.950  13.964  0.0332  0.4902 -0.2061
  671TMC3    O1 9990   2.208   2.747  14.266 -0.4257 -0.4103  0.1651
  671TMC3    O2 9991   2.700   2.981  13.847  0.6710  0.3274 -1.0959
  672MPD2     C 9992   1.736   3.824   1.240 -0.1052 -0.3420 -0.1500
  672MPD2    C1 9993   1.842   3.736   1.236  0.2625  0.1792 -1.5274
  672MPD2    C2 9994   1.950   3.752   1.322 -0.6223 -0.4200  0.9237
  672MPD2    C3 9995   1.946   3.853   1.416  0.6707  0.6173  0.1514
  672MPD2    C4 9996   1.848   3.950   1.419  0.0197 -0.1087  0.1553
  672MPD2    C5 9997   1.741   3.925   1.333  0.4174 -0.2243  0.5184
  672MPD2     H 9998   2.036   3.686   1.331  0.0598  0.4326  0.6035
  672MPD2    H1 9999   1.854   4.036   1.484  0.2639 -0.6692  0.8816
  672MPD2    H210000   1.646   3.802   1.183  0.5912 -1.4355 -0.8152
  672MPD2    H310001   1.660   3.996   1.347  0.8333  0.0554  1.5340
  672MPD2     N10002   2.064   3.889   1.489 -1.0280 -0.1055  0.3880
  672MPD2    H510003   2.062   3.983   1.526  1.4533 -0.0240  0.3126
  672MPD2    N110004   1.852   3.623   1.146 -0.0646 -0.1034 -0.4739
  672MPD2    H710005   1.939   3.570   1.145 -1.5182 -2.4570 -2.2866
  673TMC3    C110006   1.822   3.521   0.941  0.0148 -0.0934 -0.1271
  673TMC3    C210007   1.885   3.404   0.981  0.1892 -1.1129 -0.0388
  673TMC3    C310008   1.932   3.334   0.872  0.1706 -0.4760  0.2283
  673TMC3    C410009   1.820   3.571   0.813  0.5871 -0.1715  0.8796
  673TMC3    C510010   1.881   3.496   0.713 -0.0569  0.0665 -0.0016
  673TMC3    C610011   1.931   3.377   0.742  0.4861 -0.1055 -0.4219
  673TMC3     C10012   1.764   3.609   1.037  0.6512 -0.3781  0.2097
  673TMC3     O10013   1.670   3.673   0.998 -0.1262 -0.3262 -0.2613
  673TMC3     H10014   1.900   3.360   1.079 -1.0630 -0.5388  0.4066
  673TMC3    H110015   1.767   3.665   0.797  1.4670  0.1038 -0.4144
  673TMC3    H210016   1.983   3.315   0.670 -0.9421  1.0295 -2.4337
  673TMC3    C710017   1.896   3.543   0.569  0.1315  0.2272  0.2226
  673TMC3    C810018   1.969   3.198   0.881  0.2540  0.4727 -1.0664
  673TMC3    O110019   1.944   3.464   0.491 -0.2287  0.3166 -0.1203
  673TMC3    O210020   1.946   3.128   0.782 -0.2599  0.3678  0.3350
  674MPD2     C10021   2.448   2.655  17.726 -0.1851  0.0197  0.2309
  674MPD2    C110022   2.415   2.646   0.093 -0.5600  0.5132 -0.5626
  674MPD2    C210023   2.351   2.748   0.160  0.5507  0.1370  0.3456
  674MPD2    C310024   2.328   2.866   0.095  0.8200 -0.0365  0.5607
  674MPD2    C410025   2.365   2.877  17.722 -0.2656 -0.2279  0.5092
  674MPD2    C510026   2.425   2.767  17.659  0.3098  0.1369  0.1956
  674MPD2     H10027   2.309   2.743   0.260 -1.4590  1.5048 -0.4367
  674MPD2    H110028   2.339   2.965  17.665 -2.1826  0.2062  2.0770
  674MPD2    H210029   2.477   2.561  17.682  0.9668  0.1053  0.7876
  674MPD2    H310030   2.446   2.773  17.553  0.9856 -0.2525  0.3131
  674MPD2     N10031   2.255   2.959   0.165  0.4144 -0.2575 -0.6176
  674MPD2    H510032   2.226   2.936   0.259 -1.3033  0.6296 -0.9380
  674MPD2    N110033   2.429   2.525   0.164 -0.3980 -0.4493  0.9309
  674MPD2    H710034   2.399   2.515   0.260  1.8519 -1.6720  1.5104
  675TMC3    C110035   2.455   2.293   0.209 -0.7803  0.2495  0.1104
  675TMC3    C210036   2.369   2.312   0.310  0.2801 -0.0579 -0.3013
  675TMC3    C310037   2.314   2.195   0.363  0.4194 -0.0526  0.3079
  675TMC3    C410038   2.494   2.167   0.171  0.0039  0.3027 -0.5722
  675TMC3    C510039   2.450   2.062   0.241  0.2275 -0.1662  0.6434
  675TMC3    C610040   2.348   2.067   0.332  0.3234 -0.1797 -1.0212
  675TMC3     C10041   2.489   2.400   0.119 -0.1932  0.6100  0.5587
  675TMC3     O10042   2.557   2.385   0.021  0.1339 -0.4841 -0.6090
  675TMC3     H10043   2.332   2.406   0.350  1.3523  0.1596  0.1721
  675TMC3    H110044   2.581   2.158   0.107  1.1893  0.3473  1.0410
  675TMC3    H210045   2.299   1.981   0.377  0.0875  0.0110 -0.9198
  675TMC3    C710046   2.514   1.931   0.222  0.2192  0.2954  0.2042
  675TMC3    C810047   2.193   2.211   0.445 -0.0450 -0.6156 -0.1156
  675TMC3    O110048   2.583   1.927   0.125 -0.1649 -0.5032  0.3118
  675TMC3    O210049   2.102   2.133   0.430  0.0633  0.3783  0.1190
  676MPD2     C10050   0.653   1.592  11.129  0.4111 -0.0587  0.3877
  676MPD2    C110051   0.547   1.544  11.203 -0.1264  0.1656 -0.0245
  676MPD2    C210052   0.525   1.405  11.228 -0.7350  0.0483 -0.2378
  676MPD2    C310053   0.596   1.310  11.158  0.3556  0.4660  0.6669
  676MPD2    C410054   0.705   1.361  11.084  0.5071 -0.0590  0.3539
  676MPD2    C510055   0.730   1.492  11.071  0.0935  0.1366 -0.2798
  676MPD2     H10056   0.447   1.365  11.292  0.6190 -2.8156 -0.3874
  676MPD2    H110057   0.764   1.288  11.030  1.4563  0.3124  0.9011
  676MPD2    H210058   0.679   1.695  11.106 -0.1308 -0.4942 -2.1285
  676MPD2    H310059   0.813   1.525  11.010  0.8663  1.6019  1.5794
  676MPD2     N10060   0.558   1.180  11.134  0.5374  0.1554  0.0976
  676MPD2    H510061   0.607   1.109  11.080 -0.3926 -1.0092  0.7780
  676MPD2    N110062   0.443   1.631  11.244 -0.1017  0.1975  0.0255
  676MPD2    H710063   0.365   1.586  11.289  1.1726  0.2611  2.2809
  677TMC3    C110064   0.303   1.820  11.263  0.2528  0.3017  0.1515
  677TMC3    C210065   0.195   1.738  11.254 -0.3403  0.2498 -0.4128
  677TMC3    C310066   0.084   1.751  11.334  0.5872  0.4707 -0.1182
  677TMC3    C410067   0.306   1.920  11.357  0.6969 -0.6586  0.4277
  677TMC3    C510068   0.197   1.921  11.449 -0.9732  0.1614 -0.3115
  677TMC3    C610069   0.087   1.843  11.441 -0.5979 -0.1029 -0.0323
  677TMC3     C10070   0.433   1.769  11.220 -0.2381 -0.4489  0.2899
  677TMC3     O10071   0.510   1.852  11.167  0.4027  0.4580  0.6876
  677TMC3     H10072   0.194   1.661  11.177  0.4224 -0.1880  0.0050
  677TMC3    H110073   0.389   1.990  11.357 -1.1048  1.4685  1.3566
  677TMC3    H210074   0.002   1.864  11.505  0.4690  0.0773  1.3495
  677TMC3    C710075   0.187   2.025  11.552  0.5328 -0.0788  0.1361
  677TMC3    C810076   4.715   1.682  11.300 -0.3175 -0.3369  0.4764
  677TMC3    O110077   0.083   2.034  11.613 -0.4244  0.9682 -0.1035
  677TMC3    O210078   4.703   1.659  11.179  0.1743  0.4210  0.2137
  678MPD2     C10079   1.168   1.318   1.378  0.1928  0.6914 -0.6585
  678MPD2    C110080   1.183   1.281   1.251  0.1728 -0.1392 -0.5683
  678MPD2    C210081   1.078   1.307   1.160  0.3250  0.0988  0.2235
  678MPD2    C310082   0.956   1.342   1.204 -0.4297 -0.1884 -0.2333
  678MPD2    C410083   0.936   1.359   1.341 -0.4890  0.5756 -0.6557
  678MPD2    C510084   1.045   1.352   1.422 -0.3189 -0.1879  0.1584
  678MPD2     H10085   1.099   1.294   1.055 -2.1952  0.4393 -0.3149
  678MPD2    H110086   0.840   1.382   1.385  0.5859  1.2595  1.3372
  678MPD2    H210087   1.249   1.321   1.450  0.3341 -1.2972 -0.7457
  678MPD2    H310088   1.033   1.376   1.527  4.6139  0.2142  0.6426
  678MPD2     N10089   0.863   1.363   1.096 -0.6387  0.2647  0.6529
  678MPD2    H510090   0.895   1.360   1.000 -1.0433 -0.1209  0.5295
  678MPD2    N110091   1.314   1.235   1.206 -0.3652  1.0999  0.2631
  678MPD2    H710092   1.322   1.226   1.105  1.4378 -0.2641  0.5311
  679TMC3    C110093   1.766   1.079   1.219  0.3287  0.2602 -0.2042
  679TMC3    C210094   1.638   1.075   1.265  0.0936  1.2866 -0.0950
  679TMC3    C310095   1.540   1.163   1.212 -0.3457  0.1944 -0.1842
  679TMC3    C410096   1.795   1.166   1.122 -0.0356  0.3455  0.0490
  679TMC3    C510097   1.713   1.261   1.078 -0.0090  1.2065  0.5224
  679TMC3    C610098   1.578   1.248   1.113 -0.7136 -0.6321 -0.5154
  679TMC3     C10099   1.838   0.956   1.186 -0.2519 -0.3098  0.0822
  679TMC3     O10100   1.954   0.968   1.144  0.5675 -0.2250  0.5169
  679TMC3     H10101   1.619   1.015   1.353 -0.1966  1.8489  0.2267
  679TMC3    H110102   1.892   1.165   1.072 -1.1898  0.1140 -2.1792
  679TMC3    H210103   1.507   1.312   1.062 -1.0734  1.1264  2.2112
  679TMC3    C710104   1.749   1.316   0.954 -0.8897  0.3565  0.8212
  679TMC3    C810105   1.412   1.187   1.283 -0.4772 -0.5955  0.4368
  679TMC3    O110106   1.836   1.407   0.954 -0.0591 -0.0606 -0.1739
  679TMC3    O210107   1.418   1.173   1.405  0.1746  0.5733 -0.4683
  680MPD2     C10108   1.623   0.507  13.761 -0.2054  0.0132  0.5217
  680MPD2    C110109   1.721   0.440  13.833 -0.0011  0.5414  0.3266
  680MPD2    C210110   1.837   0.502  13.868  0.2944 -0.2947 -0.1634
  680MPD2    C310111   1.870   0.633  13.831  0.5907  0.1689  0.0393
  680MPD2    C410112   1.775   0.697  13.755  0.0041  0.4626 -0.6499
  680MPD2    C510113   1.652   0.636  13.725  0.9418 -0.6474 -0.6817
  680MPD2     H10114   1.910   0.441  13.920 -0.4337 -0.7964  0.2643
  680MPD2    H110115   1.794   0.795  13.713  0.0144 -0.1748 -2.1403
  680MPD2    H210116   1.527   0.469  13.728 -0.7973  0.0403  2.2174
  680MPD2    H310117   1.573   0.685  13.669  0.0119  0.5336  1.6578
  680MPD2     N10118   2.000   0.688  13.851 -0.0890  0.0362  0.0910
  680MPD2    H510119   2.015   0.785  13.825  0.7661 -0.0264  0.3363
  680MPD2    N110120   1.718   0.304  13.862 -0.1997  0.1565 -0.6484
  680MPD2    H710121   1.809   0.270  13.891  0.0731  2.1147  0.7389
  681TMC3    C110122   1.651   0.084  13.901  0.3607  0.5030 -0.1136
  681TMC3    C210123   1.673   0.113  14.033  1.2246  0.1330 -0.3377
  681TMC3    C310124   1.778   0.071  14.099  0.0399 -0.0876  0.4659
  681TMC3    C410125   1.749   0.017  13.835  0.3205 -0.8667  0.3774
  681TMC3    C510126   1.854   4.707  13.910 -0.2874 -1.1801 -0.3455
  681TMC3    C610127   1.866   4.729  14.041  0.0151  0.0294 -0.1490
  681TMC3     C10128   1.623   0.211  13.834  0.0352 -0.5633  0.0055
  681TMC3     O10129   1.507   0.229  13.789 -0.6047  0.1168  0.2088
  681TMC3     H10130   1.614   0.192  14.079  2.3709  0.7337  0.1063
  681TMC3    H110131   1.728   4.727  13.734 -2.3770 -0.3607  0.7923
  681TMC3    H210132   1.950   4.684  14.093  1.2955  1.5617 -0.8798
  681TMC3    C710133   1.954   4.624  13.845 -0.7408  0.3866  0.7190
  681TMC3    C810134   1.811   0.151  14.222 -1.1591 -0.5672 -0.9482
  681TMC3    O110135   2.039   4.563  13.906  0.6386  0.1103 -0.4929
  681TMC3    O210136   1.716   0.205  14.278 -0.0301 -0.8404 -0.0973
  682MPD2     C10137   4.127   1.188  10.459  0.9209 -0.2780  0.0493
  682MPD2    C110138   4.005   1.122  10.473  0.6389  0.4643 -0.3970
  682MPD2    C210139   3.944   1.102  10.592 -0.4722  0.7960  0.4765
  682MPD2    C310140   4.009   1.143  10.703  0.5105  0.6704  0.8009
  682MPD2    C410141   4.135   1.202  10.695 -0.2664 -0.5511  0.0723
  682MPD2    C510142   4.191   1.232  10.571 -0.1782  0.4045  0.2679
  682MPD2     H10143   3.850   1.048  10.596  0.8985 -1.6941 -1.0141
  682MPD2    H110144   4.185   1.220  10.789  0.8279  0.1657 -0.6555
  682MPD2    H210145   4.182   1.203  10.368  0.7136 -2.3574 -0.4225
  682MPD2    H310146   4.292   1.270  10.564 -1.1276  3.0245  1.0507
  682MPD2     N10147   3.952   1.133  10.836 -0.6475  0.1183 -0.0048
  682MPD2    H510148   4.012   1.177  10.905  0.5514  1.5333 -1.9518
  682MPD2    N110149   3.944   1.059  10.363 -0.2750 -0.6798  0.1715
  682MPD2    H710150   3.857   1.006  10.369 -0.8240  0.2094  0.0399
  683TMC3    C110151   3.831   1.258  11.197  0.1906  0.1059  1.4205
  683TMC3    C210152   3.746   1.175  11.275  0.2729 -0.5520 -0.0300
  683TMC3    C310153   3.707   1.053  11.221 -0.8408  0.5399 -0.1555
  683TMC3    C410154   3.856   1.234  11.062 -0.1440 -0.0246  0.5429
  683TMC3    C510155   3.810   1.112  11.018 -0.1763  0.8992  0.0200
  683TMC3    C610156   3.744   1.019  11.090 -0.2551  0.2251 -0.2917
  683TMC3     C10157   3.863   1.390  11.243 -0.4683  0.1014  0.3440
  683TMC3     O10158   3.787   1.434  11.331  0.5117 -0.2669  0.5129
  683TMC3     H10159   3.709   1.199  11.374 -0.3499  0.2077 -0.4449
  683TMC3    H110160   3.914   1.297  10.997 -1.2127 -0.0476 -0.4367
  683TMC3    H210161   3.707   0.926  11.049  2.6695 -1.2999  0.4904
  683TMC3    C710162   3.825   1.092  10.872  0.3907 -1.2323 -0.1949
  683TMC3    C810163   3.584   0.991  11.270  0.2308  0.0876 -0.4619
  683TMC3    O110164   3.753   1.017  10.813 -0.2345 -0.1690  0.3673
  683TMC3    O210165   3.517   0.920  11.194  0.8573 -0.8788 -0.0508
  684MPD2     C10166   2.013   1.338  16.004 -0.0751  0.1278 -0.2492
  684MPD2    C110167   2.126   1.308  16.070 -0.0831 -0.2095 -0.1949
  684MPD2    C210168   2.225   1.412  16.074 -0.4232  0.6048  0.5745
  684MPD2    C310169   2.220   1.513  15.979 -0.2643 -0.7516 -0.2753
  684MPD2    C410170   2.108   1.527  15.902  0.1896 -0.3342 -0.3820
  684MPD2    C510171   1.997   1.447  15.920 -0.4828 -0.2763 -0.2760
  684MPD2     H10172   2.311   1.389  16.136  0.1128 -0.4614 -0.5638
  684MPD2    H110173   2.105   1.609  15.831 -0.7860 -0.5997 -0.6463
  684MPD2    H210174   1.923   1.279  16.019 -0.5521  0.7295 -0.7575
  684MPD2    H310175   1.907   1.478  15.868 -1.0624 -0.6797  0.4929
  684MPD2     N10176   2.322   1.608  15.964  0.1918 -0.0037  0.1375
  684MPD2    H510177   2.290   1.676  15.896 -0.6705  0.3030  0.8541
  684MPD2    N110178   2.145   1.202  16.160 -0.5076 -0.4377  0.3234
  684MPD2    H710179   2.229   1.206  16.217 -0.2502 -0.2610 -0.0719
  685TMC3    C110180   2.115   0.980  16.248 -0.0089 -0.0136  0.6460
  685TMC3    C210181   2.046   0.868  16.206  0.1443  0.3580 -0.6564
  685TMC3    C310182   2.117   0.756  16.175 -0.6265  0.0610 -0.9119
  685TMC3    C410183   2.248   0.973  16.286  0.2886 -0.0773  0.2690
  685TMC3    C510184   2.310   0.854  16.253 -0.0426 -0.4573  0.3590
  685TMC3    C610185   2.254   0.744  16.204  0.1973  0.0325 -0.3197
  685TMC3     C10186   2.066   1.093  16.170 -0.7735  0.2142 -0.1179
  685TMC3     O10187   1.969   1.061  16.104  0.1303  0.0438 -0.1434
  685TMC3     H10188   1.938   0.868  16.200 -0.0146 -1.3660  2.1732
  685TMC3    H110189   2.307   1.059  16.313  1.1410 -0.1226 -1.4254
  685TMC3    H210190   2.307   0.656  16.169  0.5591 -0.0984  0.5721
  685TMC3    C710191   2.453   0.844  16.288 -0.2340 -0.7764  0.2111
  685TMC3    C810192   2.060   0.669  16.071 -0.8596 -0.2282  0.2315
  685TMC3    O110193   2.499   0.911  16.384 -0.2928 -0.1394 -0.0287
  685TMC3    O210194   2.091   0.553  16.054 -0.5299 -0.2570 -0.2240
  686MPD2     C10195   3.540   1.501  15.541  0.8434  0.2713 -0.1467
  686MPD2    C110196   3.605   1.400  15.616  0.2080 -0.0476 -0.7610
  686MPD2    C210197   3.735   1.378  15.589 -0.5632 -0.3970  0.2743
  686MPD2    C310198   3.792   1.435  15.476 -0.0884 -0.0811  0.8219
  686MPD2    C410199   3.732   1.548  15.419 -0.2452 -0.7276  0.6509
  686MPD2    C510200   3.604   1.578  15.450  0.1848 -0.4140 -0.5105
  686MPD2     H10201   3.791   1.318  15.660 -2.1211  0.1556  1.9858
  686MPD2    H110202   3.780   1.617  15.351  0.1143 -1.5837  0.0350
  686MPD2    H210203   3.438   1.520  15.574  0.6998 -0.3942 -0.2158
  686MPD2    H310204   3.557   1.665  15.407  1.4177 -0.1064 -1.2505
  686MPD2     N10205   3.921   1.397  15.428  0.2692 -0.6144 -0.1774
  686MPD2    H510206   3.973   1.458  15.366 -1.0546 -0.5879 -1.2776
  686MPD2    N110207   3.529   1.329  15.706  0.2371 -0.2459  0.3114
  686MPD2    H710208   3.429   1.347  15.710 -0.0491 -1.6982 -0.5951
  687TMC3    C110209   3.910   1.167  15.511 -0.6191  0.4579  0.4251
  687TMC3    C210210   3.788   1.127  15.458 -0.5302  0.0540 -0.2571
  687TMC3    C310211   3.730   1.013  15.509 -0.2359 -0.4144 -0.0382
  687TMC3    C410212   3.963   1.108  15.616 -0.5963  0.3495  0.0216
  687TMC3    C510213   3.916   0.990  15.662  0.3283  0.1737  0.2987
  687TMC3    C610214   3.798   0.946  15.610 -0.2510  0.5657  0.1650
  687TMC3     C10215   3.987   1.285  15.467  0.6057  0.3840 -0.4113
  687TMC3     O10216   4.105   1.256  15.456  0.4261  0.0646 -0.4192
  687TMC3     H10217   3.739   1.190  15.385 -1.9817  2.0587  2.4403
  687TMC3    H110218   4.054   1.149  15.658 -1.2282  1.7460  0.0174
  687TMC3    H210219   3.754   0.855  15.647 -1.2072  1.0323  0.1864
  687TMC3    C710220   3.959   0.944  15.795  0.4497 -0.5219  0.7218
  687TMC3    C810221   3.592   0.993  15.516  0.6843 -0.4881  0.3305
  687TMC3    O110222   3.885   0.893  15.877 -0.0784 -0.0072 -0.0839
  687TMC3    O210223   3.545   0.894  15.565 -0.0544  0.7898  0.2788
  688MPD2     C10224   2.660   4.640  17.341  0.0269 -0.2733  0.0816
  688MPD2    C110225   2.670   4.508  17.368  0.2063  0.0759 -0.3959
  688MPD2    C210226   2.748   4.425  17.289  0.6049 -0.4151  0.8434
  688MPD2    C310227   2.830   4.485  17.192  0.1347 -0.3287 -0.4718
  688MPD2    C410228   2.813   4.619  17.168  0.0912 -1.0014 -0.3052
  688MPD2    C510229   2.723   4.696  17.236  0.0971  0.3368 -0.4716
  688MPD2     H10230   2.748   4.317  17.298 -0.9994 -0.3523  1.5542
  688MPD2    H110231   2.871   4.677  17.097 -0.3067 -0.9094 -0.5537
  688MPD2    H210232   2.603   4.711  17.400  0.5420  0.3508 -0.1688
  688MPD2    H310233   2.727   0.060  17.210 -1.7929  0.4660 -0.2536
  688MPD2     N10234   2.926   4.415  17.113 -0.0342 -0.4119  0.7843
  688MPD2    H510235   2.971   4.477  17.046 -0.0084 -0.2421  0.9606
  688MPD2    N110236   2.612   4.453  17.489  0.4178  0.3093  0.3856
  688MPD2    H710237   2.610   4.351  17.497 -1.2200  0.3894  0.8976
  689TMC3    C110238   2.521   4.470  17.717 -0.3744 -0.2152 -0.4760
  689TMC3    C210239   2.533   4.534   0.074  0.4216  0.0023 -0.1195
  689TMC3    C310240   2.471   4.474   0.182  0.7446  0.3363  0.0702
  689TMC3    C410241   2.444   4.358  17.700 -0.3395  0.1377  0.0469
  689TMC3    C510242   2.376   4.308   0.039 -0.2170  0.7142 -0.3614
  689TMC3    C610243   2.388   4.369   0.161 -0.5976 -0.0887 -0.0008
  689TMC3     C10244   2.585   4.531  17.601  0.3476  0.4305  0.3491
  689TMC3     O10245   2.616   4.651  17.618  0.3427 -0.0081 -0.5515
  689TMC3     H10246   2.607   4.613   0.087  0.2075  0.3604 -1.0484
  689TMC3    H110247   2.415   4.332  17.599  1.0428  0.6258 -0.4690
  689TMC3    H210248   2.342   4.330   0.252  0.8239  1.6994  1.4716
  689TMC3    C710249   2.295   4.195   0.027  0.3836  0.2748 -0.2602
  689TMC3    C810250   2.478   4.539   0.309 -0.5408  0.0311  0.7854
  689TMC3    O110251   2.214   4.177   0.117 -0.4581  0.3304  0.0056
  689TMC3    O210252   2.433   4.480   0.407 -0.2595 -0.2248 -0.4196
  690MPD2     C10253   0.616   1.903  15.475  0.5641  0.3102 -0.2729
  690MPD2    C110254   0.542   1.898  15.360 -0.3475  0.0316 -0.5474
  690MPD2    C210255   0.579   1.976  15.257  0.2431 -0.0173 -0.9249
  690MPD2    C310256   0.693   2.051  15.257 -0.1248  0.3332 -0.6371
  690MPD2    C410257   0.762   2.055  15.375  0.3020  0.4059 -0.4731
  690MPD2    C510258   0.722   1.984  15.483  0.2668 -0.5597  0.2536
  690MPD2     H10259   0.522   1.987  15.166  1.1354  1.0787 -1.3514
  690MPD2    H110260   0.850   2.119  15.377 -0.6093  1.6342  0.1548
  690MPD2    H210261   0.604   1.836  15.559 -1.3799 -1.5861 -2.0332
  690MPD2    H310262   0.783   2.002  15.570 -0.1178  1.6419  0.0543
  690MPD2     N10263   0.733   2.120  15.139  0.3461 -0.2606 -0.2815
  690MPD2    H510264   0.662   2.127  15.067  0.5523  0.7436 -0.3856
  690MPD2    N110265   0.438   1.803  15.339 -0.8844 -0.4397 -0.2624
  690MPD2    H710266   0.385   1.821  15.254  2.2177  0.2021 -2.0210
  691TMC3    C110267   0.319   1.601  15.350  0.0909 -0.3242  0.6131
  691TMC3    C210268   0.203   1.658  15.301 -0.0306  0.1363  0.0505
  691TMC3    C310269   0.099   1.578  15.271 -0.1313  0.0856 -0.7636
  691TMC3    C410270   0.330   1.467  15.371  0.6293 -0.3440  0.1023
  691TMC3    C510271   0.228   1.386  15.333  0.1988  0.1528 -0.0141
  691TMC3    C610272   0.113   1.440  15.282  0.0079  0.1787 -0.0610
  691TMC3     C10273   0.428   1.681  15.403 -0.1443  0.1219 -0.3973
  691TMC3     O10274   0.486   1.632  15.499  0.8819 -0.4120 -0.2717
  691TMC3     H10275   0.192   1.766  15.296 -1.2519  0.1345  3.1647
  691TMC3    H110276   0.423   1.419  15.398  1.2130  1.2545  0.8870
  691TMC3    H210277   0.029   1.376  15.258  1.1464 -1.3424  0.0047
  691TMC3    C710278   0.230   1.243  15.378  0.0553  0.7048 -0.1101
  691TMC3    C810279   4.734   1.627  15.194 -0.4410  0.3280  0.4904
  691TMC3    O110280   0.324   1.210  15.448 -0.2127  0.0759  1.0012
  691TMC3    O210281   4.678   1.541  15.133  0.5718  0.0288 -0.1139
  692TMC3    C110282   2.067   2.603  15.288  0.0461  0.8514 -0.0958
  692TMC3    C210283   2.151   2.692  15.346 -0.2914  1.0819 -0.3804
  692TMC3    C310284   2.278   2.660  15.386 -0.3206 -0.7434 -0.2043
  692TMC3    C410285   2.101   2.474  15.266 -0.6952  0.2366 -0.2556
  692TMC3    C510286   2.223   2.440  15.312 -0.3975  0.2609  0.0681
  692TMC3    C610287   2.303   2.528  15.379 -0.2425  0.0697  0.3692
  692TMC3     C10288   1.918   2.631  15.292  0.8419 -0.1168  0.4721
  692TMC3     O10289   1.889   2.735  15.353  0.1041  0.8084 -0.1642
  692TMC3     H10290   2.122   2.796  15.342  0.3302  1.2764  0.2522
  692TMC3    H110291   2.043   2.401  15.212 -1.8579 -0.0771  1.4227
  692TMC3    H210292   2.403   2.494  15.405 -0.5310 -0.3750  0.9053
  692TMC3    C710293   2.242   2.296  15.301  0.3408 -0.2626 -0.1259
  692TMC3    C810294   2.335   2.729  15.508 -0.5268  0.9553 -0.1442
  692TMC3    O110295   2.173   2.230  15.226 -0.1814  0.0918  0.3077
  692TMC3    O210296   2.434   2.681  15.547 -0.1628 -0.1200  0.1534
  693MPD2     C10297   1.482   0.245  10.589  0.3621 -0.0652 -0.0834
  693MPD2    C110298   1.479   0.189  10.710  0.7137  0.4572 -0.5420
  693MPD2    C210299   1.591   0.130  10.766  0.1796 -0.2325  0.2481
  693MPD2    C310300   1.705   0.120  10.696 -0.4687  0.2201  0.5238
  693MPD2    C410301   1.711   0.176  10.570 -0.2206  0.1771 -0.6314
  693MPD2    C510302   1.594   0.237  10.521 -0.7878  0.1787 -0.2314
  693MPD2     H10303   1.584   0.076  10.859 -0.9148  0.0794  0.3484
  693MPD2    H110304   1.795   0.168  10.503 -0.1638  2.2604 -0.8096
  693MPD2    H210305   1.400   0.309  10.556 -1.5135 -2.1353  0.5550
  693MPD2    H310306   1.606   0.294  10.429 -1.3071 -1.9912 -1.6403
  693MPD2     N10307   1.830   0.076  10.745  0.0912  0.0930 -0.0905
  693MPD2    H510308   1.910   0.074  10.682 -0.3144 -1.7730 -0.5475
  693MPD2    N110309   1.358   0.217  10.788  0.0461 -0.0255  0.0792
  693MPD2    H710310   1.283   0.260  10.735  1.1670 -0.9968 -2.2598
  694TMC3    C110311   1.199   0.227  10.943 -0.5924 -0.0948 -0.6365
  694TMC3    C210312   1.097   0.205  10.852  0.1521 -0.2113  0.5292
  694TMC3    C310313   0.971   0.184  10.891  0.0224 -0.6812  0.5040
  694TMC3    C410314   1.165   0.251  11.075  0.6923  0.0067  0.1320
  694TMC3    C510315   1.033   0.234  11.102  0.1588  0.4610  0.2228
  694TMC3    C610316   0.927   0.196  11.018  0.1935 -0.2496 -0.2646
  694TMC3     C10317   1.334   0.186  10.915 -0.2508  1.1198  0.0654
  694TMC3     O10318   1.405   0.134  10.997 -0.0617  0.5031 -0.4823
  694TMC3     H10319   1.131   0.153  10.763  4.6775 -0.6060  2.4742
  694TMC3    H110320   1.243   0.252  11.150 -1.4055 -0.8570  2.3233
  694TMC3    H210321   0.821   0.200  11.043  1.0307 -0.0385  3.3065
  694TMC3    C710322   1.005   0.256  11.237 -0.3778  0.0462  0.2804
  694TMC3    C810323   0.875   0.140  10.798  0.1912 -0.1309  0.1011
  694TMC3    O110324   1.054   0.352  11.295 -0.0585 -0.1055 -0.5259
  694TMC3    O210325   0.762   0.103  10.835  0.1532 -0.4814 -0.1349
  695MPD2     C10326   2.944   2.632  13.083 -0.6047  0.1042 -0.3924
  695MPD2    C110327   2.925   2.651  13.216 -0.5927  0.2680  0.1934
  695MPD2    C210328   2.809   2.615  13.276 -0.5700  0.2461 -0.3100
  695MPD2    C310329   2.705   2.567  13.199 -0.6309  0.0301  0.8634
  695MPD2    C410330   2.726   2.540  13.067 -0.3580  0.4673  0.0264
  695MPD2    C510331   2.851   2.563  13.015 -0.4375  0.3506  0.8681
  695MPD2     H10332   2.800   2.639  13.382  1.3999  2.6940 -0.6838
  695MPD2    H110333   2.649   2.507  12.998  0.7368 -2.0206 -0.0149
  695MPD2    H210334   3.036   2.654  13.030  0.8617 -1.8721  1.3275
  695MPD2    H310335   2.880   2.535  12.915 -2.7250 -2.7690  1.0793
  695MPD2     N10336   2.575   2.552  13.256 -0.4347  0.0502 -0.4992
  695MPD2    H510337   2.574   2.571  13.356 -1.0911 -0.2721 -0.4489
  695MPD2    N110338   3.031   2.698  13.301 -0.9016 -0.3203  0.3051
  695MPD2    H710339   3.014   2.696  13.401 -1.2874 -0.9993  0.2326
  696TMC3    C110340   2.349   2.482  13.295  0.6670  0.2917 -0.1627
  696TMC3    C210341   2.380   2.439  13.420  0.0492  0.0570 -0.1379
  696TMC3    C310342   2.275   2.442  13.513 -0.9643  0.1581 -0.2676
  696TMC3    C410343   2.225   2.519  13.260  0.1145 -0.3825 -0.0952
  696TMC3    C510344   2.124   2.514  13.356  0.0192 -0.4225 -0.4176
  696TMC3    C610345   2.145   2.472  13.484 -0.6911  0.5097  0.1212
  696TMC3     C10346   2.459   2.507  13.202 -1.0927  0.6226  0.4999
  696TMC3     O10347   2.432   2.488  13.086  0.1807 -0.8951 -0.0665
  696TMC3     H10348   2.477   2.399  13.448  0.4152  0.4582 -0.8198
  696TMC3    H110349   2.208   2.552  13.158 -0.9851  0.5093  0.3767
  696TMC3    H210350   2.068   2.451  13.558  0.3332  1.5973  1.5049
  696TMC3    C710351   2.000   2.565  13.314 -0.1907 -0.6812 -0.5733
  696TMC3    C810352   2.321   2.411  13.646 -0.7958 -0.4588  0.3258
  696TMC3    O110353   1.959   2.564  13.197  0.2254 -0.3083  0.5223
  696TMC3    O210354   2.433   2.455  13.669 -0.2503  0.2627 -0.3373
  697MPD2     C10355   1.756   4.404  15.751  0.6776  0.0645 -0.0780
  697MPD2    C110356   1.734   4.382  15.615  0.4381 -0.6474  0.1079
  697MPD2    C210357   1.763   4.488  15.525 -0.0294  0.0581 -0.0678
  697MPD2    C310358   1.802   4.611  15.573  0.7298 -0.2000  0.1186
  697MPD2    C410359   1.823   4.627  15.710  0.0900  0.2256  0.6296
  697MPD2    C510360   1.786   4.530  15.799  0.2790 -0.1077 -0.3325
  697MPD2     H10361   1.745   4.479  15.418 -0.5262  1.1552 -0.0769
  697MPD2    H110362   1.844   4.722  15.757 -1.5451  0.1988  1.4098
  697MPD2    H210363   1.737   4.326  15.824  0.3121 -1.5530 -1.8861
  697MPD2    H310364   1.778   4.559  15.903  0.4661 -2.6423  0.3888
  697MPD2     N10365   1.845   4.710  15.483 -0.3840  0.1116 -0.2375
  697MPD2    H510366   1.863   4.677  15.388 -1.4446  0.1001 -0.4363
  697MPD2    N110367   1.713   4.257  15.559  0.7531  0.0337 -0.3572
  697MPD2    H710368   1.680   4.262  15.463 -1.5883  0.1711  0.4670
  698TMC3    C110369   1.982   0.140  15.406  0.2517  0.4577 -0.2601
  698TMC3    C210370   2.103   0.195  15.445 -0.6276 -0.0742  0.3646
  698TMC3    C310371   2.198   0.221  15.343  0.0615 -0.0253 -0.5220
  698TMC3    C410372   1.952   0.110  15.275  0.0204  0.1793  0.7013
  698TMC3    C510373   2.043   0.151  15.180 -0.7364  0.0912  0.7167
  698TMC3    C610374   2.169   0.203  15.213 -0.5541  0.9950 -0.9212
  698TMC3     C10375   1.900   0.091  15.510 -0.8810  0.1234  0.0002
  698TMC3     O10376   1.920   0.144  15.620 -0.8284 -0.1333  0.1412
  698TMC3     H10377   2.136   0.214  15.547  1.4369  1.0833 -0.5213
  698TMC3    H110378   1.860   0.059  15.249  0.2611  0.8111 -1.4164
  698TMC3    H210379   2.239   0.227  15.134  0.7240 -1.2145 -0.4689
  698TMC3    C710380   2.009   0.144  15.043  0.0030  0.0447 -0.2219
  698TMC3    C810381   2.336   0.240  15.383  0.2320 -0.3525  0.0539
  698TMC3    O110382   1.890   0.155  15.006  0.4843  0.2022  0.4637
  698TMC3    O210383   2.356   0.227  15.502 -0.2471  0.7447  0.2172
  699TMC3    C110384   1.577   2.595  13.036 -0.3433 -0.5450 -0.1488
  699TMC3    C210385   1.637   2.501  13.117  0.2991 -0.6214  0.7632
  699TMC3    C310386   1.577   2.476  13.240 -0.1688 -0.1648 -0.0629
  699TMC3    C410387   1.471   2.669  13.082  0.2095  0.1757  0.4160
  699TMC3    C510388   1.435   2.653  13.214  0.5663  0.4500 -0.4083
  699TMC3    C610389   1.480   2.551  13.291 -0.0004  0.2357 -0.3218
  699TMC3     C10390   1.654   2.658  12.931 -0.4790  0.1780 -0.2792
  699TMC3     O10391   1.606   2.730  12.841 -0.7067  0.9378 -0.4449
  699TMC3     H10392   1.719   2.444  13.075  0.1099 -0.6171  0.3879
  699TMC3    H110393   1.436   2.745  13.014  1.1589 -0.1370 -0.4320
  699TMC3    H210394   1.446   2.538  13.393  0.8211  0.7874  0.0239
  699TMC3    C710395   1.313   2.722  13.257 -0.0722 -0.4014 -0.1997
  699TMC3    C810396   1.620   2.362  13.317 -0.1289  0.4884  0.0487
  699TMC3    O110397   1.311   2.762  13.371  0.0219 -0.6602 -0.1658
  699TMC3    O210398   1.538   2.307  13.389 -0.5308  0.0354  0.3384
  700TMC3    C110399   1.194   4.730  16.989 -0.5707  0.2281  0.1773
  700TMC3    C210400   1.264   4.618  17.038 -0.3300 -0.2809 -0.1957
  700TMC3    C310401   1.348   4.651  17.141 -0.7306 -0.8432 -0.3462
  700TMC3    C410402   1.191   0.113  17.050  0.2784 -0.8466  0.9966
  700TMC3    C510403   1.279   0.140  17.151 -0.0111  0.6049 -0.3829
  700TMC3    C610404   1.366   0.037  17.195  0.3794 -0.5707 -0.6298
  700TMC3     C10405   1.146   4.711  16.854 -0.0131  0.1317 -0.0269
  700TMC3     O10406   1.119   4.598  16.818 -0.1282 -0.1162  0.5930
  700TMC3     H10407   1.263   4.521  16.991  1.7646 -0.4639  0.1352
  700TMC3    H110408   1.121   0.192  17.026  3.1582  1.2718 -0.4566
  700TMC3    H210409   1.433   0.053  17.278 -0.2429  1.0389 -0.4441
  700TMC3    C710410   1.280   0.273  17.216 -0.1723  1.0067 -0.3824
  700TMC3    C810411   1.458   4.566  17.173 -0.2142  0.0280 -0.2361
  700TMC3    O110412   1.359   0.291  17.307  0.0765 -0.0983  0.1841
  700TMC3    O210413   1.513   4.586  17.281 -1.0224  0.5985  0.2822
  701TMC3    C110414   0.978   3.698  15.766 -0.6266 -0.7164 -0.5061
  701TMC3    C210415   0.966   3.642  15.639 -0.1069  0.2775 -0.5013
  701TMC3    C310416   1.031   3.702  15.537 -0.0531 -0.0065  0.1721
  701TMC3    C410417   1.064   3.801  15.782  0.3657  0.1076  0.5312
  701TMC3    C510418   1.127   3.862  15.677 -1.0719  0.9356 -0.0452
  701TMC3    C610419   1.107   3.815  15.550 -0.2147 -0.1188 -0.0704
  701TMC3     C10420   0.943   3.621  15.888  0.0528 -0.1091 -0.1398
  701TMC3     O10421   0.967   3.670  15.996 -0.1387 -0.4346  0.0857
  701TMC3     H10422   0.906   3.555  15.613 -2.2974  2.0818 -1.4704
  701TMC3    H110423   1.084   3.835  15.884 -0.3968 -1.8497  1.3337
  701TMC3    H210424   1.167   3.847  15.465 -0.1862 -1.0065 -0.3915
  701TMC3    C710425   1.171   4.000  15.677 -0.1549 -0.0474 -0.1033
  701TMC3    C810426   0.988   3.666  15.402 -0.9336 -0.5759 -0.1193
  701TMC3    O110427   1.220   4.035  15.570 -0.0779  0.8026 -0.1348
  701TMC3    O210428   1.069   3.689  15.308 -0.2409 -0.2897 -0.0769
  702MPD2     C10429   0.351   0.794  10.428  0.5325 -0.3252 -0.3515
  702MPD2    C110430   0.434   0.871  10.514  0.2054 -0.2900  0.3730
  702MPD2    C210431   0.544   0.943  10.466 -0.2065 -0.3708 -0.1793
  702MPD2    C310432   0.555   0.947  10.325  0.5810 -0.3602 -0.1609
  702MPD2    C410433   0.475   0.875  10.237 -0.4799 -0.0801  0.9970
  702MPD2    C510434   0.374   0.797  10.297  0.1505  0.1690  0.7077
  702MPD2     H10435   0.619   0.991  10.528  1.8109 -0.0088 -2.9281
  702MPD2    H110436   0.487   0.883  10.130  1.5651  0.3944  1.2452
  702MPD2    H210437   0.260   0.746  10.463  1.1398 -0.3584  1.1917
  702MPD2    H310438   0.312   0.736  10.233  2.6770 -1.5525 -0.1246
  702MPD2     N10439   0.657   1.033  10.274  0.4911  0.2453 -0.6666
  702MPD2    H510440   0.713   1.079  10.345 -0.7874  1.8459 -0.6985
  702MPD2    N110441   0.400   0.868  10.649 -0.0250 -0.1216  0.3071
  702MPD2    H710442   0.336   0.797  10.683  0.3637 -0.8754 -0.5257
  703TMC3    C110443   0.722   1.212  10.144  0.9898  0.1931  0.0837
  703TMC3    C210444   0.662   1.296  10.233 -0.1321 -0.3079 -0.1319
  703TMC3    C310445   0.734   1.374  10.321  0.4543  0.0232 -0.2866
  703TMC3    C410446   0.861   1.217  10.129 -0.4408 -0.5393  0.9898
  703TMC3    C510447   0.934   1.303  10.204  0.4204 -0.2871  0.4925
  703TMC3    C610448   0.870   1.385  10.295  0.6186  0.7064 -0.6952
  703TMC3     C10449   0.673   1.078  10.143 -0.1501  0.8130 -0.7653
  703TMC3     O10450   0.615   1.046  10.040  0.4247  0.7333 -0.3230
  703TMC3     H10451   0.556   1.284  10.252 -0.1345  1.0230  0.6683
  703TMC3    H110452   0.909   1.148  10.060  1.1004  0.5221  1.0170
  703TMC3    H210453   0.920   1.457  10.358  0.5746 -0.6863  0.9525
  703TMC3    C710454   1.068   1.344  10.168 -0.6511 -0.4733 -0.8165
  703TMC3    C810455   0.682   1.418  10.451 -0.3178 -0.4960 -0.6201
  703TMC3    O110456   1.124   1.426  10.240  0.6863 -0.2639  0.1424
  703TMC3    O210457   0.773   1.452  10.529  0.4975  0.0169  0.1655
  704TMC3    C110458   3.070   4.480  12.296 -0.4258 -0.1060  0.0546
  704TMC3    C210459   3.205   4.490  12.302 -1.0001 -0.0675 -0.1094
  704TMC3    C310460   3.276   4.403  12.386  0.4715  0.1557  0.4143
  704TMC3    C410461   3.007   4.372  12.350  0.7263  0.0188  0.2290
  704TMC3    C510462   3.079   4.281  12.427  0.8367 -0.2922  0.3047
  704TMC3    C610463   3.212   4.295  12.437 -0.0103 -0.0896  0.8987
  704TMC3     C10464   2.996   4.547  12.194 -0.3042  0.2885  0.1963
  704TMC3     O10465   2.875   4.558  12.210  0.2383  0.3271  0.5675
  704TMC3     H10466   3.258   4.574  12.259 -1.4284 -0.1306 -0.7707
  704TMC3    H110467   2.898   4.375  12.347  0.6113 -2.1332  2.8689
  704TMC3    H210468   3.268   4.214  12.483 -0.9047 -0.8848  0.5704
  704TMC3    C710469   3.035   4.147  12.407  0.1221  0.1404  0.5770
  704TMC3    C810470   3.407   4.377  12.339  0.1403  0.0174 -0.7358
  704TMC3    O110471   3.117   4.056  12.409  0.2575 -0.2772 -0.1198
  704TMC3    O210472   3.436   4.431  12.235  0.0540  0.4676  0.8987
  705MPD2     C10473   2.588   2.233  16.733  0.0954 -0.4068 -0.9506
  705MPD2    C110474   2.547   2.317  16.635 -0.4553  0.3073 -0.0610
  705MPD2    C210475   2.411   2.343  16.630  0.6113  0.0599 -0.0450
  705MPD2    C310476   2.321   2.303  16.727 -0.3383 -0.2619  0.0776
  705MPD2    C410477   2.366   2.221  16.823 -0.3921 -0.3362 -0.1314
  705MPD2    C510478   2.494   2.173  16.816  0.1828 -0.5926 -0.2488
  705MPD2     H10479   2.367   2.413  16.560  2.2123 -0.6215 -1.7379
  705MPD2    H110480   2.302   2.184  16.903 -2.4402  1.9808 -0.6931
  705MPD2    H210481   2.690   2.209  16.757 -0.1265 -1.7934 -1.3975
  705MPD2    H310482   2.534   2.108  16.893 -1.9006 -1.2216  0.3046
  705MPD2     N10483   2.184   2.328  16.724  0.5817  1.0572  0.0514
  705MPD2    H510484   2.120   2.313  16.802  1.4494 -2.2362  0.0870
  705MPD2    N110485   2.630   2.378  16.539 -0.2407 -0.5839 -0.1474
  705MPD2    H710486   2.589   2.449  16.478 -0.8231 -0.8640 -0.0812
  706TMC3    C110487   2.950   2.403  16.215  0.5485 -0.0718  0.5203
  706TMC3    C210488   2.886   2.520  16.172 -0.0389  0.6298  0.3347
  706TMC3    C310489   2.789   2.587  16.253 -0.5544 -0.7627 -0.0306
  706TMC3    C410490   2.924   2.370  16.346 -0.3459 -0.1332 -1.2763
  706TMC3    C510491   2.829   2.433  16.419  0.5242 -0.4067 -0.2290
  706TMC3    C610492   2.762   2.539  16.371  0.2220 -0.0374 -0.2206
  706TMC3     C10493   3.085   2.398  16.163 -1.3835  0.4445  0.5150
  706TMC3     O10494   3.175   2.421  16.240 -0.1556 -0.4062 -0.1920
  706TMC3     H10495   2.916   2.566  16.079  1.3439 -1.3347 -0.1914
  706TMC3    H110496   2.987   2.293  16.389 -1.4892 -0.7268 -0.6687
  706TMC3    H210497   2.686   2.587  16.433  1.4908  0.4755  0.9453
  706TMC3    C710498   2.768   2.356  16.529 -0.2333  0.3186  0.7114
  706TMC3    C810499   2.757   2.715  16.207 -0.9785  0.1856 -0.0530
  706TMC3    O110500   2.830   2.260  16.567  0.3921  0.2939 -0.6831
  706TMC3    O210501   2.759   2.736  16.088 -0.0556  0.2804  0.3884
  707TMC3    C110502   4.076   0.983   0.946 -0.6477  0.4662 -0.1066
  707TMC3    C210503   3.980   1.013   1.044  0.3001  0.0364 -0.0747
  707TMC3    C310504   3.843   0.992   1.033 -0.7674 -0.1109 -0.3450
  707TMC3    C410505   4.027   0.955   0.819  0.1111 -0.0289 -0.0548
  707TMC3    C510506   3.894   0.932   0.808 -0.4865  0.9394 -1.1311
  707TMC3    C610507   3.805   0.944   0.910 -0.0553 -0.0510 -0.3878
  707TMC3     C10508   4.206   0.936   0.983  0.3237  1.0257  0.2142
  707TMC3     O10509   4.272   0.898   0.888  0.3454  0.0542 -0.8214
  707TMC3     H10510   4.021   1.040   1.141  0.2853 -0.4459  0.0663
  707TMC3    H110511   4.092   0.944   0.733  1.0248 -2.7751  0.9949
  707TMC3    H210512   3.697   0.938   0.903  0.0445 -3.5890  1.4554
  707TMC3    C710513   3.841   0.889   0.680 -0.2775 -0.6555 -0.2713
  707TMC3    C810514   3.799   0.897   1.134 -0.7346 -0.0212 -0.2168
  707TMC3    O110515   3.736   0.936   0.638 -0.4514 -0.3366  0.3173
  707TMC3    O210516   3.733   0.933   1.232 -0.6613  0.2597  0.1792
  708MPD2     C10517   0.429   0.550  14.369  0.3936 -0.5432 -0.7680
  708MPD2    C110518   0.449   0.666  14.304 -0.6838 -0.8823  0.0738
  708MPD2    C210519   0.497   0.774  14.368  0.3862 -0.2955  0.0920
  708MPD2    C310520   0.524   0.771  14.502  0.0992  0.4741  0.3412
  708MPD2    C410521   0.504   0.652  14.564 -0.3909  0.1542 -0.2959
  708MPD2    C510522   0.450   0.540  14.503 -0.1337 -0.4765 -0.3088
  708MPD2     H10523   0.523   0.858  14.304  0.2326 -0.3393 -0.0292
  708MPD2    H110524   0.511   0.655  14.672  0.9092 -1.3787 -0.3313
  708MPD2    H210525   0.377   0.468  14.321 -1.7906 -1.4675  3.1373
  708MPD2    H310526   0.414   0.451  14.553  2.6867 -0.3353  2.0483
  708MPD2     N10527   0.595   0.885  14.545 -0.0060 -0.3124  0.2603
  708MPD2    H510528   0.605   0.964  14.481 -0.1331 -0.4267  0.1004
  708MPD2    N110529   0.438   0.672  14.167  0.4645 -0.0779  0.0963
  708MPD2    H710530   0.445   0.766  14.131 -0.7657 -0.1434 -0.3067
  709TMC3    C110531   0.427   0.633  13.945  1.2788 -0.3863 -0.0277
  709TMC3    C210532   0.532   0.581  13.872 -0.3004  0.0911 -0.4079
  709TMC3    C310533   0.595   0.666  13.783  0.1715  0.3581  0.8145
  709TMC3    C410534   0.395   0.774  13.946  0.2510  0.0843 -0.0018
  709TMC3    C510535   0.472   0.854  13.861 -0.6590 -0.2348  0.2416
  709TMC3    C610536   0.577   0.805  13.784 -0.2308 -0.9171  0.1290
  709TMC3     C10537   0.420   0.572  14.073  0.1505 -0.2838 -0.0792
  709TMC3     O10538   0.425   0.452  14.093 -0.3564 -0.2118  0.3764
  709TMC3     H10539   0.566   0.479  13.883 -0.8135 -0.2840 -2.2723
  709TMC3    H110540   0.307   0.817  13.993  1.3847  0.0726  2.1419
  709TMC3    H210541   0.647   0.861  13.723 -0.7706  2.2068  2.3696
  709TMC3    C710542   0.515   0.962  13.936 -0.2910  0.3766  0.4769
  709TMC3    C810543   0.687   0.611  13.687  0.5293 -0.1584 -0.1751
  709TMC3    O110544   0.475   0.960  14.052  1.2764 -0.0685  0.1767
  709TMC3    O210545   0.748   0.516  13.739  0.2438 -0.3501 -0.4774
  710TMC3    C110546   1.905   1.880   0.327  0.2348  0.3913 -0.2730
  710TMC3    C210547   2.018   1.867   0.251  0.2844 -0.4747 -0.3203
  710TMC3    C310548   2.102   1.766   0.279 -0.2350  0.3257  0.4625
  710TMC3    C410549   1.882   1.804   0.435  0.0838  0.4495 -0.0196
  710TMC3    C510550   1.971   1.708   0.462 -0.1405  0.5812  0.2385
  710TMC3    C610551   2.080   1.679   0.381  0.5136  0.1878 -0.0239
  710TMC3     C10552   1.818   1.986   0.284  0.3617  0.2524 -0.0543
  710TMC3     O10553   1.842   2.037   0.172 -0.1484  0.3659  0.0587
  710TMC3     H10554   2.038   1.928   0.164  0.9653  1.5538  1.2627
  710TMC3    H110555   1.787   1.816   0.485  0.2290  2.5954 -0.2851
  710TMC3    H210556   2.154   1.607   0.412  0.9580  0.6692  0.0458
  710TMC3    C710557   1.911   1.604   0.541  0.3867 -0.8723  0.0738
  710TMC3    C810558   2.197   1.734   0.177  0.0578  0.5819 -0.2347
  710TMC3    O110559   1.830   1.642   0.621 -0.5227 -0.0526 -0.3661
  710TMC3    O210560   2.247   1.823   0.111  0.6238 -0.0107  0.7378
  711TMC3    C110561   1.610   3.376  14.817 -0.1614 -0.2873  0.4026
  711TMC3    C210562   1.624   3.427  14.952  0.1002  0.3559 -0.6112
  711TMC3    C310563   1.718   3.375  15.030 -0.5093 -0.2115  0.4148
  711TMC3    C410564   1.702   3.282  14.771 -0.0588 -0.0488 -0.2962
  711TMC3    C510565   1.804   3.240  14.858  0.5661 -0.0540  0.1212
  711TMC3    C610566   1.811   3.279  14.993  0.1995  0.1786  0.2108
  711TMC3     C10567   1.481   3.385  14.745 -0.0589  0.0400 -0.3321
  711TMC3     O10568   1.477   3.324  14.639  0.2231 -0.4793  0.3011
  711TMC3     H10569   1.568   3.514  14.985 -0.4836 -0.5878  0.8903
  711TMC3    H110570   1.696   3.253  14.667  2.2674 -1.8822  0.0900
  711TMC3    H210571   1.876   3.246  15.073 -1.7590  1.3638  2.2866
  711TMC3    C710572   1.883   3.119  14.838  0.0064  1.0042  0.0525
  711TMC3    C810573   1.697   3.396  15.172 -0.4995 -0.6687  0.6373
  711TMC3    O110574   1.980   3.112  14.912 -0.3527 -0.5618 -0.4712
  711TMC3    O210575   1.591   3.435  15.203 -0.0491 -0.0077 -0.1692
  712MPD2     C10576   2.815   4.011  13.420 -0.3103 -0.4043  0.2234
  712MPD2    C110577   2.761   4.094  13.326 -0.4700 -0.2596 -0.2086
  712MPD2    C210578   2.795   4.227  13.332 -0.2489  0.7251 -0.2973
  712MPD2    C310579   2.872   4.281  13.431  0.0028  0.1403  0.2193
  712MPD2    C410580   2.931   4.195  13.522 -0.0758  0.2886 -0.5189
  712MPD2    C510581   2.900   4.060  13.512 -0.2201  0.8486 -0.6035
  712MPD2     H10582   2.764   4.298  13.256  0.1199 -0.5582 -1.6333
  712MPD2    H110583   3.008   4.220  13.595  0.3404 -0.7866 -0.5891
  712MPD2    H210584   2.810   3.903  13.422  0.8115 -0.4589  0.2391
  712MPD2    H310585   2.960   3.990  13.568  0.0617  1.3745 -0.2448
  712MPD2     N10586   2.903   4.416  13.430  0.7122  0.2519  0.1635
  712MPD2    H510587   2.984   4.437  13.488  0.0621  1.4332  0.6465
  712MPD2    N110588   2.679   4.053  13.221  0.4361 -0.0257  0.0915
  712MPD2    H710589   2.648   4.127  13.159 -2.7048 -1.8620 -0.5299
  713TMC3    C110590   2.892   4.643  13.399  0.3119  0.1069 -0.3021
  713TMC3    C210591   3.030   4.647  13.424  0.5149  0.6274 -0.2733
  713TMC3    C310592   3.081   0.019  13.471  0.1865  0.1553  0.6824
  713TMC3    C410593   2.815   0.012  13.430  0.1528 -0.1626 -0.4686
  713TMC3    C510594   2.876   0.123  13.482  0.1456 -0.2349 -0.7079
  713TMC3    C610595   3.012   0.131  13.496 -0.1459 -0.2824  0.2976
  713TMC3     C10596   2.830   4.514  13.372 -0.5621 -0.1731 -0.4400
  713TMC3     O10597   2.718   4.506  13.323  0.2837 -0.1191  0.1611
  713TMC3     H10598   3.097   4.562  13.419 -0.7417 -0.3258 -1.0361
  713TMC3    H110599   2.708   0.008  13.413 -0.1002  2.0952  0.5803
  713TMC3    H210600   3.063   0.213  13.546 -1.0563  0.3448  0.2079
  713TMC3    C710601   2.799   0.223  13.552  0.5099  0.2313 -0.0448
  713TMC3    C810602   3.227   0.044  13.489 -0.5023 -0.1369  0.3653
  713TMC3    O110603   2.852   0.278  13.645  0.7028 -0.7349  0.1266
  713TMC3    O210604   3.266   0.158  13.479  0.3497  0.2255  0.5580
  714MPD2     C10605   0.335   3.088   1.199  0.4374 -0.1414  0.1303
  714MPD2    C110606   0.355   2.963   1.158  0.9069  0.0465 -0.0496
  714MPD2    C210607   0.255   2.888   1.113 -0.1938  0.0141  0.0961
  714MPD2    C310608   0.132   2.947   1.091  0.2255  0.3566 -0.1447
  714MPD2    C410609   0.115   3.073   1.135  0.2705 -0.3738  0.1317
  714MPD2    C510610   0.215   3.147   1.197  0.1119 -0.4496  0.2653
  714MPD2     H10611   0.273   2.785   1.085  1.0162  0.6865 -1.5730
  714MPD2    H110612   0.021   3.126   1.128  0.2255 -0.6548 -1.3355
  714MPD2    H210613   0.414   3.153   1.234  0.0688 -0.2555  1.1709
  714MPD2    H310614   0.190   3.248   1.225  2.8442  0.5813 -1.0398
  714MPD2     N10615   0.025   2.868   1.032  0.7669 -0.1189  0.4300
  714MPD2    H510616   0.020   2.768   1.048 -1.3686 -0.2374 -0.9636
  714MPD2    N110617   0.494   2.914   1.165  0.1181  0.5508  0.1187
  714MPD2    H710618   0.558   2.991   1.174  1.1755  0.0140 -2.8019
  715TMC3    C110619   0.676   2.780   1.149 -0.4755  0.3974  0.4617
  715TMC3    C210620   0.734   2.672   1.079 -0.0961  0.0302  0.4329
  715TMC3    C310621   0.869   2.663   1.094  0.1747  0.0604  0.5814
  715TMC3    C410622   0.746   2.868   1.223  0.7091 -0.2150  0.3616
  715TMC3    C510623   0.880   2.863   1.208  0.1511 -0.8206 -0.1612
  715TMC3    C610624   0.944   2.758   1.149  0.2558 -0.0249 -0.1706
  715TMC3     C10625   0.537   2.782   1.136 -0.2296 -0.5137  0.0527
  715TMC3     O10626   0.477   2.680   1.114 -0.1133 -0.1828  0.4877
  715TMC3     H10627   0.677   2.597   1.025  1.4626 -0.4153 -0.5787
  715TMC3    H110628   0.694   2.928   1.298  0.7137  1.0303 -0.6455
  715TMC3    H210629   1.051   2.764   1.132  0.2421 -0.6588 -0.4595
  715TMC3    C710630   0.965   2.959   1.274 -0.0109 -0.3301  0.4510
  715TMC3    C810631   0.929   2.539   1.085  0.5444 -0.6303 -0.1473
  715TMC3    O110632   1.080   2.925   1.297 -0.4126  0.2587 -0.6424
  715TMC3    O210633   0.877   2.466   0.996  0.1760  0.4707 -0.3309
  716MPD2     C10634   0.396   0.616   9.987  0.4408  0.0636 -0.3835
  716MPD2    C110635   0.397   0.599   9.851 -0.6443 -0.4362 -0.1088
  716MPD2    C210636   0.492   0.503   9.805  0.2356 -0.0121  0.3150
  716MPD2    C310637   0.583   0.428   9.885  0.1155  0.3048  0.7417
  716MPD2    C410638   0.565   0.445  10.016 -0.4885 -0.3949  0.0014
  716MPD2    C510639   0.475   0.538  10.065  0.3853  0.6944  0.4317
  716MPD2     H10640   0.509   0.485   9.700  0.7298 -0.8607  0.5393
  716MPD2    H110641   0.637   0.411  10.089 -1.1411 -0.2096  0.7370
  716MPD2    H210642   0.333   0.690  10.033 -2.4400 -0.1281 -4.0504
  716MPD2    H310643   0.475   0.550  10.173  1.5740 -1.6824  0.6871
  716MPD2     N10644   0.678   0.350   9.821 -0.0412 -0.6807 -0.7793
  716MPD2    H510645   0.689   0.335   9.721  2.4644  0.3352 -0.6348
  716MPD2    N110646   0.303   0.663   9.772  0.3060 -0.8424  0.4083
  716MPD2    H710647   0.240   0.725   9.822  2.8447  0.6570  1.6972
  717TMC3    C110648   0.862   0.208   9.783  0.3949 -0.0146 -0.3027
  717TMC3    C210649   0.878   0.270   9.662 -0.1507  0.0561  0.4540
  717TMC3    C310650   0.902   0.203   9.547  0.0555  0.1669 -0.7060
  717TMC3    C410651   0.872   0.073   9.801  0.1935 -0.5097  0.4953
  717TMC3    C510652   0.896   0.008   9.677 -0.1581  0.8737  0.2650
  717TMC3    C610653   0.914   0.064   9.553 -0.0744 -0.5454  0.5019
  717TMC3     C10654   0.772   0.271   9.885  0.0015 -0.3264 -0.0145
  717TMC3     O10655   0.754   0.207   9.989  0.9288  0.4690  0.0030
  717TMC3     H10656   0.882   0.377   9.651  0.4357 -0.0272 -0.1435
  717TMC3    H110657   0.858   0.019   9.893  0.3100  0.5998  1.1686
  717TMC3    H210658   0.927   0.008   9.461  0.7691 -1.8505  1.4142
  717TMC3    C710659   0.950   4.622   9.696  0.8760  0.7980  0.1546
  717TMC3    C810660   0.832   0.261   9.432 -0.8464  0.6515 -0.3381
  717TMC3    O110661   0.997   4.588   9.805  0.2333  0.4247  0.3529
  717TMC3    O210662   0.757   0.358   9.452  0.2202 -0.1842  0.0565
  718MPD2     C10663   4.624   4.192  13.084 -0.5277 -0.0493  0.5561
  718MPD2    C110664   4.519   4.246  13.018 -0.1923  0.5009 -0.9634
  718MPD2    C210665   4.424   4.162  12.972 -0.4779  0.0713  0.0285
  718MPD2    C310666   4.440   4.027  12.992  0.8880 -0.7352  0.1441
  718MPD2    C410667   4.543   3.977  13.060  0.2738  0.2404 -0.3495
  718MPD2    C510668   4.640   4.058  13.110 -0.3764 -0.2363  0.1698
  718MPD2     H10669   4.339   4.204  12.919 -1.3245 -0.0002  1.3441
  718MPD2    H110670   4.548   3.872  13.085 -1.5850 -0.0560 -1.2148
  718MPD2    H210671   4.706   4.251  13.124  0.3796 -0.8511 -0.1103
  718MPD2    H310672   4.727   4.012  13.154 -2.4864 -2.7696  1.6789
  718MPD2     N10673   4.344   3.946  12.926  0.0871  0.4334  0.9115
  718MPD2    H510674   4.270   3.989  12.872 -0.9304 -0.9276  1.2175
  718MPD2    N110675   4.501   4.386  12.999  0.7645  0.1914 -0.0364
  718MPD2    H710676   4.410   4.412  12.961  1.0052 -1.4179 -1.7182
  719TMC3    C110677   4.547   4.613  12.959 -0.3470  0.1094  0.3452
  719TMC3    C210678   4.437   4.599  12.877 -0.0437  0.6766 -0.3328
  719TMC3    C310679   4.464   4.600  12.743  0.1891  0.2214 -0.5059
  719TMC3    C410680   4.666   4.671  12.915  0.1393  0.0865  0.3722
  719TMC3    C510681   4.682   4.681  12.783  0.7003 -0.4009  1.2732
  719TMC3    C610682   4.586   4.642  12.694  0.5431 -0.3889 -0.4434
  719TMC3     C10683   4.598   4.483  13.014 -0.2262 -0.4925  0.9071
  719TMC3     O10684   4.717   4.462  13.038 -0.0855 -0.1067  0.2092
  719TMC3     H10685   4.346   4.555  12.915  0.9461 -1.1809 -0.0791
  719TMC3    H110686   0.010   4.687  12.979  0.9995  1.8408 -1.2362
  719TMC3    H210687   4.611   4.637  12.589  2.2586  0.3276 -0.0656
  719TMC3    C710688   0.072   4.654  12.733 -0.0765 -0.7779 -0.1860
  719TMC3    C810689   4.391   4.503  12.670 -0.6550 -0.1249 -0.4010
  719TMC3    O110690   0.106   4.708  12.630 -0.5076 -0.3034 -0.3392
  719TMC3    O210691   4.338   4.420  12.740 -0.3628 -0.1735 -0.0122
  720MPD2     C10692   3.229   1.192  14.307 -0.1973  0.5907 -0.3741
  720MPD2    C110693   3.282   1.274  14.212 -0.8066  0.3585 -0.6112
  720MPD2    C210694   3.404   1.327  14.237  0.3519  0.4662  0.0626
  720MPD2    C310695   3.478   1.293  14.352  0.2622 -0.5101 -0.2577
  720MPD2    C410696   3.420   1.203  14.439  0.4190 -0.1134 -0.1855
  720MPD2    C510697   3.303   1.156  14.414 -0.5583 -0.9106 -0.3057
  720MPD2     H10698   3.448   1.389  14.160  0.5381 -0.5831 -0.6761
  720MPD2    H110699   3.473   1.169  14.527 -1.9734  0.0588  1.3352
  720MPD2    H210700   3.137   1.136  14.300  0.0654  0.4169 -2.5090
  720MPD2    H310701   3.261   1.101  14.497 -1.4327 -0.3843 -0.4032
  720MPD2     N10702   3.607   1.353  14.366  0.2912 -0.6107  0.3115
  720MPD2    H510703   3.633   1.419  14.293 -0.2280 -0.5995  0.1363
  720MPD2    N110704   3.219   1.316  14.094 -0.1924  0.3540 -0.2697
  720MPD2    H710705   3.263   1.391  14.042  0.9404 -1.5932 -2.1053
  721TMC3    C110706   3.796   1.427  14.477 -0.2539 -0.0471 -1.0003
  721TMC3    C210707   3.776   1.528  14.570 -0.4241  0.6374  0.3745
  721TMC3    C310708   3.821   1.653  14.536 -1.1849 -1.1718 -0.0312
  721TMC3    C410709   3.877   1.442  14.364  0.3658 -0.5487 -0.4509
  721TMC3    C510710   3.922   1.571  14.332  0.2329  0.2816  0.1425
  721TMC3    C610711   3.889   1.673  14.419 -0.5493 -0.0892 -0.2072
  721TMC3     C10712   3.687   1.329  14.475 -1.0535 -0.7401 -0.1369
  721TMC3     O10713   3.662   1.277  14.585  0.0213 -0.2403  0.2841
  721TMC3     H10714   3.705   1.504  14.649  1.2452 -1.2840  1.3053
  721TMC3    H110715   3.899   1.351  14.309 -1.2139 -0.4665 -1.2159
  721TMC3    H210716   3.915   1.772  14.386  2.4806 -1.3865 -1.7193
  721TMC3    C710717   3.984   1.596  14.205 -0.6107  0.7145  0.4203
  721TMC3    C810718   3.732   1.772  14.567  0.3623 -0.0168 -0.4948
  721TMC3    O110719   4.022   1.711  14.185  0.6536 -0.3535  0.1904
  721TMC3    O210720   3.760   1.876  14.509 -0.2614 -0.3515  0.4849
  722MPD2     C10721   1.721   4.661  13.335  0.4684  0.5862 -0.1279
  722MPD2    C110722   1.679   0.044  13.286  0.1595 -0.2660  0.5489
  722MPD2    C210723   1.605   0.055  13.168  0.6016  0.0049  0.1553
  722MPD2    C310724   1.582   4.685  13.085  0.0345 -0.1810  0.1295
  722MPD2    C410725   1.636   4.560  13.128 -0.0364 -0.4625  0.0140
  722MPD2    C510726   1.703   4.554  13.247 -0.0508  0.3719 -0.1559
  722MPD2     H10727   1.581   0.158  13.141  2.2470  0.0028 -1.3725
  722MPD2    H110728   1.636   4.468  13.070  3.7526 -0.9419  0.7995
  722MPD2    H210729   1.772   4.651  13.430  1.3898  2.8248 -0.3958
  722MPD2    H310730   1.751   4.460  13.267  0.0601  0.4014 -0.2827
  722MPD2     N10731   1.518   4.704  12.965 -0.0201 -0.0156  0.1585
  722MPD2    H510732   1.496   0.060  12.948  0.7674 -0.2281 -2.1076
  722MPD2    N110733   1.704   0.165  13.348  0.5446  0.1637  0.0628
  722MPD2    H710734   1.690   0.248  13.291 -0.1387 -1.1949 -1.7630
  723TMC3    C110735   1.394   4.661  12.772  0.0288  0.0560 -0.4275
  723TMC3    C210736   1.327   4.561  12.705  0.1617 -0.1647 -0.1929
  723TMC3    C310737   1.200   4.586  12.651 -0.1707  0.2683 -0.1149
  723TMC3    C410738   1.337   0.043  12.782 -0.2782  0.2143 -0.1549
  723TMC3    C510739   1.220   0.068  12.709  0.1877  0.0426 -0.2184
  723TMC3    C610740   1.149   4.708  12.656  0.4556 -0.2314  0.1937
  723TMC3     C10741   1.482   4.606  12.878 -0.2766  0.3058  0.2574
  723TMC3     O10742   1.482   4.484  12.899  0.2124 -0.0744 -0.1247
  723TMC3     H10743   1.376   4.465  12.697 -1.8151 -1.0507 -1.8377
  723TMC3    H110744   1.384   0.125  12.835 -0.1374 -2.0043  3.1255
  723TMC3    H210745   1.052   4.737  12.617  0.4742  1.2815  1.2740
  723TMC3    C710746   1.182   0.208  12.667 -0.5111 -0.4514  0.9993
  723TMC3    C810747   1.102   4.484  12.665 -0.2103  0.3124 -0.2128
  723TMC3    O110748   1.138   0.228  12.552 -0.2210  0.2219  0.2147
  723TMC3    O210749   0.987   4.519  12.683 -0.0980 -0.4641  0.7848
  724TMC3    C110750   2.542   2.568  10.372  0.7477  0.1765 -0.3162
  724TMC3    C210751   2.476   2.678  10.332 -0.1943 -0.5117 -0.2029
  724TMC3    C310752   2.551   2.786  10.304  0.2885 -0.1418  0.2616
  724TMC3    C410753   2.673   2.566  10.415  0.0100  0.4801  0.5613
  724TMC3    C510754   2.748   2.669  10.384  1.2556 -0.2393  0.7827
  724TMC3    C610755   2.691   2.781  10.321  0.0725 -0.5305 -0.8938
  724TMC3     C10756   2.474   2.447  10.411 -0.5993 -0.6056 -0.0790
  724TMC3     O10757   2.530   2.367  10.488 -0.0413  0.1871 -0.0291
  724TMC3     H10758   2.376   2.679  10.290  0.1536 -0.9736 -1.0349
  724TMC3    H110759   2.726   2.473  10.435 -2.1732 -0.9093 -0.1849
  724TMC3    H210760   2.757   2.864  10.300 -0.4596  0.5911  1.9608
  724TMC3    C710761   2.896   2.661  10.392 -0.0022  0.1760 -0.0122
  724TMC3    C810762   2.502   2.899  10.250  0.3021  0.7989 -0.0120
  724TMC3    O110763   2.959   2.745  10.331  0.6751  0.0442  0.4347
  724TMC3    O210764   2.384   2.891  10.212 -0.9692  0.1352 -0.5834
  725TMC3    C110765   2.994   1.835  12.693  0.1876 -0.0792  0.4853
  725TMC3    C210766   2.881   1.819  12.613 -0.3082 -0.0837  0.2320
  725TMC3    C310767   2.812   1.699  12.626  0.3210 -0.7184  1.1077
  725TMC3    C410768   3.035   1.741  12.785  0.6082 -0.2288  0.4948
  725TMC3    C510769   2.958   1.627  12.791  0.8547 -0.4148  0.4758
  725TMC3    C610770   2.857   1.604  12.709 -0.2479 -0.4459 -0.2242
  725TMC3     C10771   3.100   1.930  12.652  0.1398 -0.5923  0.6043
  725TMC3     O10772   3.067   2.030  12.591  0.3516  0.4621 -0.1776
  725TMC3     H10773   2.853   1.894  12.540 -0.1706  0.3024  0.5759
  725TMC3    H110774   3.101   1.772  12.865 -1.1986  0.5036  1.6900
  725TMC3    H210775   2.791   1.519  12.723 -0.3467 -0.2607  0.4228
  725TMC3    C710776   3.006   1.525  12.874 -0.1510  0.1891 -0.4526
  725TMC3    C810777   2.758   1.645  12.502  0.4978  0.4714 -0.4150
  725TMC3    O110778   2.931   1.439  12.916  0.1604  0.4426 -0.3073
  725TMC3    O210779   2.671   1.558  12.497  1.0446 -0.1240 -0.7916
  726MPD2     C10780   1.653   3.167  10.437  0.0234 -0.6917 -0.1452
  726MPD2    C110781   1.551   3.165  10.340 -0.1466 -0.7976  0.7354
  726MPD2    C210782   1.446   3.075  10.352 -0.0582  0.0244 -0.3463
  726MPD2    C310783   1.454   2.969  10.443 -0.8645 -0.0243  0.1595
  726MPD2    C410784   1.557   2.977  10.534 -0.1826 -0.1840 -0.3745
  726MPD2    C510785   1.656   3.071  10.533 -0.3603  0.4126  0.1215
  726MPD2     H10786   1.367   3.073  10.278  0.9063  1.3406 -1.4235
  726MPD2    H110787   1.570   2.899  10.608 -0.7051 -1.5124 -1.6821
  726MPD2    H210788   1.728   3.244  10.448 -0.4294 -0.3306  0.4653
  726MPD2    H310789   1.729   3.077  10.614 -1.1660  1.2867  0.7770
  726MPD2     N10790   1.360   2.863  10.449 -0.2728 -0.0069  0.0626
  726MPD2    H510791   1.357   2.803  10.530 -1.0356 -0.4780 -0.3109
  726MPD2    N110792   1.536   3.262  10.234 -0.6204  0.0422  0.2043
  726MPD2    H710793   1.465   3.241  10.165  1.0478  0.2065 -1.5419
  727TMC3    C110794   1.578   3.453  10.099  0.3463  0.2005 -0.5248
  727TMC3    C210795   1.658   3.555  10.073 -0.5396 -0.0322 -0.2025
  727TMC3    C310796   1.605   3.666  10.009 -0.0214  0.3115 -0.3023
  727TMC3    C410797   1.450   3.448  10.044 -0.0416 -0.1883 -0.0751
  727TMC3    C510798   1.406   3.564   9.980 -0.0253 -0.0751 -0.4336
  727TMC3    C610799   1.485   3.670   9.958 -0.1399 -0.0849 -0.2143
  727TMC3     C10800   1.620   3.370  10.209 -0.7284 -0.6599 -0.2317
  727TMC3     O10801   1.723   3.401  10.261 -0.1187 -0.3914 -0.6403
  727TMC3     H10802   1.760   3.554  10.110 -1.6864  1.4986  3.0510
  727TMC3    H110803   1.377   3.377  10.082 -1.0871  2.4534  2.9197
  727TMC3    H210804   1.451   3.760   9.909 -0.4631  0.4490  1.0091
  727TMC3    C710805   1.296   3.554   9.888 -0.0782 -0.0039 -0.0347
  727TMC3    C810806   1.685   3.783  10.003 -0.1503  0.3187 -0.0124
  727TMC3    O110807   1.263   3.661   9.838 -0.7263 -0.3923 -0.3308
  727TMC3    O210808   1.805   3.748  10.014  0.4167 -0.3147 -0.1364
  728TMC3    C110809   0.857   2.228  14.976 -0.9584 -0.0979  0.0343
  728TMC3    C210810   0.978   2.259  14.921 -0.7703  0.1166 -0.6772
  728TMC3    C310811   0.979   2.317  14.797 -0.0257 -0.0835 -0.3705
  728TMC3    C410812   0.735   2.277  14.920 -0.3581  0.1945  0.2858
  728TMC3    C510813   0.750   2.333  14.798 -0.0252  1.0588 -0.1528
  728TMC3    C610814   0.870   2.358  14.734 -0.0175 -0.0970 -0.0818
  728TMC3     C10815   0.859   2.160  15.107  0.2250  0.3984 -1.0562
  728TMC3     O10816   0.962   2.164  15.170  0.0734  0.2893 -0.4841
  728TMC3     H10817   1.071   2.213  14.951 -0.4920  0.3265 -1.2129
  728TMC3    H110818   0.636   2.266  14.965 -0.8682 -2.1650 -1.3842
  728TMC3    H210819   0.885   2.402  14.636 -1.5511 -0.7923 -0.6251
  728TMC3    C710820   0.631   2.379  14.720 -0.4148 -0.7634 -0.5568
  728TMC3    C810821   1.106   2.348  14.731  0.5024 -0.3774  0.4153
  728TMC3    O110822   0.522   2.323  14.727 -0.1642  0.8732 -0.8046
  728TMC3    O210823   1.102   2.359  14.609  0.1194  1.0250 -0.1873
  729MPD2     C10824   3.061   2.641  16.514  0.5789  0.2444  0.5853
  729MPD2    C110825   3.056   2.776  16.532 -0.1242 -0.3193 -0.0568
  729MPD2    C210826   3.050   2.822  16.667 -0.0197 -0.1007  0.1768
  729MPD2    C310827   3.045   2.738  16.778  0.6474  0.1555 -0.3191
  729MPD2    C410828   3.062   2.605  16.749  0.3847 -0.0466  0.5964
  729MPD2    C510829   3.066   2.560  16.621 -0.0529 -0.7764 -0.1405
  729MPD2     H10830   3.050   2.928  16.691 -1.3216  0.5470 -2.6306
  729MPD2    H110831   3.049   2.529  16.826  0.8206  1.4199  2.1176
  729MPD2    H210832   3.072   2.598  16.415 -0.0844 -0.5035  0.8362
  729MPD2    H310833   3.077   2.452  16.617 -0.3933 -0.8376  0.5784
  729MPD2     N10834   3.050   2.790  16.912 -0.0940  0.5976  0.0206
  729MPD2    H510835   3.084   2.739  16.993  0.4717 -0.8249 -1.1025
  729MPD2    N110836   3.092   2.852  16.424 -0.0093 -0.0641  1.1461
  729MPD2    H710837   3.097   2.794  16.340 -1.4706  2.5413 -0.7416
  730TMC3    C110838   3.024   2.956  17.076 -0.2381 -0.3745  0.1996
  730TMC3    C210839   3.156   2.987  17.085  0.5225 -0.3652 -0.3845
  730TMC3    C310840   3.180   3.108  17.156 -0.1780  0.4615 -1.1354
  730TMC3    C410841   2.922   3.026  17.136 -0.5256  0.5534 -0.4666
  730TMC3    C510842   2.958   3.127  17.219  0.0967 -0.1893  0.4407
  730TMC3    C610843   3.089   3.174  17.234  0.4967  0.2550 -0.3603
  730TMC3     C10844   2.976   2.896  16.955  1.0038  0.5912  0.2659
  730TMC3     O10845   2.899   2.962  16.884 -0.2790  0.5802 -0.2074
  730TMC3     H10846   3.233   2.942  17.022 -0.6026 -3.1310  0.2305
  730TMC3    H110847   2.818   3.006  17.114  0.0565 -0.1562 -2.5607
  730TMC3    H210848   3.110   3.247  17.311  1.0212  0.5051 -0.7367
  730TMC3    C710849   2.873   3.242  17.193 -0.1537 -0.2208 -0.1718
  730TMC3    C810850   3.286   3.193  17.102  1.2103  0.0519 -0.0492
  730TMC3    O110851   2.829   3.243  17.080 -0.2677  0.1915  0.2199
  730TMC3    O210852   3.321   3.163  16.986  0.4174 -0.0646 -0.1546
  731MPD2     C10853   3.013   1.377  12.422  0.3603 -0.0168  0.1981
  731MPD2    C110854   3.152   1.380  12.431 -0.2073 -0.2282 -0.7080
  731MPD2    C210855   3.217   1.324  12.536 -0.6855 -0.1065 -0.1165
  731MPD2    C310856   3.138   1.251  12.628 -0.3407  0.2188  0.8275
  731MPD2    C410857   2.999   1.246  12.619 -0.0667 -0.1285  0.3092
  731MPD2    C510858   2.940   1.311  12.513  0.0759  0.7037  0.4349
  731MPD2     H10859   3.323   1.329  12.556 -1.1812 -0.5551  2.6440
  731MPD2    H110860   2.932   1.209  12.695  0.4918 -2.3295 -0.2659
  731MPD2    H210861   2.977   1.425  12.332  0.9532  0.6949  0.3390
  731MPD2    H310862   2.832   1.306  12.502  0.2978 -0.1755 -1.3046
  731MPD2     N10863   3.203   1.183  12.732  0.2605 -0.4414 -0.3202
  731MPD2    H510864   3.304   1.192  12.743  0.3416 -3.6143  1.3481
  731MPD2    N110865   3.224   1.453  12.332  0.1040  0.6344 -0.1436
  731MPD2    H710866   3.169   1.479  12.251 -0.2593  1.4439  0.3628
  732TMC3    C110867   3.399   1.529  12.206  0.4007  0.3419 -1.1015
  732TMC3    C210868   3.366   1.444  12.105 -0.1460 -0.6597 -0.2063
  732TMC3    C310869   3.440   1.440  11.991 -0.0542 -0.1404 -0.1482
  732TMC3    C410870   3.514   1.606  12.189  0.3804  0.2778  0.1648
  732TMC3    C510871   3.592   1.590  12.075  0.0794  0.5510 -0.6821
  732TMC3    C610872   3.554   1.513  11.973  0.6498 -0.7924  0.1236
  732TMC3     C10873   3.355   1.492  12.333  0.8926  0.3929  0.6987
  732TMC3     O10874   3.429   1.496  12.432  0.4202  0.1180 -0.4529
  732TMC3     H10875   3.294   1.367  12.131 -0.0208 -0.8143 -0.3161
  732TMC3    H110876   3.555   1.654  12.277  2.7004  0.1223 -0.8191
  732TMC3    H210877   3.604   1.497  11.878  0.1188 -0.8841 -0.1404
  732TMC3    C710878   3.737   1.629  12.084  0.5895 -0.0983  0.0490
  732TMC3    C810879   3.397   1.342  11.889  0.3399  0.2158  0.1371
  732TMC3    O110880   3.808   1.589  11.991  0.0593 -0.4425 -0.5796
  732TMC3    O210881   3.482   1.283  11.821  0.2810 -0.3497  0.1355
  733TMC3    C110882   4.023   3.845  12.793 -0.2587  0.0034  0.8237
  733TMC3    C210883   4.123   3.789  12.871  0.6318 -0.0010 -0.0977
  733TMC3    C310884   4.245   3.769  12.829 -0.6824  0.4941  0.4504
  733TMC3    C410885   4.044   3.886  12.670  0.1864 -0.7075 -1.0913
  733TMC3    C510886   4.175   3.879  12.616 -0.4232 -0.7126 -0.3932
  733TMC3    C610887   4.269   3.821  12.701  0.0998  0.5773  0.0326
  733TMC3     C10888   3.918   3.904  12.869 -0.0677 -0.1997  0.3080
  733TMC3     O10889   3.893   4.018  12.837 -0.2719 -0.6756  0.4877
  733TMC3     H10890   4.101   3.765  12.974 -0.2916 -0.9160 -0.5105
  733TMC3    H110891   3.967   3.940  12.616 -0.5161 -1.8056 -1.1891
  733TMC3    H210892   4.370   3.846  12.672  0.0436  0.1926 -0.4966
  733TMC3    C710893   4.212   4.018  12.581 -0.1848  0.3077  0.3009
  733TMC3    C810894   4.340   3.808  12.933 -0.3006  0.2385  0.1232
  733TMC3    O110895   4.200   4.098  12.675 -0.1152 -0.5277 -0.6725
  733TMC3    O210896   4.425   3.726  12.959  0.4137  0.3159 -0.1515
  734MPD2     C10897   1.131   2.045  12.664  0.6939 -0.1588  0.7865
  734MPD2    C110898   1.052   1.956  12.595  0.2008  0.2137  0.2720
  734MPD2    C210899   1.076   1.955  12.457  0.0145 -0.1482  0.0085
  734MPD2    C310900   1.157   2.050  12.397 -0.3165 -0.0658 -0.2880
  734MPD2    C410901   1.216   2.153  12.469 -0.2866  0.0590 -0.4086
  734MPD2    C510902   1.213   2.141  12.604 -1.1889  0.4269  0.4648
  734MPD2     H10903   1.029   1.885  12.388 -0.3092  0.7123 -0.6472
  734MPD2    H110904   1.277   2.238  12.439 -3.7161  2.1583 -1.4441
  734MPD2    H210905   1.121   2.042  12.772 -4.5882  2.5474  0.3751
  734MPD2    H310906   1.252   2.225  12.662 -1.5847  0.5961  0.4812
  734MPD2     N10907   1.163   2.050  12.254 -0.2424 -0.1205  0.5883
  734MPD2    H510908   1.107   1.983  12.202  0.2463 -0.0281 -0.0555
  734MPD2    N110909   0.968   1.859  12.665  0.3028  0.8342  0.6291
  734MPD2    H710910   0.998   1.842  12.760 -0.4261  0.5722  0.8119
  735TMC3    C110911   0.842   1.647  12.653  0.3322 -0.2511 -0.4642
  735TMC3    C210912   0.751   1.581  12.575  0.0415  0.6476 -0.0664
  735TMC3    C310913   0.780   1.450  12.552 -0.5672 -0.1553  0.1597
  735TMC3    C410914   0.948   1.580  12.709 -0.4730  0.4318  0.1781
  735TMC3    C510915   0.955   1.446  12.707 -0.1609  0.5141  0.5198
  735TMC3    C610916   0.873   1.377  12.619  0.3176 -0.1845 -0.3523
  735TMC3     C10917   0.874   1.780  12.603  0.6600  0.9070 -0.6315
  735TMC3     O10918   0.824   1.810  12.498 -0.2792 -0.6954  0.0898
  735TMC3     H10919   0.664   1.629  12.532  0.3105  0.7757 -0.4607
  735TMC3    H110920   1.036   1.626  12.753  0.8703 -2.1327  0.2360
  735TMC3    H210921   0.900   1.277  12.588  0.8367  0.3357 -1.5604
  735TMC3    C710922   1.094   1.402  12.692  0.6093 -0.4053  0.0511
  735TMC3    C810923   0.787   1.425  12.404  0.1799  0.0596 -0.7277
  735TMC3    O110924   1.149   1.479  12.614 -0.0203 -0.4186 -0.0348
  735TMC3    O210925   0.795   1.311  12.361 -0.4173  0.2729 -0.3462
  736MPD2     C10926   1.243   1.078  12.760  0.6548 -0.4062  0.0687
  736MPD2    C110927   1.244   1.201  12.705  0.0961  0.3232  0.3933
  736MPD2    C210928   1.342   1.247  12.621  0.0296  0.7137  0.5119
  736MPD2    C310929   1.448   1.163  12.595 -1.0278 -0.0663 -0.6384
  736MPD2    C410930   1.441   1.042  12.647 -0.9001 -0.0598 -0.6224
  736MPD2    C510931   1.345   0.992  12.727  0.9152  0.9582 -0.5061
  736MPD2     H10932   1.338   1.349  12.586  3.6949  1.3505  1.9320
  736MPD2    H110933   1.521   0.975  12.618 -2.2407 -1.6719 -0.6563
  736MPD2    H210934   1.156   1.041  12.812  2.3230 -4.0511  0.2650
  736MPD2    H310935   1.332   0.894  12.772 -0.4124  0.7757 -1.2713
  736MPD2     N10936   1.552   1.190  12.504  0.0046  1.0215  0.1847
  736MPD2    H510937   1.614   1.115  12.475 -1.7582 -0.8848  1.3944
  736MPD2    N110938   1.125   1.273  12.728  0.3752 -0.0795  0.5005
  736MPD2    H710939   1.057   1.220  12.781  2.3223 -2.6564  0.4270
  737TMC3    C110940   1.686   1.344  12.370  0.3547 -0.9142 -0.8883
  737TMC3    C210941   1.724   1.475  12.349 -0.1983 -0.1390  0.2206
  737TMC3    C310942   1.826   1.501  12.255 -0.2151 -1.1401 -0.1063
  737TMC3    C410943   1.743   1.241  12.303 -0.5328 -0.0375 -0.1401
  737TMC3    C510944   1.849   1.268  12.217  0.3984 -1.1859  0.0854
  737TMC3    C610945   1.898   1.393  12.194 -0.2708  0.6068 -0.1303
  737TMC3     C10946   1.582   1.321  12.466 -0.2001  0.8447 -0.5319
  737TMC3     O10947   1.524   1.420  12.502 -0.3691 -0.3165 -0.1827
  737TMC3     H10948   1.680   1.562  12.395 -1.0184 -1.4280  1.8597
  737TMC3    H110949   1.713   1.139  12.323 -0.1826  0.0097  0.6468
  737TMC3    H210950   1.972   1.405  12.116  0.0024 -0.9151 -0.0973
  737TMC3    C710951   1.943   1.155  12.205 -0.3178 -0.5185 -0.3989
  737TMC3    C810952   1.813   1.628  12.192 -0.6793 -0.5132  0.4228
  737TMC3    O110953   1.909   1.052  12.270 -0.4904 -0.6125  0.3980
  737TMC3    O210954   1.814   1.727  12.261  0.5053 -0.2772 -0.5540
  738MPD2     C10955   2.636   0.277  15.405  0.3257  0.0001  0.0310
  738MPD2    C110956   2.557   0.303  15.291 -0.6525 -0.4428  0.6446
  738MPD2    C210957   2.633   0.339  15.179  0.2655 -0.3414  0.2584
  738MPD2    C310958   2.767   0.358  15.172 -0.3052  0.7021  0.4302
  738MPD2    C410959   2.839   0.329  15.283 -0.1074 -0.5495 -0.1462
  738MPD2    C510960   2.774   0.286  15.393 -0.1420  0.0766  0.4523
  738MPD2     H10961   2.574   0.379  15.097 -1.3678 -1.0567  1.0646
  738MPD2    H110962   2.947   0.324  15.275 -0.0430 -0.2108  0.4887
  738MPD2    H210963   2.595   0.231  15.494  0.3816  0.3622  0.2473
  738MPD2    H310964   2.840   0.251  15.472 -1.1897 -0.0097  1.2874
  738MPD2     N10965   2.832   0.394  15.051  0.2339 -0.5405 -0.2718
  738MPD2    H510966   2.933   0.398  15.054  0.2085 -0.4991  0.7031
  738MPD2    N110967   2.419   0.278  15.280  0.3742 -0.7750 -0.1091
  738MPD2    H710968   2.381   0.308  15.191 -0.0669  0.7294  0.6066
  739TMC3    C110969   2.874   0.449  14.832 -0.3214 -0.1972  0.1357
  739TMC3    C210970   2.829   0.484  14.705 -0.5211  0.2811  0.1323
  739TMC3    C310971   2.920   0.502  14.606  0.0025  0.1133  1.0313
  739TMC3    C410972   3.010   0.445  14.854  0.1185  0.1651 -0.1176
  739TMC3    C510973   3.096   0.462  14.746 -0.2341  0.1913  0.4752
  739TMC3    C610974   3.055   0.493  14.624  0.4398  0.8455  0.0028
  739TMC3     C10975   2.778   0.434  14.938  0.2204  0.0332 -0.0808
  739TMC3     O10976   2.665   0.463  14.907  0.0171  0.4747  0.0431
  739TMC3     H10977   2.725   0.485  14.675 -0.9466 -0.5402  1.6045
  739TMC3    H110978   3.054   0.439  14.953 -0.7159  0.9250  0.2993
  739TMC3    H210979   3.124   0.527  14.548  3.6579  1.2852  3.1197
  739TMC3    C710980   3.239   0.464  14.785 -0.6591  0.1691  0.8738
  739TMC3    C810981   2.866   0.539  14.477 -0.3800 -0.5022 -0.5215
  739TMC3    O110982   3.257   0.493  14.904  0.7859 -0.3117  0.0130
  739TMC3    O210983   2.748   0.569  14.476  0.0738  0.4422 -0.4354
  740TMC3    C110984   3.154   1.754  14.455 -0.4265  0.5542 -0.5889
  740TMC3    C210985   3.148   1.647  14.542 -0.6049 -0.6793  0.0648
  740TMC3    C310986   3.249   1.555  14.546  0.3031 -0.4454 -0.1019
  740TMC3    C410987   3.267   1.771  14.374 -0.1687 -0.0770  0.4156
  740TMC3    C510988   3.366   1.679  14.383 -0.8909 -0.5608 -0.0995
  740TMC3    C610989   3.358   1.573  14.472  0.3569  0.3444  0.1672
  740TMC3     C10990   3.058   1.860  14.455 -0.3892 -0.4838  0.3147
  740TMC3     O10991   3.095   1.964  14.404  0.5938  0.8838  0.1269
  740TMC3     H10992   3.065   1.649  14.612 -2.1051  0.7737 -1.7831
  740TMC3    H110993   3.271   1.856  14.307 -0.3324 -0.4720 -0.0948
  740TMC3    H210994   3.447   1.513  14.485  2.1535  2.9919  0.1037
  740TMC3    C710995   3.477   1.680  14.283  1.3470  0.0584  0.1275
  740TMC3    C810996   3.259   1.467  14.664  0.0611 -0.2599 -0.0496
  740TMC3    O110997   3.581   1.629  14.322 -0.5315 -0.0384 -0.4702
  740TMC3    O210998   3.363   1.484  14.728  0.5946 -1.2980  0.2165
  741TMC3    C110999   2.637   1.178  14.141  0.7716 -0.1500  0.1407
  741TMC3    C211000   2.508   1.136  14.143  0.4742 -0.3303  0.9293
  741TMC3    C311001   2.477   1.026  14.226  0.1961 -0.6855 -0.2417
  741TMC3    C411002   2.735   1.121  14.224 -0.0480 -1.1621  0.4201
  741TMC3    C511003   2.702   1.012  14.296 -0.9376 -0.2500  0.3765
  741TMC3    C611004   2.574   0.966  14.305  0.3141 -0.0211  0.2485
  741TMC3     C11005   2.670   1.291  14.058  0.4686 -0.4979  0.2596
  741TMC3     O11006   2.771   1.353  14.090  0.1849  0.1175  0.5108
  741TMC3     H11007   2.427   1.197  14.103 -0.5847 -2.2884  0.0680
  741TMC3    H111008   2.833   1.168  14.229  0.5801 -2.7122  2.3820
  741TMC3    H211009   2.543   0.897  14.382  0.5998 -1.1542 -0.6622
  741TMC3    C711010   2.804   0.941  14.368  0.5244  0.0149 -0.2818
  741TMC3    C811011   2.349   0.953  14.203  0.2604  0.7579  0.1553
  741TMC3    O111012   2.767   0.879  14.467 -0.5835 -0.2921 -0.6621
  741TMC3    O211013   2.290   0.997  14.107  0.1088  0.2623 -0.3370
  742TMC3    C111014   2.167   4.256  15.342  0.1152 -0.1119  0.2080
  742TMC3    C211015   2.157   4.271  15.208  0.8511  0.3649 -0.1921
  742TMC3    C311016   2.256   4.309  15.127 -0.2649 -0.4006  0.9515
  742TMC3    C411017   2.293   4.272  15.398  0.4853  0.2626 -0.0033
  742TMC3    C511018   2.395   4.308  15.313  0.0379 -0.0449  0.2391
  742TMC3    C611019   2.379   4.329  15.177  0.1974 -0.0745 -0.5671
  742TMC3     C11020   2.091   4.153  15.405  0.4314  0.1387 -0.2247
  742TMC3     O11021   2.094   4.151  15.529  0.3591 -0.2027 -0.1942
  742TMC3     H11022   2.056   4.266  15.168  0.3392  0.4147  1.0737
  742TMC3    H111023   2.300   4.253  15.504  0.1689 -1.4321 -0.2821
  742TMC3    H211024   2.469   4.343  15.119  0.3184 -0.0005 -0.3626
  742TMC3    C711025   2.529   4.305  15.370 -0.0211 -0.4666  1.1760
  742TMC3    C811026   2.236   4.333  14.985  0.0808  0.1469 -0.4000
  742TMC3    O111027   2.619   4.305  15.287 -0.3380  0.2425 -0.1610
  742TMC3    O211028   2.126   4.301  14.941 -0.0649  0.3542  0.3162
  743MPD2     C11029   4.629   0.274   1.701 -0.3679 -0.1759 -0.1367
  743MPD2    C111030   4.679   0.282   1.573 -0.4228  0.6239 -0.4526
  743MPD2    C211031   0.071   0.300   1.557  0.0778  0.2342 -0.6132
  743MPD2    C311032   0.161   0.292   1.661 -0.6224 -0.5830 -0.0535
  743MPD2    C411033   0.110   0.295   1.794 -0.1607 -1.1778  0.3378
  743MPD2    C511034   4.712   0.289   1.810 -0.3721 -0.6424  0.2633
  743MPD2     H11035   0.122   0.314   1.462  0.3051  0.8679 -0.3935
  743MPD2    H111036   0.179   0.310   1.877  0.2013  0.2307 -0.2184
  743MPD2    H211037   4.523   0.258   1.720 -1.0155  1.8403 -2.0350
  743MPD2    H311038   4.661   0.281   1.906 -2.2407  2.2040 -0.4859
  743MPD2     N11039   0.296   0.271   1.627 -0.1797  0.7042 -0.2076
  743MPD2    H511040   0.301   0.240   1.531 -2.5449  0.3010 -0.2136
  743MPD2    N111041   4.597   0.262   1.462 -0.2604 -0.5221 -0.0285
  743MPD2    H711042   4.500   0.263   1.490 -0.1566 -0.8415  0.3442
  744TMC3    C111043   4.534   0.233   1.228 -0.3391  0.2547  0.5343
  744TMC3    C211044   4.417   0.307   1.244  0.2506  0.2672  0.0673
  744TMC3    C311045   4.352   0.339   1.129  0.0570 -0.2052  0.2482
  744TMC3    C411046   4.575   0.174   1.112  0.4681 -0.6723  0.0638
  744TMC3    C511047   4.502   0.210   0.998  0.4203 -0.2421 -0.0025
  744TMC3    C611048   4.397   0.293   1.004  1.0658  0.7321 -0.2389
  744TMC3     C11049   4.638   0.239   1.327  0.5348  1.1758 -1.1374
  744TMC3     O11050   0.007   0.223   1.280  0.9373  0.4280 -0.2900
  744TMC3     H11051   4.391   0.353   1.338 -1.4213  0.6720 -0.5986
  744TMC3    H111052   4.662   0.110   1.111  1.0476  0.1112  0.1550
  744TMC3    H211053   4.344   0.307   0.911  0.6894  2.0286  0.1768
  744TMC3    C711054   4.560   0.179   0.870  0.0624  0.4289  0.0513
  744TMC3    C811055   4.241   0.430   1.126 -0.0808 -1.0021  0.2564
  744TMC3    O111056   4.514   0.234   0.768  0.1273 -0.2997  0.2518
  744TMC3    O211057   4.210   0.476   1.015  0.3578  0.2675 -0.1894
  745TMC3    C111058   2.558   3.924  13.073 -0.6697 -0.1015 -0.3490
  745TMC3    C211059   2.428   3.906  13.111 -0.4577  1.2763  0.0714
  745TMC3    C311060   2.340   4.013  13.084  0.5001 -0.2597  0.6477
  745TMC3    C411061   2.586   4.029  12.990  0.7744 -0.1097 -0.5714
  745TMC3    C511062   2.494   4.120  12.944  0.4610 -0.7041 -0.4080
  745TMC3    C611063   2.362   4.113  12.992 -0.1464 -0.2043  0.0648
  745TMC3     C11064   2.631   3.929  13.198 -0.3532 -0.2528  0.4313
  745TMC3     O11065   2.623   3.841  13.279  0.8524 -0.5817 -0.4828
  745TMC3     H11066   2.402   3.837  13.191 -0.2043 -0.8430 -1.6686
  745TMC3    H111067   2.684   4.024  12.942  0.6438  0.2784 -0.8858
  745TMC3    H211068   2.286   4.189  12.979 -0.1407  0.4193  3.5593
  745TMC3    C711069   2.536   4.262  12.929 -0.6793  0.0925 -0.1969
  745TMC3    C811070   2.261   4.028  13.203 -0.0723 -0.5113 -0.2133
  745TMC3    O111071   2.446   4.348  12.938  0.3221  0.4689  0.1638
  745TMC3    O211072   2.170   3.947  13.223 -0.0087  0.1598  0.0826
  746TMC3    C111073   0.383   1.024  11.083 -0.2477 -0.1318  0.2150
  746TMC3    C211074   0.449   0.975  10.982 -1.0360  0.4436  0.2668
  746TMC3    C311075   0.385   0.919  10.873 -0.0628  0.7842 -0.0903
  746TMC3    C411076   0.244   1.011  11.095  0.0924 -0.3203 -0.0536
  746TMC3    C511077   0.179   0.953  10.985 -0.1908 -0.3879  0.1436
  746TMC3    C611078   0.246   0.915  10.870 -0.1799 -0.5981  0.6213
  746TMC3     C11079   0.441   1.127  11.176 -0.0360 -0.0030  0.3064
  746TMC3     O11080   0.365   1.159  11.269  0.1775 -0.1084 -0.0554
  746TMC3     H11081   0.557   0.981  10.975 -0.9810 -0.9053 -0.0664
  746TMC3    H111082   0.199   1.033  11.191 -0.2202  1.2410 -0.5519
  746TMC3    H211083   0.190   0.864  10.792 -0.0779  2.9651 -1.7568
  746TMC3    C711084   0.048   0.903  11.002 -0.3418  0.2720 -0.0547
  746TMC3    C811085   0.452   0.945  10.749  0.4591 -0.1815 -0.1125
  746TMC3    O111086   4.726   0.865  10.900  0.4653 -0.3396 -0.0301
  746TMC3    O211087   0.533   1.036  10.750 -0.1824 -0.0653 -0.8918
  747TMC3    C111088   2.623   1.142  11.440 -0.6249 -0.0362  0.0699
  747TMC3    C211089   2.547   1.035  11.479  0.2345  0.4276 -0.8208
  747TMC3    C311090   2.420   1.074  11.535 -0.2975 -0.2153 -0.1231
  747TMC3    C411091   2.579   1.264  11.436 -0.0823  0.3553 -0.3800
  747TMC3    C511092   2.451   1.287  11.474  0.2509  0.8905  0.2213
  747TMC3    C611093   2.368   1.200  11.537  0.3165  0.4147 -0.0484
  747TMC3     C11094   2.764   1.128  11.423 -0.1867 -0.6102  0.3761
  747TMC3     O11095   2.828   1.219  11.475  0.6474  0.2438 -0.1488
  747TMC3     H11096   2.578   0.931  11.475 -0.7869  0.0089  1.7788
  747TMC3    H111097   2.633   1.352  11.404 -0.0393  0.3594 -0.2930
  747TMC3    H211098   2.263   1.224  11.550  0.1260 -0.1517 -0.5388
  747TMC3    C711099   2.414   1.426  11.494 -0.0698  0.5124 -0.3014
  747TMC3    C811100   2.386   0.983  11.644 -0.4998  0.5829 -0.0058
  747TMC3    O111101   2.335   1.459  11.589  0.4358  0.0177 -0.2758
  747TMC3    O211102   2.401   0.863  11.640 -0.1013 -0.1193  0.0268
  748MPD2     C11103   3.376   1.294   1.252 -0.6860 -0.0972 -0.0381
  748MPD2    C111104   3.436   1.239   1.142  0.2126  0.4006 -0.0229
  748MPD2    C211105   3.564   1.274   1.106  0.2054  0.3747 -0.0860
  748MPD2    C311106   3.632   1.364   1.182 -0.4175 -0.4799  0.4384
  748MPD2    C411107   3.570   1.416   1.296  0.4960  0.2752 -1.1925
  748MPD2    C511108   3.440   1.384   1.331 -0.4498 -0.2727  0.0316
  748MPD2     H11109   3.625   1.240   1.023 -0.5343  0.7064 -0.7584
  748MPD2    H111110   3.623   1.476   1.370 -0.3200  0.3627 -0.6794
  748MPD2    H211111   3.275   1.258   1.274 -1.6444  3.4891  1.3384
  748MPD2    H311112   3.395   1.421   1.423  0.2449  1.4676 -0.3342
  748MPD2     N11113   3.763   1.412   1.139  0.0523 -0.6473 -0.2583
  748MPD2    H511114   3.809   1.359   1.066 -0.1418 -0.7355 -0.3170
  748MPD2    N111115   3.359   1.150   1.060 -0.0344  0.0280 -0.2789
  748MPD2    H711116   3.264   1.126   1.086  0.0043  0.0711 -0.1002
  749TMC3    C111117   3.965   1.517   1.158 -0.4924 -0.5678 -0.2536
  749TMC3    C211118   4.030   1.398   1.167 -0.2414  0.1015 -0.1159
  749TMC3    C311119   4.159   1.395   1.135  0.6387  0.4343 -0.6197
  749TMC3    C411120   4.026   1.636   1.118 -0.1516  0.3685  0.3231
  749TMC3    C511121   4.162   1.631   1.097  0.0186 -0.5842 -1.1751
  749TMC3    C611122   4.229   1.510   1.098 -0.0769 -0.3872  0.3201
  749TMC3     C11123   3.832   1.514   1.210 -0.3966  0.1402 -0.2709
  749TMC3     O11124   3.795   1.600   1.287  0.0499  0.3041 -0.0769
  749TMC3     H11125   3.976   1.306   1.183 -0.3832  0.3367  0.7628
  749TMC3    H111126   3.976   1.732   1.107  1.0471  0.7750 -1.5522
  749TMC3    H211127   4.336   1.510   1.079 -0.1340 -2.2538 -0.0480
  749TMC3    C711128   4.230   1.748   1.047  0.3191 -0.5289 -0.0423
  749TMC3    C811129   4.216   1.296   1.229  1.1721  0.0974 -0.7304
  749TMC3    O111130   4.158   1.824   0.984  0.0731  1.0838  0.0892
  749TMC3    O211131   4.172   1.291   1.345  0.6845 -0.0876 -0.1127
  750MPD2     C11132   0.705   2.769  10.956 -0.1149  1.0242  0.0111
  750MPD2    C111133   0.573   2.740  10.975  0.0944 -0.0570  0.8962
  750MPD2    C211134   0.519   2.620  10.929 -0.6292 -0.1948 -0.2074
  750MPD2    C311135   0.603   2.530  10.846  0.3861 -0.1469 -0.4608
  750MPD2    C411136   0.737   2.566  10.817 -0.1880  0.3792  0.1122
  750MPD2    C511137   0.788   2.683  10.880  0.0429 -0.8125  0.2741
  750MPD2     H11138   0.414   2.604  10.947 -0.9680  1.1981 -0.9808
  750MPD2    H111139   0.795   2.499  10.755 -0.2061 -0.4421  0.9909
  750MPD2    H211140   0.742   2.864  10.995  1.3442  0.7606 -0.7694
  750MPD2    H311141   0.889   2.708  10.851  0.4147 -1.8644  0.6417
  750MPD2     N11142   0.554   2.405  10.791 -0.5432 -0.7968  0.0983
  750MPD2    H511143   0.621   2.350  10.737 -1.3460 -2.5404  0.8848
  750MPD2    N111144   0.496   2.840  11.048 -0.1543  0.6700  0.0634
  750MPD2    H711145   0.537   2.918  11.099 -3.1235  1.1619  1.6904
  751TMC3    C111146   0.401   2.234  10.738 -0.5973  0.5371 -0.2296
  751TMC3    C211147   0.270   2.195  10.715  0.1898 -0.1142  0.5163
  751TMC3    C311148   0.240   2.112  10.612 -0.6591  0.5857  0.0431
  751TMC3    C411149   0.503   2.170  10.671 -0.0151  0.3930 -0.3923
  751TMC3    C511150   0.467   2.082  10.568 -0.2868 -0.0824  0.8558
  751TMC3    C611151   0.333   2.048  10.536  0.5080 -0.5451  0.1327
  751TMC3     C11152   0.424   2.347  10.816  0.4737 -0.1563  0.0449
  751TMC3     O11153   0.340   2.399  10.885 -0.4735  0.2285 -0.0728
  751TMC3     H11154   0.189   2.261  10.744  0.1291  0.2235 -0.4179
  751TMC3    H111155   0.605   2.184  10.706 -0.2077  0.5590  0.0951
  751TMC3    H211156   0.305   2.000  10.443  0.1386 -0.6362  0.2931
  751TMC3    C711157   0.576   2.006  10.504  1.1672 -0.3955  0.9609
  751TMC3    C811158   0.101   2.070  10.590 -0.1992 -0.2406 -0.1173
  751TMC3    O111159   0.691   2.044  10.527  0.2536  0.3988 -0.1195
  751TMC3    O211160   0.077   1.989  10.505  0.2031 -0.4795  0.0517
  752TMC3    C111161   3.890   3.237  16.926 -0.0509  0.2424 -0.0136
  752TMC3    C211162   3.844   3.112  16.938 -0.0395  0.3279  0.2398
  752TMC3    C311163   3.908   3.034  17.025  0.6990 -0.0403 -0.2690
  752TMC3    C411164   3.993   3.291  17.003  0.2374 -0.4411 -0.0554
  752TMC3    C511165   4.045   3.211  17.098  0.1845  0.0452  0.3970
  752TMC3    C611166   3.998   3.082  17.109  0.5181  0.1315  0.4167
  752TMC3     C11167   3.866   3.317  16.804  0.4876  0.1330 -0.3919
  752TMC3     O11168   3.961   3.390  16.769 -0.6053 -0.3846  0.5523
  752TMC3     H11169   3.767   3.077  16.870 -0.8085  1.1148  0.7115
  752TMC3    H111170   4.025   3.395  16.995 -0.6989 -0.0802  0.8654
  752TMC3    H211171   4.044   3.022  17.187  2.8191  0.1816 -0.9158
  752TMC3    C711172   4.179   3.228  17.147 -0.0469 -0.3292 -0.2035
  752TMC3    C811173   3.880   2.895  17.044  0.2449 -0.3854  0.5878
  752TMC3    O111174   4.250   3.129  17.166 -0.9074  0.4978 -0.2247
  752TMC3    O211175   3.896   2.855  17.156  0.0441 -0.5346  0.8311
  753TMC3    C111176   1.471   3.920  13.486  0.6551  0.4981 -0.0018
  753TMC3    C211177   1.527   3.919  13.614 -0.5060 -0.3501  0.5124
  753TMC3    C311178   1.533   3.802  13.685 -0.5123  0.2133 -0.2898
  753TMC3    C411179   1.419   3.805  13.436 -0.3982 -0.1520  0.1387
  753TMC3    C511180   1.426   3.695  13.517  0.1357 -0.0374  0.3663
  753TMC3    C611181   1.470   3.689  13.643  0.7846  0.5367  0.1046
  753TMC3     C11182   1.447   4.032  13.404 -0.3086 -0.2799 -0.3718
  753TMC3     O11183   1.415   4.013  13.284  0.2223  0.0914 -0.4459
  753TMC3     H11184   1.584   4.007  13.643 -1.1050  0.5425 -1.0523
  753TMC3    H111185   1.379   3.798  13.335 -2.7773 -1.8093  1.1913
  753TMC3    H211186   1.446   3.606  13.709  2.0590 -2.2184 -2.8809
  753TMC3    C711187   1.324   3.593  13.483  0.0820 -0.8774  0.4430
  753TMC3    C811188   1.578   3.807  13.826  0.2918 -0.3470 -1.3945
  753TMC3    O111189   1.332   3.484  13.534  0.6075  0.1303 -0.0048
  753TMC3    O211190   1.631   3.708  13.871  0.8255  0.2247  0.1437
  754MPD2     C11191   4.259   2.341  12.313 -0.8017  0.2446  0.7996
  754MPD2    C111192   4.242   2.460  12.380  0.2850 -0.4957  0.3767
  754MPD2    C211193   4.122   2.525  12.385  0.1255 -0.4595  0.2774
  754MPD2    C311194   4.014   2.451  12.336 -0.0006  0.3980  0.5561
  754MPD2    C411195   4.034   2.338  12.261 -0.1091 -0.2564 -0.1121
  754MPD2    C511196   4.155   2.288  12.252 -0.3547  0.0863  0.0245
  754MPD2     H11197   4.107   2.612  12.448  0.6575  0.5341 -0.9481
  754MPD2    H111198   3.948   2.288  12.217  0.7813  0.7624 -3.0742
  754MPD2    H211199   4.351   2.286  12.299 -1.5430 -1.0263  0.9636
  754MPD2    H311200   4.177   2.194  12.202 -0.3788  0.0011  0.1730
  754MPD2     N11201   3.879   2.484  12.363 -0.6060 -0.3655  1.0429
  754MPD2    H511202   3.812   2.414  12.334  0.7881 -1.3708  0.1890
  754MPD2    N111203   4.358   2.515  12.442  0.5062 -0.9861 -0.3159
  754MPD2    H711204   4.439   2.455  12.458  1.1723 -0.3962 -1.4731
  755MPD2     C11205   3.427   3.350  12.362 -0.2180  0.5757 -0.0578
  755MPD2    C111206   3.327   3.271  12.410 -0.1628 -0.2174 -0.7121
  755MPD2    C211207   3.359   3.142  12.444  0.3112  0.2121  0.0066
  755MPD2    C311208   3.489   3.095  12.438 -0.0697  0.4416 -0.0500
  755MPD2    C411209   3.586   3.175  12.387  0.2837 -0.3292  0.2600
  755MPD2    C511210   3.554   3.302  12.354  0.0693  0.0134  0.2512
  755MPD2     H11211   3.273   3.090  12.484 -0.0605 -0.2304 -1.3841
  755MPD2    H111212   3.680   3.126  12.367  1.2256  0.6678  2.1734
  755MPD2    H211213   3.414   3.451  12.325 -1.1001 -0.0317 -1.4130
  755MPD2    H311214   3.634   3.354  12.302 -1.4898  2.0532 -0.0721
  755MPD2     N11215   3.527   2.961  12.470 -0.2627  0.1717 -0.6011
  755MPD2    H511216   3.626   2.937  12.464  0.3320  2.5827 -0.5373
  755MPD2    N111217   3.197   3.315  12.430  0.4209 -0.2207 -0.5766
  755MPD2    H711218   3.126   3.246  12.455  1.1881 -0.3633  1.1904
  756MPD2     C11219   0.581   3.674   9.613 -0.0216 -0.1311  0.6997
  756MPD2    C111220   0.499   3.647   9.716 -0.6600 -0.7458 -0.0532
  756MPD2    C211221   0.422   3.532   9.716  0.0109  0.6744 -0.3908
  756MPD2    C311222   0.412   3.458   9.600 -0.0268 -0.4533  0.4756
  756MPD2    C411223   0.476   3.494   9.486 -0.5858 -0.1052  0.1045
  756MPD2    C511224   0.568   3.597   9.497  0.1965 -0.4378  0.0489
  756MPD2     H11225   0.357   3.509   9.800  1.8185  2.2317  1.4254
  756MPD2    H111226   0.466   3.439   9.393 -1.8243  0.5319 -0.1347
  756MPD2    H211227   0.663   3.744   9.620 -0.2952  0.1042  1.5126
  756MPD2    H311228   0.647   3.607   9.423  0.1715  0.7457  0.1755
  756MPD2     N11229   0.332   3.344   9.605 -0.1298 -0.1683 -1.1445
  756MPD2    H511230   0.289   3.323   9.694 -0.2151  1.6293 -0.7561
  756MPD2    N111231   0.493   3.717   9.840 -0.2330  0.2103 -0.4155
  756MPD2    H711232   0.414   3.688   9.896  0.9161 -0.0848  1.0462
  757MPD2     C11233   4.179   2.772   9.487 -0.1932  0.2380 -0.2590
  757MPD2    C111234   4.271   2.685   9.545 -0.5176  0.2042  0.2840
  757MPD2    C211235   4.406   2.719   9.545 -0.3574 -0.2256 -0.1579
  757MPD2    C311236   4.443   2.846   9.508  0.4584 -0.8601  0.0168
  757MPD2    C411237   4.347   2.933   9.453  0.3220 -0.0695  0.1822
  757MPD2    C511238   4.220   2.895   9.443 -0.0453  0.1495 -0.2881
  757MPD2     H11239   4.482   2.653   9.585 -0.7628 -0.5776  0.0154
  757MPD2    H111240   4.377   3.029   9.412 -1.9692  0.2645 -0.7170
  757MPD2    H211241   4.072   2.753   9.482  0.1988 -1.7430 -1.1429
  757MPD2    H311242   4.144   2.963   9.406 -0.8442  0.0893  1.2273
  757MPD2     N11243   4.575   2.877   9.530 -0.2730  0.2624  0.3627
  757MPD2    H511244   4.632   2.802   9.567 -1.2802 -0.7250 -0.0682
  757MPD2    N111245   4.219   2.551   9.582 -0.0175  0.3339  0.2956
  757MPD2    H711246   4.118   2.541   9.576 -0.2413  2.1022  1.0898
  758MPD2     C11247   4.635   2.772  16.074 -0.8126 -0.0429  0.6520
  758MPD2    C111248   4.726   2.674  16.105 -0.4869  0.4710 -0.2557
  758MPD2    C211249   0.019   2.649  16.239 -0.2546  0.1151 -0.2056
  758MPD2    C311250   4.692   2.714  16.341  0.8112 -0.5632 -0.4238
  758MPD2    C411251   4.612   2.812  16.307 -0.1167  0.0770 -0.4042
  758MPD2    C511252   4.573   2.838  16.178  0.1131 -0.3800 -0.5682
  758MPD2     H11253   0.089   2.567  16.252 -1.5665 -0.6870  1.7383
  758MPD2    H111254   4.571   2.876  16.384 -2.2059 -1.2412 -0.4184
  758MPD2    H211255   4.607   2.785  15.970  1.3224  0.3476  0.1327
  758MPD2    H311256   4.504   2.920  16.161  0.3309 -0.0216  0.2677
  758MPD2     N11257   4.728   2.698  16.476  0.4908 -0.1962  0.2710
  758MPD2    H511258   4.691   2.770  16.537 -0.5709  0.6189 -1.3288
  758MPD2    N111259   0.055   2.603  16.004  0.1176  0.1009  0.2433
  758MPD2    H711260   0.133   2.546  16.035 -0.2717 -0.8790 -0.5978
  759MPD2     C11261   4.340   0.052   9.923 -0.0731 -0.9392 -0.4802
  759MPD2    C111262   4.316   0.166  10.008 -0.2684 -0.1299 -0.1702
  759MPD2    C211263   4.273   0.278   9.946 -0.4165 -0.4797 -0.4186
  759MPD2    C311264   4.273   0.292   9.807  0.6037  0.6964 -0.0087
  759MPD2    C411265   4.292   0.184   9.727  0.4615 -0.3859 -0.0321
  759MPD2    C511266   4.325   0.065   9.786 -0.2287  0.1744  0.2538
  759MPD2     H11267   4.252   0.361  10.013 -1.0694 -1.0017  0.0203
  759MPD2    H111268   4.285   0.188   9.619  0.2566 -0.6628 -0.0298
  759MPD2    H211269   4.372   4.695   9.957  0.5116 -1.5099 -2.6579
  759MPD2    H311270   4.341   4.713   9.733  2.0023  0.0270  1.1732
  759MPD2     N11271   4.232   0.419   9.753  0.4153  0.2986 -0.1034
  759MPD2    H511272   4.207   0.493   9.817  1.5303 -1.0778  1.9360
  759MPD2    N111273   4.327   0.156  10.148  0.1148 -0.0498 -0.0117
  759MPD2    H711274   4.309   0.244  10.196  0.3658  0.7890 -1.4481
  760MPD2     C11275   3.202   2.773  11.926 -0.0199  0.2611  1.1075
  760MPD2    C111276   3.292   2.726  11.836 -0.5013 -0.5072 -0.0956
  760MPD2    C211277   3.308   2.590  11.816 -0.0348 -0.3028  0.9796
  760MPD2    C311278   3.222   2.500  11.885  0.4831  0.2319 -0.2039
  760MPD2    C411279   3.132   2.550  11.970  0.4937 -0.1898  0.1918
  760MPD2    C511280   3.122   2.686  11.993  0.1426 -0.0658 -0.3330
  760MPD2     H11281   3.375   2.546  11.743  0.6740  1.5248  0.5268
  760MPD2    H111282   3.071   2.485  12.032  0.5785 -1.3095 -0.8896
  760MPD2    H211283   3.185   2.877  11.948 -5.5466 -0.8721  2.1770
  760MPD2    H311284   3.055   2.713  12.074  1.2042 -1.3908  0.9641
  760MPD2     N11285   3.229   2.368  11.850 -0.6842  0.1719  0.5695
  760MPD2    H511286   3.294   2.345  11.775 -1.6773  0.7728 -0.4743
  760MPD2    N111287   3.374   2.815  11.762  0.0791 -0.1661 -0.2351
  760MPD2    H711288   3.441   2.775  11.697  1.1172 -3.2917  2.7272
  761MPD2     C11289   4.374   1.984  10.800 -0.3640 -0.6399 -0.2117
  761MPD2    C111290   4.458   1.900  10.729  0.3954 -0.7589  0.5702
  761MPD2    C211291   4.579   1.952  10.685 -0.0479  0.9319 -0.4509
  761MPD2    C311292   4.621   2.083  10.713 -0.0723  0.6654  0.5658
  761MPD2    C411293   4.540   2.155  10.795 -0.0351  0.4404  0.0321
  761MPD2    C511294   4.417   2.108  10.839  0.1533 -0.1599 -0.5970
  761MPD2     H11295   4.650   1.898  10.623  0.1644  0.2343  0.4077
  761MPD2    H111296   4.557   2.257  10.827  0.5519  0.0107  1.0847
  761MPD2    H211297   4.283   1.941  10.841 -0.2739  1.5789  2.3233
  761MPD2    H311298   4.358   2.167  10.908 -0.2385 -1.0109 -0.1934
  761MPD2     N11299   0.008   2.138  10.675 -0.2788  0.6856  0.1015
  761MPD2    H511300   0.021   2.230  10.716 -0.7202  0.7318  0.1486
  761MPD2    N111301   4.421   1.761  10.716  0.2870 -0.3125  0.6901
  761MPD2    H711302   4.365   1.716  10.789 -1.6187 -0.6155 -0.9540
  762MPD2     C11303   0.338   1.420  10.831 -0.3101 -0.3243  0.0212
  762MPD2    C111304   0.270   1.385  10.722 -0.2080  0.1571 -0.0425
  762MPD2    C211305   0.343   1.384  10.603  0.1421  0.3960 -0.0601
  762MPD2    C311306   0.476   1.415  10.597 -0.3509 -0.0632  0.3644
  762MPD2    C411307   0.546   1.437  10.714 -0.3594  0.0485  0.4665
  762MPD2    C511308   0.472   1.448  10.827  0.6880 -0.1880 -0.6191
  762MPD2     H11309   0.303   1.367  10.504  0.2360  1.9888 -0.3765
  762MPD2    H111310   0.647   1.476  10.713 -0.6005  0.6536 -0.0590
  762MPD2    H211311   0.283   1.437  10.923 -0.3091 -0.1933 -0.0029
  762MPD2    H311312   0.520   1.473  10.921  2.0863 -0.7716 -1.1765
  762MPD2     N11313   0.547   1.408  10.471  0.0281 -0.4827 -0.6000
  762MPD2    H511314   0.498   1.397  10.382 -1.0207 -0.8331  0.0178
  762MPD2    N111315   0.133   1.377  10.747 -0.0286 -0.2173 -0.0596
  762MPD2    H711316   0.106   1.395  10.843 -0.1960 -1.7854  0.1914
  763MPD2     C11317   1.969   2.261  16.074 -0.1826  0.6917 -0.2333
  763MPD2    C111318   1.862   2.321  16.002  0.0512 -0.1816 -0.4568
  763MPD2    C211319   1.814   2.445  16.054 -0.1431  0.6795  0.4889
  763MPD2    C311320   1.865   2.508  16.167  0.4109  0.8114  0.2862
  763MPD2    C411321   1.972   2.438  16.226  0.4560 -0.2342  0.0697
  763MPD2    C511322   2.022   2.319  16.189  0.2529 -0.1644  0.5424
  763MPD2     H11323   1.738   2.498  15.997 -0.3655 -0.1629  0.0115
  763MPD2    H111324   2.021   2.488  16.309  2.6463 -4.3238  1.2570
  763MPD2    H211325   2.012   2.166  16.047 -2.7297 -0.0099 -1.8061
  763MPD2    H311326   2.105   2.280  16.246  1.0775  0.7979  0.0001
  763MPD2     N11327   1.826   2.637  16.211 -0.1080 -0.9023  0.0216
  763MPD2    H511328   1.897   2.695  16.254 -0.7909  2.5346 -3.4897
  763MPD2    N111329   1.806   2.278  15.881 -0.3321  0.8526  0.0701
  763MPD2    H711330   1.742   2.342  15.835 -1.0462  0.0237 -0.1084
  764MPD2     C11331   0.169   3.564  17.385  0.4821  0.2497  0.3698
  764MPD2    C111332   0.107   3.685  17.419  0.4319  0.2632  0.5229
  764MPD2    C211333   4.742   3.689  17.505  0.0910 -0.4699  0.4266
  764MPD2    C311334   4.701   3.578  17.567  0.6899 -0.0802 -0.3620
  764MPD2    C411335   0.016   3.453  17.536 -0.3880  0.2080  0.0444
  764MPD2    C511336   0.113   3.449  17.436 -0.3287 -0.1336 -0.5038
  764MPD2     H11337   4.693   3.785  17.510 -2.3527 -1.6168 -0.7327
  764MPD2    H111338   4.721   3.360  17.578 -2.2881  0.9022 -0.1077
  764MPD2    H211339   0.252   3.560  17.316 -0.2070  2.4293 -0.5792
  764MPD2    H311340   0.163   3.356  17.413  2.5872  1.1329  0.7370
  764MPD2     N11341   4.614   3.582  17.683 -1.2829 -0.3687  0.1665
  764MPD2    H511342   4.583   3.673  17.716 -1.9803 -0.3147 -0.6247
  764MPD2    N111343   0.154   3.801  17.345  0.0602  0.7012 -0.5091
  764MPD2    H711344   0.250   3.791  17.314 -0.3603  0.0717 -1.6012
  765MPD2     C11345   4.316   1.909  15.133 -0.1516  0.4537  0.3917
  765MPD2    C111346   4.394   1.958  15.238 -0.5115  0.5906 -0.2255
  765MPD2    C211347   4.517   1.909  15.275  0.5990 -0.7900  0.1438
  765MPD2    C311348   4.571   1.809  15.194 -0.1482 -0.6231 -0.2255
  765MPD2    C411349   4.483   1.750  15.095  0.0264 -0.1804  0.3139
  765MPD2    C511350   4.361   1.805  15.063  0.9960 -0.1329 -0.1024
  765MPD2     H11351   4.577   1.957  15.351  0.2147  1.8780 -1.2500
  765MPD2    H111352   4.509   1.659  15.043 -1.9841  0.1812 -1.3160
  765MPD2    H211353   4.217   1.949  15.110 -0.6954 -1.3871 -0.4496
  765MPD2    H311354   4.292   1.750  15.000 -0.0174  2.0729 -0.8756
  765MPD2     N11355   4.692   1.749  15.237  0.1534 -0.3600 -0.0825
  765MPD2    H511356   4.734   1.788  15.320 -2.5984 -1.3035  1.7579
  765MPD2    N111357   4.327   2.059  15.315  0.3197  0.2590 -0.0991
  765MPD2    H711358   4.239   2.093  15.278  1.1445  0.7853 -1.5506
  766MPD2     C11359   3.623   2.176  15.153 -0.2553  0.0244 -0.9237
  766MPD2    C111360   3.763   2.150  15.165 -0.0024  0.0758  0.6307
  766MPD2    C211361   3.830   2.078  15.068  0.1720 -0.7456 -0.5766
  766MPD2    C311362   3.764   2.049  14.948  0.1494 -0.2632  0.2092
  766MPD2    C411363   3.636   2.093  14.928 -0.0929  0.3885 -0.7882
  766MPD2    C511364   3.566   2.146  15.030 -0.5291  0.0407 -0.1490
  766MPD2     H11365   3.938   2.074  15.064  0.1976 -0.3687 -0.2311
  766MPD2    H111366   3.603   2.085  14.825  0.7189 -0.1378 -1.0137
  766MPD2    H211367   3.567   2.231  15.228 -0.2376  0.0360 -0.9191
  766MPD2    H311368   3.461   2.171  15.021 -0.8092 -2.3732 -3.8020
  766MPD2     N11369   3.837   2.004  14.833  0.1132  0.5555 -0.2297
  766MPD2    H511370   3.792   2.013  14.742 -0.1561 -1.2681 -0.2811
  766MPD2    N111371   3.834   2.196  15.281 -0.4349  0.2830 -0.4106
  766MPD2    H711372   3.808   2.286  15.320 -0.3361 -0.0259  0.3497
  767MPD2     C11373   3.465   2.323  14.608 -0.7462  0.2304  0.4569
  767MPD2    C111374   3.606   2.302  14.612 -0.6819 -0.2879 -0.3844
  767MPD2    C211375   3.674   2.241  14.509  0.1214  0.3781 -0.7946
  767MPD2    C311376   3.601   2.195  14.405 -0.1879  0.5460 -0.6313
  767MPD2    C411377   3.466   2.212  14.398  0.6821 -0.5135  0.3619
  767MPD2    C511378   3.399   2.278  14.497  0.1065 -0.1101 -0.0473
  767MPD2     H11379   3.782   2.229  14.519 -0.0801 -0.6113  0.2293
  767MPD2    H111380   3.400   2.189  14.315 -1.4153 -0.3290  1.9684
  767MPD2    H211381   3.410   2.384  14.680 -1.3658 -0.0466  0.2206
  767MPD2    H311382   3.299   2.313  14.478  0.8441  1.4951 -1.0032
  767MPD2     N11383   3.677   2.125  14.306 -0.4421 -0.1290 -0.2432
  767MPD2    H511384   3.775   2.131  14.330 -0.5896  0.8791  0.1390
  767MPD2    N111385   3.668   2.348  14.727 -0.5388 -0.2321 -0.1860
  767MPD2    H711386   3.608   2.382  14.802 -2.0688 -1.2777 -0.9257
  768MPD2     C11387   4.727   0.221  10.811  0.0178 -0.3403  0.0899
  768MPD2    C111388   4.678   0.216  10.936 -0.1756  0.1536  0.4375
  768MPD2    C211389   0.013   0.240  11.043  0.2632 -0.4950 -0.3710
  768MPD2    C311390   0.152   0.252  11.020  0.1520  0.3900  0.1465
  768MPD2    C411391   0.205   0.256  10.897 -0.1822 -0.0893  0.2480
  768MPD2    C511392   0.123   0.238  10.790  0.5479 -0.5747  0.2606
  768MPD2     H11393   4.714   0.252  11.143  1.0241  0.6781 -0.2047
  768MPD2    H111394   0.310   0.260  10.872 -0.3989 -1.8695 -0.9479
  768MPD2    H211395   4.664   0.220  10.723 -1.0127  4.0577  0.7683
  768MPD2    H311396   0.167   0.249  10.692 -1.1975  0.8843 -0.3541
  768MPD2     N11397   0.246   0.277  11.126  0.8550 -0.3176  0.7006
  768MPD2    H511398   0.345   0.281  11.104  0.6029  1.0371 -0.1838
  768MPD2    N111399   4.541   0.208  10.963 -0.0372  0.2801 -0.1343
  768MPD2    H711400   4.517   0.229  11.060  0.1867  0.4535 -0.1170
  769MPD2     C11401   0.630   3.594  15.045  0.3177 -0.4391 -0.0770
  769MPD2    C111402   0.566   3.632  15.157  0.3273  0.0690  0.0356
  769MPD2    C211403   0.632   3.634  15.284 -0.0390  0.5968 -0.2062
  769MPD2    C311404   0.775   3.619  15.278  0.5736 -1.0401  0.0882
  769MPD2    C411405   0.836   3.588  15.155 -1.0582 -0.1391  0.4022
  769MPD2    C511406   0.761   3.560  15.044 -0.0521  0.2431 -0.4981
  769MPD2     H11407   0.584   3.662  15.377  1.0963  1.7713  0.0412
  769MPD2    H111408   0.942   3.565  15.156 -0.7952  1.0586 -0.0397
  769MPD2    H211409   0.585   3.595  14.947 -1.7890  3.3867  0.9510
  769MPD2    H311410   0.799   3.507  14.957  0.7862 -1.0511  0.6359
  769MPD2     N11411   0.850   3.636  15.401 -0.7573 -0.4906  0.2467
  769MPD2    H511412   0.792   3.649  15.484  0.2867 -0.1737  0.9193
  769MPD2    N111413   0.432   3.673  15.143 -0.5337  0.1759 -0.1001
  769MPD2    H711414   0.389   3.668  15.052 -0.3254  3.6206 -0.4053
  770MPD2     C11415   4.737   2.940  15.330 -0.0370 -0.2411  0.3110
  770MPD2    C111416   0.055   2.984  15.212 -0.1715  0.2704  0.5046
  770MPD2    C211417   0.065   3.115  15.183  0.1125 -0.5368 -0.0122
  770MPD2    C311418   4.735   3.205  15.259 -0.3000 -0.0706 -0.0058
  770MPD2    C411419   4.675   3.165  15.379 -0.2167  0.3007 -0.5418
  770MPD2    C511420   4.671   3.028  15.410  0.3068 -0.0629  0.1358
  770MPD2     H11421   0.112   3.153  15.094  2.6600 -1.0641  1.1120
  770MPD2    H111422   4.634   3.241  15.444 -1.5351 -1.5600  0.8168
  770MPD2    H211423   4.733   2.835  15.354 -2.0364 -0.3329 -0.4717
  770MPD2    H311424   4.621   2.996  15.501  0.9950  0.0190  0.5456
  770MPD2     N11425   0.009   3.337  15.219  0.1297  0.0251 -0.1586
  770MPD2    H511426   0.071   3.358  15.141 -0.0424  1.7963  0.1859
  770MPD2    N111427   0.118   2.890  15.125 -0.1263 -0.0248  0.1714
  770MPD2    H711428   0.117   2.791  15.146 -0.5252 -0.1136 -0.2631
  771MPD2     C11429   1.603   1.130  13.586  0.7543 -0.2443  0.4619
  771MPD2    C111430   1.498   1.215  13.583  0.1940  0.3020  0.4081
  771MPD2    C211431   1.380   1.157  13.558  0.2019 -0.0426  0.3979
  771MPD2    C311432   1.360   1.022  13.545  0.2583  0.0714 -1.1322
  771MPD2    C411433   1.468   0.940  13.551 -0.2977 -0.0721 -0.2255
  771MPD2    C511434   1.587   0.995  13.570  0.0453 -0.3763  0.5021
  771MPD2     H11435   1.294   1.222  13.569 -3.1492 -3.9402 -2.6471
  771MPD2    H111436   1.465   0.831  13.549  1.9870 -0.1485  0.5511
  771MPD2    H211437   1.699   1.161  13.623 -0.5685  2.8510  1.3256
  771MPD2    H311438   1.676   0.934  13.577 -0.2520 -1.0711 -1.8343
  771MPD2     N11439   1.235   0.966  13.519 -1.0262 -0.8447 -0.8156
  771MPD2    H511440   1.157   1.030  13.516 -0.4562 -0.1558 -1.0336
  771MPD2    N111441   1.509   1.359  13.599  0.5022  0.4572 -0.3425
  771MPD2    H711442   1.425   1.415  13.595 -0.2802 -0.7983 -1.4561
  772MPD2     C11443   0.995   1.692  13.559 -0.0488  0.1813  0.5588
  772MPD2    C111444   1.070   1.768  13.647 -0.1531 -0.7098  0.3971
  772MPD2    C211445   1.006   1.867  13.719  0.2699 -0.2378  0.2802
  772MPD2    C311446   0.866   1.878  13.709 -0.2436 -0.0838 -0.0136
  772MPD2    C411447   0.796   1.804  13.618  0.5639 -0.1785  0.6645
  772MPD2    C511448   0.863   1.709  13.544 -0.4207 -0.7073  0.1409
  772MPD2     H11449   1.070   1.915  13.792  0.4512 -0.1632  0.0758
  772MPD2    H111450   0.687   1.801  13.615  0.5835 -0.2481  0.0826
  772MPD2    H211451   1.051   1.614  13.508 -0.0115  0.8435 -0.4140
  772MPD2    H311452   0.807   1.641  13.481 -0.3523  1.6149 -2.4404
  772MPD2     N11453   0.794   1.975  13.786  0.5319  0.5614  0.2416
  772MPD2    H511454   0.693   1.962  13.796  0.7879 -1.5276  0.0756
  772MPD2    N111455   1.212   1.736  13.663 -0.0031  0.0061 -0.1141
  772MPD2    H711456   1.241   1.668  13.593 -0.9411 -0.0539 -0.4417
  773MPD2     C11457   0.688   2.388   0.599  0.1218  0.3468 -0.1083
  773MPD2    C111458   0.605   2.299   0.536  0.1486 -0.3224 -0.0730
  773MPD2    C211459   0.646   2.165   0.539 -0.3279 -0.0950  0.1019
  773MPD2    C311460   0.770   2.117   0.575  0.0998  0.2697 -0.0730
  773MPD2    C411461   0.851   2.210   0.638  0.3345 -0.1294  0.1156
  773MPD2    C511462   0.812   2.343   0.638  0.5723 -0.0882 -0.0640
  773MPD2     H11463   0.572   2.095   0.502  1.3589 -0.4391 -2.6144
  773MPD2    H111464   0.951   2.178   0.666 -0.7728 -2.3702  1.4804
  773MPD2    H211465   0.656   2.491   0.609  2.2051  0.9159  0.7949
  773MPD2    H311466   0.888   2.403   0.685  0.9357 -1.0620  0.6056
  773MPD2     N11467   0.796   1.980   0.559 -0.0913  0.4628  0.2715
  773MPD2    H511468   0.724   1.925   0.514  0.4259  1.4414 -1.7204
  773MPD2    N111469   0.477   2.336   0.484 -0.1863  0.1212  0.0866
  773MPD2    H711470   0.415   2.257   0.468 -1.3013  1.1302 -0.5485
  774MPD2     C11471   4.699   1.928  13.017  0.0452 -0.2687  0.6710
  774MPD2    C111472   4.622   2.002  13.102 -0.5954  0.2525  1.0008
  774MPD2    C211473   4.574   2.122  13.058  0.0390  0.1357 -0.0444
  774MPD2    C311474   4.583   2.162  12.919  0.2954  0.5219  0.3044
  774MPD2    C411475   4.636   2.073  12.836 -0.4014 -0.2191 -0.3624
  774MPD2    C511476   4.705   1.967  12.884 -0.1034  0.1519 -0.2958
  774MPD2     H11477   4.527   2.190  13.129 -1.3596 -0.8723  0.0017
  774MPD2    H111478   4.643   2.086  12.729 -0.0311  0.5341 -0.2524
  774MPD2    H211479   0.001   1.832  13.045  0.0940 -0.0732  1.2729
  774MPD2    H311480   0.015   1.899  12.817 -0.9570 -0.0525 -0.7503
  774MPD2     N11481   4.528   2.288  12.882  0.8580 -0.7704  0.1335
  774MPD2    H511482   4.485   2.339  12.959  1.5256 -2.1537  1.4382
  774MPD2    N111483   4.617   1.949  13.236  0.1370  0.1608 -0.4600
  774MPD2    H711484   4.669   1.865  13.257  0.8404  0.2318 -1.8663
  775MPD2     C11485   1.173   3.309  15.637  0.5941 -0.3442 -0.0364
  775MPD2    C111486   1.227   3.390  15.737 -0.2359 -0.2789 -0.1632
  775MPD2    C211487   1.303   3.499  15.707  0.3140  0.0937 -0.1618
  775MPD2    C311488   1.327   3.533  15.573  0.6890  0.1382 -0.0851
  775MPD2    C411489   1.272   3.455  15.472  0.0718  0.7389  0.2560
  775MPD2    C511490   1.185   3.352  15.507  0.3758 -0.0881 -0.5128
  775MPD2     H11491   1.334   3.557  15.793 -1.5171 -1.6198  1.6617
  775MPD2    H111492   1.275   3.485  15.367 -1.0307 -2.1639 -0.6138
  775MPD2    H211493   1.115   3.221  15.662 -1.4463  1.4111  1.4213
  775MPD2    H311494   1.139   3.291  15.431  0.5683 -0.7349 -0.1175
  775MPD2     N11495   1.401   3.647  15.539  0.8939  0.3570  0.4790
  775MPD2    H511496   1.395   3.680  15.443  1.0236  0.5077  0.5217
  775MPD2    N111497   1.191   3.337  15.866  0.2841 -1.0270 -0.1937
  775MPD2    H711498   1.142   3.248  15.865 -0.8910 -0.3637 -1.1520
  776MPD2     C11499   0.797   3.251  11.276 -0.2545 -0.0858  0.0330
  776MPD2    C111500   0.674   3.316  11.282  0.7792 -0.0820 -0.3202
  776MPD2    C211501   0.668   3.459  11.306 -0.6445 -0.2108 -0.4760
  776MPD2    C311502   0.782   3.525  11.342 -0.1915  0.4554 -0.2052
  776MPD2    C411503   0.902   3.461  11.342  0.6092  0.6628  0.1810
  776MPD2    C511504   0.904   3.330  11.305  0.6752  0.5220  0.3994
  776MPD2     H11505   0.569   3.501  11.288  0.1593  0.6460 -2.8625
  776MPD2    H111506   0.992   3.522  11.348 -1.1844  3.2825  0.2449
  776MPD2    H211507   0.807   3.147  11.247 -0.1898 -0.3294  0.9282
  776MPD2    H311508   0.996   3.274  11.299  0.0772 -0.7024  2.9402
  776MPD2     N11509   0.789   3.665  11.359 -0.1431 -0.0892  0.1761
  776MPD2    H511510   0.880   3.705  11.342  0.6456 -1.7619  0.5121
  776MPD2    N111511   0.565   3.229  11.276  0.2640 -0.5022 -0.4992
  776MPD2    H711512   0.581   3.130  11.264  0.8728 -0.2027 -2.2215
  777MPD2     C11513   0.568   0.818   0.459  0.1728  0.2873  0.7516
  777MPD2    C111514   0.464   0.756   0.525  0.3537  0.4174 -0.0944
  777MPD2    C211515   0.426   0.624   0.492  0.2184  0.0260  0.0350
  777MPD2    C311516   0.482   0.561   0.383 -0.1685  0.0847 -0.5037
  777MPD2    C411517   0.583   0.626   0.314 -0.9995  0.1544 -0.2023
  777MPD2    C511518   0.630   0.747   0.355 -0.2483 -0.2213  0.3566
  777MPD2     H11519   0.345   0.576   0.546 -1.7235  2.7410 -0.4305
  777MPD2    H111520   0.625   0.585   0.223  0.3129  3.1453 -0.9443
  777MPD2    H211521   0.581   0.923   0.481 -0.3101  0.5962 -0.4835
  777MPD2    H311522   0.705   0.799   0.298 -0.5445 -1.4975 -1.1833
  777MPD2     N11523   0.427   0.433   0.342 -0.1463 -0.0496  0.3004
  777MPD2    H511524   0.359   0.386   0.401  0.2982 -1.8988 -0.6772
  777MPD2    N111525   0.412   0.812   0.639  0.7408 -0.1924  0.3669
  777MPD2    H711526   0.453   0.892   0.685 -1.1318  1.1878 -0.3717
  778MPD2     C11527   1.850   1.779  14.586 -0.4578  0.3677  0.1822
  778MPD2    C111528   1.871   1.662  14.502  0.6312 -0.6355  0.8776
  778MPD2    C211529   1.969   1.665  14.405 -0.8905  0.2580 -0.2023
  778MPD2    C311530   2.058   1.771  14.405 -0.2282 -0.6130  0.1164
  778MPD2    C411531   2.040   1.881  14.491 -0.4640 -0.4899  0.7188
  778MPD2    C511532   1.935   1.887  14.577  0.9883  0.4442 -0.2922
  778MPD2     H11533   1.975   1.579  14.339  0.8503  1.7503 -1.9574
  778MPD2    H111534   2.102   1.970  14.482 -0.6523 -0.6582 -2.4609
  778MPD2    H211535   1.757   1.783  14.643 -1.3794  3.4980 -1.5487
  778MPD2    H311536   1.919   1.981  14.627  0.2571  0.0835  0.1392
  778MPD2     N11537   2.176   1.752  14.327 -0.0004 -0.4815  0.0997
  778MPD2    H511538   2.172   1.670  14.267 -1.4557  0.4850 -1.1329
  778MPD2    N111539   1.788   1.549  14.499  1.2095 -0.0778 -0.0621
  778MPD2    H711540   1.796   1.476  14.429 -1.9111 -1.4181  0.9957
  779MPD2     C11541   1.252   0.211  14.204  0.1119 -0.3865  0.3455
  779MPD2    C111542   1.371   0.241  14.265 -0.7016  0.2426  0.4537
  779MPD2    C211543   1.426   0.369  14.240 -0.0517 -0.3929  0.7301
  779MPD2    C311544   1.368   0.453  14.152 -0.2322 -0.1852  0.1145
  779MPD2    C411545   1.248   0.424  14.104 -0.7072 -0.2309  0.0094
  779MPD2    C511546   1.193   0.307  14.130 -0.2651  0.5260  0.1587
  779MPD2     H11547   1.521   0.409  14.275 -1.9505  2.6330  2.3321
  779MPD2    H111548   1.188   0.493  14.047  0.8627  0.0643 -1.2739
  779MPD2    H211549   1.197   0.118  14.213  1.1627 -1.1385 -0.9920
  779MPD2    H311550   1.092   0.288  14.096 -0.0378  1.3877 -0.9952
  779MPD2     N11551   1.438   0.571  14.128  0.7474 -0.5487  0.1664
  779MPD2    H511552   1.516   0.589  14.191  1.1754 -2.2880  0.1445
  779MPD2    N111553   1.454   0.145  14.320 -0.4569  0.2854  0.0739
  779MPD2    H711554   1.551   0.170  14.332  0.0073 -1.3071 -0.2704
  780MPD2     C11555   0.921   0.088   0.645 -0.4971 -0.5423  0.3009
  780MPD2    C111556   0.915   0.040   0.517 -0.0042  0.5289 -0.6509
  780MPD2    C211557   1.020   0.069   0.429  0.3962 -0.8124  1.2617
  780MPD2    C311558   1.122   0.154   0.461  0.0686  0.2962 -0.4870
  780MPD2    C411559   1.126   0.198   0.588 -0.6339 -0.0684 -0.2138
  780MPD2    C511560   1.034   0.148   0.678  0.6620 -0.1370  0.5383
  780MPD2     H11561   1.026   0.015   0.335  3.3961 -0.6190  1.3457
  780MPD2    H111562   1.211   0.247   0.634  0.4034 -1.3600 -0.7634
  780MPD2    H211563   0.854   0.062   0.726  0.1042 -0.4194  0.8434
  780MPD2    H311564   1.048   0.175   0.782  2.5990  1.1469 -0.0616
  780MPD2     N11565   1.218   0.190   0.361 -0.4010  0.3716  0.3932
  780MPD2    H511566   1.188   0.151   0.272 -0.9033 -0.3263  0.8637
  780MPD2    N111567   0.793   4.712   0.477  0.5836  0.5112  0.0556
  780MPD2    H711568   0.732   4.695   0.556 -1.3134 -0.6184 -1.6591
  781MPD2     C11569   2.391   2.337  12.472 -0.1520 -0.0703 -0.1287
  781MPD2    C111570   2.388   2.215  12.413  0.4437 -0.1708 -0.0053
  781MPD2    C211571   2.373   2.199  12.276  0.0115  0.0630 -0.1001
  781MPD2    C311572   2.362   2.314  12.198 -0.0402 -0.4317  0.2287
  781MPD2    C411573   2.363   2.439  12.265  0.5504 -0.0918 -0.5836
  781MPD2    C511574   2.363   2.448  12.401 -1.0153 -0.0996 -0.4682
  781MPD2     H11575   2.373   2.101  12.229 -0.7602  0.0373 -0.0444
  781MPD2    H111576   2.345   2.528  12.207 -1.0721  1.7294  2.7107
  781MPD2    H211577   2.400   2.348  12.579 -0.1428 -1.2940 -0.0056
  781MPD2    H311578   2.363   2.546  12.447 -0.4492 -0.2570 -0.1351
  781MPD2     N11579   2.356   2.319  12.059 -0.2579  0.3382  0.3387
  781MPD2    H511580   2.349   2.413  12.022  0.7620 -0.3072 -1.4948
  781MPD2    N111581   2.422   2.097  12.492 -0.2813  0.6900  0.0159
  781MPD2    H711582   2.428   2.009  12.442 -1.5025  1.2370 -1.0990
  782MPD2     C11583   1.203   2.260   9.757 -0.2521  0.0328  0.6078
  782MPD2    C111584   1.228   2.213   9.884 -0.4011 -0.4323  0.4580
  782MPD2    C211585   1.185   2.278   9.998  0.0891 -0.4032 -0.0503
  782MPD2    C311586   1.122   2.397   9.984 -0.3218  0.0455 -0.2739
  782MPD2    C411587   1.097   2.444   9.854 -0.4729  0.5195  0.4596
  782MPD2    C511588   1.137   2.380   9.740  0.2135 -0.9793 -0.3693
  782MPD2     H11589   1.192   2.239  10.099 -0.4025  0.5335  0.3411
  782MPD2    H111590   1.042   2.537   9.842  0.3817  1.1592  1.6266
  782MPD2    H211591   1.232   2.206   9.668  0.5853  1.3815  0.0700
  782MPD2    H311592   1.124   2.424   9.641  1.6722  0.3307  0.0183
  782MPD2     N11593   1.092   2.476  10.106 -0.5718 -0.2054 -0.8027
  782MPD2    H511594   1.057   2.568  10.080 -1.4371 -0.7901 -1.7104
  782MPD2    N111595   1.285   2.087   9.900  0.1698  1.0201  0.6129
  782MPD2    H711596   1.273   2.017   9.828 -0.0438 -1.1116  2.7357
  783MPD2     C11597   0.558   1.712  10.277  0.7867 -0.4665  0.1954
  783MPD2    C111598   0.617   1.808  10.358 -0.6703  0.3938 -1.0402
  783MPD2    C211599   0.750   1.839  10.326  0.5601  1.1773 -0.0872
  783MPD2    C311600   0.831   1.759  10.239  0.0591 -0.1656  0.0139
  783MPD2    C411601   0.768   1.669  10.152  0.6512 -0.2770 -0.2645
  783MPD2    C511602   0.632   1.646  10.181  0.3079  0.2646  0.3157
  783MPD2     H11603   0.806   1.914  10.381  0.5037 -0.9083  2.8232
  783MPD2    H111604   0.810   1.623  10.063 -2.0120  1.1382 -2.2545
  783MPD2    H211605   0.453   1.688  10.291  0.6168  1.3680  1.8939
  783MPD2    H311606   0.581   1.566  10.127  0.3745  0.1138  0.4773
  783MPD2     N11607   0.969   1.792  10.216  0.4044  0.3148 -0.4582
  783MPD2    H511608   1.017   1.859  10.274  1.4550 -0.5780 -0.3081
  783MPD2    N111609   0.537   1.887  10.444  0.4421  0.4305  0.5441
  783MPD2    H711610   0.440   1.858  10.446  0.2667  0.9790 -0.2579
  784MPD2     C11611   2.301   2.834   1.015 -0.2693 -0.9120 -0.5696
  784MPD2    C111612   2.302   2.930   1.114 -0.6086 -0.0199 -0.2653
  784MPD2    C211613   2.210   3.036   1.106 -0.1213 -0.4656 -0.4707
  784MPD2    C311614   2.115   3.044   1.008 -0.2385  0.3098  0.3206
  784MPD2    C411615   2.109   2.943   0.912 -0.1523 -0.7654  0.1817
  784MPD2    C511616   2.197   2.837   0.921  0.1233 -0.6866  0.2804
  784MPD2     H11617   2.209   3.116   1.179 -1.0424 -1.2898  0.4120
  784MPD2    H111618   2.041   2.931   0.828 -0.9170 -0.5172  0.7699
  784MPD2    H211619   2.362   2.744   1.021  0.3434 -0.6196 -2.2653
  784MPD2    H311620   2.194   2.765   0.841 -0.3673 -0.1275 -0.2071
  784MPD2     N11621   2.043   3.169   0.988  0.1170 -0.6823 -0.2114
  784MPD2    H511622   2.057   3.252   1.045  1.5422 -1.6867  0.9177
  784MPD2    N111623   2.395   2.935   1.227 -0.4511 -0.4977  0.0231
  784MPD2    H711624   2.385   3.018   1.284 -2.6490  1.3583 -3.0721
  785MPD2     C11625   3.096   0.872  10.546  0.6677 -0.5497 -0.0578
  785MPD2    C111626   3.024   0.951  10.635  0.2090 -0.5404 -0.3743
  785MPD2    C211627   2.887   0.954  10.617 -0.1564  0.3204  0.4967
  785MPD2    C311628   2.822   0.870  10.529 -0.6457  0.3840 -0.4682
  785MPD2    C411629   2.898   0.780  10.456 -0.7649 -0.9313 -0.5565
  785MPD2    C511630   3.036   0.784  10.463  0.0048 -0.2865  0.2602
  785MPD2     H11631   2.837   1.031  10.675  0.2883  1.3767 -0.5405
  785MPD2    H111632   2.856   0.719  10.377  0.1496 -1.9265 -0.2755
  785MPD2    H211633   3.203   0.885  10.549  0.7461 -1.5382  1.1338
  785MPD2    H311634   3.100   0.730  10.395  0.6968 -0.1239  0.7901
  785MPD2     N11635   2.681   0.872  10.527 -0.5897  0.2876  0.3855
  785MPD2    H511636   2.640   0.936  10.594 -0.6141  0.4907  0.1786
  785MPD2    N111637   3.097   1.038  10.723 -0.1204  0.0651  0.3480
  785MPD2    H711638   3.199   1.045  10.720 -0.2707  1.1727 -2.4221
  786MPD2     C11639   2.379   4.398  14.498  0.1612  0.6637 -0.6926
  786MPD2    C111640   2.270   4.324  14.545  0.6847  0.4421 -0.4018
  786MPD2    C211641   2.262   4.321  14.686  0.4205  0.2185  0.3426
  786MPD2    C311642   2.351   4.384  14.778  0.0968  0.0484  0.1440
  786MPD2    C411643   2.448   4.456  14.719 -0.2149 -0.0307  0.0310
  786MPD2    C511644   2.465   4.460  14.584 -0.1893  0.7664 -0.3370
  786MPD2     H11645   2.175   4.267  14.723 -0.4475  1.6609  0.4068
  786MPD2    H111646   2.518   4.516  14.776 -0.1549  0.2447 -0.3331
  786MPD2    H211647   2.406   4.393  14.393  0.9175  2.6226 -0.5993
  786MPD2    H311648   2.552   4.507  14.539 -1.1658 -1.9607 -5.0491
  786MPD2     N11649   2.340   4.386  14.920 -0.5065  0.5312  0.3690
  786MPD2    H511650   2.412   4.430  14.976  0.6597 -1.4705  0.4515
  786MPD2    N111651   2.178   4.253  14.460 -0.0715 -0.0270  0.5534
  786MPD2    H711652   2.110   4.205  14.517 -0.5054 -1.3963 -1.1356
  787MPD2     C11653   1.966   3.634  14.547  0.0203  0.0225  0.2433
  787MPD2    C111654   2.085   3.676  14.488 -0.1345  0.1810 -0.0505
  787MPD2    C211655   2.200   3.633  14.547 -0.1846 -0.5384 -0.2391
  787MPD2    C311656   2.206   3.541  14.651 -0.8183  0.0234  1.0664
  787MPD2    C411657   2.085   3.518  14.716 -0.1481  0.1552  0.8056
  787MPD2    C511658   1.967   3.559  14.657  0.2371 -0.0261 -0.4399
  787MPD2     H11659   2.289   3.668  14.496  0.4392 -1.9096 -0.0975
  787MPD2    H111660   2.085   3.474  14.815  0.0906  1.5347  1.4194
  787MPD2    H211661   1.873   3.671  14.507  2.0364  2.1903 -2.4887
  787MPD2    H311662   1.869   3.529  14.694 -0.5641  1.4430 -1.3783
  787MPD2     N11663   2.331   3.510  14.699 -0.0069  0.2619 -0.3159
  787MPD2    H511664   2.413   3.547  14.652 -0.1723 -0.2211 -0.9926
  787MPD2    N111665   2.088   3.766  14.387  0.2318  0.0757 -0.1851
  787MPD2    H711666   2.178   3.807  14.363 -0.1010  0.9775  0.1286
  788MPD2     C11667   3.901   2.280   0.749 -0.3524  0.1506 -0.9655
  788MPD2    C111668   3.952   2.300   0.620  0.0625  0.1346  0.7934
  788MPD2    C211669   3.985   2.433   0.582  1.2505 -0.4437  0.2737
  788MPD2    C311670   3.958   2.549   0.666 -0.2508 -0.5040 -0.0437
  788MPD2    C411671   3.913   2.520   0.793  0.3445  0.1789  0.4157
  788MPD2    C511672   3.889   2.392   0.833 -0.1869  0.8020 -0.3610
  788MPD2     H11673   4.018   2.454   0.481 -1.0276 -1.3116 -0.6392
  788MPD2    H111674   3.889   2.598   0.864 -0.7841  1.7749 -1.7172
  788MPD2    H211675   3.879   2.189   0.804 -2.0201  0.5793 -0.9396
  788MPD2    H311676   3.849   2.379   0.933 -1.4183  2.9926 -0.5663
  788MPD2     N11677   3.969   2.683   0.619  0.3515 -0.4474  0.5868
  788MPD2    H511678   3.911   2.756   0.658  0.5408 -0.4015  0.7874
  788MPD2    N111679   3.962   2.202   0.521  0.2948  0.1017  0.3586
  788MPD2    H711680   4.009   2.217   0.432  2.4259  0.1285  1.4826
  789MPD2     C11681   3.787   1.980  17.146 -0.2234  0.5621 -0.2954
  789MPD2    C111682   3.735   1.989  17.020  0.0117 -0.2309  0.4846
  789MPD2    C211683   3.667   2.108  16.985  0.0352 -0.1022  0.3323
  789MPD2    C311684   3.638   2.210  17.072 -0.1765  0.2354  0.0411
  789MPD2    C411685   3.690   2.186  17.198  0.0071 -0.2439 -0.5094
  789MPD2    C511686   3.763   2.078  17.238  0.2059  0.0266  0.3097
  789MPD2     H11687   3.621   2.114  16.887  0.6224 -0.9065  0.0128
  789MPD2    H111688   3.667   2.251  17.281 -0.7202  1.2189 -1.8687
  789MPD2    H211689   3.843   1.898  17.188  1.1849  1.3707 -0.5949
  789MPD2    H311690   3.805   2.081  17.338 -1.3944 -0.8628  1.0037
  789MPD2     N11691   3.561   2.326  17.046 -0.0723  0.2650  0.2392
  789MPD2    H511692   3.552   2.395  17.120 -1.0601 -0.5697  0.8934
  789MPD2    N111693   3.741   1.894  16.919  0.3521 -0.5443  0.3740
  789MPD2    H711694   3.719   1.926  16.825  1.1703  0.3038  0.4696
  790MPD2     C11695   0.008   3.754  13.341 -0.1092 -0.6321  0.1038
  790MPD2    C111696   0.147   3.749  13.339 -0.2385 -0.4898 -0.1929
  790MPD2    C211697   0.208   3.673  13.246  0.0794  0.6216 -0.7453
  790MPD2    C311698   0.132   3.581  13.170  0.4167 -0.0681  0.1517
  790MPD2    C411699   4.738   3.572  13.191  0.7761 -0.0084  0.1908
  790MPD2    C511700   4.674   3.657  13.279 -0.3758  0.0292 -0.2820
  790MPD2     H11701   0.316   3.683  13.234  0.0063  2.1311 -0.0956
  790MPD2    H111702   4.677   3.495  13.146 -1.2698  0.9304  1.3666
  790MPD2    H211703   4.692   3.823  13.401  1.8685 -1.0495  2.4427
  790MPD2    H311704   4.567   3.662  13.293 -0.3456  2.1795 -0.7353
  790MPD2     N11705   0.181   3.501  13.066 -0.1791 -0.0168 -0.3069
  790MPD2    H511706   0.116   3.430  13.031  0.5715 -0.1238 -1.4892
  790MPD2    N111707   0.214   3.843  13.429 -0.2486  1.0132 -0.5215
  790MPD2    H711708   0.152   3.897  13.489  0.0644 -0.3899  1.0742
  791MPD2     C11709   0.142   3.502  12.227  0.7198 -0.5855 -0.2318
  791MPD2    C111710   0.104   3.436  12.342 -0.2781  0.1437  0.1087
  791MPD2    C211711   4.721   3.377  12.342  0.0754 -0.1425  0.1159
  791MPD2    C311712   4.631   3.380  12.233  0.3965 -0.1800  0.2830
  791MPD2    C411713   4.672   3.458  12.122 -0.5140  0.0135 -0.5415
  791MPD2    C511714   0.060   3.507  12.118 -0.8291 -0.1609  0.7155
  791MPD2     H11715   4.685   3.323  12.429 -0.9886 -1.5871 -1.2116
  791MPD2    H111716   4.611   3.474  12.034 -2.2394 -1.7904  0.3529
  791MPD2    H211717   0.240   3.548  12.231 -0.8361  2.7155  0.3326
  791MPD2    H311718   0.086   3.558  12.026 -1.2756  1.4506  1.4873
  791MPD2     N11719   4.499   3.326  12.254 -0.7264  0.5054  0.1567
  791MPD2    H511720   4.492   3.267  12.337 -0.6289  0.3081  0.0245
  791MPD2    N111721   0.181   3.454  12.457  0.3424  0.4768  0.0677
  791MPD2    H711722   0.274   3.492  12.450 -0.2129  1.7478 -0.4904
  792MPD2     C11723   0.391   3.529  11.001 -0.2702 -0.3816  0.0996
  792MPD2    C111724   0.490   3.455  10.952  0.3695  0.1122 -0.4683
  792MPD2    C211725   0.459   3.330  10.885  0.8627  0.2026 -0.1498
  792MPD2    C311726   0.332   3.285  10.888 -0.6051  0.2014  0.6185
  792MPD2    C411727   0.237   3.356  10.957 -0.1037 -0.8445  0.3564
  792MPD2    C511728   0.263   3.483  11.000 -0.9690  0.1759  0.1319
  792MPD2     H11729   0.541   3.281  10.833 -0.9983 -0.5892 -2.3469
  792MPD2    H111730   0.140   3.315  10.984 -0.3115 -0.5494  0.0662
  792MPD2    H211731   0.413   3.630  11.035  0.4462 -0.4419 -0.1968
  792MPD2    H311732   0.191   3.544  11.055  1.5474  4.1490 -1.0243
  792MPD2     N11733   0.302   3.163  10.829 -0.0869 -0.7292 -0.6674
  792MPD2    H511734   0.206   3.130  10.827 -0.4735  0.0246  3.6100
  792MPD2    N111735   0.608   3.522  10.937  0.4097 -0.1515 -0.4264
  792MPD2    H711736   0.615   3.620  10.959  0.3828  0.0821 -1.4728
  793MPD2     C11737   0.113   3.397  10.119  0.2945  0.0275 -0.0800
  793MPD2    C111738   0.222   3.407  10.207 -0.1538  0.1950 -0.0302
  793MPD2    C211739   0.252   3.306  10.296  0.1876  0.3875  0.1884
  793MPD2    C311740   0.182   3.188  10.295 -0.7333 -0.7196 -0.0674
  793MPD2    C411741   0.070   3.187  10.208  0.1237  0.1572  0.2851
  793MPD2    C511742   0.029   3.289  10.134  0.3056  0.1881  0.3762
  793MPD2     H11743   0.326   3.322  10.374  2.8051  1.1267 -2.4293
  793MPD2    H111744   0.008   3.099  10.215 -1.4366  1.1671 -1.0518
  793MPD2    H211745   0.091   3.476  10.047 -0.8645  1.5158  1.9167
  793MPD2    H311746   4.682   3.280  10.071 -0.1147 -0.5551  1.0630
  793MPD2     N11747   0.218   3.086  10.391  0.2032 -0.2085 -0.0583
  793MPD2    H511748   0.298   3.109  10.449 -0.9122  1.0122  0.9774
  793MPD2    N111749   0.304   3.520  10.210  0.0046 -0.0426  0.6596
  793MPD2    H711750   0.369   3.518  10.288 -1.0005 -2.8526  1.4142
  794MPD2     C11751   0.101   3.006   0.125  0.0660  0.1608 -0.1431
  794MPD2    C111752   0.173   2.893   0.081 -0.0222  0.8833  0.0613
  794MPD2    C211753   0.231   2.897  17.719 -0.2682 -0.2893  0.5575
  794MPD2    C311754   0.222   3.012  17.643  0.1869  0.1602 -0.2559
  794MPD2    C411755   0.155   3.122  17.689 -0.4199  0.0953 -0.0373
  794MPD2    C511756   0.099   3.120   0.046 -0.5225 -0.5658  0.4488
  794MPD2     H11757   0.283   2.806  17.691 -0.1522 -0.4193  1.1854
  794MPD2    H111758   0.145   3.213  17.631  0.2466  0.6088  0.6393
  794MPD2    H211759   0.063   3.012   0.226 -0.1724 -1.6473 -0.1342
  794MPD2    H311760   0.040   3.202   0.085 -0.6485 -0.6404  0.4141
  794MPD2     N11761   0.267   3.025  17.507 -0.2839 -0.2729  0.2607
  794MPD2    H511762   0.250   3.112  17.459 -1.2912 -1.0053 -0.7009
  794MPD2    N111763   0.188   2.783   0.166  0.0143  0.1115  0.3241
  794MPD2    H711764   0.253   2.710   0.140 -0.8154 -0.1594 -1.0077
  795MPD2     C11765   2.360   0.453  13.704  0.4581 -0.9628  0.4297
  795MPD2    C111766   2.340   0.397  13.581  0.4685 -0.3706 -0.3519
  795MPD2    C211767   2.446   0.324  13.521 -0.8422  0.1382 -0.8598
  795MPD2    C311768   2.570   0.307  13.579  0.4364  0.4246  0.6611
  795MPD2    C411769   2.582   0.372  13.706  0.0456  0.9621  0.1253
  795MPD2    C511770   2.484   0.443  13.766  0.1455  0.6283  0.3511
  795MPD2     H11771   2.424   0.272  13.429  1.5352 -2.2993 -0.0576
  795MPD2    H111772   2.674   0.367  13.763  1.7695 -0.0856 -2.7596
  795MPD2    H211773   2.271   0.483  13.758 -0.2159 -1.0006 -0.6686
  795MPD2    H311774   2.496   0.465  13.871 -0.0420 -1.7815  0.8582
  795MPD2     N11775   2.668   0.234  13.510  0.0167  0.0160 -0.6804
  795MPD2    H511776   2.644   0.199  13.418 -2.1707 -1.3703  0.4125
  795MPD2    N111777   2.208   0.395  13.524 -0.8026 -0.1563 -0.8776
  795MPD2    H711778   2.180   0.321  13.460  0.9898 -0.5590 -1.1890
  796MPD2     C11779   2.456   1.853  15.423 -0.5400  0.6072 -0.0461
  796MPD2    C111780   2.498   1.942  15.509 -0.1108 -0.4099 -0.0454
  796MPD2    C211781   2.469   2.077  15.485  0.1490 -0.2632 -0.4312
  796MPD2    C311782   2.384   2.114  15.382  0.0738 -0.0389  0.5092
  796MPD2    C411783   2.344   2.017  15.293  0.3782  0.3925 -0.3313
  796MPD2    C511784   2.386   1.890  15.308  0.4270  0.6043  0.6345
  796MPD2     H11785   2.505   2.155  15.550  0.1052 -0.1328 -0.5622
  796MPD2    H111786   2.288   2.036  15.202 -1.1749  1.0405  0.7523
  796MPD2    H211787   2.495   1.751  15.423  0.3531  0.9574  0.6695
  796MPD2    H311788   2.369   1.816  15.231 -1.5872 -0.1291  1.7900
  796MPD2     N11789   2.345   2.251  15.382 -0.7009 -0.0355 -0.6293
  796MPD2    H511790   2.379   2.313  15.455  1.1202 -0.8797 -0.7413
  796MPD2    N111791   2.564   1.889  15.624  0.4648  0.1566  0.2600
  796MPD2    H711792   2.564   1.789  15.646 -1.2519  0.7523  2.9037
  797MPD2     C11793   2.978   1.490  17.205 -0.5995  0.7209  0.0619
  797MPD2    C111794   3.045   1.597  17.246  0.2274 -0.1807  0.1854
  797MPD2    C211795   3.028   1.716  17.169 -0.0837 -0.5616 -0.0855
  797MPD2    C311796   2.945   1.720  17.063  0.9857  0.2336  0.2682
  797MPD2    C411797   2.903   1.603  17.006 -0.3618 -0.0685 -0.1368
  797MPD2    C511798   2.908   1.498  17.087  0.1642 -0.4273 -0.0027
  797MPD2     H11799   3.065   1.807  17.214 -0.3218 -0.6877  0.3698
  797MPD2    H111800   2.845   1.602  16.914 -0.9611 -1.5921  0.2651
  797MPD2    H211801   2.972   1.395  17.257 -0.6241 -0.2198 -1.6446
  797MPD2    H311802   2.865   1.404  17.057 -2.0604  1.1992 -1.8621
  797MPD2     N11803   2.919   1.843  16.994 -0.2949 -0.0813 -0.2049
  797MPD2    H511804   2.880   1.825  16.902  0.9684 -1.6696 -0.4287
  797MPD2    N111805   3.135   1.609  17.357 -0.1008  0.3014  0.1407
  797MPD2    H711806   3.181   1.699  17.369  0.2113  0.1723 -0.0999
  798MPD2     C11807   3.337   2.306  17.327  0.3465 -0.0374 -0.3884
  798MPD2    C111808   3.229   2.220  17.303  0.2128 -0.4927 -0.2611
  798MPD2    C211809   3.211   2.118  17.386 -0.4008  0.1593  0.4758
  798MPD2    C311810   3.293   2.093  17.491  0.0865  0.0439 -0.7179
  798MPD2    C411811   3.393   2.184  17.526  0.1054 -0.3316  0.3944
  798MPD2    C511812   3.412   2.288  17.440  0.0806  0.3207  0.2309
  798MPD2     H11813   3.136   2.045  17.357  1.1174 -1.5588  0.8080
  798MPD2    H111814   3.455   2.178  17.615  1.9244 -2.8580 -1.0436
  798MPD2    H211815   3.348   2.391  17.261 -0.5578  0.3617 -0.0336
  798MPD2    H311816   3.495   2.352  17.468  2.2669 -1.5389 -1.9755
  798MPD2     N11817   3.260   1.976  17.558  0.0782 -0.4070  0.1495
  798MPD2    H511818   3.179   1.922  17.528 -0.7009  2.1463 -2.3395
  798MPD2    N111819   3.135   2.226  17.190 -0.9357 -0.1910  0.2277
  798MPD2    H711820   3.077   2.143  17.178 -1.5121  0.2334  0.0465
  799MPD2     C11821   2.184   3.098  14.627 -0.1635 -0.6051 -0.1521
  799MPD2    C111822   2.182   3.000  14.538 -0.2250  0.3396  0.5220
  799MPD2    C211823   2.102   3.016  14.430 -0.0485  0.3219  0.2593
  799MPD2    C311824   2.037   3.135  14.400 -0.0550 -1.0464 -0.4966
  799MPD2    C411825   2.048   3.237  14.494 -0.5724 -0.2871  0.4138
  799MPD2    C511826   2.115   3.214  14.603 -0.2354  0.5258  0.0732
  799MPD2     H11827   2.097   2.939  14.354 -0.8632  1.5660 -0.9489
  799MPD2    H111828   2.001   3.334  14.475  0.7591  0.0236 -1.2753
  799MPD2    H211829   2.250   3.095  14.713 -0.4894 -1.3761  0.0691
  799MPD2    H311830   2.118   3.281  14.689 -0.0168 -0.3161  0.7282
  799MPD2     N11831   1.954   3.148  14.288 -0.1899  0.5038  0.2017
  799MPD2    H511832   1.922   3.236  14.251 -1.5310  0.0650  0.3244
  799MPD2    N111833   2.262   2.887  14.546  0.6690 -0.0057 -0.2411
  799MPD2    H711834   2.236   2.810  14.485  0.2963 -0.3729  0.3763
  800MPD2     C11835   2.374   4.021  13.714  0.2962 -0.4535  0.1752
  800MPD2    C111836   2.464   4.102  13.643  0.2219 -0.4558  0.2209
  800MPD2    C211837   2.434   4.134  13.515  0.5341 -0.0265 -0.0365
  800MPD2    C311838   2.333   4.077  13.437 -0.0735 -0.2494 -1.0959
  800MPD2    C411839   2.234   4.008  13.511  0.3902 -0.3100  0.1667
  800MPD2    C511840   2.255   3.986  13.653  0.5023 -0.0346 -0.6720
  800MPD2     H11841   2.513   4.189  13.465  1.4808 -0.8094  0.6010
  800MPD2    H111842   2.148   3.970  13.456 -0.0695  0.7224  0.1737
  800MPD2    H211843   2.391   3.997  13.818  0.7790  1.3430  0.5153
  800MPD2    H311844   2.173   3.940  13.705  1.6367  2.6931  3.4943
  800MPD2     N11845   2.331   4.101  13.296 -0.5454  0.2305  0.1740
  800MPD2    H511846   2.405   4.164  13.268  0.4969  0.3949  3.2966
  800MPD2    N111847   2.576   4.163  13.703 -0.2850  0.2897 -0.1529
  800MPD2    H711848   2.634   4.207  13.632 -2.8987  2.9802 -0.6034
  801MPD2     C11849   2.868   0.086  13.895 -0.7352 -0.5206  0.8373
  801MPD2    C111850   2.849   4.718  13.982 -0.4273 -0.0746  0.1071
  801MPD2    C211851   2.808   0.003  14.109  0.0084  0.5178 -0.0546
  801MPD2    C311852   2.790   0.134  14.149  0.5737 -0.0051  0.2590
  801MPD2    C411853   2.814   0.239  14.069  0.4833  0.0332 -0.3037
  801MPD2    C511854   2.852   0.215  13.940  0.0053 -0.7533 -0.2115
  801MPD2     H11855   2.774   4.667  14.177  1.5488 -0.6305 -0.6022
  801MPD2    H111856   2.802   0.341  14.102 -1.5602 -0.5248  0.6682
  801MPD2    H211857   2.897   0.060  13.794 -0.5233  2.7635  0.0644
  801MPD2    H311858   2.876   0.299  13.875  2.1002 -0.8363  0.4524
  801MPD2     N11859   2.746   0.161  14.285 -0.9184  0.6146  0.0233
  801MPD2    H511860   2.689   0.244  14.295  0.4679  1.5161  0.4695
  801MPD2    N111861   2.853   4.581  13.943 -0.1332 -0.3822  0.1691
  801MPD2    H711862   2.856   4.514  14.020  1.3503 -0.1226  0.3305
  802MPD2     C11863   1.847   1.649   0.052 -0.7619  0.0973 -1.0923
  802MPD2    C111864   1.837   1.516   0.083 -0.2403 -0.0176  0.0164
  802MPD2    C211865   1.905   1.417   0.015  0.1978 -0.0779 -0.9462
  802MPD2    C311866   1.994   1.465  17.686 -0.0410 -0.4595 -0.8960
  802MPD2    C411867   2.022   1.599  17.669  0.0781  0.1456 -0.2682
  802MPD2    C511868   1.953   1.698  17.740  0.7351  0.7501 -0.1884
  802MPD2     H11869   1.887   1.311   0.025  1.1288 -0.1513 -0.0136
  802MPD2    H111870   2.097   1.637  17.600 -0.1718  2.6525  0.8553
  802MPD2    H211871   1.790   1.725   0.103  1.4607 -0.5565  2.3352
  802MPD2    H311872   1.973   1.803  17.725  5.6630 -0.1007  0.3972
  802MPD2     N11873   2.073   1.364  17.624 -0.2961  0.7575  0.7776
  802MPD2    H511874   2.063   1.271  17.662  2.5105 -0.4998 -1.5418
  802MPD2    N111875   1.742   1.465   0.169  0.3833 -0.6806  0.6412
  802MPD2    H711876   1.721   1.367   0.183  0.7139 -1.2577 -2.9324
  803MPD2     C11877   3.538   4.087  11.468  0.2349 -0.5767  0.2082
  803MPD2    C111878   3.589   4.035  11.581  0.8722  0.2363  0.2592
  803MPD2    C211879   3.526   3.931  11.645  0.5544 -0.0056 -0.2774
  803MPD2    C311880   3.409   3.881  11.599 -0.8582  0.1577  0.8597
  803MPD2    C411881   3.350   3.932  11.486  0.1141 -0.0241  0.3488
  803MPD2    C511882   3.423   4.037  11.425  0.6781 -1.0100 -0.0234
  803MPD2     H11883   3.580   3.890  11.730 -2.6691 -0.9930  1.2929
  803MPD2    H111884   3.249   3.910  11.454 -0.2039 -0.4502  1.6181
  803MPD2    H211885   3.581   4.170  11.413 -1.1853 -0.3867 -0.6150
  803MPD2    H311886   3.379   4.082  11.337 -1.1616 -0.7282  1.0341
  803MPD2     N11887   3.356   3.779  11.665  0.4812  0.2915  0.3747
  803MPD2    H511888   3.258   3.766  11.642  0.2736  0.6639  1.0481
  803MPD2    N111889   3.708   4.075  11.645  0.3999 -0.2990 -0.2420
  803MPD2    H711890   3.721   4.046  11.741 -1.2849 -2.8849 -0.7794
  804MPD2     C11891   2.564   0.365  16.950  0.3048 -0.6067  0.0068
  804MPD2    C111892   2.564   0.323  17.084  0.5178 -0.1587  0.1773
  804MPD2    C211893   2.640   0.392  17.171  0.4642  0.4625  0.1432
  804MPD2    C311894   2.710   0.507  17.138 -0.2783  0.0932 -0.3390
  804MPD2    C411895   2.703   0.546  17.009 -0.1995 -0.0684 -0.3081
  804MPD2    C511896   2.642   0.471  16.910  0.8252  0.1082 -0.7718
  804MPD2     H11897   2.639   0.364  17.276 -0.7755 -0.2050 -0.0465
  804MPD2    H111898   2.741   0.641  16.974  0.5659 -0.5696 -0.8118
  804MPD2    H211899   2.511   0.315  16.870  0.2491 -0.0512 -0.3090
  804MPD2    H311900   2.649   0.502  16.807  0.9359  1.1965 -0.4295
  804MPD2     N11901   2.787   0.571  17.243  0.3097 -0.2005 -0.3648
  804MPD2    H511902   2.781   0.534  17.337  1.0620 -2.2260 -1.1117
  804MPD2    N111903   2.503   0.199  17.125  0.3075  0.0549  0.1235
  804MPD2    H711904   2.491   0.176  17.223  0.7280 -1.1874 -0.1210
  805MPD2     C11905   1.694   3.377  15.479 -0.3299  0.1906 -0.4311
  805MPD2    C111906   1.810   3.360  15.397 -0.4796 -0.9057  0.1091
  805MPD2    C211907   1.937   3.349  15.456 -0.1380 -0.3246  0.7481
  805MPD2    C311908   1.949   3.354  15.596 -1.2174  0.2137 -0.4960
  805MPD2    C411909   1.835   3.368  15.668  0.0727 -0.5596  0.0777
  805MPD2    C511910   1.706   3.380  15.614 -0.3915  0.5504  0.3825
  805MPD2     H11911   2.026   3.334  15.396  0.9970 -1.7178  2.7812
  805MPD2    H111912   1.838   3.379  15.775  0.0412  4.5647 -0.4402
  805MPD2    H211913   1.598   3.396  15.432 -0.4786  1.8455  0.5865
  805MPD2    H311914   1.618   3.391  15.676 -0.7323  0.6459 -0.1178
  805MPD2     N11915   2.081   3.355  15.653  0.4386  0.1284 -0.4581
  805MPD2    H511916   2.157   3.335  15.589  0.5593 -0.8284 -0.0193
  805MPD2    N111917   1.804   3.367  15.256  0.6316 -0.0081 -0.1903
  805MPD2    H711918   1.885   3.333  15.206  1.7049  0.4287  1.2427
  806MPD2     C11919   1.919   2.364   0.847 -0.4541  0.1246 -0.7356
  806MPD2    C111920   2.050   2.390   0.873  1.3580  0.9830  0.9969
  806MPD2    C211921   2.141   2.388   0.770 -0.1334 -0.4534  0.6904
  806MPD2    C311922   2.104   2.327   0.650  0.1376  0.1530 -0.2914
  806MPD2    C411923   1.975   2.299   0.619  0.4440  0.4749 -1.0386
  806MPD2    C511924   1.888   2.325   0.719 -0.4918 -0.4759  0.1378
  806MPD2     H11925   2.246   2.410   0.785  0.1950  1.1217 -3.9891
  806MPD2    H111926   1.938   2.253   0.528 -0.7080 -0.6596 -0.0132
  806MPD2    H211927   1.839   2.372   0.920  0.1756 -1.7064  0.1478
  806MPD2    H311928   1.785   2.295   0.703 -0.8513  1.2070 -0.7574
  806MPD2     N11929   2.208   2.298   0.555 -0.0827  0.3159  0.3270
  806MPD2    H511930   2.298   2.342   0.567 -1.4094  2.0770  3.9602
  806MPD2    N111931   2.083   2.420   0.999 -0.3504 -0.3067  0.0034
  806MPD2    H711932   1.999   2.439   1.053  0.4242 -2.5358  1.9724
  807MPD2     C11933   1.704   2.590   1.555 -0.3329 -0.9230 -0.3458
  807MPD2    C111934   1.757   2.480   1.490  0.5625 -0.0717 -0.0208
  807MPD2    C211935   1.684   2.363   1.472  0.1725 -0.0732 -0.4131
  807MPD2    C311936   1.557   2.354   1.528 -0.3479  0.0066 -0.0729
  807MPD2    C411937   1.503   2.468   1.585  0.0345  0.0704  0.9440
  807MPD2    C511938   1.573   2.587   1.595  0.3813  0.0405 -0.3863
  807MPD2     H11939   1.733   2.280   1.422 -1.2230 -2.2741  1.8741
  807MPD2    H111940   1.401   2.463   1.621 -0.9377  2.0537 -1.4917
  807MPD2    H211941   1.762   2.681   1.555 -2.1755  0.2509  0.4204
  807MPD2    H311942   1.527   2.674   1.641 -0.4384  0.5694 -2.1848
  807MPD2     N11943   1.485   2.236   1.525  0.4874 -0.0903 -0.0919
  807MPD2    H511944   1.533   2.156   1.485 -3.0110 -2.1649 -0.1609
  807MPD2    N111945   1.889   2.479   1.443  0.2102 -0.6101 -0.5656
  807MPD2    H711946   1.922   2.413   1.374 -1.9334 -1.7859 -0.4378
  808MPD2     C11947   3.405   3.854  10.477  0.7317 -0.0614  0.0983
  808MPD2    C111948   3.305   3.879  10.378 -0.1592 -0.1974 -0.1993
  808MPD2    C211949   3.343   3.957  10.269 -0.5258  0.5476  0.3466
  808MPD2    C311950   3.479   3.992  10.248  0.6451 -0.5530 -0.0007
  808MPD2    C411951   3.565   3.968  10.347 -0.3849 -0.2060  0.3715
  808MPD2    C511952   3.536   3.899  10.463  0.1167  0.8848 -0.5498
  808MPD2     H11953   3.265   3.985  10.199 -0.7977  0.4358  0.6007
  808MPD2    H111954   3.668   4.002  10.342 -1.1632  1.9992 -0.8741
  808MPD2    H211955   3.371   3.812  10.571 -0.3117  0.3480 -0.0885
  808MPD2    H311956   3.606   3.872  10.541  0.6429  0.9917 -0.9888
  808MPD2     N11957   3.520   4.073  10.142 -0.6600  0.0765  0.1380
  808MPD2    H511958   3.621   4.082  10.133 -0.9182  2.0481 -0.7559
  808MPD2    N111959   3.176   3.841  10.404  0.4596 -0.0632  0.0994
  808MPD2    H711960   3.106   3.870  10.337  0.1376 -3.6680 -1.1522
  809MPD2     C11961   3.954   3.965   9.209 -0.6577  0.4050  0.0508
  809MPD2    C111962   3.918   3.885   9.323  0.5175  0.4666  0.0821
  809MPD2    C211963   3.845   3.950   9.421  0.1594  0.1403 -0.0971
  809MPD2    C311964   3.797   4.082   9.409 -0.6136 -0.6249 -0.3422
  809MPD2    C411965   3.838   4.156   9.301  0.2428  0.0081  0.0553
  809MPD2    C511966   3.917   4.098   9.205 -0.1621  0.0007 -0.5986
  809MPD2     H11967   3.815   3.887   9.504  1.6395 -0.9276 -0.3636
  809MPD2    H111968   3.812   4.260   9.283 -2.5618 -0.6946  0.0194
  809MPD2    H211969   4.020   3.927   9.132  0.7886 -1.0162  1.9622
  809MPD2    H311970   3.950   4.161   9.123  1.0916  3.8053  2.8534
  809MPD2     N11971   3.707   4.146   9.506 -0.5838  0.0838  0.4506
  809MPD2    H511972   3.690   4.245   9.497  3.1862  0.5449 -1.8315
  809MPD2    N111973   3.945   3.751   9.334 -0.2601  1.1237  0.0454
  809MPD2    H711974   3.920   3.714   9.425  1.2245 -0.7118 -0.2986
  810MPD2     C11975   2.564   3.399  10.737 -0.8150  0.7133  0.0735
  810MPD2    C111976   2.446   3.426  10.669 -0.0435 -0.3722  0.3372
  810MPD2    C211977   2.400   3.550  10.639  0.7963  0.0520  0.2342
  810MPD2    C311978   2.475   3.664  10.675  0.2846  0.5124  0.5065
  810MPD2    C411979   2.588   3.640  10.748  0.5225 -0.1984 -0.2278
  810MPD2    C511980   2.636   3.514  10.771 -0.6308  0.4072 -0.9070
  810MPD2     H11981   2.324   3.565  10.563  1.1402 -2.5970 -0.6079
  810MPD2    H111982   2.637   3.725  10.795  1.3568  0.3609 -2.0869
  810MPD2    H211983   2.600   3.301  10.767  1.3149  1.3758 -0.3133
  810MPD2    H311984   2.710   3.510  10.849 -1.3573 -1.1690 -0.3186
  810MPD2     N11985   2.439   3.797  10.644  0.3865  0.3662 -0.3779
  810MPD2    H511986   2.509   3.862  10.675  1.2597 -1.3933  1.3313
  810MPD2    N111987   2.371   3.319  10.614 -0.3044 -0.0663 -0.5435
  810MPD2    H711988   2.296   3.345  10.551 -0.9445  0.5493  0.4737
  811MPD2     C11989   1.756   2.989  10.105  0.6661 -0.1204  0.0276
  811MPD2    C111990   1.868   3.069  10.131  0.5441 -0.3783 -0.2810
  811MPD2    C211991   1.894   3.171  10.046  1.0770  0.1976  0.3880
  811MPD2    C311992   1.809   3.211   9.945  0.0100 -0.5578 -0.1489
  811MPD2    C411993   1.689   3.149   9.934 -0.0852  0.2576 -0.1407
  811MPD2    C511994   1.664   3.040  10.013 -0.1695 -0.1370  0.2020
  811MPD2     H11995   1.990   3.223  10.047  1.5192 -0.6095 -0.3474
  811MPD2    H111996   1.609   3.181   9.870  0.4632  0.6530 -0.6276
  811MPD2    H211997   1.730   2.899  10.159 -0.4511 -0.5305 -1.1802
  811MPD2    H311998   1.570   2.985  10.003  0.4299 -1.1713  0.2204
  811MPD2     N11999   1.852   3.314   9.866  0.3697  0.2513 -1.0442
  811MPD2    H512000   1.947   3.345   9.881  0.1953  0.0214  0.5240
  811MPD2    N112001   1.955   3.035  10.239  0.6946  0.1794  0.0917
  811MPD2    H712002   1.926   2.951  10.287  1.3463  0.2384  0.5835
  812MPD2     C12003   1.023   3.367  12.076  1.0491 -0.4689  0.0985
  812MPD2    C112004   1.053   3.418  12.200  0.0122 -0.7224  0.6660
  812MPD2    C212005   1.055   3.324  12.304  0.4282  0.0208  0.5366
  812MPD2    C312006   1.055   3.187  12.289 -0.0763  0.3533  0.0760
  812MPD2    C412007   1.043   3.144  12.155 -0.1614  0.5394  0.9813
  812MPD2    C512008   1.023   3.232  12.053  0.6040  0.2751 -0.1874
  812MPD2     H12009   1.053   3.353  12.409  1.0140 -1.2430  0.9005
  812MPD2    H112010   1.055   3.042  12.123  0.7993  1.2450 -0.9055
  812MPD2    H212011   1.009   3.433  11.991 -2.2933  1.4702  2.1590
  812MPD2    H312012   1.017   3.187  11.954  0.8485  1.8490 -0.9227
  812MPD2     N12013   1.107   3.109  12.395  0.0149  0.3933  0.0596
  812MPD2    H512014   1.142   3.159  12.477 -2.0305 -1.2935  1.9836
  812MPD2    N112015   1.053   3.559  12.218 -0.1289 -0.6125 -0.2410
  812MPD2    H712016   1.053   3.618  12.135  1.3123  0.3702  0.4565
  813MPD2     C12017   0.033   0.601  13.026  0.6053  0.6682  0.7897
  813MPD2    C112018   0.113   0.716  13.029 -0.0831 -0.9281  0.4049
  813MPD2    C212019   0.095   0.799  13.138 -0.6339  0.3901 -0.2012
  813MPD2    C312020   0.004   0.774  13.236 -0.4296  0.0517  0.1313
  813MPD2    C412021   4.662   0.667  13.231 -0.7531  0.1123  0.4084
  813MPD2    C512022   4.675   0.588  13.123  0.0234 -0.5658 -0.0547
  813MPD2     H12023   0.156   0.889  13.139 -2.5295  1.6632  0.4855
  813MPD2    H112024   4.599   0.643  13.316 -0.4369 -0.9333  0.3553
  813MPD2    H212025   0.048   0.534  12.942 -2.3912  1.0172 -0.0374
  813MPD2    H312026   4.616   0.498  13.108 -2.4869  0.7825  1.7676
  813MPD2     N12027   4.731   0.876  13.336  0.8668 -0.3719 -0.5594
  813MPD2    H512028   0.059   0.950  13.333  0.7292 -0.2534 -0.8384
  813MPD2    N112029   0.219   0.722  12.939 -0.3295  0.3578  0.6657
  813MPD2    H712030   0.233   0.641  12.881 -1.3591  1.1881 -0.7443
  814MPD2     C12031   0.466   2.149  11.970  0.4479  0.3408  0.4195
  814MPD2    C112032   0.582   2.103  11.921  0.9154 -0.3631 -0.7352
  814MPD2    C212033   0.699   2.174  11.947 -0.5744  0.0347  0.1704
  814MPD2    C312034   0.695   2.289  12.023  0.2232 -0.3426 -0.3015
  814MPD2    C412035   0.576   2.334  12.079 -0.7580 -0.0333 -0.5839
  814MPD2    C512036   0.465   2.263  12.049 -0.7151  0.0995 -0.1352
  814MPD2     H12037   0.797   2.141  11.916  0.2977  0.1504  2.8136
  814MPD2    H112038   0.562   2.417  12.148 -3.0052 -1.0915  0.2241
  814MPD2    H212039   0.374   2.098  11.946 -0.0318 -0.0273  3.0973
  814MPD2    H312040   0.369   2.288  12.092  0.0466  1.2683  0.8827
  814MPD2     N12041   0.811   2.363  12.055  0.1852  0.5720 -0.0355
  814MPD2    H512042   0.802   2.442  12.118  0.3611  0.3783  0.2372
  814MPD2    N112043   0.591   1.996  11.829  0.1416 -0.0024  0.4030
  814MPD2    H712044   0.675   1.991  11.773  1.3698 -1.4816  2.3876
  815MPD2     C12045   1.425   4.276  11.940 -0.0385  0.6556 -0.0274
  815MPD2    C112046   1.319   4.302  11.864 -0.8834 -1.3692  0.1907
  815MPD2    C212047   1.207   4.345  11.925 -0.6168  0.3130  0.1744
  815MPD2    C312048   1.203   4.350  12.064  0.2195  0.5225  0.1852
  815MPD2    C412049   1.313   4.315  12.139  0.2432 -0.8297  0.0509
  815MPD2    C512050   1.430   4.271  12.074 -0.0280  1.0422  0.1886
  815MPD2     H12051   1.123   4.382  11.867 -0.5163 -0.9290 -0.7559
  815MPD2    H112052   1.303   4.307  12.247  3.6092  0.8893  0.4744
  815MPD2    H212053   1.521   4.259  11.893  0.7000 -0.9251  2.0478
  815MPD2    H312054   1.527   4.242  12.113  0.4256 -0.2296 -1.8902
  815MPD2     N12055   1.077   4.400  12.114  0.5256  0.0895 -0.1047
  815MPD2    H512056   1.006   4.407  12.041  0.0762 -1.1085  0.2132
  815MPD2    N112057   1.341   4.293  11.723 -0.1718  0.5032 -0.1717
  815MPD2    H712058   1.434   4.274  11.687 -0.3771  1.1618 -1.0401
  816MPD2     C12059   1.685   4.370  17.171  0.3605 -0.0089  0.0933
  816MPD2    C112060   1.600   4.396  17.063 -0.2313 -0.0949  0.1037
  816MPD2    C212061   1.618   4.327  16.940  0.2705 -0.7246  0.2220
  816MPD2    C312062   1.724   4.240  16.923 -1.2944  0.2155  0.3223
  816MPD2    C412063   1.807   4.216  17.030  0.2011 -0.0181  0.8781
  816MPD2    C512064   1.797   4.287  17.147 -0.8563  0.6421 -0.4196
  816MPD2     H12065   1.554   4.365  16.860 -2.2385 -3.3566  0.9608
  816MPD2    H112066   1.896   4.155  17.021 -0.0284 -0.2582  0.2481
  816MPD2    H212067   1.683   4.425  17.264  1.9059  0.0067  0.1159
  816MPD2    H312068   1.865   4.284  17.232 -1.4411  0.0367  0.0343
  816MPD2     N12069   1.753   4.191  16.793  0.5429 -0.1584  0.0413
  816MPD2    H512070   1.687   4.222  16.722  1.2542 -0.1583 -0.6153
  816MPD2    N112071   1.494   4.488  17.066 -0.5550  0.5507 -0.3961
  816MPD2    H712072   1.441   4.501  16.980  0.4199  2.2413 -0.7370
  817MPD2     C12073   0.175   1.221   9.727 -0.0216 -0.1528 -0.8826
  817MPD2    C112074   0.267   1.229   9.616 -0.1273 -0.2984  0.2947
  817MPD2    C212075   0.244   1.331   9.521  0.0140  0.0570  0.4850
  817MPD2    C312076   0.130   1.412   9.529 -0.4647 -0.2068  0.5821
  817MPD2    C412077   0.044   1.403   9.635 -0.3628  0.7243 -0.4563
  817MPD2    C512078   0.066   1.305   9.725 -0.0145 -0.3681  0.9541
  817MPD2     H12079   0.304   1.342   9.432 -0.3693  0.1502  0.2385
  817MPD2    H112080   4.699   1.467   9.642 -0.3261  0.8328 -1.0340
  817MPD2    H212081   0.184   1.148   9.807 -0.5325 -0.2113 -0.8791
  817MPD2    H312082   4.740   1.294   9.808 -0.3849 -2.6688  0.3408
  817MPD2     N12083   0.116   1.505   9.419 -0.1360  0.6221 -0.5817
  817MPD2    H512084   0.189   1.502   9.349  0.4370  0.6258  0.0173
  817MPD2    N112085   0.388   1.148   9.598 -0.0845  0.0742 -0.0862
  817MPD2    H712086   0.445   1.168   9.517 -1.6125 -2.4683 -1.7473
  818MPD2     C12087   4.467   0.684   9.821  1.1968  0.3066 -0.4078
  818MPD2    C112088   4.425   0.633   9.940 -0.2477  0.1227 -0.0898
  818MPD2    C212089   4.488   0.519   9.991 -0.4412 -0.5396  0.1157
  818MPD2    C312090   4.583   0.453   9.918 -0.2042 -0.2304 -0.7986
  818MPD2    C412091   4.619   0.502   9.795 -0.5233  0.4510  0.3368
  818MPD2    C512092   4.570   0.622   9.752 -0.1498  0.7944  0.9991
  818MPD2     H12093   4.455   0.481  10.087 -0.9642  0.9107  0.5119
  818MPD2    H112094   4.691   0.456   9.729 -0.7005  1.7166 -0.7325
  818MPD2    H212095   4.419   0.768   9.773  1.8361  0.9578  0.0883
  818MPD2    H312096   4.604   0.660   9.656 -0.3251 -1.3830  0.0897
  818MPD2     N12097   4.643   0.331   9.965  0.0475  0.0785 -0.3345
  818MPD2    H512098   4.708   0.280   9.906  1.5853  2.0907 -0.3724
  818MPD2    N112099   4.307   0.677  10.001  0.0443  0.2520  0.0536
  818MPD2    H712100   4.286   0.628  10.087 -1.7046 -1.5432 -1.3913
  819MPD2     C12101   2.617   2.946  15.356 -0.0848 -0.0883  0.0046
  819MPD2    C112102   2.630   2.809  15.344 -0.1522  0.0353  0.0675
  819MPD2    C212103   2.710   2.747  15.442 -0.2144  0.1458 -0.9767
  819MPD2    C312104   2.785   2.825  15.534  0.1142  0.2654 -0.1451
  819MPD2    C412105   2.768   2.960  15.547 -0.0830 -0.5019  0.1296
  819MPD2    C512106   2.679   3.019  15.458  0.6951 -0.8285 -0.1093
  819MPD2     H12107   2.728   2.640  15.442 -1.4166 -0.0505 -0.2515
  819MPD2    H112108   2.824   3.025  15.614  1.9210 -0.1898 -1.8783
  819MPD2    H212109   2.553   3.005  15.293 -0.6356 -0.3468  0.3272
  819MPD2    H312110   2.656   3.125  15.462 -2.0949 -1.5072  2.2442
  819MPD2     N12111   2.883   2.751  15.617  0.3780 -0.6233  0.3148
  819MPD2    H512112   2.898   2.651  15.605  3.3452 -0.2887  1.2156
  819MPD2    N112113   2.563   2.752  15.236  0.0155 -0.2146  0.4215
  819MPD2    H712114   2.511   2.815  15.177 -0.9505 -0.9207  0.5180
  820MPD2     C12115   1.806   2.838  14.616 -0.8664  0.1822  0.6813
  820MPD2    C112116   1.876   2.902  14.716 -0.3461  0.6719 -0.3850
  820MPD2    C212117   1.980   2.841  14.788  0.0303  0.7710 -0.1551
  820MPD2    C312118   2.015   2.713  14.759  0.3897 -0.1374 -0.1036
  820MPD2    C412119   1.944   2.636  14.664 -0.5062 -0.7226 -0.1461
  820MPD2    C512120   1.839   2.705  14.602  0.0235 -0.7680 -0.1257
  820MPD2     H12121   2.021   2.898  14.870  1.8045 -1.3913  0.4825
  820MPD2    H112122   1.964   2.531  14.641  0.8277  0.0077 -2.3868
  820MPD2    H212123   1.733   2.885  14.551 -0.3764 -1.8292 -1.3143
  820MPD2    H312124   1.771   2.655  14.534 -1.4707  0.0610  0.7547
  820MPD2     N12125   2.115   2.645  14.832  0.0392  1.1405  0.4071
  820MPD2    H512126   2.141   2.551  14.804 -1.8347  1.0561 -1.0264
  820MPD2    N112127   1.833   3.038  14.738 -0.2222  0.6117 -0.1182
  820MPD2    H712128   1.757   3.076  14.683  0.5877 -0.0730 -1.7281
  821MPD2     C12129   2.671   4.512  12.908  0.4722  0.0400  0.6098
  821MPD2    C112130   2.735   4.395  12.947  0.0924  0.5692 -0.3794
  821MPD2    C212131   2.869   4.392  12.975  0.1114  0.5883 -0.0684
  821MPD2    C312132   2.944   4.509  12.976 -0.5788 -0.1991 -0.8260
  821MPD2    C412133   2.880   4.623  12.937 -0.0975  0.0203  0.8536
  821MPD2    C512134   2.746   4.627  12.904 -0.3634 -0.5090  0.0309
  821MPD2     H12135   2.918   4.297  12.992 -0.7373 -0.0889 -1.4493
  821MPD2    H112136   2.939   4.714  12.936  0.9598 -0.6372  1.7829
  821MPD2    H212137   2.568   4.518  12.873 -0.1235  0.3926  2.4435
  821MPD2    H312138   2.702   4.720  12.871 -0.5528 -0.3823  0.6381
  821MPD2     N12139   3.080   4.515  13.018  1.0042 -0.1493 -0.4576
  821MPD2    H512140   3.126   4.603  12.997  0.9621 -0.4168 -1.6899
  821MPD2    N112141   2.673   4.270  12.933  0.1665 -0.3081  0.7227
  821MPD2    H712142   2.724   4.182  12.931  0.7834  0.0872 -0.8913
  822MPD2     C12143   3.285   4.323  15.675  0.3568 -0.4935 -0.6918
  822MPD2    C112144   3.282   4.287  15.810 -0.1841  0.2186 -0.1439
  822MPD2    C212145   3.223   4.372  15.899  0.2693  0.3001  0.0938
  822MPD2    C312146   3.173   4.492  15.857 -0.1614  0.2200  0.4282
  822MPD2    C412147   3.165   4.526  15.724 -0.6793 -0.2305  0.4356
  822MPD2    C512148   3.227   4.438  15.639  0.3263 -0.4378 -0.2143
  822MPD2     H12149   3.241   4.351  16.003  0.0516  1.8444  0.4494
  822MPD2    H112150   3.128   4.619  15.682  1.0204  1.3911  2.4851
  822MPD2    H212151   3.340   4.274  15.595  0.6778 -1.2915  0.0156
  822MPD2    H312152   3.236   4.466  15.535  1.1883  1.8320  0.4688
  822MPD2     N12153   3.106   4.566  15.958 -0.5358 -0.7473  0.3091
  822MPD2    H512154   3.107   4.517  16.047 -2.4303 -0.8004  0.2825
  822MPD2    N112155   3.329   4.166  15.867 -0.4474 -0.0012 -0.3068
  822MPD2    H712156   3.303   4.145  15.963 -0.2025 -0.4943 -0.3477
  823MPD2     C12157   2.770   4.656  16.727 -0.0614  0.4293 -0.8357
  823MPD2    C112158   2.827   4.590  16.614  0.2351  0.1681 -0.1655
  823MPD2    C212159   2.832   4.452  16.629  0.5417 -0.1291  0.3009
  823MPD2    C312160   2.782   4.382  16.739  0.2535  0.0341  0.2444
  823MPD2    C412161   2.718   4.455  16.840  0.0982 -0.1912 -0.2012
  823MPD2    C512162   2.713   4.589  16.833 -0.0067 -0.7962  0.0547
  823MPD2     H12163   2.875   4.393  16.548 -0.3764 -1.8161  1.0312
  823MPD2    H112164   2.670   4.407  16.924 -3.0913  2.5081 -0.4896
  823MPD2    H212165   2.780   0.022  16.721 -0.2588  0.4708 -0.4423
  823MPD2    H312166   2.666   4.652  16.908  0.0435  0.3525 -0.8746
  823MPD2     N12167   2.786   4.241  16.749  0.2168  0.4264  0.0575
  823MPD2    H512168   2.743   4.201  16.831  0.8746  0.3787  0.3743
  823MPD2    N112169   2.875   4.668  16.501  0.1975 -0.1993  0.8608
  823MPD2    H712170   2.880   0.027  16.513 -0.6497  0.0509 -0.8063
  824MPD2     C12171   3.913   3.546  16.000  0.1065  0.2899 -0.1302
  824MPD2    C112172   3.871   3.612  15.887  0.3314  0.5279 -0.4918
  824MPD2    C212173   3.927   3.599  15.763 -0.2467  0.6747 -0.6316
  824MPD2    C312174   4.038   3.518  15.759 -0.2036 -1.0642 -0.1813
  824MPD2    C412175   4.079   3.441  15.862  0.3022 -0.3252  0.2262
  824MPD2    C512176   4.020   3.465  15.984  0.6876  0.1371  0.8927
  824MPD2     H12177   3.883   3.652  15.680  1.0603  0.7670 -1.2663
  824MPD2    H112178   4.160   3.369  15.860  0.1934 -0.4939  1.4462
  824MPD2    H212179   3.880   3.568  16.102  0.4929 -0.3026  0.1209
  824MPD2    H312180   4.057   3.416  16.074 -1.2383 -0.7390  1.2053
  824MPD2     N12181   4.108   3.503  15.633  0.2725  0.0952 -0.0422
  824MPD2    H512182   4.067   3.551  15.554  0.7172  0.4428 -0.0596
  824MPD2    N112183   3.759   3.698  15.885  0.3317  0.0907  0.1010
  824MPD2    H712184   3.732   3.744  15.799 -0.4804  0.3097  0.4703
  825MPD2     C12185   4.629   3.794  15.453 -0.0263 -0.2957 -0.2930
  825MPD2    C112186   4.556   3.791  15.338  0.4405  0.2988  0.0757
  825MPD2    C212187   4.576   3.878  15.233 -0.5314  1.0464 -0.4387
  825MPD2    C312188   4.675   3.971  15.246  0.2432 -0.2325  0.4869
  825MPD2    C412189   0.007   3.974  15.364 -0.1255 -0.1943 -0.1121
  825MPD2    C512190   4.731   3.885  15.468  0.8396  0.2617 -0.4680
  825MPD2     H12191   4.518   3.849  15.146  0.6297 -1.0193 -0.5356
  825MPD2    H112192   0.067   4.062  15.382  1.5356 -1.6018  1.3081
  825MPD2    H212193   4.620   3.713  15.524 -1.8088  0.2156  0.0689
  825MPD2    H312194   0.049   3.907  15.555  1.0868 -1.8596 -0.1088
  825MPD2     N12195   4.697   4.075  15.151 -0.5894 -0.0642 -0.0348
  825MPD2    H512196   0.038   4.129  15.174 -1.9471  2.1940 -0.5505
  825MPD2    N112197   4.466   3.686  15.340 -0.3660  0.2125  0.4953
  825MPD2    H712198   4.459   3.632  15.426  2.0519 -1.5118 -0.3953
  826MPD2     C12199   3.221   3.164  13.075  0.7718 -0.8343  0.5487
  826MPD2    C112200   3.255   3.293  13.063 -0.2581 -0.2016 -0.0298
  826MPD2    C212201   3.269   3.366  13.180  0.4460 -0.3926 -0.1693
  826MPD2    C312202   3.265   3.303  13.301 -0.4873 -0.9205  0.3592
  826MPD2    C412203   3.228   3.175  13.311 -0.2101 -0.4191 -0.1788
  826MPD2    C512204   3.209   3.108  13.195 -0.5938  0.0782 -0.0435
  826MPD2     H12205   3.293   3.471  13.168 -2.1132  0.3692  1.5867
  826MPD2    H112206   3.215   3.119  13.403 -0.7851 -0.4897 -0.3028
  826MPD2    H212207   3.211   3.112  12.980 -1.2140  2.2986 -0.9767
  826MPD2    H312208   3.200   3.000  13.206  1.6869 -0.2861 -1.6486
  826MPD2     N12209   3.300   3.366  13.421  0.0159 -0.1859 -0.2170
  826MPD2    H512210   3.293   3.320  13.511  1.5317  0.4225  0.2007
  826MPD2    N112211   3.290   3.362  12.937  0.1978 -0.5983  0.3689
  826MPD2    H712212   3.330   3.455  12.946 -0.8025 -0.0459 -0.7998
  827MPD2     C12213   0.259   4.575   9.924 -1.3685  0.3169 -0.2794
  827MPD2    C112214   0.235   4.453   9.987  0.4212 -0.0688 -0.2210
  827MPD2    C212215   0.181   4.351   9.913  0.4325 -0.9199 -0.1883
  827MPD2    C312216   0.134   4.366   9.782  0.4713 -0.0447 -0.1424
  827MPD2    C412217   0.177   4.482   9.717  0.7948 -0.2475 -0.4355
  827MPD2    C512218   0.222   4.588   9.793  0.9970 -0.4905 -0.2799
  827MPD2     H12219   0.175   4.251   9.956  1.8354 -0.7559  0.4030
  827MPD2    H112220   0.152   4.500   9.613 -0.2829  0.0503 -0.1267
  827MPD2    H212221   0.307   4.659   9.972  1.6922 -1.5307 -0.1271
  827MPD2    H312222   0.237   4.684   9.743 -1.1667 -0.8081 -1.5508
  827MPD2     N12223   0.081   4.252   9.721 -0.7303 -0.0132  0.2049
  827MPD2    H512224   0.088   4.166   9.774 -0.2823 -0.5741 -0.7469
  827MPD2    N112225   0.286   4.437  10.121  0.1472  0.3828 -0.6006
  827MPD2    H712226   0.333   4.518  10.159  2.2849  1.1941 -4.9122
  828MPD2     C12227   3.483   4.447  12.754  0.0215  0.2314 -0.1004
  828MPD2    C112228   3.505   4.554  12.671  0.0963  0.4829 -0.0103
  828MPD2    C212229   3.635   4.585  12.634  0.3760  0.0125  0.5647
  828MPD2    C312230   3.738   4.497  12.655 -0.0738 -0.5125  0.5336
  828MPD2    C412231   3.724   4.390  12.742  0.3288  0.3413 -0.5618
  828MPD2    C512232   3.595   4.370  12.795  0.6797  0.2506 -0.1657
  828MPD2     H12233   3.656   4.679  12.585  2.3270 -0.4126  0.5890
  828MPD2    H112234   3.809   4.325  12.759 -0.6745 -0.4150  1.5282
  828MPD2    H212235   3.381   4.423  12.780 -0.1101  0.6608 -0.2319
  828MPD2    H312236   3.573   4.283  12.856 -0.6764  0.2306 -0.6780
  828MPD2     N12237   3.861   4.510  12.583  0.4057  0.2484 -0.0888
  828MPD2    H512238   3.934   4.447  12.612 -0.7672 -1.4831 -0.8964
  828MPD2    N112239   3.406   4.645  12.627  0.2877 -0.5353 -0.2655
  828MPD2    H712240   3.432   4.720  12.564  0.6624 -0.8134 -0.4461
  829MPD2     C12241   3.413   0.130  11.787 -0.4264  0.4408  0.0302
  829MPD2    C112242   3.301   0.198  11.825  0.0338  0.0589  0.3711
  829MPD2    C212243   3.262   0.195  11.961  0.1593 -0.6137  0.0135
  829MPD2    C312244   3.333   0.107  12.051 -0.3438  0.2235  0.3510
  829MPD2    C412245   3.443   0.033  12.006  0.5896  0.3437 -0.2563
  829MPD2    C512246   3.488   0.052  11.876 -0.5550  0.3011  0.6773
  829MPD2     H12247   3.172   0.246  11.991  0.6103 -0.8597  1.7891
  829MPD2    H112248   3.501   4.711  12.072  0.0576  0.8988  0.7489
  829MPD2    H212249   3.435   0.125  11.681 -0.6042 -1.1089  0.0610
  829MPD2    H312250   3.566   4.734  11.830 -0.3288 -0.4798  2.0703
  829MPD2     N12251   3.289   0.089  12.184 -0.2907  0.1392 -0.8757
  829MPD2    H512252   3.348   0.038  12.249 -0.7459 -0.4327 -0.9095
  829MPD2    N112253   3.230   0.268  11.725 -0.7318 -0.0586 -0.4412
  829MPD2    H712254   3.268   0.268  11.631  0.3467  3.1987 -0.0083
  830MPD2     C12255   3.430   2.557  15.316  0.2075  0.0253  0.3035
  830MPD2    C112256   3.448   2.628  15.429 -0.1888 -0.8720  1.0736
  830MPD2    C212257   3.573   2.683  15.443  0.1795 -0.0846 -0.5090
  830MPD2    C312258   3.678   2.665  15.350 -0.7105  0.2229  0.2075
  830MPD2    C412259   3.660   2.585  15.244 -0.7160  0.6722 -0.6811
  830MPD2    C512260   3.534   2.539  15.223 -0.3413  0.0757 -0.1303
  830MPD2     H12261   3.596   2.751  15.524  0.6563 -0.2436 -0.5112
  830MPD2    H112262   3.748   2.559  15.187  0.0478  1.7056  0.0435
  830MPD2    H212263   3.342   2.496  15.302  0.0890 -0.1380  1.7652
  830MPD2    H312264   3.519   2.476  15.135  0.7753  0.8519 -0.8693
  830MPD2     N12265   3.794   2.748  15.351  0.5652 -0.2729  0.2673
  830MPD2    H512266   3.869   2.723  15.286  0.5989  0.6234 -0.0427
  830MPD2    N112267   3.350   2.627  15.531 -0.4314 -0.2792  0.0265
  830MPD2    H712268   3.260   2.581  15.515  0.5387 -2.0037 -0.5481
  831MPD2     C12269   3.366   4.486  16.360 -0.2407  0.6486  1.9133
  831MPD2    C112270   3.370   4.395  16.263 -0.1674 -0.2732  0.2731
  831MPD2    C212271   3.268   4.303  16.258 -0.3119  0.1355  0.1623
  831MPD2    C312272   3.157   4.308  16.338 -0.6834  0.3350  0.6086
  831MPD2    C412273   3.161   4.393  16.446  0.1834 -0.2264 -0.3522
  831MPD2    C512274   3.259   4.484  16.447  0.2811  0.0263  0.2065
  831MPD2     H12275   3.261   4.233  16.176 -3.9875  0.2474  0.3982
  831MPD2    H112276   3.080   4.416  16.515  1.6587  0.9283  1.0003
  831MPD2    H212277   3.451   4.552  16.374 -0.1057  1.0194 -0.6618
  831MPD2    H312278   3.260   4.558  16.527 -0.1818  0.2224  0.0360
  831MPD2     N12279   3.045   4.240  16.307 -0.4147  0.0347  0.0872
  831MPD2    H512280   2.972   4.234  16.378 -2.8885  1.7903 -2.3161
  831MPD2    N112281   3.479   4.396  16.173 -0.0554  0.5372 -0.3632
  831MPD2    H712282   3.530   4.484  16.165 -0.1491  0.3073 -3.3471
  832MPD2     C12283   1.504   0.692  16.995 -0.6137 -0.6770  0.4961
  832MPD2    C112284   1.505   0.820  16.942 -0.1003 -0.0584 -0.3309
  832MPD2    C212285   1.403   0.860  16.857  0.3804  0.1750  0.3047
  832MPD2    C312286   1.302   0.769  16.834  0.6703 -0.0455  0.3968
  832MPD2    C412287   1.297   0.647  16.898 -0.1366 -0.7167 -0.2736
  832MPD2    C512288   1.397   0.611  16.975  0.2140 -0.6702 -0.2527
  832MPD2     H12289   1.406   0.951  16.798  3.2723 -0.9271 -1.2701
  832MPD2    H112290   1.226   0.567  16.878  1.3536 -2.2575  0.5010
  832MPD2    H212291   1.585   0.658  17.059 -0.8128 -0.5675  0.8050
  832MPD2    H312292   1.399   0.513  17.022 -0.3174 -0.7571 -0.4114
  832MPD2     N12293   1.193   0.800  16.755  0.6102 -0.0365  0.3200
  832MPD2    H512294   1.130   0.723  16.733  0.4587  0.5448 -1.3012
  832MPD2    N112295   1.608   0.906  16.977 -0.5947  0.2979 -1.1874
  832MPD2    H712296   1.677   0.868  17.042  1.2205 -0.8803 -3.7856
  833MPD2     C12297   3.282   1.771  11.920  0.2299  0.2255 -0.1930
  833MPD2    C112298   3.368   1.877  11.952 -0.0334  0.5388  0.2949
  833MPD2    C212299   3.444   1.927  11.848 -0.0187  0.3030 -1.0461
  833MPD2    C312300   3.442   1.875  11.724 -0.3955 -0.1065  0.0437
  833MPD2    C412301   3.365   1.762  11.698 -0.1567 -0.2290  0.0253
  833MPD2    C512302   3.293   1.711  11.798 -0.6245 -0.2349 -0.3803
  833MPD2     H12303   3.509   2.011  11.871 -0.5826  0.5674 -0.4041
  833MPD2    H112304   3.358   1.718  11.599  1.1193 -1.4972  0.4927
  833MPD2    H212305   3.217   1.728  11.995  2.0613  0.7528  1.7322
  833MPD2    H312306   3.235   1.623  11.770  0.2930 -1.3552  1.1881
  833MPD2     N12307   3.501   1.939  11.613  0.2903 -0.2037 -0.2798
  833MPD2    H512308   3.507   1.895  11.522  1.8613 -0.0586 -0.2334
  833MPD2    N112309   3.367   1.939  12.081  0.4231 -0.0396  0.6618
  833MPD2    H712310   3.430   2.019  12.087 -2.4333  2.3180 -0.8086
  834MPD2     C12311   4.107   1.632  11.077  0.6723  0.3772 -0.3218
  834MPD2    C112312   4.012   1.594  11.167 -0.1297  0.2268  0.2528
  834MPD2    C212313   3.960   1.688  11.256 -0.7394 -0.5585 -0.2314
  834MPD2    C312314   4.004   1.817  11.256 -0.7430 -0.5835 -0.1820
  834MPD2    C412315   4.108   1.851  11.175  0.0321  0.5308  0.3409
  834MPD2    C512316   4.161   1.760  11.082  0.7272  0.0970  0.1202
  834MPD2     H12317   3.868   1.665  11.308  0.2461  0.0673  1.7835
  834MPD2    H112318   4.135   1.956  11.170  3.4815 -0.3202  1.1171
  834MPD2    H212319   4.134   1.570  10.992 -1.1173  0.1697 -0.7410
  834MPD2    H312320   4.237   1.794  11.013  0.0036 -2.1606 -1.7637
  834MPD2     N12321   3.929   1.905  11.334  0.3821  0.2780 -0.2765
  834MPD2    H512322   3.861   1.864  11.398 -0.2154  1.5049 -0.1227
  834MPD2    N112323   3.960   1.457  11.166 -0.0812 -0.6029  0.0875
  834MPD2    H712324   4.010   1.395  11.103 -3.2938 -1.9058 -1.1547
  835MPD2     C12325   4.336   4.214  11.326 -0.4255  0.2899 -1.2202
  835MPD2    C112326   4.286   4.342  11.313  0.8320  0.2857  0.2241
  835MPD2    C212327   4.328   4.450  11.393  0.5540 -0.3180 -0.6655
  835MPD2    C312328   4.435   4.417  11.476  0.0801 -0.1875  0.2449
  835MPD2    C412329   4.481   4.288  11.483  0.3297 -0.7637 -0.1015
  835MPD2    C512330   4.426   4.189  11.414  0.6156 -0.3990 -0.3645
  835MPD2     H12331   4.290   4.551  11.383  0.0730 -0.2335  2.1319
  835MPD2    H112332   4.575   4.268  11.532 -1.0956 -1.5944  2.3025
  835MPD2    H212333   4.323   4.132  11.256 -0.1532 -1.1413  0.4110
  835MPD2    H312334   4.476   4.094  11.423  1.8164  0.1900 -0.8472
  835MPD2     N12335   4.494   4.507  11.563  0.4971 -0.8490 -0.0500
  835MPD2    H512336   4.541   4.478  11.648  0.0991 -0.0202  0.4465
  835MPD2    N112337   4.188   4.369  11.214  0.7369 -0.2297 -0.0883
  835MPD2    H712338   4.162   4.466  11.202 -2.0654 -1.0022 -0.2737
  836MPD2     C12339   3.953   0.161  11.619  1.0569  0.0486  0.5066
  836MPD2    C112340   4.013   0.163  11.745  0.7726 -0.1486 -0.8535
  836MPD2    C212341   3.935   0.189  11.853  0.5926 -0.5042  0.3477
  836MPD2    C312342   3.800   0.223  11.843 -0.3307 -0.1243 -0.0784
  836MPD2    C412343   3.751   0.227  11.719  0.6196 -1.0485 -0.1525
  836MPD2    C512344   3.818   0.190  11.605  0.0336 -0.1507 -0.1098
  836MPD2     H12345   3.985   0.184  11.950 -1.2676  1.6288  1.4287
  836MPD2    H112346   3.648   0.262  11.716  1.0928  0.4693  1.0522
  836MPD2    H212347   4.005   0.125  11.531  0.0377 -0.2635  0.0293
  836MPD2    H312348   3.778   0.199  11.505  0.8519  1.1120 -0.3282
  836MPD2     N12349   3.718   0.253  11.955  0.4455  0.1818  0.6930
  836MPD2    H512350   3.622   0.278  11.933  0.3250 -1.0888 -0.2522
  836MPD2    N112351   4.155   0.126  11.752 -0.9195  0.2013  0.0188
  836MPD2    H712352   4.190   0.089  11.664 -1.4795 -0.1736 -0.0422
  837MPD2     C12353   2.469   3.550   9.882  0.3250 -0.0297 -0.2029
  837MPD2    C112354   2.393   3.648   9.824  0.4616 -1.2365  1.0405
  837MPD2    C212355   2.426   3.786   9.849 -0.1674 -0.1364  0.4366
  837MPD2    C312356   2.524   3.823   9.940 -0.3980  0.5817  0.5351
  837MPD2    C412357   2.590   3.717  10.004 -0.3421 -1.0084  0.3465
  837MPD2    C512358   2.582   3.588   9.964 -0.7641  0.1696 -0.1186
  837MPD2     H12359   2.368   3.866   9.804 -0.6226 -1.4186 -1.2634
  837MPD2    H112360   2.669   3.748  10.071 -0.3510  0.3312 -0.2583
  837MPD2    H212361   2.445   3.446   9.861 -4.0673  0.9497 -0.0520
  837MPD2    H312362   2.647   3.510  10.002  0.5370  1.5343  0.4563
  837MPD2     N12363   2.523   3.957   9.985  0.1186 -0.1264 -0.1734
  837MPD2    H512364   2.461   4.020   9.935  1.6460  1.6427  0.1397
  837MPD2    N112365   2.276   3.633   9.750  0.6924 -0.1200  0.0210
  837MPD2    H712366   2.226   3.719   9.730  1.5248  0.8343  1.9704
  838MPD2     C12367   0.288   2.076  11.041  0.8717  0.5316  0.8733
  838MPD2    C112368   0.269   2.174  11.136  0.3224  0.4085 -0.5683
  838MPD2    C212369   0.144   2.193  11.195 -0.0983  0.2744  0.4910
  838MPD2    C312370   0.041   2.113  11.154 -0.6116  0.4924  0.3489
  838MPD2    C412371   0.064   2.018  11.061 -0.1797  0.0970  0.3304
  838MPD2    C512372   0.184   1.994  11.002 -0.6050 -0.3647  0.8406
  838MPD2     H12373   0.123   2.267  11.271  2.1311  0.3386  1.0235
  838MPD2    H112374   4.719   1.962  11.028  1.1984 -0.1564 -2.8842
  838MPD2    H212375   0.382   2.054  10.991  0.2267 -0.7475  0.2203
  838MPD2    H312376   0.192   1.913  10.930 -1.5578  1.1078 -0.9212
  838MPD2     N12377   4.662   2.135  11.217  0.2307  0.1132  0.0529
  838MPD2    H512378   4.650   2.213  11.281  0.1094  0.1956 -0.0719
  838MPD2    N112379   0.382   2.250  11.175 -0.8560  0.1455 -0.5380
  838MPD2    H712380   0.473   2.225  11.136 -0.0923 -2.0846  2.7135
  839MPD2     C12381   0.220   2.256  11.741  0.0884  0.0459 -1.2688
  839MPD2    C112382   0.319   2.202  11.664 -0.1262 -0.1756 -0.8641
  839MPD2    C212383   0.436   2.275  11.648  0.3752  0.3611  0.5477
  839MPD2    C312384   0.456   2.390  11.714  0.0605 -0.3299  0.1650
  839MPD2    C412385   0.362   2.436  11.797 -0.1076 -0.3961 -0.0141
  839MPD2    C512386   0.241   2.376  11.799  0.8103  0.0623 -0.6694
  839MPD2     H12387   0.512   2.229  11.586 -1.0726 -0.5790 -0.5335
  839MPD2    H112388   0.358   2.532  11.847  1.4186 -0.7314  0.7597
  839MPD2    H212389   0.126   2.204  11.757  2.1339 -2.3792  2.9911
  839MPD2    H312390   0.153   2.417  11.847  0.0727 -1.0339 -1.0766
  839MPD2     N12391   0.577   2.466  11.704  0.6145 -0.3231  0.0485
  839MPD2    H512392   0.582   2.538  11.775 -0.1829 -1.1334  0.9218
  839MPD2    N112393   0.300   2.094  11.575  0.4922 -0.0929 -0.4961
  839MPD2    H712394   0.383   2.060  11.528  0.5246 -0.1881 -0.3705
  840MPD2     C12395   0.723   0.069  10.323 -0.0857 -0.3483 -0.0815
  840MPD2    C112396   0.684   0.005  10.439  0.6975  0.0268 -0.0533
  840MPD2    C212397   0.750   0.035  10.556  0.0830  0.4359 -0.3789
  840MPD2    C312398   0.847   0.133  10.556  0.2850 -0.5857 -0.1912
  840MPD2    C412399   0.888   0.201  10.436  0.1209  0.7482  0.1849
  840MPD2    C512400   0.820   0.163  10.321  0.2678  0.5607  0.1780
  840MPD2     H12401   0.723   4.728  10.649  1.1593 -2.5005 -1.5888
  840MPD2    H112402   0.965   0.277  10.443  2.0163 -1.2802  1.2052
  840MPD2    H212403   0.683   0.051  10.224 -1.8001 -0.1129  0.5659
  840MPD2    H312404   0.843   0.200  10.222  1.5995 -0.4259  0.1213
  840MPD2     N12405   0.916   0.171  10.672 -0.3051 -0.3349 -0.1231
  840MPD2    H512406   0.993   0.234  10.652 -0.7891  0.0673 -0.7217
  840MPD2    N112407   0.584   4.645  10.429  0.5398 -0.2385 -0.2129
  840MPD2    H712408   0.532   4.636  10.342 -1.0020  1.6856  0.4863
  841MPD2     C12409   0.769   4.663  14.012 -0.0375 -0.5461  0.1359
  841MPD2    C112410   0.686   4.658  14.124  0.7401 -0.0052 -0.4202
  841MPD2    C212411   0.675   0.030  14.197 -0.8705  0.2456 -0.4810
  841MPD2    C312412   0.741   0.148  14.167  0.2343  0.5478 -0.4582
  841MPD2    C412413   0.835   0.141  14.068 -0.1147  0.3228  0.6403
  841MPD2    C512414   0.847   0.028  13.997 -0.4049 -0.2532  0.4620
  841MPD2     H12415   0.608   0.031  14.282 -2.6768 -1.3437 -1.8931
  841MPD2    H112416   0.889   0.226  14.029 -0.4974 -0.2306 -1.1119
  841MPD2    H212417   0.760   4.591  13.932 -1.1376  0.1481 -0.3637
  841MPD2    H312418   0.896   0.024  13.901  0.8882  3.0179  1.0191
  841MPD2     N12419   0.725   0.263  14.250  0.3635  0.4789 -0.1314
  841MPD2    H512420   0.656   0.250  14.324 -1.3880 -0.2564 -1.8906
  841MPD2    N112421   0.609   4.546  14.146  0.4766 -0.0470 -0.6300
  841MPD2    H712422   0.538   4.552  14.218  0.6475  0.8432 -0.5394
  842MPD2     C12423   0.839   1.063  16.807 -0.2273  0.5100 -0.3128
  842MPD2    C112424   0.737   0.976  16.806 -0.7430 -0.3029  0.0196
  842MPD2    C212425   0.703   0.927  16.931 -0.2390  0.1091 -0.0305
  842MPD2    C312426   0.781   0.948  17.041 -0.0716  0.0684 -0.4597
  842MPD2    C412427   0.897   1.024  17.038  0.1039 -0.5053 -0.1431
  842MPD2    C512428   0.915   1.080  16.921 -0.6043 -0.5079  0.6668
  842MPD2     H12429   0.619   0.859  16.933 -0.4803  0.3852 -0.7761
  842MPD2    H112430   0.971   1.037  17.115  0.5978 -1.6909 -0.4032
  842MPD2    H212431   0.863   1.123  16.720  2.4104 -0.8168 -0.4939
  842MPD2    H312432   1.005   1.140  16.924 -0.8967 -0.2577  5.0770
  842MPD2     N12433   0.744   0.902  17.168  0.0928 -0.0391 -0.1750
  842MPD2    H512434   0.776   0.952  17.251  0.1576  0.8479 -0.7312
  842MPD2    N112435   0.652   0.955  16.691 -0.8467 -0.3348 -0.2835
  842MPD2    H712436   0.662   1.027  16.620  0.0332  1.6400  1.8546
  843MPD2     C12437   2.849   1.755  17.467 -0.1024 -0.7416 -0.5604
  843MPD2    C112438   2.878   1.692  17.585 -0.4087 -0.4556 -0.3335
  843MPD2    C212439   2.931   1.767  17.689  0.0030  0.7313  0.4597
  843MPD2    C312440   2.952   1.908  17.671 -0.1806 -0.0627  0.6858
  843MPD2    C412441   2.916   1.970  17.560  0.5581 -0.4075 -0.5390
  843MPD2    C512442   2.862   1.890  17.461 -0.1805 -0.0334  0.4330
  843MPD2     H12443   2.950   1.710   0.014 -1.2401 -1.1779 -0.4908
  843MPD2    H112444   2.931   2.076  17.541  1.2678 -1.0646 -3.7063
  843MPD2    H212445   2.805   1.701  17.384 -0.6647 -2.4780  0.8846
  843MPD2    H312446   2.830   1.941  17.371  1.7226 -1.2259 -0.9026
  843MPD2     N12447   3.008   1.986   0.006  0.4487 -0.4822 -0.0235
  843MPD2    H512448   3.007   2.087  17.763  1.2250 -0.4423  0.3314
  843MPD2    N112449   2.848   1.558  17.603 -0.3995 -0.0497  0.1917
  843MPD2    H712450   2.798   1.515  17.526  1.1250  0.2042 -0.9205
  844MPD2     C12451   1.350   0.047  16.367 -0.5103 -0.3015 -0.1899
  844MPD2    C112452   1.363   0.148  16.270 -0.7752 -0.5369  0.6135
  844MPD2    C212453   1.412   0.273  16.308  0.5438 -0.1975 -0.0077
  844MPD2    C312454   1.430   0.304  16.439  0.2909  0.5474  0.3808
  844MPD2    C412455   1.429   0.203  16.527 -0.6586 -0.2134 -0.0944
  844MPD2    C512456   1.385   0.084  16.492  0.9179 -0.4953  0.4988
  844MPD2     H12457   1.440   0.351  16.238  1.3184  0.1440  0.6834
  844MPD2    H112458   1.460   0.219  16.630  0.4849  0.4721 -0.5555
  844MPD2    H212459   1.333   4.684  16.347  1.4216 -0.5663 -0.4582
  844MPD2    H312460   1.375   0.008  16.568 -2.3506  0.9241  1.4673
  844MPD2     N12461   1.478   0.436  16.467  0.1389 -0.5644 -0.3089
  844MPD2    H512462   1.499   0.495  16.388  2.8979 -0.4618  0.5188
  844MPD2    N112463   1.340   0.117  16.138  0.1297  0.0188  0.3115
  844MPD2    H712464   1.382   0.180  16.070 -0.0054  0.4823  0.6601
  845MPD2     C12465   1.353   1.442  16.426 -0.3747  0.4444  0.5942
  845MPD2    C112466   1.428   1.424  16.539 -0.0242  0.3497 -0.0300
  845MPD2    C212467   1.473   1.295  16.575 -0.1930  0.0227 -0.3261
  845MPD2    C312468   1.427   1.188  16.499  0.3508 -0.5613  0.0879
  845MPD2    C412469   1.349   1.206  16.391 -0.1491 -0.5041 -0.3542
  845MPD2    C512470   1.321   1.334  16.340 -0.1778 -0.5165 -0.2143
  845MPD2     H12471   1.525   1.263  16.664  1.6778 -1.5496 -2.0076
  845MPD2    H112472   1.310   1.118  16.342  0.5124 -0.0909 -1.6325
  845MPD2    H212473   1.319   1.535  16.382  1.2434 -1.0157 -3.6903
  845MPD2    H312474   1.255   1.340  16.254  0.7636 -0.0426 -0.9064
  845MPD2     N12475   1.495   1.070  16.532 -0.1441  0.3950 -0.3825
  845MPD2    H512476   1.544   1.073  16.620 -2.8933 -1.6650  1.2172
  845MPD2    N112477   1.438   1.537  16.624  0.1574 -0.1521 -0.6636
  845MPD2    H712478   1.405   1.624  16.583 -0.4686 -0.1345 -0.1187
  846MPD2     C12479   3.657   1.653  13.792 -0.9310  0.1194 -0.0138
  846MPD2    C112480   3.518   1.660  13.789  0.7499  0.6996 -0.0944
  846MPD2    C212481   3.451   1.665  13.908 -0.0321 -0.5330 -0.3723
  846MPD2    C312482   3.509   1.661  14.036  0.5579 -0.1132  0.1069
  846MPD2    C412483   3.649   1.660  14.036  0.0200  0.7915  0.3846
  846MPD2    C512484   3.720   1.653  13.919  0.0196  0.4384  0.5517
  846MPD2     H12485   3.342   1.670  13.910  0.0173  0.3790  0.5736
  846MPD2    H112486   3.697   1.665  14.133  0.2825  2.4407  0.1816
  846MPD2    H212487   3.710   1.646  13.698  0.2300  1.9693  0.4964
  846MPD2    H312488   3.829   1.651  13.915  0.0246  0.6864  0.5356
  846MPD2     N12489   3.427   1.674  14.155 -0.0939 -0.1161  0.6940
  846MPD2    H512490   3.327   1.683  14.136  0.3905  0.5013 -1.5505
  846MPD2    N112491   3.443   1.658  13.669 -0.2210  0.0559 -0.4301
  846MPD2    H712492   3.342   1.663  13.678 -0.0888  1.2414  0.3220
  847MPD2     C12493   3.523   2.809  14.440  0.0221 -0.2682 -0.0421
  847MPD2    C112494   3.520   2.941  14.476 -0.3059 -0.3572 -0.3389
  847MPD2    C212495   3.541   2.967  14.607 -0.5127  0.2344 -0.2088
  847MPD2    C312496   3.546   2.867  14.703 -0.2078 -0.2338  0.4411
  847MPD2    C412497   3.541   2.731  14.668  0.2626 -0.3038 -0.5297
  847MPD2    C512498   3.535   2.711  14.533  0.0874  0.3443  0.4151
  847MPD2     H12499   3.541   3.070  14.641  1.1837  0.3537 -0.5684
  847MPD2    H112500   3.547   2.644  14.732 -0.5119 -1.0266 -1.4373
  847MPD2    H212501   3.493   2.770  14.344  1.1773 -0.8421 -0.1666
  847MPD2    H312502   3.540   2.609  14.495 -2.0693  0.3940 -0.0040
  847MPD2     N12503   3.544   2.921  14.835  0.6414  0.4246  0.4679
  847MPD2    H512504   3.561   3.021  14.834  1.3515  0.3127  1.5360
  847MPD2    N112505   3.509   3.052  14.386  0.4781  0.3093  1.1967
  847MPD2    H712506   3.518   3.148  14.420  1.4382  0.9907 -1.0011
  848MPD2     C12507   1.110   1.000  15.977 -0.3054 -0.4065  0.0001
  848MPD2    C112508   1.076   1.061  16.093  0.1282  0.4314 -0.4115
  848MPD2    C212509   1.041   1.192  16.092 -0.4540 -0.1143 -0.0342
  848MPD2    C312510   1.032   1.263  15.977  0.3526  0.0602 -0.0124
  848MPD2    C412511   1.068   1.208  15.864  0.0061 -0.3610 -0.3952
  848MPD2    C512512   1.116   1.077  15.863  0.0749  0.3862 -0.6896
  848MPD2     H12513   1.022   1.241  16.186 -2.1673  0.1757 -0.5388
  848MPD2    H112514   1.064   1.271  15.776 -1.1082  1.2044  0.7789
  848MPD2    H212515   1.125   0.894  15.965 -0.3595  0.0100 -3.7927
  848MPD2    H312516   1.149   1.032  15.771 -2.2338 -0.8259 -0.9457
  848MPD2     N12517   0.994   1.405  15.972  0.1130 -0.3451 -0.2391
  848MPD2    H512518   0.954   1.442  15.886  1.6266 -0.6834 -1.0781
  848MPD2    N112519   1.068   0.994  16.220 -0.0427 -0.1108 -0.1865
  848MPD2    H712520   1.022   1.048  16.293 -0.5553  0.0894 -0.6683
  849MPD2     C12521   0.775   1.213  13.865  0.2784  0.0916  0.3631
  849MPD2    C112522   0.687   1.136  13.934  0.5237 -0.0786 -0.7087
  849MPD2    C212523   0.701   1.152  14.070 -1.0831  0.3053 -0.1931
  849MPD2    C312524   0.787   1.245  14.135 -1.0723 -0.0742  0.6472
  849MPD2    C412525   0.856   1.333  14.057 -0.5861 -0.0246 -0.3143
  849MPD2    C512526   0.862   1.310  13.923  0.1799 -0.0143 -0.1784
  849MPD2     H12527   0.629   1.103  14.134  0.6429 -0.8252  0.8562
  849MPD2    H112528   0.902   1.418  14.106 -2.4633  0.9214 -0.2164
  849MPD2    H212529   0.795   1.203  13.759 -0.7611 -1.4335  0.3037
  849MPD2    H312530   0.929   1.375  13.868 -0.9325  0.9121 -0.4367
  849MPD2     N12531   0.782   1.264  14.277 -0.1773 -0.7696  0.4219
  849MPD2    H512532   0.819   1.350  14.315  0.5482 -0.6983 -0.4482
  849MPD2    N112533   0.609   1.040  13.877  0.1946 -0.0397 -0.3343
  849MPD2    H712534   0.609   1.039  13.775  1.6017 -1.4170 -0.3218
  850MPD2     C12535   3.115   4.090  14.936 -0.1900  0.6296 -0.3027
  850MPD2    C112536   3.217   4.034  15.005  0.3986  0.8444 -0.2530
  850MPD2    C212537   3.352   4.055  14.970  0.1172  0.4690  0.0215
  850MPD2    C312538   3.375   4.148  14.874  0.4275 -0.2398  0.3164
  850MPD2    C412539   3.272   4.213  14.803 -0.7371  0.1553  0.4601
  850MPD2    C512540   3.141   4.174  14.832  0.4459  0.7215 -0.2024
  850MPD2     H12541   3.430   3.999  15.020  0.6695 -0.4671 -1.9100
  850MPD2    H112542   3.277   4.288  14.725  2.1970  0.8117  1.2764
  850MPD2    H212543   3.010   4.074  14.959 -0.5923  0.9808 -1.9228
  850MPD2    H312544   3.060   4.219  14.775 -0.9419  0.4630  1.5911
  850MPD2     N12545   3.505   4.161  14.828  0.4406 -0.4780 -0.0117
  850MPD2    H512546   3.522   4.214  14.743 -0.1139 -3.0200 -1.7036
  850MPD2    N112547   3.179   3.954  15.112  0.3037  0.7149  0.7157
  850MPD2    H712548   3.084   3.920  15.119  0.2432  1.2716  2.6057
  851MPD2     C12549   3.457   3.432  15.866 -0.4285  0.1620 -0.4937
  851MPD2    C112550   3.485   3.488  15.745  0.4127 -0.5388 -0.2933
  851MPD2    C212551   3.601   3.447  15.679  0.6684  0.1241 -0.3067
  851MPD2    C312552   3.676   3.340  15.727  0.3773  0.3788 -0.4106
  851MPD2    C412553   3.636   3.279  15.846  0.6800 -0.1097 -0.2878
  851MPD2    C512554   3.531   3.333  15.918 -0.9737 -0.1461 -0.1589
  851MPD2     H12555   3.635   3.500  15.590  1.2921 -2.4170 -1.5790
  851MPD2    H112556   3.692   3.201  15.896  0.0105 -0.2272  0.2649
  851MPD2    H212557   3.366   3.461  15.918  0.3464 -0.8392  1.4608
  851MPD2    H312558   3.507   3.294  16.016  0.6297 -0.8112 -0.0439
  851MPD2     N12559   3.781   3.285  15.647  0.4760 -1.0046  0.0366
  851MPD2    H512560   3.784   3.329  15.555  2.0581  0.8045  0.9645
  851MPD2    N112561   3.392   3.580  15.690  0.0455  0.4112  0.1730
  851MPD2    H712562   3.302   3.585  15.738  0.3220 -1.0658  0.8222
  852MPD2     C12563   2.488   1.292   9.932 -0.0778  0.3386 -0.0241
  852MPD2    C112564   2.570   1.271  10.040 -0.0265  0.2800 -0.4636
  852MPD2    C212565   2.698   1.341  10.038  0.0908 -0.8183  0.1666
  852MPD2    C312566   2.732   1.429   9.934  0.7484 -0.0453  0.1640
  852MPD2    C412567   2.650   1.433   9.828 -0.4343 -0.1525 -0.7487
  852MPD2    C512568   2.525   1.374   9.829  0.2212 -0.3276 -0.1143
  852MPD2     H12569   2.765   1.344  10.124  0.6388  3.1788 -0.4190
  852MPD2    H112570   2.663   1.503   9.746  0.6318 -0.3184 -0.7128
  852MPD2    H212571   2.388   1.250   9.925  0.1747  0.1908 -2.5783
  852MPD2    H312572   2.448   1.398   9.756 -0.2448  2.2399  1.2158
  852MPD2     N12573   2.849   1.499   9.951 -0.7899  0.5229 -0.0958
  852MPD2    H512574   2.897   1.479  10.038  0.2087 -0.8892 -0.9719
  852MPD2    N112575   2.531   1.202  10.153 -0.2660  0.2394 -0.9174
  852MPD2    H712576   2.603   1.201  10.225 -0.5037 -0.4953 -0.6921
  853MPD2     C12577   0.093   0.942  12.436 -0.6528 -1.1744 -0.3262
  853MPD2    C112578   0.087   1.061  12.373 -0.4508 -0.1117  0.2972
  853MPD2    C212579   0.092   1.071  12.236  0.6476  0.6142 -0.6855
  853MPD2    C312580   0.113   0.950  12.163 -0.0382 -0.3774  0.3357
  853MPD2    C412581   0.109   0.825  12.233 -0.2282 -0.4742 -1.1551
  853MPD2    C512582   0.095   0.825  12.367 -0.4754 -0.0775 -0.9352
  853MPD2     H12583   0.095   1.166  12.184  1.5582  0.0846 -1.6071
  853MPD2    H112584   0.117   0.727  12.188 -2.0305 -1.5202  0.8134
  853MPD2    H212585   0.085   0.940  12.544  2.6016 -0.5044 -0.0803
  853MPD2    H312586   0.097   0.729  12.417 -1.9919  0.8198  0.8116
  853MPD2     N12587   0.137   0.941  12.022 -0.0158 -0.0977  0.6476
  853MPD2    H512588   0.152   0.847  11.988 -4.0466 -0.1036 -1.1649
  853MPD2    N112589   0.082   1.171  12.463 -0.2041  0.1168  0.2887
  853MPD2    H712590   0.077   1.147  12.562  2.0533  1.4140  0.7342
  854MPD2     C12591   1.290   1.275  13.124 -0.2755 -0.2802  0.0674
  854MPD2    C112592   1.394   1.319  13.044 -0.4639 -0.1089  0.2163
  854MPD2    C212593   1.490   1.222  13.009 -0.5147 -0.3536 -0.6611
  854MPD2    C312594   1.495   1.097  13.064 -0.1264 -0.4844  0.8004
  854MPD2    C412595   1.404   1.069  13.159  0.4587 -0.7153  0.1822
  854MPD2    C512596   1.293   1.152  13.181 -0.0149  0.3674 -0.4937
  854MPD2     H12597   1.565   1.254  12.937  0.5170 -0.8135  0.2015
  854MPD2    H112598   1.401   0.968  13.199  0.2251 -0.2447  1.3610
  854MPD2    H212599   1.211   1.342  13.155  0.3765  0.4473  0.1605
  854MPD2    H312600   1.218   1.135  13.258  1.0757 -0.0423  0.4736
  854MPD2     N12601   1.586   0.993  13.027  0.3646  0.1812  0.3781
  854MPD2    H512602   1.592   0.902  13.072 -1.1602 -0.5194 -0.8327
  854MPD2    N112603   1.378   1.450  12.988 -0.0640  0.4249  0.1388
  854MPD2    H712604   1.291   1.497  13.013 -0.2112 -0.0633  0.5451
  855MPD2     C12605   2.499   0.795  13.342  0.5810  0.4882 -0.1602
  855MPD2    C112606   2.373   0.776  13.398  0.1283  0.2339 -0.3398
  855MPD2    C212607   2.261   0.748  13.313  0.1521 -0.2211 -0.1706
  855MPD2    C312608   2.266   0.762  13.172 -0.1615  0.2409 -0.2072
  855MPD2    C412609   2.394   0.787  13.125  0.2249 -0.3254 -0.4358
  855MPD2    C512610   2.506   0.798  13.205 -0.8989  0.5691 -0.5844
  855MPD2     H12611   2.166   0.724  13.359  0.0042 -3.5561 -2.3016
  855MPD2    H112612   2.398   0.807  13.018 -0.0568  1.2612 -0.1478
  855MPD2    H212613   2.586   0.822  13.400 -0.0940 -0.1481  1.1383
  855MPD2    H312614   2.596   0.827  13.152 -0.4253  0.0886 -0.0409
  855MPD2     N12615   2.159   0.754  13.074 -0.4341  0.4144 -0.2949
  855MPD2    H512616   2.180   0.768  12.975 -1.3534  1.0538 -0.4026
  855MPD2    N112617   2.352   0.776  13.541 -0.3638 -0.4906 -0.3274
  855MPD2    H712618   2.261   0.737  13.566 -0.7060  0.7235  0.3197
  856MPD2     C12619   4.142   2.040  13.592  0.7179  0.3361  0.8975
  856MPD2    C112620   4.147   2.167  13.639 -0.8708 -0.3874  0.6327
  856MPD2    C212621   4.058   2.264  13.589  0.3703  0.2789  0.5755
  856MPD2    C312622   3.972   2.231  13.485  0.3275  0.6598 -0.0065
  856MPD2    C412623   3.974   2.104  13.431  0.2012 -0.4398  0.0020
  856MPD2    C512624   4.066   2.004  13.479 -0.1837  1.1226 -0.2368
  856MPD2     H12625   4.039   2.353  13.649 -2.0659 -0.2309  0.5388
  856MPD2    H112626   3.904   2.063  13.360 -1.5180 -2.1486  2.6878
  856MPD2    H212627   4.200   1.963  13.641  0.2341 -1.1757 -0.8955
  856MPD2    H312628   4.064   1.901  13.446  0.6388  1.1475 -0.3691
  856MPD2     N12629   3.879   2.319  13.420  0.1391 -0.5671 -0.3418
  856MPD2    H512630   3.820   2.281  13.346  2.0316 -1.9692 -1.1103
  856MPD2    N112631   4.231   2.203  13.744  0.4356 -0.1681  0.1923
  856MPD2    H712632   4.219   2.300  13.771 -1.6586 -0.7715  1.4180
  857MPD2     C12633   0.998   4.001  12.741 -0.0292 -0.7119  0.0679
  857MPD2    C112634   1.129   4.015  12.688  0.2169 -0.2033 -0.0376
  857MPD2    C212635   1.178   4.143  12.663 -0.5395  1.0980 -0.4261
  857MPD2    C312636   1.089   4.247  12.673 -0.4557  0.2429 -0.2034
  857MPD2    C412637   0.962   4.230  12.733 -0.4095  0.4561  0.7003
  857MPD2    C512638   0.917   4.108  12.759 -0.4067  0.7310 -0.5956
  857MPD2     H12639   1.284   4.156  12.651 -0.3339 -0.6417 -0.5804
  857MPD2    H112640   0.904   4.312  12.772 -0.2465 -0.5759  3.1269
  857MPD2    H212641   0.956   3.901  12.745  0.3074 -0.8964 -0.9595
  857MPD2    H312642   0.819   4.097  12.805  0.0134 -2.0361 -0.3346
  857MPD2     N12643   1.156   4.361  12.650 -0.2594  0.2798 -0.3661
  857MPD2    H512644   1.245   4.351  12.602 -0.4928 -0.0227 -0.7359
  857MPD2    N112645   1.222   3.908  12.668 -0.4107 -0.1558 -0.2548
  857MPD2    H712646   1.188   3.824  12.715  1.1104 -1.9341 -2.3240
  858MPD2     C12647   1.903   3.430  16.451  0.3957  0.1605  0.1093
  858MPD2    C112648   1.907   3.300  16.491  0.6623  0.1288 -0.5344
  858MPD2    C212649   1.951   3.278  16.623  0.0939 -0.2585 -0.3216
  858MPD2    C312650   1.968   3.380  16.715 -0.1312  0.0197 -0.2564
  858MPD2    C412651   1.956   3.513  16.672 -0.0597  0.1207  0.6949
  858MPD2    C512652   1.920   3.528  16.544  0.9440 -0.4570 -0.1404
  858MPD2     H12653   1.959   3.176  16.657 -1.6803 -0.1798  0.3328
  858MPD2    H112654   1.964   3.602  16.734  1.0519  0.4890  0.0185
  858MPD2    H212655   1.858   3.451  16.355 -1.8809 -0.3008  1.0777
  858MPD2    H312656   1.910   3.628  16.504 -0.4991 -0.5593 -0.0339
  858MPD2     N12657   2.026   3.360  16.842 -0.1973  0.6618  0.6967
  858MPD2    H512658   2.029   3.447  16.894  2.3823 -1.3513  3.8834
  858MPD2    N112659   1.876   3.189  16.399 -0.5467  0.1334  0.2520
  858MPD2    H712660   1.849   3.217  16.306  2.0666 -1.4264 -0.9743
  859MPD2     C12661   0.422   0.950  15.659 -0.1951  0.2191 -0.6318
  859MPD2    C112662   0.529   0.931  15.576 -0.4352  0.0986 -0.3363
  859MPD2    C212663   0.596   0.810  15.574  0.5701 -0.3383 -0.1274
  859MPD2    C312664   0.549   0.708  15.655  0.2850  0.1394 -0.4893
  859MPD2    C412665   0.451   0.734  15.748 -0.0856 -0.6175  0.7727
  859MPD2    C512666   0.386   0.853  15.746  0.1198  0.3473 -0.0821
  859MPD2     H12667   0.688   0.788  15.520  1.2417 -0.8359  1.2220
  859MPD2    H112668   0.416   0.658  15.817 -0.4130 -1.5148 -0.3932
  859MPD2    H212669   0.361   1.039  15.647  0.3328  0.4758 -1.3861
  859MPD2    H312670   0.297   0.866  15.806 -0.9713 -2.3937 -1.1030
  859MPD2     N12671   0.601   0.580  15.653 -0.1937 -0.3909  0.0803
  859MPD2    H512672   0.571   0.520  15.730 -1.4253 -0.4898 -0.4824
  859MPD2    N112673   0.557   1.041  15.480 -0.5431 -0.0242 -0.0674
  859MPD2    H712674   0.497   1.123  15.484  0.7704  1.0196 -1.3666
  860MPD2     C12675   3.213   1.171  11.731 -0.1713 -0.0762  0.1283
  860MPD2    C112676   3.174   1.237  11.842  0.5297  0.4069  0.2424
  860MPD2    C212677   3.050   1.211  11.900  0.9160 -0.0281 -0.0422
  860MPD2    C312678   2.964   1.115  11.844  0.8256  0.1206  0.9830
  860MPD2    C412679   2.998   1.064  11.724  0.0665  0.7400 -0.1302
  860MPD2    C512680   3.122   1.087  11.668 -0.7159 -0.2888  0.6406
  860MPD2     H12681   3.004   1.264  11.982  1.4697 -1.1456  0.9884
  860MPD2    H112682   2.931   0.992  11.679  1.9737 -0.1851 -1.4967
  860MPD2    H212683   3.312   1.186  11.690 -0.4320 -0.0138 -0.4897
  860MPD2    H312684   3.145   1.030  11.579 -0.3850 -0.2258  0.6868
  860MPD2     N12685   2.848   1.088  11.916  0.8096  0.3922  0.4400
  860MPD2    H512686   2.836   1.140  12.002 -0.5137 -1.2523  1.2473
  860MPD2    N112687   3.262   1.331  11.897 -0.4912  0.1210 -0.1530
  860MPD2    H712688   3.227   1.396  11.966 -0.6948  1.1770 -1.2541
  861MPD2     C12689   2.100   3.496  10.768 -0.0133 -0.2419 -0.2128
  861MPD2    C112690   2.079   3.632  10.790 -0.5217  0.1242  0.7476
  861MPD2    C212691   1.991   3.700  10.709 -0.1804 -0.5663  0.2997
  861MPD2    C312692   1.909   3.637  10.618  0.1591  0.6737 -0.4071
  861MPD2    C412693   1.921   3.496  10.609  0.2021  0.3129 -0.0315
  861MPD2    C512694   2.020   3.435  10.674 -0.2169  0.0638 -0.2864
  861MPD2     H12695   1.989   3.807  10.728 -0.2181 -1.0142  2.8661
  861MPD2    H112696   1.852   3.443  10.545  1.0570  1.9456 -2.3311
  861MPD2    H212697   2.168   3.424  10.813  0.9211  0.1614 -0.9741
  861MPD2    H312698   2.032   3.328  10.660 -1.0651 -0.2481  1.3425
  861MPD2     N12699   1.811   3.704  10.535  0.2017  0.2228  0.9702
  861MPD2    H512700   1.747   3.647  10.481  2.9548 -0.6639 -1.4071
  861MPD2    N112701   2.158   3.706  10.884 -0.0441 -0.5449  0.6402
  861MPD2    H712702   2.137   3.805  10.892 -0.3998 -0.5986  0.4168
  862MPD2     C12703   1.193   3.529  10.217 -0.2356  0.2772 -0.5355
  862MPD2    C112704   1.287   3.519  10.314  0.4221 -0.5672 -0.2799
  862MPD2    C212705   1.287   3.408  10.399 -0.4502 -0.1237  0.1896
  862MPD2    C312706   1.188   3.310  10.396 -0.3281 -0.2327  0.1407
  862MPD2    C412707   1.099   3.314  10.293  0.1199  0.4230 -0.2449
  862MPD2    C512708   1.100   3.426  10.207  0.0808 -0.3560 -0.4545
  862MPD2     H12709   1.368   3.394  10.469  1.3692 -0.7146 -2.0303
  862MPD2    H112710   1.025   3.235  10.286 -1.4164  2.0815 -2.3683
  862MPD2    H212711   1.183   3.617  10.154  0.0939 -0.4931 -1.6510
  862MPD2    H312712   1.030   3.427  10.125  1.1821  2.5011 -1.3745
  862MPD2     N12713   1.174   3.202  10.483 -0.9003  0.0068  0.1271
  862MPD2    H512714   1.137   3.117  10.441  0.0696  0.5856 -1.8862
  862MPD2    N112715   1.375   3.625  10.344  0.2808 -0.1316 -0.2403
  862MPD2    H712716   1.449   3.602  10.410  0.0645  1.7008  0.6634
  863MPD2     C12717   0.147   2.008  16.892  0.0545  0.7541  0.1592
  863MPD2    C112718   0.209   2.125  16.938 -0.4343  0.4161 -1.1850
  863MPD2    C212719   0.304   2.116  17.031  0.8180 -0.3794 -0.0351
  863MPD2    C312720   0.336   1.994  17.086 -0.0351 -0.8964  0.2563
  863MPD2    C412721   0.281   1.882  17.029 -0.0605  0.1827 -0.1945
  863MPD2    C512722   0.187   1.887  16.928  0.2079 -0.2153 -0.0472
  863MPD2     H12723   0.376   2.196  17.047 -1.7418  1.8340  0.3263
  863MPD2    H112724   0.304   1.789  17.080 -0.4652 -0.7965 -1.8097
  863MPD2    H212725   0.078   2.011  16.808 -0.3345  2.5842  0.5424
  863MPD2    H312726   0.141   1.796  16.892  2.9522 -1.5366 -0.2007
  863MPD2     N12727   0.430   1.976  17.192 -0.8645  0.6316 -0.6960
  863MPD2    H512728   0.466   1.882  17.205  0.8108  1.2598 -0.8987
  863MPD2    N112729   0.183   2.250  16.872 -0.1813 -0.3034  0.7277
  863MPD2    H712730   0.129   2.239  16.787  0.7618 -0.4902  0.1493
  864MPD2     C12731   1.186   2.762  17.037 -0.0728 -0.4468 -0.5694
  864MPD2    C112732   1.283   2.730  16.943 -0.4671  0.7334  0.9822
  864MPD2    C212733   1.363   2.827  16.894 -0.0209 -0.1389 -0.3364
  864MPD2    C312734   1.336   2.956  16.934 -0.5334 -0.1934  0.9157
  864MPD2    C412735   1.230   2.993  17.011  0.3998 -0.3479  0.0233
  864MPD2    C512736   1.150   2.893  17.064 -0.0765  0.2964 -0.5368
  864MPD2     H12737   1.446   2.795  16.832  0.6159 -2.4234  1.7135
  864MPD2    H112738   1.218   3.095  17.044  0.1244  0.1069 -1.5235
  864MPD2    H212739   1.122   2.679  17.066 -0.2891 -1.2599 -3.2974
  864MPD2    H312740   1.060   2.915  17.120 -0.8255  1.2056 -2.1128
  864MPD2     N12741   1.416   3.060  16.882 -0.0063 -0.2928  0.0952
  864MPD2    H512742   1.392   3.149  16.926 -1.3877 -1.1104  0.9828
  864MPD2    N112743   1.295   2.594  16.910  0.3968 -0.0618 -0.2641
  864MPD2    H712744   1.206   2.545  16.903  0.8331 -1.1201  1.5720
  865MPD2     C12745   1.031   3.266  16.784 -0.3895  0.0715 -0.2613
  865MPD2    C112746   1.121   3.321  16.694  0.0637 -0.1735 -0.4017
  865MPD2    C212747   1.234   3.382  16.750  0.3219 -0.2135  0.5455
  865MPD2    C312748   1.244   3.405  16.888  0.4291 -0.6771 -0.3371
  865MPD2    C412749   1.140   3.371  16.975 -0.0557 -0.2282 -1.1686
  865MPD2    C512750   1.036   3.299  16.917  0.4843 -0.0880  0.2912
  865MPD2     H12751   1.310   3.408  16.677  0.0517 -1.3235 -0.1278
  865MPD2    H112752   1.151   3.400  17.079 -0.7020  2.3680 -1.8245
  865MPD2    H212753   0.944   3.210  16.751  1.6181 -2.1418 -1.7660
  865MPD2    H312754   0.960   3.273  16.990  1.4054 -1.4221  0.7640
  865MPD2     N12755   1.356   3.472  16.949  0.0103  0.2383  0.3370
  865MPD2    H512756   1.346   3.502  17.046  0.4844  3.6765 -0.6763
  865MPD2    N112757   1.118   3.288  16.560 -0.4044  0.0568 -1.0796
  865MPD2    H712758   1.053   3.217  16.528 -0.9527 -0.6740  1.6087
  866MPD2     C12759   2.528   4.394  10.945  0.0922  0.8840  0.3897
  866MPD2    C112760   2.500   4.261  10.941 -0.4015 -0.4871  0.2554
  866MPD2    C212761   2.380   4.215  10.881  0.3263 -0.1857 -0.3064
  866MPD2    C312762   2.290   4.304  10.840  0.4378 -0.5695 -0.1785
  866MPD2    C412763   2.321   4.439  10.845  0.0603 -0.1548  0.2834
  866MPD2    C512764   2.439   4.483  10.893 -0.4065  0.4671 -0.0659
  866MPD2     H12765   2.355   4.110  10.874 -0.9944  0.0675  0.7592
  866MPD2    H112766   2.260   4.516  10.799 -0.7621 -0.2779  1.1708
  866MPD2    H212767   2.625   4.435  10.969  0.2571  0.6292  0.1443
  866MPD2    H312768   2.466   4.588  10.887  1.9400 -0.0754  1.0829
  866MPD2     N12769   2.160   4.271  10.793  0.4006  0.1108  0.3218
  866MPD2    H512770   2.097   4.346  10.769  2.6489  1.7801 -0.3876
  866MPD2    N112771   2.593   4.180  11.000 -0.3735 -0.3058 -0.3227
  866MPD2    H712772   2.662   4.230  11.056  0.2109 -1.1596 -0.2839
  867MPD2     C12773   0.035   3.240  16.800 -0.7138  0.0311  0.2707
  867MPD2    C112774   0.137   3.293  16.882 -0.5850  0.3630  0.2918
  867MPD2    C212775   0.155   3.429  16.895  0.0562 -0.8891 -0.2790
  867MPD2    C312776   0.057   3.516  16.852  0.4480 -0.0117 -0.6086
  867MPD2    C412777   4.694   3.466  16.785  0.7756  0.1581  0.4103
  867MPD2    C512778   4.685   3.332  16.751  0.1892  0.8216  0.4962
  867MPD2     H12779   0.230   3.470  16.962  1.7785 -0.1645 -2.6459
  867MPD2    H112780   4.612   3.531  16.759 -1.3039 -2.5863  0.0652
  867MPD2    H212781   0.023   3.132  16.794 -0.2635 -0.0027 -0.0450
  867MPD2    H312782   4.600   3.297  16.693 -0.2297  2.0750  0.3605
  867MPD2     N12783   0.053   3.649  16.894  0.4476  0.5533 -0.6083
  867MPD2    H512784   4.705   3.692  16.874 -0.0389 -1.3244 -2.4752
  867MPD2    N112785   0.225   3.205  16.945  0.2804  0.5705 -0.1474
  867MPD2    H712786   0.207   3.107  16.926 -0.9920  0.7445  0.1683
  868MPD2     C12787   1.018   2.753  13.057 -0.1645  0.2693  0.3176
  868MPD2    C112788   1.088   2.778  13.170 -0.0241  0.5349 -0.8310
  868MPD2    C212789   1.035   2.862  13.268  0.0687  0.3978  1.0765
  868MPD2    C312790   0.926   2.939  13.248 -0.3078 -0.5683  0.0754
  868MPD2    C412791   0.850   2.901  13.143 -0.5630 -0.4726  0.6468
  868MPD2    C512792   0.893   2.810  13.047 -0.3538 -0.7397 -0.7150
  868MPD2     H12793   1.095   2.902  13.349  1.1980  3.9820 -1.5402
  868MPD2    H112794   0.747   2.932  13.129 -1.0687 -1.6550  1.7448
  868MPD2    H212795   1.062   2.695  12.976 -1.5606  0.1231 -0.3412
  868MPD2    H312796   0.819   2.782  12.973 -0.2592  1.8340 -1.7707
  868MPD2     N12797   0.880   3.024  13.350 -0.1437  0.0014  0.0927
  868MPD2    H512798   0.942   3.027  13.430  0.0916  0.9966 -0.1226
  868MPD2    N112799   1.214   2.722  13.161  0.0529  0.0194  0.0992
  868MPD2    H712800   1.239   2.683  13.071 -0.7959 -0.6750  0.1598
  869MPD2     C12801   2.075   0.343  17.651  0.2013 -0.7330  0.2132
  869MPD2    C112802   2.026   0.274  17.755 -0.2319  0.4629  0.1857
  869MPD2    C212803   2.047   0.320   0.118 -0.3085 -0.1392 -0.1789
  869MPD2    C312804   2.124   0.430   0.140 -0.3044  0.1363 -0.0691
  869MPD2    C412805   2.177   0.496   0.034 -0.1177  0.0570  0.8937
  869MPD2    C512806   2.153   0.448  17.670  0.4100  0.3622  0.0906
  869MPD2     H12807   2.028   0.265   0.209 -1.2475 -0.8458 -0.8026
  869MPD2    H112808   2.241   0.582   0.051 -1.3021  1.5509 -2.3188
  869MPD2    H212809   2.049   0.315  17.549  0.2219  1.4387 -0.3885
  869MPD2    H312810   2.185   0.516  17.592 -1.3225  2.3977  1.1512
  869MPD2     N12811   2.159   0.482   0.263 -0.0049  0.0155 -0.7202
  869MPD2    H512812   2.224   0.560   0.260  1.8356 -1.4574  1.6447
  869MPD2    N112813   1.961   0.160  17.717  0.7191  0.6666 -0.1676
  869MPD2    H712814   1.957   0.148  17.617 -1.4497 -0.0216  0.0126
  870MPD2     C12815   1.628   4.334   1.906 -0.0260  0.5992  0.2304
  870MPD2    C112816   1.631   4.239   1.805 -0.2658  0.1408  0.2891
  870MPD2    C212817   1.559   4.264   1.686  0.5295  0.0764 -0.8208
  870MPD2    C312818   1.499   4.388   1.662 -0.5290 -0.6964 -0.0973
  870MPD2    C412819   1.493   4.470   1.769 -0.1174  0.5229 -0.9134
  870MPD2    C512820   1.561   4.446   1.886 -0.1717 -0.0584 -0.4351
  870MPD2     H12821   1.603   4.217   1.599  0.5997  1.2439 -1.4210
  870MPD2    H112822   1.444   4.567   1.765  0.1951  0.7346  0.3437
  870MPD2    H212823   1.682   4.313   1.998 -1.5269 -0.4305  0.8873
  870MPD2    H312824   1.560   4.512   1.972 -2.0112  0.5790 -0.9604
  870MPD2     N12825   1.459   4.421   1.527 -0.4936  0.0529 -0.1719
  870MPD2    H512826   1.465   4.351   1.454  1.1627  0.7193 -0.6804
  870MPD2    N112827   1.709   4.124   1.829  0.2872 -1.0739  0.1228
  870MPD2    H712828   1.756   4.116   1.918  1.5280  1.3934 -0.3256
  871MPD2     C12829   2.708   3.716  16.187 -0.2296  0.3500  0.9296
  871MPD2    C112830   2.754   3.669  16.302 -0.1029 -0.5230  0.0030
  871MPD2    C212831   2.825   3.554  16.292 -0.1424 -0.2583 -0.2246
  871MPD2    C312832   2.841   3.485  16.177 -0.1805  0.7276  0.5799
  871MPD2    C412833   2.788   3.533  16.056  0.0810  0.1049  0.3416
  871MPD2    C512834   2.713   3.651  16.063 -0.1623  0.3436  0.3268
  871MPD2     H12835   2.872   3.513  16.380  0.7513  2.4681  0.5789
  871MPD2    H112836   2.789   3.486  15.959 -1.6937  2.4675 -0.8240
  871MPD2    H212837   2.652   3.809  16.185 -2.9172 -1.3286 -2.3801
  871MPD2    H312838   2.665   3.685  15.972  0.7620  2.2132  0.5336
  871MPD2     N12839   2.900   3.359  16.194 -0.2011 -0.1921  0.1216
  871MPD2    H512840   2.924   3.334  16.289 -2.4129  0.0298  0.7421
  871MPD2    N112841   2.723   3.738  16.423 -0.9793  0.0695 -0.1629
  871MPD2    H712842   2.687   3.833  16.419  0.6890  0.6934 -0.2172
  872MPD2     C12843   4.159   1.469  13.732  0.7220  0.8956 -0.1578
  872MPD2    C112844   4.182   1.586  13.806 -0.1052  0.1047 -0.3899
  872MPD2    C212845   4.124   1.601  13.931 -0.3664  0.3779 -0.2031
  872MPD2    C312846   4.038   1.501  13.987 -0.1584 -0.7052 -0.1255
  872MPD2    C412847   4.007   1.390  13.905  0.5466  0.1430 -0.1536
  872MPD2    C512848   4.068   1.382  13.785 -0.8882  0.6975 -0.0413
  872MPD2     H12849   4.152   1.686  13.992  0.6247 -1.6309  2.1363
  872MPD2    H112850   3.936   1.314  13.933  1.8515 -1.3582 -0.9248
  872MPD2    H212851   4.211   1.445  13.639 -1.3034 -0.3785 -0.9619
  872MPD2    H312852   4.050   1.294  13.723  2.5614  0.6183 -0.9591
  872MPD2     N12853   3.978   1.495  14.115  0.0611 -0.6604 -0.1785
  872MPD2    H512854   3.963   1.397  14.136  1.0998 -1.1891 -1.8302
  872MPD2    N112855   4.281   1.671  13.757 -0.6532  0.3604 -0.8314
  872MPD2    H712856   4.320   1.734  13.826 -0.8046  0.1873 -0.5853
  873MPD2     C12857   0.948   1.164   0.541 -0.5996 -0.5812 -0.4477
  873MPD2    C112858   0.858   1.090   0.618 -0.1262  0.0674  0.0217
  873MPD2    C212859   0.871   0.953   0.626 -0.6110 -0.2483  0.2365
  873MPD2    C312860   0.974   0.891   0.556  0.4717 -0.3318 -0.2941
  873MPD2    C412861   1.061   0.966   0.479 -0.7834  0.2473  0.8621
  873MPD2    C512862   1.049   1.103   0.472  0.2998 -0.3750  0.2819
  873MPD2     H12863   0.804   0.888   0.682 -0.4275  0.9936  1.8920
  873MPD2    H112864   1.149   0.914   0.442 -1.6218  0.0583 -0.8733
  873MPD2    H212865   0.932   1.270   0.529 -0.3958 -0.6339 -1.1711
  873MPD2    H312866   1.126   1.160   0.421  1.0164 -0.4255  1.3030
  873MPD2     N12867   0.985   0.752   0.551 -0.0560 -0.7554  0.4680
  873MPD2    H512868   1.041   0.708   0.478  0.9638  2.5136 -0.7096
  873MPD2    N112869   0.756   1.159   0.682 -0.6504 -0.4266  0.3028
  873MPD2    H712870   0.764   1.260   0.679 -1.0026 -0.4151 -0.2176
  874MPD2     C12871   0.159   1.342  16.106 -0.2061  0.4299 -0.0517
  874MPD2    C112872   0.269   1.311  16.180  0.4221  0.0317 -0.2827
  874MPD2    C212873   0.382   1.395  16.177 -0.1995  0.3852 -0.2346
  874MPD2    C312874   0.385   1.500  16.088  0.1577 -0.0793  0.6105
  874MPD2    C412875   0.273   1.524  16.012 -0.3489 -0.4998  0.2568
  874MPD2    C512876   0.159   1.452  16.026  0.0124 -0.2095  0.7991
  874MPD2     H12877   0.475   1.391  16.232 -0.4925  0.7691  0.2948
  874MPD2    H112878   0.275   1.595  15.929 -0.3456  0.0433  0.7223
  874MPD2    H212879   0.064   1.289  16.106 -0.3942  0.7489 -3.1975
  874MPD2    H312880   0.073   1.474  15.963  0.0379  1.4501  1.3338
  874MPD2     N12881   0.515   1.550  16.066 -0.2101  0.1721  0.0795
  874MPD2    H512882   0.584   1.513  16.130 -0.8616 -0.5765  0.3434
  874MPD2    N112883   0.268   1.198  16.268 -0.2398 -0.4107  0.3539
  874MPD2    H712884   0.190   1.134  16.271 -0.4845 -0.0905  1.0598
  875MPD2     C12885   2.120   4.669  14.598  1.0072 -0.2745 -0.2357
  875MPD2    C112886   1.992   4.704  14.643  0.4134 -0.3204  0.5928
  875MPD2    C212887   1.996   0.039  14.759 -0.2109  0.4804  0.1263
  875MPD2    C312888   2.107   0.064  14.830 -0.0546 -0.1500  0.3167
  875MPD2    C412889   2.231   0.037  14.775 -0.4416 -0.0041 -0.4225
  875MPD2    C512890   2.233   4.713  14.657 -0.2362 -0.6401  0.7850
  875MPD2     H12891   1.904   0.082  14.798  0.7590  0.8694  1.9468
  875MPD2    H112892   2.329   0.045  14.821 -1.2009 -2.3375  1.6338
  875MPD2    H212893   2.139   4.605  14.513  0.1275  1.5711 -1.8336
  875MPD2    H312894   2.324   4.672  14.614 -2.0993 -0.0749 -3.6844
  875MPD2     N12895   2.119   0.116  14.963  0.2193 -0.1390  0.2557
  875MPD2    H512896   2.211   0.121  15.006  0.5250  1.6304 -0.6079
  875MPD2    N112897   1.873   4.674  14.581 -0.5094 -0.4970  0.2951
  875MPD2    H712898   1.790   4.709  14.627 -0.5673  2.3024 -1.8762
  876MPD2     C12899   0.480   1.412  15.718 -0.4900  0.4913  0.1107
  876MPD2    C112900   0.618   1.391  15.710  0.5956  0.8002 -0.1464
  876MPD2    C212901   0.673   1.274  15.769  0.3773 -0.2871  0.1260
  876MPD2    C312902   0.609   1.186  15.838 -0.3703 -0.2450  0.6097
  876MPD2    C412903   0.470   1.207  15.847 -0.4628  0.3171  0.2782
  876MPD2    C512904   0.411   1.322  15.793 -0.2142 -0.4904 -0.0977
  876MPD2     H12905   0.777   1.252  15.750  0.1998 -1.9183  1.1242
  876MPD2    H112906   0.405   1.130  15.885 -1.1881  1.0951  0.6237
  876MPD2    H212907   0.419   1.495  15.682 -0.4539  0.6756  0.4794
  876MPD2    H312908   0.303   1.333  15.803  0.0011  2.3303 -0.8746
  876MPD2     N12909   0.679   1.070  15.879  0.1742 -0.2782 -0.3462
  876MPD2    H512910   0.773   1.054  15.846  0.6020  1.7690 -0.1377
  876MPD2    N112911   0.687   1.485  15.638 -0.2409 -0.0661 -0.2033
  876MPD2    H712912   0.632   1.552  15.586  1.6003  0.6038 -1.2900
  877MPD2     C12913   0.767   1.720  14.913 -0.5352  0.1328 -0.1750
  877MPD2    C112914   0.867   1.783  14.988  0.3370  0.3554  0.3133
  877MPD2    C212915   0.951   1.868  14.926 -0.2091 -0.2793 -0.5114
  877MPD2    C312916   0.938   1.890  14.790 -1.3741 -0.3725 -0.0149
  877MPD2    C412917   0.832   1.843  14.719  0.3402  0.0149 -0.2322
  877MPD2    C512918   0.740   1.772  14.783  0.0987  0.8440 -0.5453
  877MPD2     H12919   1.035   1.912  14.978 -1.2701 -0.0899  1.0652
  877MPD2    H112920   0.810   1.872  14.617  1.8109  0.0300 -0.5409
  877MPD2    H212921   0.701   1.648  14.959  0.0403  0.0231  0.4812
  877MPD2    H312922   0.657   1.728  14.728  0.3109 -1.6594  1.1344
  877MPD2     N12923   1.043   1.948  14.716  0.4498 -0.7806 -0.5566
  877MPD2    H512924   1.024   1.957  14.617  1.9514 -2.9074 -1.0475
  877MPD2    N112925   0.888   1.774  15.127  0.1372  0.5095 -0.5930
  877MPD2    H712926   0.972   1.817  15.163  0.3612  1.0247 -1.7121
  878MPD2     C12927   0.838   0.508  13.209  1.0187 -0.0647  0.2114
  878MPD2    C112928   0.765   0.628  13.212  0.0100 -0.7190  0.5249
  878MPD2    C212929   0.717   0.684  13.330 -0.6353  0.1093  0.2198
  878MPD2    C312930   0.743   0.614  13.450 -0.1552 -0.1297 -0.2505
  878MPD2    C412931   0.816   0.500  13.449  1.0347  0.7278  0.2443
  878MPD2    C512932   0.873   0.448  13.328 -0.1732  0.3175  0.1180
  878MPD2     H12933   0.652   0.770  13.338 -0.2054  0.4727 -0.2104
  878MPD2    H112934   0.859   0.459  13.540 -0.2265  0.2992  0.6403
  878MPD2    H212935   0.863   0.467  13.111 -2.6611 -0.3517 -0.6031
  878MPD2    H312936   0.938   0.361  13.337  0.5665  1.0628  2.1198
  878MPD2     N12937   0.688   0.670  13.567  0.1884 -0.4855 -0.0900
  878MPD2    H512938   0.615   0.740  13.554  0.8800  0.1557 -0.5654
  878MPD2    N112939   0.734   0.674  13.085 -0.5615  0.0580 -0.0442
  878MPD2    H712940   0.769   0.619  13.008  0.6266  0.0102  0.5228
  879MPD2     C12941   0.652   2.252  16.963 -0.4365 -1.0246  0.5894
  879MPD2    C112942   0.712   2.129  16.982 -0.1838  0.6106 -0.3836
  879MPD2    C212943   0.681   2.030  16.894  0.2104  0.3307 -0.6686
  879MPD2    C312944   0.585   2.047  16.794  0.1675 -0.2040  0.4977
  879MPD2    C412945   0.527   2.172  16.778 -0.3700  0.3883 -0.5284
  879MPD2    C512946   0.557   2.269  16.866  0.2349 -0.1609  0.4767
  879MPD2     H12947   0.724   1.930  16.901 -0.8126 -0.0093  0.7588
  879MPD2    H112948   0.458   2.202  16.699 -1.4260 -0.6412  0.0104
  879MPD2    H212949   0.676   2.337  17.026 -0.1584  0.0979 -1.0245
  879MPD2    H312950   0.494   2.357  16.863 -0.1883 -0.4397  1.2119
  879MPD2     N12951   0.544   1.946  16.701  0.7139  0.3414 -0.0004
  879MPD2    H512952   0.468   1.965  16.636  0.3051  0.4966  0.5303
  879MPD2    N112953   0.808   2.116  17.090 -0.1354  0.2930 -0.7513
  879MPD2    H712954   0.825   2.204  17.138  2.0498 -1.9896  2.6901
  880MPD2     C12955   1.875   3.847   0.156  0.4673  0.1587 -0.6336
  880MPD2    C112956   1.851   3.922   0.266 -0.3888  0.0996 -0.2326
  880MPD2    C212957   1.845   3.866   0.397  0.0181  0.0169  0.4915
  880MPD2    C312958   1.852   3.724   0.407  0.2319  0.2529  0.4364
  880MPD2    C412959   1.874   3.650   0.291  0.2158  0.4648  0.2386
  880MPD2    C512960   1.881   3.714   0.173 -0.1623 -0.2371  0.2458
  880MPD2     H12961   1.848   3.942   0.474  0.4796 -0.1828  0.6698
  880MPD2    H112962   1.879   3.542   0.283  0.1836  0.4576  0.3087
  880MPD2    H212963   1.880   3.890   0.056 -1.9378 -0.9310 -1.2322
  880MPD2    H312964   1.889   3.645   0.089 -0.3322 -3.4169  2.8218
  880MPD2     N12965   1.857   3.671   0.537 -0.1228 -0.0691  0.5151
  880MPD2    H512966   1.820   3.728   0.612  2.8459  2.0346  0.3683
  880MPD2    N112967   1.836   4.061   0.237 -0.0326  0.2600  0.6283
  880MPD2    H712968   1.849   4.097   0.143  0.3139 -1.3758  0.0474
  881MPD2     C12969   2.340   0.111  17.699  0.0542  0.0149  0.2297
  881MPD2    C112970   2.308   4.732  17.653 -0.9216  0.3286 -0.0766
  881MPD2    C212971   2.230   4.647  17.729 -0.2003 -0.5330  0.0158
  881MPD2    C312972   2.201   4.683   0.102  0.2260 -0.7006  0.5303
  881MPD2    C412973   2.260   0.058   0.151  0.4535 -0.2937  0.9903
  881MPD2    C512974   2.320   0.135   0.068 -0.1525 -0.1016  0.0955
  881MPD2     H12975   2.185   4.556  17.690  1.6346 -2.2167  1.8480
  881MPD2    H112976   2.249   0.081   0.256  0.2656 -1.0158  1.1346
  881MPD2    H212977   2.370   0.195  17.637  1.4991  0.1688  1.1278
  881MPD2    H312978   2.361   0.229   0.102  1.2527 -0.8010  0.3306
  881MPD2     N12979   2.128   4.604   0.194 -0.2408 -0.6823 -0.3547
  881MPD2    H512980   2.110   4.630   0.290 -1.1978 -1.2322 -0.3853
  881MPD2    N112981   2.312   4.726  17.515 -0.7794 -0.0869 -0.0190
  881MPD2    H712982   2.359   0.062  17.470  2.4340 -2.2806 -0.3812
  882MPD2     C12983   0.996   1.773  14.046  0.4233 -1.1848 -0.1635
  882MPD2    C112984   0.970   1.838  14.168 -0.3531  0.6085  0.4765
  882MPD2    C212985   0.845   1.827  14.229  0.0587 -0.2022 -0.0863
  882MPD2    C312986   0.752   1.735  14.175  0.1975 -0.2900  0.2363
  882MPD2    C412987   0.776   1.667  14.057 -0.1793 -0.3307 -0.6628
  882MPD2    C512988   0.893   1.694  13.992 -0.0189  0.1769  0.2275
  882MPD2     H12989   0.827   1.889  14.316 -0.3203 -0.4101 -0.0147
  882MPD2    H112990   0.699   1.604  14.014 -2.1575  0.4811  1.7156
  882MPD2    H212991   1.086   1.798  13.990  0.0272 -0.8150 -0.6322
  882MPD2    H312992   0.904   1.645  13.896 -0.0706 -0.8365  0.7345
  882MPD2     N12993   0.629   1.707  14.248  0.6799  0.2234  0.1806
  882MPD2    H512994   0.565   1.643  14.202  0.6926  1.4852 -1.5773
  882MPD2    N112995   1.075   1.908  14.229 -0.3990 -0.0951  0.1842
  882MPD2    H712996   1.163   1.920  14.181 -0.3671  0.3103  0.3444
  883MPD2     C12997   2.350   1.079  15.846  0.1778  0.0486 -0.1667
  883MPD2    C112998   2.358   1.214  15.819  0.0351 -0.6942  0.2371
  883MPD2    C212999   2.472   1.285  15.869 -0.6379  0.0478  0.0154
  883MPD2    C313000   2.566   1.221  15.944  0.0266  0.7106  0.8644
  883MPD2    C413001   2.557   1.087  15.976  0.5735  0.3559 -0.1665
  883MPD2    C513002   2.448   1.017  15.923 -0.0879  0.1339  0.4643
  883MPD2     H13003   2.490   1.386  15.832  1.1923  0.1186  1.0717
  883MPD2    H113004   2.624   1.043  16.049  0.1701  1.0667  0.6361
  883MPD2    H213005   2.264   1.020  15.818 -0.7753  1.3547 -0.0292
  883MPD2    H313006   2.441   0.912  15.951 -2.0576  0.2063  0.2173
  883MPD2     N13007   2.679   1.287  15.995  0.3916  0.1088 -0.8426
  883MPD2    H513008   2.728   1.240  16.070 -2.6380  0.1591  1.1630
  883MPD2    N113009   2.273   1.289  15.739 -0.8587 -0.0166  0.2117
  883MPD2    H713010   2.306   1.384  15.726 -0.9037  0.0726  0.7421
  884MPD2     C13011   4.699   2.294  15.002  0.2053 -0.3888 -0.8263
  884MPD2    C113012   4.665   2.414  14.945 -0.0673  0.1014 -0.0496
  884MPD2    C213013   4.528   2.451  14.940  0.3474 -0.2243  0.3852
  884MPD2    C313014   4.428   2.375  14.985 -0.3646  0.2690  0.7973
  884MPD2    C413015   4.471   2.259  15.057  0.1371  0.2594  0.3741
  884MPD2    C513016   4.603   2.222  15.057 -0.0541 -0.1379 -0.1804
  884MPD2     H13017   4.504   2.542  14.886 -1.3205  0.5280  2.3948
  884MPD2    H113018   4.406   2.183  15.099 -0.6747  2.2684  2.7581
  884MPD2    H213019   0.059   2.257  15.012  0.1608 -0.8175 -1.9799
  884MPD2    H313020   4.627   2.127  15.104  0.6816  0.1331 -0.0216
  884MPD2     N13021   4.290   2.408  14.963 -0.1971 -0.0768 -0.7491
  884MPD2    H513022   4.262   2.497  14.925  1.4141 -0.2876 -2.4496
  884MPD2    N113023   0.014   2.501  14.894  0.3266 -0.1409 -0.0367
  884MPD2    H713024   4.722   2.573  14.831  1.8971 -1.1251 -2.0130
  885MPD2     C13025   2.862   2.066   0.464  0.3739 -1.0580  0.2262
  885MPD2    C113026   2.924   2.178   0.518  0.4605 -0.1754  0.5247
  885MPD2    C213027   2.943   2.289   0.437 -0.2475  0.0385  0.2681
  885MPD2    C313028   2.900   2.291   0.302 -0.2282 -0.1943  0.4316
  885MPD2    C413029   2.832   2.185   0.251  0.1101 -1.3169  0.0821
  885MPD2    C513030   2.806   2.074   0.334  0.2091  0.3753  0.1708
  885MPD2     H13031   2.993   2.375   0.480  2.1484 -2.0306  1.5940
  885MPD2    H113032   2.783   2.180   0.154  0.9384  0.5030 -0.4236
  885MPD2    H213033   2.863   1.978   0.526 -0.0878 -1.9472 -1.0379
  885MPD2    H313034   2.773   1.986   0.279 -1.4457  1.2448 -0.2197
  885MPD2     N13035   2.921   2.397   0.213  0.3785 -0.6870 -0.2440
  885MPD2    H513036   2.893   2.382   0.117  0.5098 -1.3368 -0.1865
  885MPD2    N113037   2.971   2.162   0.653  0.3647  0.6658  0.2307
  885MPD2    H713038   2.949   2.070   0.688 -0.9142 -0.1314 -2.6119
  886MPD2     C13039   3.919   1.091  15.097  0.0669 -0.0622  0.0706
  886MPD2    C113040   4.046   1.034  15.089  0.1567  0.4665 -0.1444
  886MPD2    C213041   4.139   1.080  14.993 -0.2622  0.3600 -0.9227
  886MPD2    C313042   4.106   1.189  14.909  0.0240  0.5407  0.2289
  886MPD2    C413043   3.983   1.247  14.915 -0.3563  0.0283  0.3211
  886MPD2    C513044   3.896   1.195  15.008  0.0966  0.6130 -0.4195
  886MPD2     H13045   4.238   1.037  15.000 -0.1423  0.6838 -0.6552
  886MPD2    H113046   3.951   1.333  14.859 -0.4909  0.8524  1.6813
  886MPD2    H213047   3.841   1.066  15.168 -1.8253  2.3342 -1.1507
  886MPD2    H313048   3.803   1.244  15.032  0.5458  0.7582  1.0162
  886MPD2     N13049   4.209   1.256  14.836 -0.6231 -0.0744  0.3075
  886MPD2    H513050   4.177   1.337  14.784 -1.4724  0.1212  1.1292
  886MPD2    N113051   4.095   0.933  15.175 -0.0106 -0.0518  0.1280
  886MPD2    H713052   4.194   0.908  15.180 -0.7082 -2.5594  1.6390
  887MPD2     C13053   0.001   0.779  15.453 -0.0123 -0.3258  1.1814
  887MPD2    C113054   4.651   0.873  15.419 -0.6851  0.8336  0.9708
  887MPD2    C213055   4.691   1.001  15.380  0.0284 -0.5225  0.1925
  887MPD2    C313056   0.083   1.040  15.395  0.0864  0.3942  0.2872
  887MPD2    C413057   0.176   0.941  15.430  0.4751 -0.1828 -0.2798
  887MPD2    C513058   0.134   0.816  15.461  0.4333 -0.4306 -0.3281
  887MPD2     H13059   4.609   1.064  15.349 -0.3301 -0.7497  0.6617
  887MPD2    H113060   0.282   0.960  15.428  0.5003 -0.1808  1.6104
  887MPD2    H213061   4.719   0.680  15.490  0.5441 -0.4061  1.3326
  887MPD2    H313062   0.208   0.739  15.479  1.2017  0.1017 -1.2202
  887MPD2     N13063   0.114   1.170  15.356  0.0441  0.4448  0.7539
  887MPD2    H513064   0.048   1.214  15.293  0.5594 -0.7132 -0.5781
  887MPD2    N113065   4.512   0.834  15.412 -0.5573 -0.6398 -0.3726
  887MPD2    H713066   4.447   0.910  15.393 -0.0682 -0.3742 -0.9721
  888MPD2     C13067   1.869   0.990  14.482 -0.0665  0.1442  0.2377
  888MPD2    C113068   1.882   0.990  14.617  0.2186  0.4019 -0.2105
  888MPD2    C213069   1.959   1.097  14.672 -0.4460  0.2861  0.4130
  888MPD2    C313070   1.996   1.207  14.595 -0.3131  0.0366  0.8609
  888MPD2    C413071   1.958   1.211  14.461  0.2121  0.3245  0.4397
  888MPD2    C513072   1.902   1.097  14.411  0.3294 -0.1108  0.0924
  888MPD2     H13073   1.975   1.092  14.779  0.8583 -1.2053  0.1566
  888MPD2    H113074   1.969   1.298  14.397 -0.1821 -0.4176 -0.6496
  888MPD2    H213075   1.812   0.913  14.431 -1.8743  0.5041  1.7170
  888MPD2    H313076   1.887   1.101  14.304 -0.3304 -1.1627  0.1434
  888MPD2     N13077   2.058   1.318  14.656 -0.2361 -0.0234 -0.0655
  888MPD2    H513078   2.050   1.323  14.757  0.3373 -0.2847 -0.0095
  888MPD2    N113079   1.860   0.877  14.698 -0.3124  0.8109 -0.6161
  888MPD2    H713080   1.912   0.868  14.785 -1.8671 -0.2061  0.2070
  889MPD2     C13081   1.099   0.497  12.660 -0.0164  0.5122  0.3270
  889MPD2    C113082   1.128   0.431  12.773 -0.3810  0.1547 -0.0676
  889MPD2    C213083   1.129   0.505  12.887 -0.0111 -0.2084  0.6174
  889MPD2    C313084   1.082   0.634  12.894  0.2693  0.0164  0.5084
  889MPD2    C413085   1.063   0.706  12.774  0.7629  0.3894  0.2895
  889MPD2    C513086   1.082   0.633  12.658 -0.6616 -0.0877  0.1393
  889MPD2     H13087   1.146   0.456  12.982  3.3217  0.2468  0.2818
  889MPD2    H113088   1.048   0.813  12.771  1.1176  0.4334  0.0571
  889MPD2    H213089   1.114   0.439  12.569 -0.0760 -0.1322  0.7320
  889MPD2    H313090   1.070   0.689  12.566  0.1535  1.0436  0.7105
  889MPD2     N13091   1.077   0.700  13.023 -0.1533 -0.0481  0.3577
  889MPD2    H513092   1.105   0.641  13.100 -0.9112 -1.1579 -0.2172
  889MPD2    N113093   1.189   0.299  12.775 -0.4021  0.3349  0.4008
  889MPD2    H713094   1.234   0.269  12.861 -0.1032  1.8447  0.7646
  890MPD2     C13095   0.424   2.733  14.391 -0.4284 -0.1891 -0.1415
  890MPD2    C113096   0.553   2.773  14.435 -0.0163  0.0649  0.0948
  890MPD2    C213097   0.625   2.685  14.513 -0.1727  0.4515 -0.5661
  890MPD2    C313098   0.569   2.562  14.559 -0.3760  0.0989 -0.6801
  890MPD2    C413099   0.440   2.534  14.520  0.2717  0.0191  0.6872
  890MPD2    C513100   0.369   2.618  14.441 -0.5903  0.1905  0.5871
  890MPD2     H13101   0.724   2.715  14.545 -0.3710  1.8459 -1.2598
  890MPD2    H113102   0.397   2.440  14.552 -0.8386  0.6382  1.0088
  890MPD2    H213103   0.364   2.789  14.320  0.2643 -0.9770 -1.3496
  890MPD2    H313104   0.269   2.590  14.410 -0.8561  0.6134  1.0683
  890MPD2     N13105   0.660   2.482  14.638  0.5209  0.7401 -0.2661
  890MPD2    H513106   0.752   2.524  14.641  0.4841  0.8627 -0.8146
  890MPD2    N113107   0.612   2.891  14.381  0.4024  0.5170 -0.0818
  890MPD2    H713108   0.549   2.951  14.329  0.8157  0.5053 -0.6066
  891MPD2     C13109   3.589   0.676  16.590  0.9451 -0.2980 -0.4298
  891MPD2    C113110   3.522   0.698  16.716 -0.3777 -0.0402  0.1916
  891MPD2    C213111   3.594   0.680  16.831 -0.4124 -0.2866 -0.9248
  891MPD2    C313112   3.719   0.633  16.826  0.0491  0.3041 -0.5857
  891MPD2    C413113   3.781   0.601  16.710 -0.3612 -0.1879  0.3638
  891MPD2    C513114   3.714   0.622  16.591 -0.9957  0.2494  0.4648
  891MPD2     H13115   3.545   0.689  16.927  2.7972 -0.0970  0.6702
  891MPD2    H113116   3.885   0.570  16.706 -0.4099 -0.2322 -0.6421
  891MPD2    H213117   3.537   0.691  16.497 -0.2771 -0.7488  0.1669
  891MPD2    H313118   3.757   0.598  16.495  0.8432  0.2210  1.2984
  891MPD2     N13119   3.777   0.623  16.954  0.4649  0.3998 -0.3423
  891MPD2    H513120   3.715   0.637  17.033  0.3574  1.3407 -0.5923
  891MPD2    N113121   3.392   0.751  16.708  0.4878 -0.4428 -0.2909
  891MPD2    H713122   3.363   0.771  16.613  2.2356 -0.1382 -0.7591
  892MPD2     C13123   4.683   2.289  14.646  0.0676 -0.0995  0.3127
  892MPD2    C113124   4.624   2.159  14.660 -0.3793 -0.4381  0.1936
  892MPD2    C213125   4.701   2.048  14.627 -0.7582  0.1174  0.0030
  892MPD2    C313126   0.093   2.060  14.596  0.0918 -0.3604 -0.5484
  892MPD2    C413127   0.149   2.187  14.598 -0.4106 -0.9090 -0.3004
  892MPD2    C513128   0.081   2.296  14.624  0.1054 -0.0035 -0.2265
  892MPD2     H13129   4.657   1.950  14.640  0.3305 -0.2331  0.9780
  892MPD2    H113130   0.254   2.193  14.572  0.1885 -1.6952  1.8763
  892MPD2    H213131   4.627   2.381  14.655 -0.0174 -0.0026 -1.1858
  892MPD2    H313132   0.127   2.394  14.622  1.2282 -0.4972  1.8222
  892MPD2     N13133   0.185   1.951  14.574  0.1986 -0.2097 -0.2985
  892MPD2    H513134   0.281   1.977  14.591 -0.4141  2.2782 -0.5885
  892MPD2    N113135   4.487   2.147  14.676  0.1735 -0.0401  0.3720
  892MPD2    H713136   4.434   2.234  14.675 -0.1526 -0.2381  0.9855
  893MPD2     C13137   0.622   4.600   1.101 -0.1496  0.2073 -0.6785
  893MPD2    C113138   0.673   4.527   0.994  0.2824 -0.1089  0.6510
  893MPD2    C213139   0.592   4.433   0.930 -1.8345  0.3466 -0.5161
  893MPD2    C313140   0.459   4.411   0.971  0.0285  0.0868 -0.0265
  893MPD2    C413141   0.412   4.486   1.080 -0.9828 -0.0702  0.2989
  893MPD2    C513142   0.487   4.580   1.138 -0.0013  0.2755  0.0078
  893MPD2     H13143   0.627   4.369   0.849  1.0270  0.0065  0.9746
  893MPD2    H113144   0.313   4.473   1.122 -1.7653  0.4611 -1.3557
  893MPD2    H213145   0.681   4.674   1.153  0.7207  0.7085 -2.3742
  893MPD2    H313146   0.443   4.652   1.205  0.0896  0.5646 -0.2419
  893MPD2     N13147   0.368   4.311   0.929  0.9972  0.0179  0.1253
  893MPD2    H513148   0.278   4.309   0.975  0.7566  0.4258 -0.3290
  893MPD2    N113149   0.807   4.551   0.951  0.2712  0.2187  0.2879
  893MPD2    H713150   0.842   4.631   1.002  0.9276  1.7542 -2.5387
  894MPD2     C13151   4.131   2.156   1.274  0.3506 -0.3412 -0.2320
  894MPD2    C113152   4.057   2.269   1.264 -0.1502 -0.2273  0.5294
  894MPD2    C213153   4.111   2.378   1.201 -0.1431 -0.4855  0.0640
  894MPD2    C313154   4.244   2.380   1.157 -0.1828  0.7664  0.4440
  894MPD2    C413155   4.319   2.262   1.174  0.5619 -0.1999 -0.3174
  894MPD2    C513156   4.260   2.153   1.240 -0.0619 -1.0041  0.5263
  894MPD2     H13157   4.054   2.470   1.194  0.2617 -0.0566  2.3578
  894MPD2    H113158   4.423   2.256   1.144  0.2843  2.4077 -1.7281
  894MPD2    H213159   4.094   2.064   1.317 -0.3808 -1.1672 -2.5851
  894MPD2    H313160   4.303   2.055   1.258  1.2874 -0.4112  0.5692
  894MPD2     N13161   4.295   2.500   1.096 -0.1988  0.0425 -0.1732
  894MPD2    H513162   4.238   2.584   1.099  1.3097  1.0546  0.3510
  894MPD2    N113163   3.919   2.277   1.304  0.3497 -0.1998 -0.2723
  894MPD2    H713164   3.859   2.349   1.266 -2.3854 -2.4113 -0.1379
  895MPD2     C13165   4.010   0.742  13.845 -1.0035  0.0731  0.5500
  895MPD2    C113166   3.914   0.774  13.743  0.2659 -0.7890 -0.0804
  895MPD2    C213167   3.906   0.703  13.626  0.0782  0.6575  0.2064
  895MPD2    C313168   3.984   0.590  13.617  0.0926  0.2918 -0.2790
  895MPD2    C413169   4.069   0.544  13.719 -0.6049 -0.0632  0.7040
  895MPD2    C513170   4.081   0.616  13.831  0.0327 -0.4531 -0.0464
  895MPD2     H13171   3.829   0.734  13.555  0.9504  0.8762 -0.6511
  895MPD2    H113172   4.130   0.456  13.712  0.0975  0.2770  2.6786
  895MPD2    H213173   4.019   0.804  13.934 -2.2122  0.8476  0.1368
  895MPD2    H313174   4.159   0.591  13.902  1.1503 -1.5943 -1.6757
  895MPD2     N13175   3.993   0.510  13.500 -0.7896  0.0456 -1.2282
  895MPD2    H513176   4.038   0.419  13.503  0.1035  0.3686 -4.8164
  895MPD2    N113177   3.827   0.885  13.745  0.0326  0.1235 -0.9736
  895MPD2    H713178   3.767   0.895  13.665 -0.3432  0.8433 -0.6030
  896MPD2     C13179   0.799   3.622   1.258 -0.4637 -0.0159  0.2651
  896MPD2    C113180   0.828   3.541   1.143  0.1186  0.3997  0.3452
  896MPD2    C213181   0.725   3.492   1.064  0.0497 -0.2574 -0.7847
  896MPD2    C313182   0.592   3.512   1.103 -0.5818 -0.0451  0.4127
  896MPD2    C413183   0.562   3.577   1.218  0.0225  0.2562 -0.3224
  896MPD2    C513184   0.667   3.634   1.289 -0.9177 -0.1436 -1.1340
  896MPD2     H13185   0.748   3.429   0.978  0.4603  0.8810 -1.5111
  896MPD2    H113186   0.461   3.577   1.256 -0.2164 -0.8949 -0.9597
  896MPD2    H213187   0.870   3.670   1.324 -1.6052  1.5761  0.3453
  896MPD2    H313188   0.629   3.686   1.377 -0.4698 -0.8627 -0.5190
  896MPD2     N13189   0.499   3.444   1.029  0.2595  0.2895  0.3726
  896MPD2    H513190   0.529   3.385   0.952  0.3744 -0.3526  0.9118
  896MPD2    N113191   0.960   3.513   1.116 -0.7717 -0.3960  0.0405
  896MPD2    H713192   1.032   3.559   1.170  0.4771 -0.5139 -1.5175
  897MPD2     C13193   2.798   0.065  10.616  0.0926 -0.3152  0.4383
  897MPD2    C113194   2.774   0.171  10.702  0.0853  0.4980  0.0226
  897MPD2    C213195   2.651   0.195  10.751  1.3718  0.2253 -0.1390
  897MPD2    C313196   2.549   0.105  10.733 -0.5178 -0.2160 -0.3271
  897MPD2    C413197   2.573   4.736  10.655  0.0115  0.6214  0.4054
  897MPD2    C513198   2.693   4.717  10.593 -0.0268  0.3100  0.0576
  897MPD2     H13199   2.634   0.267  10.830  1.3084 -0.6320  0.6130
  897MPD2    H113200   2.492   4.667  10.635  2.3545 -2.5233  1.6707
  897MPD2    H213201   2.900   0.040  10.589 -0.1190  0.3937 -1.0217
  897MPD2    H313202   2.712   4.627  10.535 -1.3844 -1.2174  1.9936
  897MPD2     N13203   2.427   0.125  10.795  0.4625  0.1170 -0.5675
  897MPD2    H513204   2.426   0.207  10.854 -0.5149 -1.3002  1.3717
  897MPD2    N113205   2.881   0.262  10.718 -0.7083 -0.2715  0.4892
  897MPD2    H713206   2.969   0.225  10.683  0.5716  1.2005  2.1590
  898MPD2     C13207   3.837   1.179   0.229 -0.1913 -0.3535  0.0080
  898MPD2    C113208   3.929   1.222   0.142 -0.3675  0.8953  0.1941
  898MPD2    C213209   3.920   1.344   0.083 -0.0947  0.1856 -0.1307
  898MPD2    C313210   3.815   1.424   0.118 -0.0620  0.0401  1.4362
  898MPD2    C413211   3.715   1.378   0.204  0.2454  0.5410  0.3791
  898MPD2    C513212   3.736   1.260   0.265  0.3491  0.4403  0.5000
  898MPD2     H13213   3.991   1.387   0.013  0.6388  0.4037  0.7623
  898MPD2    H113214   3.629   1.439   0.227  0.4385  0.3012  1.6946
  898MPD2    H213215   3.832   1.077   0.265  0.3188 -0.7811 -1.1550
  898MPD2    H313216   3.662   1.217   0.332  1.6983  1.1991  2.4710
  898MPD2     N13217   3.800   1.544   0.050  0.3076  0.3465  0.0762
  898MPD2    H513218   3.870   1.561  17.742  0.5258  0.0424  0.2151
  898MPD2    N113219   4.028   1.133   0.094  0.1605 -0.4319 -0.4614
  898MPD2    H713220   4.095   1.159   0.023 -0.1227  1.4849 -0.0254
  899MPD2     C13221   0.514   1.461  17.569  0.1067 -0.3966 -0.4345
  899MPD2    C113222   0.526   1.577  17.634  1.1572 -0.1770  0.7935
  899MPD2    C213223   0.488   1.587   0.003 -0.2116 -0.6000  0.4050
  899MPD2    C313224   0.424   1.483   0.059 -0.5342  0.1326 -0.1859
  899MPD2    C413225   0.379   1.381  17.742  0.1267 -0.2371 -0.9303
  899MPD2    C513226   0.434   1.371  17.623 -0.5629  0.5265 -0.7974
  899MPD2     H13227   0.506   1.679   0.058 -0.2866  1.1303 -2.4339
  899MPD2    H113228   0.321   1.302   0.025 -0.0065 -0.1786 -0.9948
  899MPD2    H213229   0.548   1.451  17.466  0.4761  0.2808 -0.3819
  899MPD2    H313230   0.420   1.278  17.568  0.1196 -0.4371  0.6593
  899MPD2     N13231   0.371   1.493   0.191 -0.1946 -0.0255  0.7583
  899MPD2    H513232   0.294   1.433   0.219 -1.8862  1.0551 -1.6116
  899MPD2    N113233   0.582   1.678  17.556  0.4060  0.1915  0.3960
  899MPD2    H713234   0.609   1.652  17.462 -2.4354 -3.2892  0.5928
  900MPD2     C13235   0.413   3.229  12.202  0.6427  0.5527  0.1334
  900MPD2    C113236   0.291   3.177  12.239  0.2344  0.1787  0.4791
  900MPD2    C213237   0.197   3.179  12.139  0.2008  0.0182  0.4908
  900MPD2    C313238   0.216   3.238  12.021 -0.2818 -0.8441  0.5096
  900MPD2    C413239   0.334   3.298  11.986  1.0728  0.1967  0.0631
  900MPD2    C513240   0.438   3.291  12.078 -0.6457  0.0047  0.3031
  900MPD2     H13241   0.095   3.144  12.151  0.7735 -1.7592  0.0573
  900MPD2    H113242   0.345   3.352  11.894 -0.5076 -1.5065 -1.1383
  900MPD2    H213243   0.494   3.228  12.273  1.2236  1.0751 -0.5244
  900MPD2    H313244   0.531   3.344  12.058 -1.1015  0.2152 -1.3273
  900MPD2     N13245   0.105   3.248  11.939 -0.2181 -0.1664  0.5206
  900MPD2    H513246   0.017   3.214  11.975  0.0483  0.9108  2.1836
  900MPD2    N113247   0.277   3.113  12.367  0.2856  0.4197  0.0993
  900MPD2    H713248   0.365   3.106  12.418  1.6254  2.0580 -1.9657
  901MPD2     C13249   4.682   2.292  12.065 -0.1883  0.7178 -0.0094
  901MPD2    C113250   0.042   2.255  12.151 -0.4855 -0.0825 -0.0448
  901MPD2    C213251   0.075   2.346  12.255  0.6991 -0.1297 -0.0682
  901MPD2    C313252   0.012   2.467  12.278  0.0289  0.4247 -0.4605
  901MPD2    C413253   4.644   2.488  12.193  0.2472 -0.2828 -1.1797
  901MPD2    C513254   4.620   2.406  12.083 -0.6151  0.7086 -0.1296
  901MPD2     H13255   0.157   2.322  12.322  1.2997 -0.6998 -1.0039
  901MPD2    H113256   4.585   2.579  12.198  0.7931  0.0227 -0.2388
  901MPD2    H213257   4.644   2.225  11.988  0.9572  0.0346  0.0181
  901MPD2    H313258   4.539   2.440  12.020 -0.1060 -0.1014 -1.2016
  901MPD2     N13259   0.054   2.544  12.393  0.6346  0.0055  0.6403
  901MPD2    H513260   0.140   2.513  12.439  1.6358 -0.4468 -1.5675
  901MPD2    N113261   0.101   2.125  12.138 -0.3830 -0.6120 -0.0004
  901MPD2    H713262   0.057   2.071  12.064  1.1156  1.0720 -2.1146
  902MPD2     C13263   3.185   1.367  13.062  0.4666 -0.0831  0.7428
  902MPD2    C113264   3.225   1.463  12.967  0.3051  1.3463 -0.9926
  902MPD2    C213265   3.367   1.493  12.949  0.0284 -0.7274 -0.0435
  902MPD2    C313266   3.463   1.441  13.034 -0.7685 -0.6160  0.4677
  902MPD2    C413267   3.423   1.347  13.123  0.6528 -0.2761  0.2958
  902MPD2    C513268   3.290   1.302  13.131 -0.3018  0.5364  0.1462
  902MPD2     H13269   3.393   1.558  12.867 -1.4787 -1.9340 -1.4823
  902MPD2    H113270   3.501   1.307  13.187 -0.3985 -2.4778  0.2119
  902MPD2    H213271   3.083   1.331  13.074 -0.4589  1.7832 -1.4231
  902MPD2    H313272   3.280   1.215  13.196  2.1576  0.3843  0.3341
  902MPD2     N13273   3.602   1.472  13.018  0.0181 -0.4088 -0.2628
  902MPD2    H513274   3.659   1.427  13.089  1.3657  0.4759 -0.7709
  902MPD2    N113275   3.140   1.538  12.882 -0.6189 -0.2346  0.2768
  902MPD2    H713276   3.191   1.590  12.812  3.2389 -1.5758  2.0764
  903MPD2     C13277   4.156   1.655  12.388  0.4013 -0.2943 -0.7807
  903MPD2    C113278   4.043   1.680  12.461  0.7012  0.1310  0.9202
  903MPD2    C213279   3.921   1.683  12.396  0.0311  0.0040 -0.7005
  903MPD2    C313280   3.912   1.676  12.261  0.1382 -0.6187 -0.5786
  903MPD2    C413281   4.029   1.665  12.189 -0.3961 -0.1171 -0.4062
  903MPD2    C513282   4.148   1.653  12.253 -0.0460 -0.8185  0.2085
  903MPD2     H13283   3.824   1.690  12.444 -0.2137 -2.4481 -0.7962
  903MPD2    H113284   4.013   1.674  12.082  1.9614  1.6730 -0.5991
  903MPD2    H213285   4.249   1.652  12.444 -1.0272  3.3371  1.8855
  903MPD2    H313286   4.233   1.640  12.187 -0.4308 -1.5136 -0.1591
  903MPD2     N13287   3.783   1.669  12.208 -0.0723  0.5410 -0.5090
  903MPD2    H513288   3.712   1.696  12.276  0.8818 -1.6512  1.3856
  903MPD2    N113289   4.063   1.687  12.598  0.3479  0.5999 -0.2077
  903MPD2    H713290   4.149   1.644  12.630 -0.3791  0.4486  1.5506
  904MPD2     C13291   4.101   0.043  13.965  0.0363 -0.1382 -0.2405
  904MPD2    C113292   4.095   0.171  14.013  0.2114 -0.0593  0.7538
  904MPD2    C213293   4.203   0.214  14.085 -0.3074  0.4081  0.6965
  904MPD2    C313294   4.317   0.136  14.106 -0.0459 -0.6387 -0.3835
  904MPD2    C413295   4.322   0.011  14.055  0.1239  0.2594 -0.9545
  904MPD2    C513296   4.211   4.711  13.985 -0.1794 -0.2693 -1.2178
  904MPD2     H13297   4.189   0.314  14.124  1.8003  0.7931  0.4821
  904MPD2    H113298   4.413   4.694  14.047 -0.6403 -0.7277 -2.1249
  904MPD2    H213299   4.028   4.728  13.909  1.3820 -3.1549  1.0817
  904MPD2    H313300   4.226   4.616  13.935  0.3419 -2.6459  3.4412
  904MPD2     N13301   4.421   0.188  14.176 -0.5214 -0.0283 -0.5623
  904MPD2    H513302   4.404   0.285  14.201 -2.4756  0.3916 -3.5982
  904MPD2    N113303   3.986   0.261  13.998  0.2777  0.1127  0.1697
  904MPD2    H713304   3.989   0.359  14.024  2.1676  0.0962  0.0458
  905MPD2     C13305   3.301   0.500  13.406 -0.7119  0.0301  0.6256
  905MPD2    C113306   3.436   0.491  13.416  0.2178 -0.4895  0.1048
  905MPD2    C213307   3.515   0.489  13.301  0.2315 -0.2511 -0.2623
  905MPD2    C313308   3.453   0.486  13.175  0.2373  0.0010  0.3859
  905MPD2    C413309   3.310   0.482  13.171  0.5282  0.3062  0.4174
  905MPD2    C513310   3.240   0.509  13.287 -0.3610 -0.3943  0.3214
  905MPD2     H13311   3.620   0.517  13.304  0.1043  0.1811  0.1273
  905MPD2    H113312   3.250   0.488  13.081 -0.8512  1.0636  1.3707
  905MPD2    H213313   3.249   0.501  13.501 -2.7581 -3.2818 -0.4303
  905MPD2    H313314   3.133   0.526  13.286 -0.2976 -0.0652 -1.1656
  905MPD2     N13315   3.520   0.474  13.047  0.2342 -0.0725 -0.1995
  905MPD2    H513316   3.462   0.459  12.965 -0.5786 -2.3470  0.7663
  905MPD2    N113317   3.493   0.490  13.548  0.6537 -0.0918 -0.2455
  905MPD2    H713318   3.434   0.511  13.628  1.5017  0.9150  0.1159
  906MPD2     C13319   0.927   0.202  11.511  0.3158 -0.0749 -0.2212
  906MPD2    C113320   0.872   0.144  11.399 -0.3625 -0.1385  0.3815
  906MPD2    C213321   0.774   0.042  11.413  0.1165 -0.1842 -0.1350
  906MPD2    C313322   0.724   0.018  11.538 -0.2031  0.5689  0.2952
  906MPD2    C413323   0.780   0.085  11.645 -0.7757 -0.7470  0.0997
  906MPD2    C513324   0.880   0.178  11.633 -0.1621  0.4859 -0.1978
  906MPD2     H13325   0.742   4.726  11.327 -0.5560 -0.8134  0.5432
  906MPD2    H113326   0.753   0.055  11.746 -0.1217  0.7322  0.7104
  906MPD2    H213327   1.007   0.275  11.511  0.1327  0.1362 -1.5450
  906MPD2    H313328   0.923   0.222  11.722  0.7855 -0.5695 -0.1323
  906MPD2     N13329   0.631   4.656  11.569  0.3546 -0.0428  0.7258
  906MPD2    H513330   0.610   4.636  11.666 -0.6959 -0.1680  0.4720
  906MPD2    N113331   0.917   0.162  11.271  0.2701  0.7721  0.2997
  906MPD2    H713332   0.882   0.110  11.191 -1.1827 -2.9053  3.3040
  907MPD2     C13333   0.259   4.673  15.336  0.5442  0.1940 -0.0800
  907MPD2    C113334   0.189   4.552  15.352  0.1060 -0.3679  0.9073
  907MPD2    C213335   0.215   4.478  15.465 -0.6053 -0.2895  0.0968
  907MPD2    C313336   0.316   4.515  15.549  0.9248 -0.0642 -0.4105
  907MPD2    C413337   0.381   4.632  15.529  0.2131  0.0895 -0.4001
  907MPD2    C513338   0.355   4.710  15.420 -0.2668  0.3288 -0.5775
  907MPD2     H13339   0.160   4.385  15.471 -1.2558  0.1752  1.2084
  907MPD2    H113340   0.469   4.661  15.587 -0.7616  1.2964  0.4857
  907MPD2    H213341   0.240   4.736  15.251  0.3014  0.8225  0.4469
  907MPD2    H313342   0.412   0.060  15.407  0.5483  0.0181  0.7965
  907MPD2     N13343   0.354   4.424  15.649 -0.1470  0.0336  0.2592
  907MPD2    H513344   0.298   4.340  15.658 -0.0173 -0.1914 -1.1095
  907MPD2    N113345   0.083   4.506  15.262 -0.0839  0.0886 -0.0022
  907MPD2    H713346   0.045   4.413  15.277 -2.2712  1.2661  1.6446
  908MPD2     C13347   3.501   0.226  10.172  0.8038  0.3306  0.0188
  908MPD2    C113348   3.444   0.148  10.271 -0.2813 -0.5781  0.3308
  908MPD2    C213349   3.390   0.205  10.384 -0.3886 -1.1416 -0.0432
  908MPD2    C313350   3.391   0.338  10.406  0.0212 -0.0437  0.2602
  908MPD2    C413351   3.456   0.419  10.317  0.4237 -1.0404  0.6390
  908MPD2    C513352   3.511   0.363  10.203 -0.3596  0.1774 -0.4458
  908MPD2     H13353   3.325   0.145  10.447 -1.4481 -0.3595 -0.3946
  908MPD2    H113354   3.469   0.522  10.345  1.1700 -1.1082  0.5383
  908MPD2    H213355   3.539   0.191  10.077 -2.1243  1.0834 -1.4085
  908MPD2    H313356   3.559   0.425  10.128 -0.6146  1.5824  0.5410
  908MPD2     N13357   3.326   0.381  10.526  0.1786 -0.2374  0.3200
  908MPD2    H513358   3.286   0.311  10.587 -2.0420  1.4706  0.8141
  908MPD2    N113359   3.458   0.011  10.252  0.2354 -0.1985  0.0904
  908MPD2    H713360   3.491   4.722  10.161  0.7759  2.5368 -0.6333
  909MPD2     C13361   2.716   2.761  11.859 -0.1080  0.4501 -0.0001
  909MPD2    C113362   2.727   2.888  11.807  0.4170 -0.0876  0.0110
  909MPD2    C213363   2.648   2.990  11.859 -0.1281  0.2066 -0.6236
  909MPD2    C313364   2.590   2.968  11.983  0.5575 -0.1371 -0.5043
  909MPD2    C413365   2.575   2.845  12.034 -0.4531 -0.4876  1.2974
  909MPD2    C513366   2.633   2.738  11.968  0.3557  0.1593  0.4281
  909MPD2     H13367   2.635   3.082  11.803  2.8155  1.3157  0.5612
  909MPD2    H113368   2.518   2.822  12.123 -1.5093  0.2703  0.8226
  909MPD2    H213369   2.772   2.679  11.816 -1.2758  0.2386 -1.1005
  909MPD2    H313370   2.622   2.638  12.009  2.6241  0.4818  1.8411
  909MPD2     N13371   2.532   3.081  12.043 -0.5495 -0.0932 -0.0371
  909MPD2    H513372   2.540   3.166  11.989 -0.9521  0.3700  0.6282
  909MPD2    N113373   2.814   2.918  11.699 -0.4280  0.2725 -0.1656
  909MPD2    H713374   2.823   3.017  11.678  0.2789  0.7166  2.1416
  910MPD2     C13375   3.635   0.108  16.023 -0.2687 -0.4339  0.3114
  910MPD2    C113376   3.742   0.063  15.952  0.0026 -0.0792 -0.0860
  910MPD2    C213377   3.757   0.111  15.828 -0.4025 -0.3771  0.5324
  910MPD2    C313378   3.669   0.206  15.769 -0.5343 -0.0893  0.1037
  910MPD2    C413379   3.570   0.261  15.848 -0.1305 -0.5094  0.1968
  910MPD2    C513380   3.553   0.206  15.979 -0.9284 -0.3543  0.1897
  910MPD2     H13381   3.835   0.074  15.763 -0.0367  2.8590 -0.8823
  910MPD2    H113382   3.502   0.339  15.817 -0.5275 -1.2926 -0.9139
  910MPD2    H213383   3.628   0.091  16.129 -1.2780 -1.6291  0.0396
  910MPD2    H313384   3.468   0.242  16.036  0.5207  1.7677  1.0451
  910MPD2     N13385   3.684   0.264  15.641  0.2309  0.3779 -0.4651
  910MPD2    H513386   3.629   0.348  15.629 -1.8107 -0.7835  0.8128
  910MPD2    N113387   3.829   4.715  16.012  0.3769  0.5658 -0.2854
  910MPD2    H713388   3.920   4.714  15.967  0.9680  2.5787  0.8984
  911MPD2     C13389   1.776   0.403  16.248  0.4857  0.2020  0.2074
  911MPD2    C113390   1.826   0.527  16.295 -0.0095  0.0881  0.0463
  911MPD2    C213391   1.768   0.648  16.253  0.2814  0.1483 -0.1998
  911MPD2    C313392   1.658   0.636  16.170  0.7218  0.3820 -0.1514
  911MPD2    C413393   1.618   0.510  16.127  0.9077  0.7499  0.4746
  911MPD2    C513394   1.676   0.395  16.158  0.4550 -0.0372 -0.0479
  911MPD2     H13395   1.789   0.741  16.304  0.9241 -1.3913  2.3013
  911MPD2    H113396   1.532   0.504  16.061  0.9042 -0.3739  0.5827
  911MPD2    H213397   1.824   0.307  16.263 -1.5621 -0.8610 -0.1341
  911MPD2    H313398   1.642   0.301  16.114 -0.0718 -0.7209  1.8039
  911MPD2     N13399   1.588   0.739  16.104  0.1713  0.6432 -0.0087
  911MPD2    H513400   1.525   0.710  16.029  0.0664 -1.0563  0.7456
  911MPD2    N113401   1.928   0.513  16.393 -0.4813 -0.9991  0.5407
  911MPD2    H713402   1.945   0.417  16.420 -3.7923 -1.6291  0.4404
  912MPD2     C13403   1.387   0.600  15.468  0.1522 -0.0448  0.0499
  912MPD2    C113404   1.393   0.611  15.605  0.2871  0.9539 -0.2686
  912MPD2    C213405   1.426   0.491  15.665 -0.0571  0.1116 -0.1280
  912MPD2    C313406   1.438   0.364  15.609  0.5556 -0.2525 -0.3769
  912MPD2    C413407   1.419   0.363  15.475 -0.2466 -0.0484  0.1363
  912MPD2    C513408   1.388   0.476  15.410  0.0084 -0.0902 -0.8289
  912MPD2     H13409   1.440   0.495  15.773  0.5199  1.6888 -0.2590
  912MPD2    H113410   1.405   0.272  15.419 -1.7199  0.2762 -0.0309
  912MPD2    H213411   1.356   0.687  15.411 -0.5388  0.3105  0.9682
  912MPD2    H313412   1.356   0.475  15.306 -0.3724 -1.9106 -0.6862
  912MPD2     N13413   1.463   0.250  15.687  0.2343  0.3032 -0.1692
  912MPD2    H513414   1.498   0.272  15.780  1.3897  1.6315 -0.9195
  912MPD2    N113415   1.372   0.739  15.670  0.2510 -0.0573 -0.5069
  912MPD2    H713416   1.369   0.821  15.611  1.3511  0.7795  0.6099
  913MPD2     C13417   2.503   2.071  11.021  0.4633  0.3913 -0.1944
  913MPD2    C113418   2.407   1.981  10.979  0.3404 -0.2513 -0.0247
  913MPD2    C213419   2.409   1.952  10.838  0.6389  0.3542  0.5096
  913MPD2    C313420   2.505   2.004  10.746  0.1388  0.4168  0.7412
  913MPD2    C413421   2.603   2.086  10.803  0.1844  0.3582  0.1936
  913MPD2    C513422   2.602   2.125  10.935 -0.4517  0.0788 -0.0752
  913MPD2     H13423   2.330   1.895  10.790  1.6651  2.2218 -3.2938
  913MPD2    H113424   2.686   2.134  10.751  1.3950 -0.4786  1.3513
  913MPD2    H213425   2.511   2.092  11.127 -0.7044 -0.3749  0.0448
  913MPD2    H313426   2.679   2.187  10.980 -0.8929 -0.4540  1.4157
  913MPD2     N13427   2.505   1.986  10.606  0.3443 -0.0044 -0.2612
  913MPD2    H513428   2.572   2.037  10.548  2.2046 -1.4882  0.5997
  913MPD2    N113429   2.313   1.932  11.070  0.2507 -0.8107  0.6936
  913MPD2    H713430   2.309   1.966  11.166  0.1344 -0.2676  0.4972
  914MPD2     C13431   4.291   1.755  11.798  0.4058 -0.2355 -0.9081
  914MPD2    C113432   4.388   1.846  11.766 -0.1570 -0.6699 -0.4012
  914MPD2    C213433   4.516   1.839  11.831  0.3903  0.2400  0.4400
  914MPD2    C313434   4.536   1.750  11.936  0.9056 -0.1555 -0.2160
  914MPD2    C413435   4.434   1.656  11.973 -0.0245  0.1278 -0.1870
  914MPD2    C513436   4.315   1.660  11.897  0.0157 -0.6943 -0.0211
  914MPD2     H13437   4.595   1.911  11.811 -0.9958  1.8206  0.5861
  914MPD2    H113438   4.439   1.583  12.053  1.7491  1.4665  0.9273
  914MPD2    H213439   4.194   1.752  11.750  0.0353  3.8859 -0.4567
  914MPD2    H313440   4.237   1.586  11.909 -0.3754 -0.5065 -1.3452
  914MPD2     N13441   4.657   1.769  12.007 -0.2328  0.4135 -0.5774
  914MPD2    H513442   4.713   1.848  11.977 -0.4185  0.6106 -0.3998
  914MPD2    N113443   4.360   1.939  11.660 -0.2429  0.1608  0.2488
  914MPD2    H713444   4.285   1.924  11.594 -1.9051 -1.2566  2.4625
  915MPD2     C13445   3.410   2.240  15.794  0.1822 -0.5360  0.2240
  915MPD2    C113446   3.279   2.239  15.743  0.1630 -0.3416 -0.9344
  915MPD2    C213447   3.175   2.277  15.823  0.0311  0.5665  0.1468
  915MPD2    C313448   3.193   2.329  15.954 -0.1562  0.4872 -0.9532
  915MPD2    C413449   3.322   2.350  15.994 -0.1471  0.0351  0.1736
  915MPD2    C513450   3.429   2.309  15.918 -0.1062 -0.0995 -0.1369
  915MPD2     H13451   3.074   2.262  15.789  0.2318 -1.9484  0.6798
  915MPD2    H113452   3.346   2.381  16.095 -0.4858  1.0443 -0.0456
  915MPD2    H213453   3.493   2.193  15.744 -0.8947  0.5597 -2.6124
  915MPD2    H313454   3.526   2.332  15.959 -0.2605 -1.0462  0.7501
  915MPD2     N13455   3.080   2.369  16.029  0.0577  0.2936 -0.0495
  915MPD2    H513456   2.987   2.360  15.988 -0.0801  1.7615 -0.0543
  915MPD2    N113457   3.268   2.197  15.609  0.4768  0.1756  0.6052
  915MPD2    H713458   3.349   2.185  15.549  0.4414  0.6028  0.4707
  916MPD2     C13459   0.994   0.765  15.461  0.0599  0.2446 -0.1521
  916MPD2    C113460   0.989   0.678  15.567  0.6131 -0.3858 -0.5604
  916MPD2    C213461   1.022   0.546  15.543 -0.3433 -0.1321 -0.7511
  916MPD2    C313462   1.053   0.497  15.418 -0.2897  0.0229  0.1278
  916MPD2    C413463   1.075   0.586  15.320 -0.7725 -0.6177 -0.3638
  916MPD2    C513464   1.043   0.711  15.345 -0.1976  0.0171 -0.7964
  916MPD2     H13465   1.024   0.471  15.622 -1.5061  0.7361  0.1205
  916MPD2    H113466   1.110   0.564  15.220  0.7644  1.8193 -0.3643
  916MPD2    H213467   0.970   0.871  15.462  0.4891  0.3519 -0.9652
  916MPD2    H313468   1.045   0.778  15.260  0.8350 -1.0470 -1.6055
  916MPD2     N13469   1.073   0.358  15.408  0.5128  0.7367  1.0153
  916MPD2    H513470   1.067   0.301  15.491 -0.0776  0.1779  0.5872
  916MPD2    N113471   0.960   0.726  15.696 -0.7421  0.6304  0.6036
  916MPD2    H713472   0.943   0.826  15.695  0.1180  0.7574 -1.5165
  917MPD2     C13473   1.526   2.368  10.919 -0.2016 -0.1996  0.3152
  917MPD2    C113474   1.575   2.419  11.033  0.2868  0.2291 -0.6263
  917MPD2    C213475   1.686   2.507  11.034  0.2223 -0.5943  0.7770
  917MPD2    C313476   1.736   2.550  10.911  0.4758 -0.1822  0.0155
  917MPD2    C413477   1.679   2.518  10.794  0.4075 -0.4083  0.2247
  917MPD2    C513478   1.581   2.417  10.800 -0.3692  0.0922 -0.1728
  917MPD2     H13479   1.735   2.557  11.117 -1.0144 -0.2592  1.3068
  917MPD2    H113480   1.721   2.544  10.698  0.7374  1.8320  0.9876
  917MPD2    H213481   1.440   2.303  10.921 -0.0013 -0.4136  1.9260
  917MPD2    H313482   1.542   2.373  10.709  0.9534  1.9047 -1.6113
  917MPD2     N13483   1.843   2.642  10.905  0.6024 -0.1214 -0.7660
  917MPD2    H513484   1.850   2.703  10.824 -0.5847 -0.6452 -1.2605
  917MPD2    N113485   1.511   2.382  11.153  0.0268  0.4525 -0.1329
  917MPD2    H713486   1.422   2.336  11.138 -0.1198  0.3852  0.8931
  918MPD2     C13487   1.313   2.941  11.970  0.2302 -0.3340  0.4581
  918MPD2    C113488   1.435   2.881  11.957 -0.3416  0.1002 -0.3780
  918MPD2    C213489   1.444   2.781  11.863 -0.2270  0.3662 -0.5344
  918MPD2    C313490   1.343   2.745  11.782 -0.4908 -0.0046  0.1026
  918MPD2    C413491   1.231   2.817  11.786  0.0315 -0.0435  0.8210
  918MPD2    C513492   1.217   2.912  11.879 -0.0445 -0.6941  0.5614
  918MPD2     H13493   1.534   2.722  11.866 -0.2157  0.4034 -0.1787
  918MPD2    H113494   1.155   2.811  11.709  0.1392  4.8180  0.3875
  918MPD2    H213495   1.302   3.020  12.043 -1.9964 -0.6998  0.5341
  918MPD2    H313496   1.130   2.977  11.887  0.9354  0.8241 -1.1328
  918MPD2     N13497   1.352   2.632  11.699  0.3625  0.0225  0.2972
  918MPD2    H513498   1.442   2.588  11.712  1.1260  1.2919 -0.7267
  918MPD2    N113499   1.545   2.914  12.037  0.3987  0.1508 -0.3334
  918MPD2    H713500   1.629   2.874  11.996 -0.8777 -1.3079 -1.5376
  919MPD2     C13501   1.769   1.845  11.983 -0.3850 -0.7561  0.0243
  919MPD2    C113502   1.776   1.707  11.958  0.5628 -0.3541 -0.2713
  919MPD2    C213503   1.747   1.668  11.833 -0.8404  0.0122  0.7451
  919MPD2    C313504   1.729   1.751  11.722 -0.5694 -0.6371 -0.2127
  919MPD2    C413505   1.736   1.885  11.744 -0.9490  0.4921  0.1274
  919MPD2    C513506   1.746   1.927  11.876  0.4333 -0.2657 -0.0711
  919MPD2     H13507   1.748   1.563  11.806 -1.6000  0.4567 -1.0030
  919MPD2    H113508   1.736   1.952  11.659 -0.3555 -1.0786 -1.1296
  919MPD2    H213509   1.785   1.871  12.087  3.2293 -1.5874 -0.3155
  919MPD2    H313510   1.755   2.034  11.894 -0.9890 -0.1978  0.1798
  919MPD2     N13511   1.708   1.708  11.591  0.1994  0.1425 -0.5121
  919MPD2    H513512   1.711   1.775  11.516 -3.6603  0.5298 -0.3543
  919MPD2    N113513   1.792   1.607  12.053 -0.4845 -0.3861 -0.3083
  919MPD2    H713514   1.783   1.511  12.024  0.8658 -0.6713  0.2476
  920MPD2     C13515   1.955   1.865  10.657 -0.2778 -0.0871 -0.0925
  920MPD2    C113516   1.855   1.768  10.633  0.1222 -0.1902 -0.3005
  920MPD2    C213517   1.794   1.708  10.742 -0.0890 -0.0923  0.6329
  920MPD2    C313518   1.837   1.738  10.868  0.8494 -0.0655  0.2794
  920MPD2    C413519   1.930   1.836  10.891 -0.4528  0.7176 -0.5710
  920MPD2    C513520   1.989   1.897  10.784 -0.5912 -0.2527  0.5527
  920MPD2     H13521   1.718   1.638  10.713 -0.8804  0.7220  0.7456
  920MPD2    H113522   1.982   1.857  10.984 -1.4920  0.4568  0.0713
  920MPD2    H213523   2.020   1.910  10.583 -1.3048  2.8295  0.7645
  920MPD2    H313524   2.080   1.954  10.800 -0.2655 -0.4690 -0.5842
  920MPD2     N13525   1.782   1.663  10.976  0.3071 -0.4676  0.6101
  920MPD2    H513526   1.735   1.575  10.957  3.2603 -2.1617  1.1811
  920MPD2    N113527   1.814   1.740  10.500 -0.0197 -0.0810 -0.4693
  920MPD2    H713528   1.718   1.707  10.496  0.1433 -1.0110  2.6320
  921MPD2     C13529   2.615   0.918  17.081 -0.4013 -0.1519 -0.0270
  921MPD2    C113530   2.655   0.896  16.951 -0.8631  0.0122  0.3137
  921MPD2    C213531   2.567   0.823  16.870  0.4591 -0.7763 -0.1460
  921MPD2    C313532   2.442   0.780  16.918 -0.9436 -0.3045  0.3729
  921MPD2    C413533   2.404   0.811  17.045 -0.0861  0.0908 -0.0272
  921MPD2    C513534   2.493   0.876  17.129 -0.4653  0.1598 -0.6252
  921MPD2     H13535   2.597   0.798  16.769 -1.0353 -3.4574  0.1035
  921MPD2    H113536   2.310   0.777  17.088 -0.1394 -0.5592 -0.6745
  921MPD2    H213537   2.681   0.977  17.142  0.8843  0.9265 -2.4425
  921MPD2    H313538   2.456   0.908  17.225  0.9238  0.0405 -0.0538
  921MPD2     N13539   2.353   0.696  16.843  0.3650  0.1902  0.2864
  921MPD2    H513540   2.261   0.679  16.881  0.7787 -1.3645  0.6051
  921MPD2    N113541   2.787   0.933  16.906 -0.5664  0.3266  1.0259
  921MPD2    H713542   2.842   0.983  16.975  0.2271  1.7896 -0.6921
  922MPD2     C13543   3.576   3.627  17.086  0.2100  0.3454 -0.3642
  922MPD2    C113544   3.509   3.625  17.212  0.0200  0.0257 -0.0460
  922MPD2    C213545   3.440   3.509  17.247  0.3951 -1.4748 -0.2098
  922MPD2    C313546   3.422   3.404  17.157 -0.2214  0.4951 -0.5445
  922MPD2    C413547   3.489   3.405  17.037  0.2655  0.8342  0.4739
  922MPD2    C513548   3.567   3.518  17.005  1.0737  0.2250  0.4417
  922MPD2     H13549   3.393   3.519  17.344  0.0719  4.3459 -0.9475
  922MPD2    H113550   3.478   3.326  16.963  1.5415 -0.6467  1.8855
  922MPD2    H213551   3.614   3.713  17.034 -1.7137  0.3987 -1.6997
  922MPD2    H313552   3.599   3.525  16.902  2.2143 -0.2503  0.7555
  922MPD2     N13553   3.319   3.300  17.186  0.0991 -0.1258  0.2421
  922MPD2    H513554   3.278   3.315  17.278  0.5399  0.9081  0.2692
  922MPD2    N113555   3.501   3.745  17.295 -0.3877  0.2996  0.4000
  922MPD2    H713556   3.439   3.742  17.376  0.6885 -0.8961  1.1865
  923MPD2     C13557   0.733   0.269   8.928  0.6085 -0.6081  0.2143
  923MPD2    C113558   0.685   0.350   9.034  0.2635 -0.6271  0.7947
  923MPD2    C213559   0.731   0.329   9.160 -0.8764  0.0411  0.2331
  923MPD2    C313560   0.832   0.235   9.191  1.0546 -0.4188  0.3033
  923MPD2    C413561   0.887   0.173   9.080  0.2454 -0.5215 -0.1237
  923MPD2    C513562   0.831   0.186   8.957 -0.3779  0.6280  0.2483
  923MPD2     H13563   0.688   0.390   9.240 -1.0290  1.8604 -1.2247
  923MPD2    H113564   0.963   0.097   9.094 -0.1514 -1.2987 -2.1941
  923MPD2    H213565   0.702   0.279   8.824 -1.4121 -2.7187  0.6143
  923MPD2    H313566   0.881   0.140   8.873  0.7706  1.8934  0.2431
  923MPD2     N13567   0.873   0.203   9.320  0.0296 -0.1092  0.1808
  923MPD2    H513568   0.947   0.135   9.334 -0.0392 -0.0433  0.8464
  923MPD2    N113569   0.577   0.439   8.998 -0.7869  0.5082  0.1836
  923MPD2    H713570   0.563   0.461   8.900 -0.4573 -0.3349 -0.0522
  924MPD2     C13571   0.159   3.504  15.886 -0.7844  0.6132 -0.6891
  924MPD2    C113572   0.150   3.579  15.994 -0.8536  0.2540  0.3167
  924MPD2    C213573   0.188   3.709  15.983 -0.2364  0.0892  0.2125
  924MPD2    C313574   0.251   3.759  15.879  0.6914  0.3455  0.2317
  924MPD2    C413575   0.254   3.683  15.764 -0.5738  0.0496 -0.5429
  924MPD2    C513576   0.199   3.558  15.764  0.1694  0.5709  0.5536
  924MPD2     H13577   0.171   3.773  16.068 -4.2818 -0.2535 -0.2972
  924MPD2    H113578   0.298   3.732  15.678  1.0931 -1.8054 -0.7407
  924MPD2    H213579   0.121   3.402  15.891  2.4357 -0.6328 -1.5245
  924MPD2    H313580   0.197   3.495  15.675  3.5182  1.4257 -0.1492
  924MPD2     N13581   0.288   3.896  15.900 -0.3094  0.3048 -0.6148
  924MPD2    H513582   0.292   3.928  15.996  2.6547 -2.4524  0.1866
  924MPD2    N113583   0.102   3.523  16.116 -0.3119  0.1206 -0.2405
  924MPD2    H713584   0.051   3.436  16.108 -0.2228 -0.0031  0.5159
  925MPD2     C13585   3.496   1.933  14.646 -0.4808 -0.6943  0.3649
  925MPD2    C113586   3.533   1.819  14.710 -0.1998 -0.2456 -0.2663
  925MPD2    C213587   3.455   1.774  14.811  0.4065  0.1037 -0.9430
  925MPD2    C313588   3.333   1.826  14.843  0.7507  0.3047  0.2034
  925MPD2    C413589   3.293   1.937  14.782  0.0637  0.1630 -0.1881
  925MPD2    C513590   3.383   1.998  14.693 -0.7164 -0.0514 -0.1637
  925MPD2     H13591   3.484   1.678  14.852 -0.7118 -0.0110 -0.4452
  925MPD2    H113592   3.193   1.979  14.788  0.1561  0.2676  0.6106
  925MPD2    H213593   3.551   1.981  14.566  0.0390  0.4427  1.4125
  925MPD2    H313594   3.344   2.085  14.640  0.7932 -0.8917 -2.6489
  925MPD2     N13595   3.252   1.756  14.934  0.3525 -0.5276  0.8403
  925MPD2    H513596   3.297   1.672  14.969  1.2158 -0.0556  0.8439
  925MPD2    N113597   3.650   1.743  14.673 -0.1248  0.1198  0.5065
  925MPD2    H713598   3.675   1.659  14.725 -1.7876  1.5797  3.6811
  926MPD2     C13599   2.109   4.479  13.637 -0.3493 -0.5055 -0.2165
  926MPD2    C113600   2.048   4.597  13.614  0.0215 -0.0966 -0.0156
  926MPD2    C213601   2.077   4.670  13.499 -0.2693  0.3062 -0.3255
  926MPD2    C313602   2.183   4.618  13.417 -0.4848  0.6524 -0.2433
  926MPD2    C413603   2.236   4.498  13.441 -0.0185  0.2555  0.3404
  926MPD2    C513604   2.201   4.425  13.552  0.2679  0.3121 -0.4656
  926MPD2     H13605   2.028   0.022  13.478  0.3588  0.3181 -1.7449
  926MPD2    H113606   2.314   4.453  13.380  0.0198  0.4232  0.2637
  926MPD2    H213607   2.090   4.427  13.730 -3.7185  2.2524  0.5937
  926MPD2    H313608   2.243   4.327  13.572 -0.8885  0.0078  0.4547
  926MPD2     N13609   2.227   4.687  13.301 -0.2566 -0.0786 -0.3082
  926MPD2    H513610   2.287   4.639  13.236  0.9827 -0.2300  0.9454
  926MPD2    N113611   1.962   4.657  13.708  0.2029  0.1284  0.2441
  926MPD2    H713612   1.910   4.740  13.681 -2.2884 -1.5794 -0.1477
  927MPD2     C13613   2.355   1.421   0.064  0.4336 -0.3566  0.0083
  927MPD2    C113614   2.316   1.550   0.057 -1.2482 -0.1896  0.3132
  927MPD2    C213615   2.373   1.625  17.716 -0.6071  0.9398  0.3548
  927MPD2    C313616   2.444   1.561  17.618  0.2939  0.1177 -0.2660
  927MPD2    C413617   2.478   1.431  17.634 -0.2048  0.1497  0.8346
  927MPD2    C513618   2.439   1.364  17.747  0.4154 -0.1098  0.4705
  927MPD2     H13619   2.353   1.731  17.708  0.1152  0.9327 -1.6091
  927MPD2    H113620   2.541   1.377  17.564 -1.7296  2.4536 -2.2826
  927MPD2    H213621   2.301   1.366   0.140 -0.4179  0.8392  0.2633
  927MPD2    H313622   2.463   1.261   0.005  3.9213  0.1700 -2.0365
  927MPD2     N13623   2.474   1.629  17.503 -0.5018 -0.3068 -0.3042
  927MPD2    H513624   2.414   1.708  17.483  0.3295  0.3919 -0.0352
  927MPD2    N113625   2.233   1.599   0.162  0.3750  0.7441  0.0769
  927MPD2    H713626   2.183   1.532   0.220 -1.5813  0.2738 -2.1361
  928MPD2     C13627   4.713   4.600   0.806 -0.6878 -0.1936  0.3482
  928MPD2    C113628   4.705   4.734   0.787 -0.1058 -0.0285  0.2340
  928MPD2    C213629   0.025   0.056   0.683 -0.5135  0.4936  0.0222
  928MPD2    C313630   0.105   4.736   0.595  0.0584  0.4312 -0.5542
  928MPD2    C413631   0.121   4.597   0.612 -0.4507 -0.3783  1.1705
  928MPD2    C513632   0.054   4.526   0.715 -0.1685 -0.3096  0.3345
  928MPD2     H13633   0.004   0.163   0.677 -0.0542  0.5791 -0.0367
  928MPD2    H113634   0.183   4.538   0.546 -1.0220  0.3444 -0.0029
  928MPD2    H213635   4.651   4.558   0.884 -0.0180  2.4470  2.3232
  928MPD2    H313636   0.044   4.418   0.723 -0.4785 -0.1551  2.0417
  928MPD2     N13637   0.150   0.057   0.478  0.2874 -0.0829  0.2827
  928MPD2    H513638   0.162   0.157   0.479 -1.0315  0.0730  1.0221
  928MPD2    N113639   4.629   0.061   0.882 -0.8599  0.1042  0.5794
  928MPD2    H713640   4.615   0.010   0.970 -0.7549 -0.8619  0.0409
  929MPD2     C13641   0.422   0.046  10.789 -0.9402 -0.3135 -0.2047
  929MPD2    C113642   0.321   4.696  10.779  0.3122 -0.3278  0.0516
  929MPD2    C213643   0.238   4.703  10.664  1.0192 -0.6588 -0.2034
  929MPD2    C313644   0.262   0.053  10.561 -0.4723 -0.3133 -0.7144
  929MPD2    C413645   0.364   0.146  10.573  0.1771 -0.6975 -0.7984
  929MPD2    C513646   0.444   0.137  10.687 -0.7654  0.3336 -0.9944
  929MPD2     H13647   0.144   4.650  10.669  0.3548  0.4711 -0.9226
  929MPD2    H113648   0.377   0.214  10.490  0.5717  0.5916  0.3306
  929MPD2    H213649   0.494   0.040  10.869  0.7773  0.0010 -1.7245
  929MPD2    H313650   0.535   0.195  10.686  0.0953 -1.0268 -0.4414
  929MPD2     N13651   0.177   0.059  10.450  0.2742  0.5061 -0.0783
  929MPD2    H513652   0.195   0.134  10.385 -0.8564  1.6048  0.8716
  929MPD2    N113653   0.289   4.625  10.892 -0.2358  0.8662  0.1010
  929MPD2    H713654   0.349   4.634  10.973 -0.9299  1.5948  0.5269
  930MPD2     C13655   2.164   2.503  14.117 -0.3052 -1.0995 -0.1765
  930MPD2    C113656   2.265   2.559  14.046  0.3275  0.1995  0.3618
  930MPD2    C213657   2.296   2.511  13.924  0.6247  0.3489 -0.1012
  930MPD2    C313658   2.216   2.414  13.866  0.6856 -0.3772 -0.9289
  930MPD2    C413659   2.110   2.360  13.936  0.3062 -0.3399 -0.6733
  930MPD2    C513660   2.085   2.409  14.057 -0.1261  1.0055  0.5533
  930MPD2     H13661   2.374   2.565  13.872 -2.1295  1.9522 -2.5942
  930MPD2    H113662   2.033   2.295  13.894 -0.3735  0.5934 -0.8840
  930MPD2    H213663   2.153   2.526  14.222 -1.8824 -1.6610 -0.2176
  930MPD2    H313664   2.006   2.361  14.114 -0.3940 -2.0458 -2.4019
  930MPD2     N13665   2.227   2.363  13.736 -0.3158 -0.3889 -0.0242
  930MPD2    H513666   2.143   2.317  13.702 -1.1347  0.8071  0.3924
  930MPD2    N113667   2.333   2.674  14.085  0.0914 -0.0020  0.0770
  930MPD2    H713668   2.399   2.707  14.015 -2.0216  1.3349 -1.3189
  931MPD2     C13669   1.878   1.251   0.476 -0.4297 -0.4935 -1.1110
  931MPD2    C113670   1.879   1.364   0.549  0.2709 -0.2381 -0.2080
  931MPD2    C213671   1.820   1.361   0.677  0.3373  0.4902 -0.1218
  931MPD2    C313672   1.755   1.247   0.726  0.0639 -0.5127  0.4005
  931MPD2    C413673   1.744   1.140   0.640 -0.6107 -0.4119 -0.1738
  931MPD2    C513674   1.805   1.142   0.515  0.0747  0.0463 -1.2304
  931MPD2     H13675   1.817   1.451   0.737 -0.5419 -0.5187  1.3427
  931MPD2    H113676   1.698   1.046   0.668 -0.6656  0.1727  1.6725
  931MPD2    H213677   1.913   1.244   0.374  2.5944 -3.2277  0.1424
  931MPD2    H313678   1.791   1.060   0.446 -0.8248  0.4240 -1.5019
  931MPD2     N13679   1.697   1.241   0.851 -0.0410 -0.0661 -0.0338
  931MPD2    H513680   1.651   1.154   0.875  1.5402 -0.9458 -0.2774
  931MPD2    N113681   1.942   1.479   0.501  0.8392  0.2614  0.1535
  931MPD2    H713682   2.002   1.468   0.420  2.7209  1.3842  1.3888
  932MPD2     C13683   3.391   0.831  11.444 -0.1824 -0.6895 -0.2863
  932MPD2    C113684   3.482   0.919  11.493  0.4866 -0.1704 -0.3392
  932MPD2    C213685   3.488   0.926  11.634 -0.0594 -0.0660  0.4805
  932MPD2    C313686   3.393   0.861  11.716  0.1671  0.0813 -0.6970
  932MPD2    C413687   3.299   0.775  11.657  0.2946  0.4780 -0.7536
  932MPD2    C513688   3.307   0.758  11.528 -0.9161 -0.3007 -0.6589
  932MPD2     H13689   3.562   0.988  11.684 -0.4879  1.5829 -0.9668
  932MPD2    H113690   3.222   0.727  11.716  1.2628 -2.5322 -1.9254
  932MPD2    H213691   3.373   0.827  11.337 -1.5233  1.2789 -0.1285
  932MPD2    H313692   3.240   0.686  11.481 -0.4619 -1.1645  0.0333
  932MPD2     N13693   3.384   0.864  11.862 -0.0534 -0.2206 -0.0034
  932MPD2    H513694   3.299   0.828  11.905 -0.1233 -1.6488 -1.3383
  932MPD2    N113695   3.574   0.992  11.405 -0.0330  0.3201 -0.4945
  932MPD2    H713696   3.645   1.041  11.458  1.0879 -0.5793 -1.1672
  933MPD2     C13697   4.019   0.524   1.392  0.5235  0.1334 -0.5178
  933MPD2    C113698   4.076   0.521   1.268 -0.1678 -0.5564 -0.1816
  933MPD2    C213699   4.021   0.618   1.185  0.6131  0.3705  0.2839
  933MPD2    C313700   3.912   0.696   1.211  0.0808  0.3569  0.0030
  933MPD2    C413701   3.858   0.691   1.334  0.1609  0.6590  0.3281
  933MPD2    C513702   3.912   0.602   1.417 -0.1234  0.0416 -0.4471
  933MPD2     H13703   4.066   0.634   1.088 -1.7188  2.1952 -0.4854
  933MPD2    H113704   3.777   0.753   1.372 -0.2257 -1.3065  2.7233
  933MPD2    H213705   4.065   0.475   1.478 -0.4793  1.0693  0.5488
  933MPD2    H313706   3.866   0.601   1.515 -2.2046  0.3786 -1.4022
  933MPD2     N13707   3.886   0.791   1.114 -0.2399 -0.3418 -0.2424
  933MPD2    H513708   3.949   0.789   1.035  0.1682 -1.1823  0.1036
  933MPD2    N113709   4.184   0.439   1.243  0.1939 -0.4754 -0.6820
  933MPD2    H713710   4.221   0.383   1.319 -1.0549 -0.7584 -0.2980
  934MPD2     C13711   1.078   3.396   1.542  0.0629 -0.0279  0.3040
  934MPD2    C113712   1.155   3.278   1.506  0.7169 -0.0558 -0.9070
  934MPD2    C213713   1.100   3.181   1.422  0.0504  0.2415 -0.1527
  934MPD2    C313714   0.969   3.183   1.380  0.6810  0.4256 -0.3792
  934MPD2    C413715   0.895   3.284   1.427 -0.3510 -0.3532 -0.5436
  934MPD2    C513716   0.949   3.393   1.497 -0.0452 -0.5898  0.3397
  934MPD2     H13717   1.169   3.103   1.389 -0.7163  0.1056 -1.4160
  934MPD2    H113718   0.792   3.289   1.395 -0.2802  0.4833 -0.6578
  934MPD2    H213719   1.112   3.477   1.605  1.5117 -1.5317  1.4599
  934MPD2    H313720   0.886   3.476   1.527 -0.5411 -0.5116 -0.9109
  934MPD2     N13721   0.907   3.081   1.307 -0.5591 -0.1933  0.0838
  934MPD2    H513722   0.813   3.106   1.275 -0.9512  0.5143  1.7648
  934MPD2    N113723   1.289   3.263   1.549  0.2722 -0.1753  0.9148
  934MPD2    H713724   1.347   3.187   1.513 -1.4484 -1.4075  0.7749
  935MPD2     C13725   1.369   2.273   1.156  0.4111 -0.3393  0.2872
  935MPD2    C113726   1.252   2.241   1.088  0.4273 -0.6232  0.6869
  935MPD2    C213727   1.146   2.325   1.086 -0.4033 -0.1642 -0.4426
  935MPD2    C313728   1.150   2.443   1.152 -0.4696 -0.6211  0.1024
  935MPD2    C413729   1.256   2.481   1.228 -0.2106 -0.4554 -0.3591
  935MPD2    C513730   1.364   2.390   1.232  0.2480 -0.7987 -0.3270
  935MPD2     H13731   1.054   2.303   1.032 -1.8601 -0.7971  2.2881
  935MPD2    H113732   1.254   2.570   1.290 -1.7361  0.1105 -1.2371
  935MPD2    H213733   1.455   2.207   1.165  0.7029 -0.0242 -0.1319
  935MPD2    H313734   1.452   2.424   1.285 -0.1546 -1.0320  0.4904
  935MPD2     N13735   1.040   2.532   1.164  0.2883 -1.6604  0.3761
  935MPD2    H513736   1.039   2.591   1.247 -0.1283 -3.0118  1.3254
  935MPD2    N113737   1.235   2.116   1.023  0.6896  0.0810  0.4959
  935MPD2    H713738   1.144   2.099   0.983  1.4200 -0.9737 -0.6967
  936MPD2     C13739   4.347   4.179  12.269 -0.2813 -0.8311 -0.2234
  936MPD2    C113740   4.327   4.157  12.406  0.4910  0.6122  0.2122
  936MPD2    C213741   4.355   4.265  12.493  0.1333 -0.6657  0.3778
  936MPD2    C313742   4.389   4.392  12.449  0.1153 -0.1897  0.2900
  936MPD2    C413743   4.399   4.412  12.312 -0.9972  0.5321  0.1037
  936MPD2    C513744   4.384   4.300  12.224  0.7367 -0.4549  0.4883
  936MPD2     H13745   4.345   4.246  12.599  1.0587  0.2532  0.6401
  936MPD2    H113746   4.423   4.511  12.275  0.4712  0.8435  1.8601
  936MPD2    H213747   4.326   4.100  12.197  0.3475 -0.2755 -1.0224
  936MPD2    H313748   4.387   4.312  12.116 -1.7819 -0.5575  0.4221
  936MPD2     N13749   4.421   4.498  12.537  0.3791 -0.7448 -0.2894
  936MPD2    H513750   4.466   4.581  12.497 -0.3176 -0.5023 -0.5690
  936MPD2    N113751   4.276   4.032  12.460 -0.1070  0.0306 -0.3926
  936MPD2    H713752   4.270   3.956  12.394 -1.4920 -0.8328  0.7238
  937MPD2     C13753   2.081   0.927  12.062 -0.5419 -0.1971 -0.5923
  937MPD2    C113754   2.114   1.060  12.050 -0.6389 -0.2384  0.3457
  937MPD2    C213755   2.188   1.089  11.936 -0.3114  0.3261  0.0462
  937MPD2    C313756   2.246   0.995  11.851 -0.0923 -0.8305  0.1412
  937MPD2    C413757   2.206   0.866  11.866 -0.2271 -0.0391  0.4817
  937MPD2    C513758   2.126   0.843  11.969 -0.7840  0.2496 -0.1077
  937MPD2     H13759   2.190   1.194  11.910  1.8087 -0.0527 -1.3586
  937MPD2    H113760   2.244   0.781  11.811  0.0892  0.0814  0.5135
  937MPD2    H213761   2.008   0.894  12.135  1.1295  1.2091  1.7268
  937MPD2    H313762   2.105   0.737  11.976  0.0305  0.2024  1.4638
  937MPD2     N13763   2.306   1.051  11.731  0.2269 -0.5940  0.3588
  937MPD2    H513764   2.323   1.151  11.729  0.6838 -0.7039 -1.1924
  937MPD2    N113765   2.041   1.167  12.111 -0.5090 -0.0464 -0.2280
  937MPD2    H713766   2.055   1.257  12.066 -0.5313 -0.4992 -1.1547
  938MPD2     C13767   4.631   2.075   1.038  0.0235  0.2766  0.2202
  938MPD2    C113768   4.511   2.075   0.965 -0.5202 -0.7972  0.6586
  938MPD2    C213769   4.423   1.967   0.984  0.4810 -0.0100  0.3599
  938MPD2    C313770   4.435   1.879   1.090  0.0629  0.3432 -0.6908
  938MPD2    C413771   4.552   1.880   1.161  0.2479  0.4616 -0.2222
  938MPD2    C513772   4.654   1.972   1.126 -0.2948  0.1339 -0.2254
  938MPD2     H13773   4.338   1.951   0.919  1.2191 -1.7071 -0.1673
  938MPD2    H113774   4.561   1.810   1.243  0.1942  0.4802 -0.2008
  938MPD2    H213775   4.709   2.148   1.018  1.2168 -0.9062  0.4945
  938MPD2    H313776   0.003   1.977   1.186  1.5360 -0.3157 -2.9591
  938MPD2     N13777   4.351   1.772   1.112  0.2403  0.1110  0.4630
  938MPD2    H513778   4.374   1.709   1.188 -0.3285  1.5272  1.8037
  938MPD2    N113779   4.487   2.185   0.872  0.1333 -0.4018  0.3103
  938MPD2    H713780   4.559   2.254   0.853  0.3815 -1.0541 -1.1574
  939MPD2     C13781   0.957   3.435   0.131 -0.0091  0.5903  0.5488
  939MPD2    C113782   0.987   3.405   0.263 -0.8036  0.0564 -0.2701
  939MPD2    C213783   1.061   3.294   0.297 -0.3145 -0.2904 -0.1644
  939MPD2    C313784   1.112   3.207   0.193 -0.6351 -0.3612 -0.1307
  939MPD2    C413785   1.068   3.239   0.068 -0.5361  0.1866  0.3193
  939MPD2    C513786   0.991   3.348   0.036 -0.0905 -0.3399 -0.4304
  939MPD2     H13787   1.092   3.274   0.399 -0.5157  2.9788  0.5238
  939MPD2    H113788   1.085   3.170  17.750 -2.3192 -0.7183  0.7165
  939MPD2    H213789   0.900   3.525   0.110  0.8186  1.2706  1.2183
  939MPD2    H313790   0.973   3.369  17.695  0.3699  0.6781 -0.3010
  939MPD2     N13791   1.189   3.099   0.221 -0.2243  0.1157 -0.3529
  939MPD2    H513792   1.193   3.080   0.320 -0.0246  1.4261 -0.1103
  939MPD2    N113793   0.947   3.500   0.357  0.0310  0.6292 -0.2245
  939MPD2    H713794   0.904   3.585   0.322 -1.4059 -0.5778 -1.3905
  940MPD2     C13795   0.111   0.034  13.207 -0.0120 -0.5999  0.0603
  940MPD2    C113796   0.064   4.667  13.282 -0.2320 -0.3480  0.4179
  940MPD2    C213797   0.139   4.555  13.303  0.2671 -0.4034  0.0461
  940MPD2    C313798   0.260   4.536  13.241  0.3338  0.0725 -0.4138
  940MPD2    C413799   0.299   4.645  13.155  0.4781 -0.1743 -0.9071
  940MPD2    C513800   0.226   0.017  13.138  0.0901 -0.3426 -0.7611
  940MPD2     H13801   0.105   4.486  13.379  4.4650 -0.0534  2.2549
  940MPD2    H113802   0.398   4.638  13.110  1.2231 -2.4996  1.0848
  940MPD2    H213803   0.053   0.125  13.197 -0.7226 -1.2477 -1.7345
  940MPD2    H313804   0.275   0.097  13.084 -0.9098  0.5938 -0.2861
  940MPD2     N13805   0.342   4.423  13.244 -0.0512 -0.0150 -0.3169
  940MPD2    H513806   0.432   4.432  13.198  0.6732 -0.3668  1.0166
  940MPD2    N113807   4.699   4.680  13.369  0.1718  0.2387  0.1976
  940MPD2    H713808   4.684   4.601  13.431  3.1864 -0.1536  0.4122
  941MPD2     C13809   0.019   3.051   9.908 -0.2072 -0.7682 -0.1254
  941MPD2    C113810   4.642   3.099   9.851 -0.0805 -0.3405 -0.1098
  941MPD2    C213811   4.533   3.017   9.843 -0.3778 -0.3947 -0.6790
  941MPD2    C313812   4.533   2.893   9.906  0.6957 -0.4034  0.1044
  941MPD2    C413813   4.639   2.848   9.981  0.5518 -0.1326  0.6990
  941MPD2    C513814   0.007   2.936   9.983  0.4113  0.0933  0.1853
  941MPD2     H13815   4.449   3.040   9.779  0.0449 -0.2827 -1.1854
  941MPD2    H113816   4.638   2.758  10.041  1.1606  0.0650  0.9989
  941MPD2    H213817   0.115   3.100   9.920 -0.5141 -0.4076  0.8800
  941MPD2    H313818   0.095   2.899  10.034  0.2176 -1.3520 -0.5252
  941MPD2     N13819   4.415   2.812   9.910  0.0839 -0.2083 -0.5947
  941MPD2    H513820   4.435   2.716   9.939 -1.2752  0.2154  1.7485
  941MPD2    N113821   4.627   3.228   9.794  0.2702  0.2290  0.6950
  941MPD2    H713822   4.532   3.253   9.766  0.5995 -0.9494 -1.4046
  942MPD2     C13823   4.413   3.971   8.981 -0.4056  0.4815 -0.0315
  942MPD2    C113824   4.433   4.073   9.075  0.2884 -0.4168 -0.1122
  942MPD2    C213825   4.510   4.183   9.041  0.1168 -0.2116 -0.5859
  942MPD2    C313826   4.563   4.199   8.912  0.6554 -0.1848  0.4705
  942MPD2    C413827   4.545   4.093   8.821 -0.4491 -0.3047 -0.2610
  942MPD2    C513828   4.469   3.986   8.856  0.3639  0.1017  0.6765
  942MPD2     H13829   4.532   4.255   9.118 -1.3308 -0.2931 -0.1068
  942MPD2    H113830   4.570   4.102   8.716  0.6628 -0.3468  0.0022
  942MPD2    H213831   4.356   3.881   9.004  1.2774 -0.9662 -1.5294
  942MPD2    H313832   4.464   3.909   8.779  0.4970  1.8914 -1.1425
  942MPD2     N13833   4.644   4.310   8.866 -0.3766  0.2494  0.1140
  942MPD2    H513834   4.693   4.302   8.777  0.0186  1.0147  0.2657
  942MPD2    N113835   4.387   4.075   9.203  0.9611 -0.4661  0.0431
  942MPD2    H713836   4.387   4.157   9.263  1.2251 -0.3509 -0.1124
  943MPD2     C13837   3.264   3.222   9.823  0.1096  0.9175 -0.1846
  943MPD2    C113838   3.231   3.090   9.838  0.0778 -0.5944 -0.2086
  943MPD2    C213839   3.317   3.002   9.897 -0.4651  0.1620 -0.3952
  943MPD2    C313840   3.453   3.040   9.925  0.0668 -0.0587  0.8707
  943MPD2    C413841   3.488   3.174   9.902  0.8432 -0.2004  0.0130
  943MPD2    C513842   3.391   3.260   9.847  0.0258 -0.3252  0.3160
  943MPD2     H13843   3.273   2.903   9.903  0.0841 -0.2123 -2.4021
  943MPD2    H113844   3.590   3.209   9.911  0.9779 -0.9260  1.2615
  943MPD2    H213845   3.200   3.287   9.763 -1.6753  1.3519  2.1932
  943MPD2    H313846   3.413   3.365   9.835 -0.3262 -0.3166 -0.2582
  943MPD2     N13847   3.549   2.952   9.971  0.1146  0.1987 -0.2986
  943MPD2    H513848   3.636   2.995  10.002  0.3473 -0.7489  0.3727
  943MPD2    N113849   3.105   3.064   9.788 -0.3062  0.1375  0.6761
  943MPD2    H713850   3.050   3.147   9.769 -0.2325 -0.1087 -0.5946
  944MPD2     C13851   2.864   2.007  11.410 -0.0387  1.0437  0.6715
  944MPD2    C113852   2.889   2.101  11.309 -0.4150 -0.2273 -0.7087
  944MPD2    C213853   2.841   2.231  11.318 -0.1278 -0.2719 -0.1151
  944MPD2    C313854   2.752   2.260  11.420 -0.1422  0.1787  0.1885
  944MPD2    C413855   2.726   2.162  11.521 -0.8000 -0.5797 -0.1343
  944MPD2    C513856   2.790   2.038  11.524 -0.4868  0.4107 -0.5150
  944MPD2     H13857   2.860   2.305  11.241  0.6128  1.1804  1.4853
  944MPD2    H113858   2.662   2.187  11.604 -0.3118  2.4126 -0.6519
  944MPD2    H213859   2.914   1.911  11.414 -0.0811  1.0268  0.7801
  944MPD2    H313860   2.772   1.966  11.603 -0.5479 -1.0427 -1.8435
  944MPD2     N13861   2.692   2.390  11.418  0.1015  0.5448 -0.4088
  944MPD2    H513862   2.721   2.461  11.352 -1.5524  1.0410 -0.5912
  944MPD2    N113863   2.961   2.055  11.195 -0.2184  0.4566 -0.4017
  944MPD2    H713864   2.973   1.954  11.188  2.5598  0.8317 -0.8785
    1TMC1    C113865   0.230   3.630  14.286  0.4383 -1.1857  0.0066
    1TMC1    C213866   0.116   3.599  14.221 -0.3461  0.2515 -0.4092
    1TMC1    C313867   0.082   3.469  14.201  0.1181 -0.1543  0.4383
    1TMC1    C413868   0.292   3.533  14.360 -0.7152 -0.0467  0.1856
    1TMC1    C513869   0.252   3.401  14.345  0.2677  0.4806  0.7891
    1TMC1    C613870   0.150   3.368  14.261 -0.2322  0.3421  0.0660
    1TMC1     C13871   0.242   3.764  14.327 -0.8752  0.3301 -0.3141
    1TMC1     O13872   0.139   3.821  14.342 -0.5608 -0.3619  0.3501
    1TMC1     H13873   0.056   3.681  14.185 -1.0829 -0.7649 -1.5141
    1TMC1    H113874   0.372   3.569  14.424 -2.2414  2.1335  0.8565
    1TMC1    H213875   0.115   3.266  14.253 -1.3175  0.6134  1.2323
    1TMC1    C713876   0.300   3.303  14.440 -0.5395 -0.3270  0.7565
    1TMC1    C813877   4.739   3.434  14.087 -0.6491  0.4797 -0.4298
    1TMC1    O113878   0.279   3.181  14.418 -0.2580 -0.2793 -0.2176
    1TMC1    O213879   4.692   3.320  14.079 -0.5060  0.2211 -0.4259
    1TMC1    O313880   0.325   3.353  14.559 -0.3766  0.2034 -0.0998
    1TMC1    H313881   0.301   3.448  14.566  0.2325  0.4468 -1.1760
    1TMC1    O513882   4.720   3.542  14.006  0.1345  0.4477 -0.2937
    1TMC1    H513883   0.028   3.624  14.027 -0.4947  0.8287 -0.3230
    2MPD2     C13884   0.512   4.192  14.445 -0.5132 -0.5137 -0.6349
    2MPD2    C113885   0.594   4.098  14.385 -0.5672 -0.1765  0.1218
    2MPD2    C213886   0.548   3.970  14.352 -0.1151  0.4963  0.9878
    2MPD2    C313887   0.413   3.937  14.368  0.2097  0.7955 -0.4397
    2MPD2    C413888   0.333   4.035  14.420 -0.2776 -0.1921  0.4963
    2MPD2    C513889   0.381   4.156  14.457 -0.5151 -0.2889 -1.0151
    2MPD2     H13890   0.619   3.892  14.328  1.0186  2.2263 -1.3127
    2MPD2    H113891   0.226   4.022  14.425 -0.4624  1.4513  0.6506
    2MPD2    H213892   0.540   4.294  14.468  1.8486 -1.3741  0.3401
    2MPD2    H313893   0.316   4.234  14.494 -2.9002 -3.0243  0.5190
    2MPD2     N13894   0.368   3.808  14.346 -0.2005  0.0174 -0.0944
    2MPD2    H513895   0.441   3.745  14.315 -0.4071 -0.3460  0.1567
    2MPD2    N113896   0.724   4.139  14.346  0.2229  0.3720  0.6807
    2MPD2    H713897   0.765   4.222  14.386  3.4048 -0.4740 -0.7777
    3TMC2    C113898   0.927   4.133  14.228  0.3954  0.4961 -1.0873
    3TMC2    C213899   1.026   4.131  14.316 -0.4238 -0.7898  1.0643
    3TMC2    C313900   1.146   4.171  14.268 -0.5310 -0.6108  0.0937
    3TMC2    C413901   0.936   4.167  14.095 -0.2521  0.0266 -0.0336
    3TMC2    C513902   1.065   4.198  14.052  0.0239 -0.2489  0.0810
    3TMC2    C613903   1.174   4.197  14.135 -0.4552  0.2773  0.3322
    3TMC2     C13904   0.800   4.078  14.251 -0.0404 -0.0029  0.5069
    3TMC2     O13905   0.763   3.998  14.162  0.3335  0.6161  0.3211
    3TMC2     H13906   1.004   4.096  14.416  0.8459  1.1206  1.9961
    3TMC2    H113907   0.848   4.173  14.031  0.3081  0.4138 -0.7575
    3TMC2    H213908   1.276   4.217  14.105 -0.1966  0.7783  1.5537
    3TMC2    C713909   1.093   4.239  13.917 -0.4945  0.6285  0.3902
    3TMC2    C813910   1.237   4.220  14.363 -0.3533  1.3332 -0.0925
    3TMC2    O113911   1.210   4.255  13.878  0.2232  0.0527 -0.0568
    3TMC2    O213912   1.242   4.178  14.475 -0.0369 -0.3225 -0.4476
    3TMC2    O513913   1.239   4.355  14.341  0.2865  0.0135 -0.1835
    3TMC2    H513914   1.187   4.387  14.264 -0.2283  0.3781  0.3145
    4TMC2    C113915   0.318   0.005  13.550  0.2850  0.0021 -0.1119
    4TMC2    C213916   0.336   0.089  13.444  0.9293  0.5246  0.4210
    4TMC2    C313917   0.452   0.067  13.373 -0.6107  0.2828  0.5333
    4TMC2    C413918   0.398   4.641  13.583  0.5598 -0.7769  0.4506
    4TMC2    C513919   0.508   4.619  13.502  0.1867 -0.9576  0.2243
    4TMC2    C613920   0.541   4.704  13.399  0.0765 -0.0840 -0.3291
    4TMC2     C13921   0.209   0.036  13.656 -0.7926  0.2338  0.1914
    4TMC2     O13922   0.207   4.696  13.747  0.3540  0.8945 -0.0731
    4TMC2     H13923   0.261   0.160  13.412 -0.6495 -1.3042  0.0714
    4TMC2    H113924   0.381   4.573  13.666  0.2943 -0.6245  0.5220
    4TMC2    H213925   0.634   4.691  13.345  0.7074 -0.1891  0.7898
    4TMC2    C713926   0.598   4.520  13.555 -0.2403  0.2398  0.1455
    4TMC2    C813927   0.495   0.177  13.287  0.0997 -0.7558 -0.2343
    4TMC2    O113928   0.556   4.431  13.628  0.1185 -0.3869  0.3391
    4TMC2    O213929   0.442   0.287  13.297  0.0251 -0.1638  0.2003
    4TMC2    O513930   0.540   0.121  13.177 -0.5179  0.5063  0.0179
    4TMC2    H513931   0.575   0.029  13.174 -1.5713  0.1342 -0.7759
    5MPD2     C13932   4.512   0.273  13.797 -0.0213  0.5180  0.5271
    5MPD2    C113933   4.557   0.329  13.684  0.0628 -0.1326  0.2139
    5MPD2    C213934   4.679   0.287  13.632 -0.7911 -0.5266  0.2089
    5MPD2    C313935   0.004   0.180  13.686 -0.8103  0.3717 -0.4490
    5MPD2    C413936   4.688   0.116  13.797  0.5420  0.5150  0.3355
    5MPD2    C513937   4.573   0.163  13.851  0.9158  0.0102  0.7545
    5MPD2     H13938   4.722   0.341  13.548 -3.0831  2.0354  0.6887
    5MPD2    H113939   4.738   0.029  13.838 -1.7240 -0.5480  0.8751
    5MPD2    H213940   4.417   0.307  13.836 -0.9174 -1.2591 -0.1261
    5MPD2    H313941   4.535   0.104  13.933 -1.7068  1.2800  0.4348
    5MPD2     N13942   0.130   0.150  13.634  0.9029 -0.1709 -0.1873
    5MPD2    H513943   0.157   0.207  13.554 -1.4998 -2.2215 -2.4402
    5MPD2    N113944   4.481   0.437  13.629  0.9667 -0.1821 -0.3493
    5MPD2    H713945   4.402   0.465  13.687  1.4116 -1.1189  0.7138
    6MPD1     C13946   4.195   2.159  12.645  0.5516  0.0912  0.3193
    6MPD1    C113947   4.229   2.043  12.572 -0.1673 -0.4070  0.1323
    6MPD1    C213948   4.293   1.935  12.634 -0.1476 -0.2395 -0.3320
    6MPD1    C313949   4.312   1.924  12.768 -0.1379 -0.0976 -0.0601
    6MPD1    C413950   4.285   2.042  12.839  0.0641  0.3455  0.3609
    6MPD1    C513951   4.221   2.154  12.780 -0.1507  0.8160 -0.2718
    6MPD1     H13952   4.299   1.850  12.567  1.0143 -0.5133  0.1302
    6MPD1    H113953   4.298   2.050  12.946  0.4189 -2.2201  0.5182
    6MPD1    H213954   4.156   2.253  12.607 -0.6203 -0.9539 -1.0424
    6MPD1    H313955   4.190   2.235  12.845 -0.5544 -0.3487  0.9895
    6MPD1     N13956   4.354   1.810  12.845  0.9314 -0.3458 -0.5541
    6MPD1    H513957   4.362   1.828  12.944 -1.0709  0.2072 -0.4876
    6MPD1    N113958   4.187   2.035  12.433 -0.5511  0.9243  0.0706
    6MPD1    H613959   4.229   1.950  12.395 -1.0267  1.4449 -1.6278
    6MPD1    H713960   4.221   2.117  12.384  2.8226 -0.3796  0.2215
    7MPD2     C13961   4.434   1.368  13.486 -0.4436  0.0921 -0.4750
    7MPD2    C113962   4.407   1.305  13.370  0.0214  1.0119  0.5091
    7MPD2    C213963   4.349   1.180  13.374 -0.1025  0.3544  0.3702
    7MPD2    C313964   4.333   1.111  13.489 -0.7229 -0.6228  0.4374
    7MPD2    C413965   4.366   1.167  13.608  0.1439  0.0203 -0.4990
    7MPD2    C513966   4.398   1.298  13.602  0.2585  0.3017 -0.5957
    7MPD2     H13967   4.325   1.133  13.279  0.4433 -0.1295  0.4796
    7MPD2    H113968   4.359   1.122  13.707  2.1174  0.7330 -0.0373
    7MPD2    H213969   4.485   1.461  13.505  1.5404 -1.1037  0.0220
    7MPD2    H313970   4.421   1.360  13.688 -2.2982 -1.2798  1.2376
    7MPD2     N13971   4.284   0.980  13.473  0.0521 -0.6851  0.2709
    7MPD2    H513972   4.266   0.938  13.383  0.4341 -0.7702  0.2320
    7MPD2    N113973   4.428   1.360  13.241 -0.2345  0.5634  0.4552
    7MPD2    H713974   4.402   1.301  13.162 -0.4740  1.0289  0.1843
    8TMC3    C113975   4.242   0.750  13.524  0.0860 -0.0816  0.7347
    8TMC3    C213976   4.327   0.652  13.564  0.2839  0.6593  0.3104
    8TMC3    C313977   4.372   0.570  13.468  0.0518 -0.0440 -0.2455
    8TMC3    C413978   4.201   0.761  13.393 -0.1064  0.3947  0.0322
    8TMC3    C513979   4.247   0.683  13.292 -0.5821  0.1429  0.2596
    8TMC3    C613980   4.337   0.582  13.330  0.3861 -0.2128 -0.2305
    8TMC3     C13981   4.272   0.884  13.577 -0.1399 -0.8801  0.0349
    8TMC3     O13982   4.317   0.886  13.691  0.0155 -0.1729 -0.2415
    8TMC3     H13983   4.367   0.651  13.665  0.2891 -1.2401  0.2911
    8TMC3    H113984   4.120   0.831  13.375 -0.3137  0.2139  0.2714
    8TMC3    H213985   4.396   0.523  13.260  1.3057  0.2455  0.1550
    8TMC3    C713986   4.280   0.769  13.182  0.7424  0.0145 -0.2209
    8TMC3    C813987   4.480   0.479  13.498  0.1109  0.1514 -0.4861
    8TMC3    O113988   4.269   0.890  13.208  0.4716  0.3954  0.0093
    8TMC3    O213989   4.557   0.440  13.412 -0.0423 -0.3227  0.4105
    9TMC3    C113990   4.465   1.591  12.870  0.0187 -0.2452  0.1387
    9TMC3    C213991   4.498   1.482  12.796  0.1294  0.3084 -0.4091
    9TMC3    C313992   4.513   1.359  12.867 -0.1366  0.6752  0.1536
    9TMC3    C413993   4.464   1.596  13.009  0.0772 -0.3650  0.1423
    9TMC3    C513994   4.502   1.481  13.071 -0.9179  0.1898  0.6824
    9TMC3    C613995   4.516   1.355  13.012  0.3159  0.3528 -0.1088
    9TMC3     C13996   4.392   1.689  12.789 -0.1790 -0.4536  0.1212
    9TMC3     O13997   4.373   1.662  12.674 -0.6302  0.3695  0.3204
    9TMC3     H13998   4.478   1.471  12.690 -0.3299  0.1307 -0.3026
    9TMC3    H113999   4.428   1.684  13.061  1.1256 -0.2773  0.7357
    9TMC3    H214000   4.546   1.271  13.072 -1.4249  0.1141  0.4462
    9TMC3    C714001   4.486   1.477  13.214  0.2324 -0.1668 -0.1331
    9TMC3    C814002   4.494   1.240  12.789 -0.1588  0.4540  0.4358
    9TMC3    O114003   4.499   1.580  13.274 -0.0857  0.9212 -0.2478
    9TMC3    O214004   4.539   1.231  12.677  0.3745 -0.2633 -0.0872
   10MPD2     C14005   4.470   0.730  12.860 -0.2933 -0.6614 -0.1924
   10MPD2    C114006   4.406   0.789  12.967  0.1399 -0.1508 -0.2408
   10MPD2    C214007   4.396   0.924  12.955 -1.2609  0.7243 -0.0618
   10MPD2    C314008   4.459   1.001  12.855  0.1511  0.4538 -0.2901
   10MPD2    C414009   4.519   0.938  12.748  0.7637 -0.3222  0.2936
   10MPD2    C514010   4.525   0.801  12.758 -0.0628  0.2741  0.4821
   10MPD2     H14011   4.352   0.987  13.031  0.3122  2.0954 -0.2913
   10MPD2    H114012   4.559   0.988  12.661  1.1598  0.4818  0.9415
   10MPD2    H214013   4.460   0.622  12.852  0.5485 -0.9744  3.0155
   10MPD2    H314014   4.567   0.756  12.669  1.1388  1.7557  0.3034
   10MPD2     N14015   4.446   1.144  12.870 -0.3520 -0.0769  0.3898
   10MPD2    H514016   4.392   1.178  12.950  1.2415 -1.4126  2.0210
   10MPD2    N114017   4.338   0.714  13.071  0.0375  0.3741 -0.5347
   10MPD2    H714018   4.355   0.614  13.065 -0.4414  0.3052 -0.7135
   11MPD2     C14019   1.065   4.295  13.629  0.0347  0.7932  0.0582
   11MPD2    C114020   0.963   4.315  13.716 -0.3858 -0.8542  0.1798
   11MPD2    C214021   0.849   4.392  13.681  0.4294 -0.0989  0.3149
   11MPD2    C314022   0.838   4.443  13.552 -0.4585  0.4685  0.3673
   11MPD2    C414023   0.944   4.432  13.463 -0.4600  0.4515 -0.4682
   11MPD2    C514024   1.051   4.355  13.504  0.1354 -0.2366  0.3346
   11MPD2     H14025   0.770   4.408  13.753  0.2641  0.8579 -0.0822
   11MPD2    H114026   0.942   4.487  13.369  3.1277 -1.0293 -1.4178
   11MPD2    H214027   1.151   4.230  13.643 -2.2962 -2.2376  0.3628
   11MPD2    H314028   1.139   4.343  13.443  0.6450  2.5859  0.5250
   11MPD2     N14029   0.728   4.527  13.514  0.1394  0.0395  0.0257
   11MPD2    H514030   0.743   4.591  13.436 -0.1345  0.2549  0.1502
   11MPD2    N114031   0.979   4.271  13.849 -0.2164  0.6903  0.0578
   11MPD2    H714032   0.893   4.273  13.904 -0.5079 -0.2529 -0.3681
    1MPD1     C14033   2.891   1.181  16.366 -1.2886 -0.2470 -0.3418
    1MPD1    C114034   2.935   1.172  16.235  0.5143 -0.2305 -0.2977
    1MPD1    C214035   3.052   1.241  16.198  0.4123  0.3480  0.0747
    1MPD1    C314036   3.129   1.304  16.297  0.2448 -0.5894 -0.3519
    1MPD1    C414037   3.084   1.306  16.424  0.6936 -0.8409  0.2936
    1MPD1    C514038   2.966   1.255  16.455  0.4052 -0.4503  0.2049
    1MPD1     H14039   3.083   1.230  16.094  1.9982  0.8031  0.5007
    1MPD1    H114040   3.143   1.350  16.503 -2.6641  0.4092  2.1337
    1MPD1    H214041   2.805   1.128  16.405 -1.2969 -0.2483 -0.3621
    1MPD1    H314042   2.940   1.253  16.561 -2.7573  0.8536 -0.5559
    1MPD1     N14043   3.259   1.363  16.274 -0.3320 -0.2505  0.6415
    1MPD1    H514044   3.324   1.386  16.348  0.6681  2.7436 -1.1759
    1MPD1    N114045   2.855   1.114  16.137 -0.2759  0.0896  0.4430
    1MPD1    H614046   2.914   1.074  16.064 -1.4131 -1.5519  0.4255
    1MPD1    H714047   2.803   1.035  16.174 -0.0995 -0.6183 -0.8348
    2MPD1     C14048   4.228   1.196  16.481  0.6254  0.8748 -0.8814
    2MPD1    C114049   4.218   1.189  16.342 -0.4439 -0.0321 -0.2084
    2MPD1    C214050   4.115   1.255  16.274  1.4109  0.1767 -0.3418
    2MPD1    C314051   4.001   1.302  16.344 -0.3467  0.2748  0.3458
    2MPD1    C414052   4.006   1.286  16.482  0.1476  0.2765 -0.3191
    2MPD1    C514053   4.119   1.246  16.547 -0.4987  0.6776 -0.1068
    2MPD1     H14054   4.115   1.267  16.166  2.7417  0.5027 -0.3079
    2MPD1    H114055   3.918   1.308  16.540  1.7806  1.1608  1.8143
    2MPD1    H214056   4.318   1.165  16.533  0.6474  0.4627 -1.1636
    2MPD1    H314057   4.123   1.245  16.655 -0.8661 -0.2059 -0.1022
    2MPD1     N14058   3.885   1.337  16.268 -0.5182  0.2063  0.6716
    2MPD1    H514059   3.892   1.322  16.168 -1.9840  0.9336  0.4518
    2MPD1    N114060   4.325   1.149  16.258  0.0994  0.6235 -0.1712
    2MPD1    H614061   4.378   1.075  16.303  1.7950  1.2729 -1.0848
    2MPD1    H714062   4.297   1.119  16.165 -1.6322 -0.1337  0.6104
    3TMC3    C114063   3.668   1.403  16.224  0.7678 -0.8529 -0.1499
    3TMC3    C214064   3.713   1.471  16.116  0.4397  0.2336  0.2612
    3TMC3    C314065   3.621   1.502  16.018  0.0742 -0.3164 -0.6220
    3TMC3    C414066   3.537   1.362  16.240 -1.0830  0.0258  0.1956
    3TMC3    C514067   3.448   1.416  16.153  0.3836 -0.4952 -0.7349
    3TMC3    C614068   3.489   1.480  16.042  0.1229  0.5975 -0.0289
    3TMC3     C14069   3.764   1.373  16.324  0.7940  0.2932 -0.5770
    3TMC3     O14070   3.726   1.375  16.440 -0.9860 -0.5145  0.1988
    3TMC3     H14071   3.806   1.527  16.116  1.1966 -1.0340 -1.9219
    3TMC3    H114072   3.505   1.317  16.333 -1.8171 -1.2111 -0.6539
    3TMC3    H214073   3.416   1.500  15.965  0.8606 -0.0272 -0.8819
    3TMC3    C714074   3.311   1.366  16.148  0.2560  0.7674  0.3371
    3TMC3    C814075   3.659   1.591  15.906  0.2763 -0.1708  0.2628
    3TMC3    O114076   3.256   1.356  16.037 -0.1002  0.4641  0.2437
    3TMC3    O214077   3.572   1.659  15.845  0.0668 -0.3932  0.5951
    4MPD1     C14078   4.039   1.760  15.621 -0.2639 -0.8184 -0.1709
    4MPD1    C114079   4.089   1.654  15.682  0.2137  0.7673  0.0316
    4MPD1    C214080   4.007   1.600  15.780 -0.0106  0.1805 -0.0622
    4MPD1    C314081   3.875   1.640  15.785  0.2116 -0.6665  0.0219
    4MPD1    C414082   3.827   1.743  15.705 -0.3171 -0.4831  0.1309
    4MPD1    C514083   3.917   1.803  15.621 -0.2138  0.1522  0.6875
    4MPD1     H14084   4.039   1.519  15.845  1.0190 -0.1899 -1.0304
    4MPD1    H114085   3.728   1.787  15.717  0.1222  0.7610 -0.7741
    4MPD1    H214086   4.104   1.806  15.547 -0.4569 -1.8320 -0.9622
    4MPD1    H314087   3.891   1.887  15.558 -0.3979  0.1702  0.7895
    4MPD1     N14088   3.790   1.565  15.874 -0.0210 -0.3848 -0.3410
    4MPD1    H514089   3.830   1.482  15.916  1.4250  1.1021  1.2477
    4MPD1    N114090   4.226   1.617  15.667  0.7799 -0.6225  0.0525
    4MPD1    H614091   4.248   1.518  15.672  0.8310 -0.5116  1.9193
    4MPD1    H714092   4.262   1.641  15.575 -1.7011  0.6820 -0.5713
    1TCq1    O114093   3.697   0.574  11.850 -0.0304 -0.5926  0.3482
    1TCq1    C114094   3.568   0.569  11.812  0.1923  0.2507 -0.6175
    1TCq1    O214095   3.476   0.534  11.888 -0.5724 -0.4788 -0.0276
    1TCq1    C214096   3.568   0.559  11.665  0.0498  0.4796  0.6173
    1TCq1    C314097   3.497   0.458  11.608 -0.2282  0.3579 -0.3987
    1TCq1    C414098   3.511   0.424  11.477 -0.5988  0.5544  0.3355
    1TCq1    C514099   3.606   0.488  11.407  0.2645  0.3327 -0.0804
    1TCq1    C614100   3.676   0.588  11.463  0.3387  0.1947 -0.3269
    1TCq1    C714101   3.657   0.631  11.593 -0.4563 -0.0743 -0.4714
    1TCq1    C814102   3.762   0.665  11.373 -0.4788  0.7570 -0.2282
    1TCq1    O414103   3.749   0.654  11.254  0.0374 -0.3363  0.2550
    1TCq1    C914104   3.464   0.292  11.428  0.6526 -0.6906  0.0095
    1TCq1    O514105   3.496   0.269  11.308 -0.3806 -0.5491 -0.1393
    1TCq1    O614106   3.358   0.260  11.487 -0.4285  0.0678 -0.4417
    1TCq1    H114107   3.753   0.596  11.772  0.7974 -0.2196  1.0436
    1TCq1    H214108   3.447   0.381  11.666 -2.3843  1.2962 -0.9901
    1TCq1    H314109   3.616   0.462  11.303 -0.4761 -0.5672  0.0785
    1TCq1    H414110   3.683   0.733  11.621 -2.4275 -0.5154  3.0757
    2MPD1     C14111   4.123   1.020  11.308 -0.0157  0.1055 -0.1418
    2MPD1    C114112   4.121   0.985  11.439  0.1373 -0.2054  0.8346
    2MPD1    C214113   4.028   0.890  11.483  0.3633 -0.0815 -0.0930
    2MPD1    C314114   3.952   0.821  11.398  0.1984  0.4823 -0.0192
    2MPD1    C414115   3.977   0.834  11.265  0.1811 -0.5478  0.1364
    2MPD1    C514116   4.055   0.938  11.218 -0.2758 -0.3827  0.1301
    2MPD1     H14117   4.012   0.869  11.588 -1.0991 -2.7537 -0.8771
    2MPD1    H114118   3.934   0.771  11.189 -0.0238 -0.8941  0.5408
    2MPD1    H214119   4.199   1.088  11.271 -2.2908  1.8375 -1.6766
    2MPD1    H314120   4.072   0.944  11.111  0.0169  0.1403  0.2080
    2MPD1     N14121   3.858   0.728  11.445  0.1628 -0.3380  0.0865
    2MPD1    H514122   3.855   0.712  11.545  0.6427  2.0002  0.4732
    2MPD1    N114123   4.183   1.076  11.530 -0.6271  0.2184 -0.2326
    2MPD1    H614124   4.195   1.043  11.626 -3.1425 -1.2883 -0.4403
    2MPD1    H714125   4.273   1.102  11.489 -1.5217  0.1326 -2.2359
    1TMC1    C114126   0.989   2.965   1.669 -0.1073 -0.2263  0.0641
    1TMC1    C214127   1.013   3.044   1.780  0.6365 -0.3327 -0.0806
    1TMC1    C314128   1.144   3.076   1.804 -0.5316 -0.0361  0.5888
    1TMC1    C414129   1.084   2.893   1.611  0.3158 -0.0769 -0.1780
    1TMC1    C514130   1.216   2.923   1.639  0.4664 -0.0808  0.6315
    1TMC1    C614131   1.249   3.013   1.743 -0.3713 -0.2253 -0.3548
    1TMC1     C14132   0.849   2.932   1.636  1.1033 -0.2469 -0.4622
    1TMC1     O14133   0.834   2.837   1.561  0.5126  0.4340 -0.1560
    1TMC1     H14134   0.935   3.074   1.849  1.5361 -0.0745  0.8181
    1TMC1    H114135   1.063   2.840   1.519  0.5982  2.0370 -1.4739
    1TMC1    H214136   1.353   3.042   1.755 -0.1192 -0.8218 -1.0945
    1TMC1    C714137   1.324   2.902   1.542 -0.0623 -0.1516  0.1572
    1TMC1    C814138   1.175   3.158   1.922 -0.0561  0.2167  0.5226
    1TMC1    O114139   1.420   2.980   1.522 -0.5998  0.3731  0.1298
    1TMC1    O214140   1.289   3.160   1.968 -0.3721 -0.4872 -0.9545
    1TMC1    O314141   1.293   2.794   1.467  0.5437  0.8068  0.2909
    1TMC1    H314142   1.233   2.726   1.506  1.2990  0.8946  1.6304
    1TMC1    O514143   1.103   3.269   1.898  0.3319 -0.2288 -0.7259
    1TMC1    H514144   1.030   3.265   1.833  0.3852 -0.1860 -0.7895
    2MPD1     C14145   0.358   3.082   1.538  0.8390 -0.0647  0.9302
    2MPD1    C114146   0.426   3.185   1.607 -0.2293  0.1460 -0.0579
    2MPD1    C214147   0.553   3.156   1.644  0.9297 -0.0661  0.2052
    2MPD1    C314148   0.623   3.040   1.622 -0.1148  0.2580 -0.8290
    2MPD1    C414149   0.555   2.936   1.553  0.1377 -0.1238 -1.1548
    2MPD1    C514150   0.428   2.961   1.504 -0.4413 -0.1638  0.4666
    2MPD1     H14151   0.615   3.238   1.679 -0.2242  1.0831 -0.4161
    2MPD1    H114152   0.603   2.839   1.544  0.2845 -0.1415 -0.1834
    2MPD1    H214153   0.264   3.106   1.489  1.1678 -0.5597  0.0543
    2MPD1    H314154   0.388   2.884   1.439 -1.3193  0.1745  0.6071
    2MPD1     N14155   0.756   3.031   1.669  1.3423  0.6448 -0.0420
    2MPD1    H514156   0.799   3.104   1.724  0.0517  1.5705 -0.2503
    2MPD1    N114157   0.368   3.305   1.639 -0.5070  0.4334 -0.4958
    2MPD1    H614158   0.436   3.380   1.645  1.3887 -1.5351  2.1738
    2MPD1    H714159   0.287   3.335   1.584  1.4994 -1.2925 -4.3528
    1MPD1     C14160   0.526   0.847  12.517  0.0424  0.0374 -0.1289
    1MPD1    C114161   0.521   0.964  12.447 -0.0335 -0.6421 -0.0393
    1MPD1    C214162   0.640   1.027  12.411 -0.2453  0.2004 -0.1033
    1MPD1    C314163   0.761   0.971  12.435  0.3444 -0.0294 -0.6713
    1MPD1    C414164   0.765   0.848  12.500  0.7867  0.8153 -0.3482
    1MPD1    C514165   0.648   0.785  12.533 -0.6452 -0.3235  0.7334
    1MPD1     H14166   0.629   1.128  12.372  1.0338  0.9117  1.3710
    1MPD1    H114167   0.856   0.804  12.540  0.0601 -0.6185 -0.2713
    1MPD1    H214168   0.435   0.791  12.531 -1.0762  1.9944  0.5106
    1MPD1    H314169   0.641   0.693  12.591 -0.1553  0.7783  2.5367
    1MPD1     N14170   0.870   1.042  12.400  0.1451  0.8295  0.5115
    1MPD1    H514171   0.853   1.137  12.368 -0.8358  0.2998 -0.5442
    1MPD1    N114172   0.404   1.035  12.451 -0.2340  0.3925  0.0819
    1MPD1    H614173   0.402   1.097  12.370  0.2791  1.6845  1.0542
    1MPD1    H714174   0.331   0.966  12.437  0.3722 -0.2329 -0.0060
    2MPD1     C14175   0.642   1.244  11.668 -0.1638 -0.6922 -0.8138
    2MPD1    C114176   0.560   1.180  11.571 -0.9204 -0.7582  0.7339
    2MPD1    C214177   0.625   1.100  11.478  0.2225 -1.0424  0.4297
    2MPD1    C314178   0.758   1.071  11.484  0.3086 -0.3033 -0.8309
    2MPD1    C414179   0.839   1.137  11.576 -0.5761 -0.0499 -0.2788
    2MPD1    C514180   0.778   1.228  11.661 -0.2681  1.2135 -0.3740
    2MPD1     H14181   0.563   1.038  11.414 -1.9153  1.7510 -0.2049
    2MPD1    H114182   0.946   1.116  11.582 -0.2589  1.7619  0.5963
    2MPD1    H214183   0.607   1.311  11.745  1.9031 -0.0880 -0.4086
    2MPD1    H314184   0.843   1.278  11.732  1.8652 -1.9379 -0.0949
    2MPD1     N14185   0.822   0.981  11.394  0.6078  0.1744 -0.7301
    2MPD1    H514186   0.923   0.977  11.408  0.7726  0.8572 -1.7789
    2MPD1    N114187   0.421   1.192  11.576 -0.1384  0.0949 -0.1002
    2MPD1    H614188   0.377   1.276  11.613  1.0620  0.3147  0.8621
    2MPD1    H714189   0.378   1.157  11.490 -0.7239  2.4142 -0.7457
    3MPD1     C14190   0.472   0.481  10.592  0.3151  0.4602  0.1804
    3MPD1    C114191   0.410   0.532  10.699 -0.0760  0.2838 -0.3376
    3MPD1    C214192   0.501   0.568  10.802  0.0015 -0.4068  0.2572
    3MPD1    C314193   0.635   0.560  10.797 -0.2166  0.7419 -0.1299
    3MPD1    C414194   0.696   0.504  10.681  0.5611 -0.1650 -0.0189
    3MPD1    C514195   0.611   0.469  10.580  0.3708 -0.2281  0.4015
    3MPD1     H14196   0.465   0.613  10.893  2.0500  2.6989 -0.4606
    3MPD1    H114197   0.804   0.500  10.668  0.5903  1.8560 -0.3286
    3MPD1    H214198   0.424   0.453  10.499  0.2033 -0.7040  0.5964
    3MPD1    H314199   0.648   0.413  10.494  0.7644 -1.1211  1.1548
    3MPD1     N14200   0.710   0.599  10.913 -0.2086 -0.4508  0.7686
    3MPD1    H514201   0.653   0.616  10.995  3.3752 -0.7734  3.2970
    3MPD1    N114202   0.281   0.575  10.709  0.0566 -0.4694 -0.1923
    3MPD1    H614203   0.212   0.524  10.654 -1.5872 -1.0914  2.4131
    3MPD1    H714204   0.250   0.584  10.806 -0.2425  0.2542 -0.3518
    4MPD2     C14205   1.175   1.287  11.725 -0.2546 -0.5347 -0.1737
    4MPD2    C114206   1.269   1.241  11.824 -0.5789  0.0853 -0.1200
    4MPD2    C214207   1.392   1.203  11.784 -0.2665 -0.6179  0.2001
    4MPD2    C314208   1.429   1.203  11.651 -0.5214  0.0064 -0.3845
    4MPD2    C414209   1.344   1.247  11.558  0.1977  0.8324  0.1779
    4MPD2    C514210   1.222   1.293  11.593 -0.1537 -0.1687 -0.8653
    4MPD2     H14211   1.450   1.149  11.858 -0.0956  0.5058  0.8771
    4MPD2    H114212   1.359   1.251  11.451  1.9450 -0.0660  0.4036
    4MPD2    H214213   1.080   1.327  11.757 -1.0160 -1.3767 -1.3725
    4MPD2    H314214   1.147   1.327  11.522 -0.6782 -0.9801 -0.7024
    4MPD2     N14215   1.554   1.155  11.609  0.0897 -0.0143  0.3381
    4MPD2    H514216   1.559   1.143  11.508  0.2582 -0.6955  0.4264
    4MPD2    N114217   1.243   1.237  11.962  0.0145  0.3086  0.6389
    4MPD2    H714218   1.321   1.214  12.023 -0.0301 -2.3818 -0.3103
    5TMC3    C114219   1.135   1.249  12.172 -0.9213 -0.0351 -0.3452
    5TMC3    C214220   1.040   1.184  12.245 -0.3690 -0.1531  1.0266
    5TMC3    C314221   1.086   1.095  12.337  0.2769  0.1082 -0.0815
    5TMC3    C414222   1.264   1.258  12.215 -0.3065 -0.7212 -0.3751
    5TMC3    C514223   1.309   1.156  12.297  0.1439  0.4398 -0.4216
    5TMC3    C614224   1.223   1.079  12.361 -0.1743 -0.3919  0.1533
    5TMC3     C14225   1.116   1.253  12.024  0.2569 -0.3142  0.5985
    5TMC3     O14226   1.008   1.221  11.973  0.1594 -0.5046 -0.3926
    5TMC3     H14227   0.938   1.189  12.209  0.0659  0.0490 -0.1462
    5TMC3    H114228   1.337   1.328  12.175 -0.3409 -1.2909 -1.4411
    5TMC3    H214229   1.264   1.012  12.435 -0.1201 -2.3371 -1.6461
    5TMC3    C714230   1.419   1.091  12.235 -0.1880 -0.7336 -0.0221
    5TMC3    C814231   0.996   0.994  12.394  0.0823  0.5221  0.5204
    5TMC3    O114232   1.473   1.160  12.156  0.2063 -0.1846 -0.0136
    5TMC3    O214233   1.050   0.902  12.452  0.7015  0.2872 -0.4470
    6TMC3    C114234   0.862   0.823  11.217  0.4590 -0.6334 -1.0128
    6TMC3    C214235   0.820   0.766  11.101  0.5536  0.0288  0.9166
    6TMC3    C314236   0.889   0.655  11.046  0.1480 -0.1293 -0.6950
    6TMC3    C414237   0.960   0.761  11.283 -0.3955 -0.7076  0.2397
    6TMC3    C514238   1.029   0.660  11.219 -0.3679 -0.0927 -0.5484
    6TMC3    C614239   0.998   0.603  11.099 -0.4224 -0.3766  0.4339
    6TMC3     C14240   0.769   0.909  11.290 -0.0119  0.5411  0.1177
    6TMC3     O14241   0.654   0.908  11.244 -0.3460 -0.0246  0.1530
    6TMC3     H14242   0.742   0.813  11.042  0.4031 -2.2272 -0.7081
    6TMC3    H114243   0.980   0.780  11.388 -0.4180  1.8064 -0.2237
    6TMC3    H214244   1.050   0.520  11.053 -1.2578 -0.0779 -1.0231
    6TMC3    C714245   1.167   0.655  11.261  0.2505  0.0722  0.0171
    6TMC3    C814246   0.843   0.605  10.917  0.2883 -0.5473 -0.1175
    6TMC3    O114247   1.205   0.713  11.361  0.4130  0.3516  0.4112
    6TMC3    O214248   0.924   0.569  10.831 -0.5992  0.4597 -0.1360
    7MPD2     C14249   1.737   0.720  12.092  0.7874  0.5694  0.7808
    7MPD2    C114250   1.707   0.842  12.034  0.3583  0.0632  0.3700
    7MPD2    C214251   1.609   0.915  12.102 -0.0539  0.2097  0.0203
    7MPD2    C314252   1.537   0.868  12.210 -0.5799 -0.1309 -0.3840
    7MPD2    C414253   1.567   0.745  12.262 -0.3604 -0.0064 -1.1135
    7MPD2    C514254   1.669   0.676  12.206  0.1822  0.3095  0.0893
    7MPD2     H14255   1.591   1.012  12.058 -0.3103 -0.2335 -0.8356
    7MPD2    H114256   1.529   0.708  12.357 -0.7939  0.7812 -0.9736
    7MPD2    H214257   1.811   0.653  12.050 -1.8849 -1.3638 -0.8401
    7MPD2    H314258   1.707   0.586  12.253 -0.5680  0.1941  0.4658
    7MPD2     N14259   1.438   0.956  12.266 -0.5297 -0.2206 -0.4992
    7MPD2    H514260   1.378   0.922  12.340  1.7733 -0.7106  1.1416
    7MPD2    N114261   1.745   0.884  11.908 -0.0869  0.1168  0.4205
    7MPD2    H714262   1.714   0.973  11.871  0.6433  1.0896  2.1906
    8TMC3    C114263   1.854   0.875  11.692  0.0641 -0.0621 -0.0027
    8TMC3    C214264   1.814   0.806  11.582 -0.2255 -0.5050 -0.0229
    8TMC3    C314265   1.756   0.881  11.484  0.5090 -0.4062 -0.1212
    8TMC3    C414266   1.847   1.010  11.704  0.1943 -0.4921  0.1180
    8TMC3    C514267   1.770   1.077  11.614 -0.4431  0.6962 -0.4287
    8TMC3    C614268   1.730   1.015  11.498 -0.2529  0.2316  0.4408
    8TMC3     C14269   1.811   0.802  11.810  0.4321 -0.1411  0.2970
    8TMC3     O14270   1.837   0.684  11.807  0.1771  0.8614 -0.2633
    8TMC3     H14271   1.820   0.697  11.583 -1.4862 -0.5592  1.1811
    8TMC3    H114272   1.878   1.063  11.793 -2.1987 -0.9738  1.2560
    8TMC3    H214273   1.674   1.066  11.420 -0.6138  1.2941  1.3894
    8TMC3    C714274   1.658   1.120  11.691  0.0925 -0.3661 -0.6910
    8TMC3    C814275   1.657   0.816  11.405 -1.2551  0.2556  0.2547
    8TMC3    O114276   1.679   1.121  11.810  0.1031 -0.3476  0.3191
    8TMC3    O214277   1.548   0.870  11.411  0.1718  0.1346 -0.2131
    9MPD2     C14278   1.658   0.512  11.195 -1.0245  0.9110 -0.4806
    9MPD2    C114279   1.605   0.614  11.267 -0.6116 -0.6364  0.3084
    9MPD2    C214280   1.469   0.634  11.256 -0.2642 -0.4212 -0.0661
    9MPD2    C314281   1.387   0.569  11.165 -0.1974 -0.9131  0.7835
    9MPD2    C414282   1.448   0.478  11.082  0.6140 -0.8567  0.2011
    9MPD2    C514283   1.584   0.456  11.095  0.4708 -0.2435  1.1306
    9MPD2     H14284   1.428   0.714  11.317  0.0877  0.3061 -0.7852
    9MPD2    H114285   1.393   0.420  11.010 -0.8315 -1.5772  1.8905
    9MPD2    H214286   1.761   0.480  11.190 -1.0092  0.8551  0.2941
    9MPD2    H314287   1.626   0.380  11.030  1.6311  0.7177  0.7438
    9MPD2     N14288   1.245   0.584  11.170 -0.3214 -0.5552  0.1281
    9MPD2    H514289   1.191   0.533  11.101 -0.6468  1.8508 -1.3803
    9MPD2    N114290   1.693   0.695  11.350 -0.3513  0.3777 -0.6262
    9MPD2    H714291   1.789   0.660  11.347  0.3011  2.2264 -0.8631
    1MPD1     C14292   0.367   3.473  16.609 -0.3494  0.5735  0.2763
    1MPD1    C114293   0.339   3.355  16.538 -0.1947  0.2795  0.0784
    1MPD1    C214294   0.377   3.351  16.404  0.8996  0.2041 -0.0296
    1MPD1    C314295   0.442   3.460  16.338 -0.2282  0.8753 -0.6253
    1MPD1    C414296   0.462   3.572  16.413 -0.2532 -0.0884 -0.4632
    1MPD1    C514297   0.421   3.579  16.539 -0.5838  0.1641  0.1359
    1MPD1     H14298   0.370   3.260  16.345  4.0272  0.5165 -0.8949
    1MPD1    H114299   0.506   3.665  16.378 -0.4063 -0.0768 -0.6250
    1MPD1    H214300   0.345   3.484  16.715 -1.3649 -0.2711  0.1552
    1MPD1    H314301   0.449   3.670  16.590  0.9801  0.1875 -0.7587
    1MPD1     N14302   0.481   3.459  16.199 -0.8099 -0.4106  0.0983
    1MPD1    H514303   0.535   3.539  16.170 -1.8057  0.0734 -0.3853
    1MPD1    N114304   0.313   3.234  16.611 -0.0443  0.3828  0.2256
    1MPD1    H614305   0.241   3.260  16.678 -0.3755  2.1952 -0.8471
    1MPD1    H714306   0.274   3.161  16.552  4.4065  0.1367 -2.4358
    2TMC2    C114307   0.549   3.526  15.780  0.0269 -0.0267 -0.3603
    2TMC2    C214308   0.546   3.418  15.694  0.3249 -0.4377  0.5199
    2TMC2    C314309   0.481   3.309  15.741 -0.2896  0.5117 -0.2590
    2TMC2    C414310   0.526   3.514  15.916  0.1227  0.3523 -0.3861
    2TMC2    C514311   0.481   3.393  15.961  0.1062 -0.0423 -0.0484
    2TMC2    C614312   0.462   3.286  15.880 -0.0235  0.2133  0.9230
    2TMC2     C14313   0.627   3.638  15.730 -0.0778 -0.4925 -0.2041
    2TMC2     O14314   0.679   3.631  15.620  0.2360  0.4398  0.2574
    2TMC2     H14315   0.571   3.421  15.589 -0.3444 -0.1241  0.3726
    2TMC2    H114316   0.537   3.593  15.988  2.2588 -0.5086  0.2122
    2TMC2    H214317   0.437   3.188  15.919  1.2019  0.2296  1.7290
    2TMC2    C714318   0.447   3.360  16.106  1.0164  0.0910 -0.0294
    2TMC2    C814319   0.520   3.182  15.675 -0.9785  0.1049 -0.0180
    2TMC2    O114320   0.386   3.257  16.123  0.8328  0.1222 -0.0062
    2TMC2    O214321   0.594   3.100  15.726 -0.2649  0.1619  0.3972
    2TMC2    O514322   0.518   3.209  15.545  0.9962  0.2206  0.2344
    2TMC2    H514323   0.447   3.277  15.537  1.1656  0.6633  2.4711
    3MPD1     C14324   0.749   4.136  15.770  0.4328  0.6822 -0.5954
    3MPD1    C114325   0.713   4.083  15.889  0.4247  0.0350  0.0639
    3MPD1    C214326   0.686   3.951  15.906 -0.5239 -0.3111  0.5781
    3MPD1    C314327   0.669   3.874  15.798 -0.0878  0.0217  0.1690
    3MPD1    C414328   0.694   3.922  15.674 -0.0858  0.1411  0.2508
    3MPD1    C514329   0.748   4.052  15.663  0.2210 -0.0426  0.1555
    3MPD1     H14330   0.680   3.913  16.007 -0.6732 -2.6235 -0.3164
    3MPD1    H114331   0.694   3.858  15.587 -0.8084  0.0273  0.3382
    3MPD1    H214332   0.773   4.240  15.752  0.4335  0.7671 -0.1142
    3MPD1    H314333   0.768   4.090  15.564 -1.3646  1.2412  0.3264
    3MPD1     N14334   0.621   3.740  15.814 -0.3014 -0.5811 -0.0701
    3MPD1    H514335   0.587   3.717  15.907  1.8542  0.9625  1.1038
    3MPD1    N114336   0.746   4.165  16.003 -0.0212 -0.1477  0.2583
    3MPD1    H614337   0.714   4.141  16.097  0.4302 -1.4057  0.0949
    3MPD1    H714338   0.746   4.267  16.003 -0.8756 -0.1679 -2.7661
    1TMC1    C114339   4.669   3.910  11.776  0.3601  0.3592 -0.3318
    1TMC1    C214340   0.009   3.844  11.688  0.3115 -0.0893  0.0656
    1TMC1    C314341   0.089   3.923  11.610 -0.3936 -0.4869  0.4806
    1TMC1    C414342   4.658   4.045  11.794  0.0459  0.2384  0.2038
    1TMC1    C514343   4.737   4.111  11.713  0.8065  0.2567 -0.6298
    1TMC1    C614344   0.078   4.059  11.618 -0.5663 -0.1123 -0.8647
    1TMC1     C14345   4.622   3.831  11.888 -0.4140  0.4066 -0.0083
    1TMC1     O14346   4.684   3.730  11.921 -0.6985 -0.5018  0.0140
    1TMC1     H14347   0.021   3.736  11.684 -2.1802 -0.4206  1.7417
    1TMC1    H114348   4.598   4.091  11.872 -0.8950  0.7249 -0.8016
    1TMC1    H214349   0.146   4.120  11.559 -0.6091  2.2290  1.5048
    1TMC1    C714350   4.740   4.256  11.747 -0.8087  0.2782  0.0391
    1TMC1    C814351   0.182   3.873  11.504 -1.0340  0.2467 -0.4242
    1TMC1    O114352   4.647   4.325  11.784 -0.3874  0.9452  0.3342
    1TMC1    O214353   0.258   3.943  11.440 -0.3676  0.4840  0.2988
    1TMC1    O314354   0.119   4.302  11.706  0.3156  0.0201 -0.3822
    1TMC1    H314355   0.183   4.230  11.693  1.6562  0.4975  3.6839
    1TMC1    O514356   0.176   3.736  11.501  0.0450 -0.7858  0.3797
    1TMC1    H514357   0.209   3.696  11.417  0.7330 -0.1156  0.3292
    2MPD2     C14358   4.504   3.745  12.135 -0.2460 -0.0397  0.8222
    2MPD2    C114359   4.443   3.830  12.048 -0.5445  0.0694 -0.3994
    2MPD2    C214360   4.308   3.873  12.075 -0.7899 -0.3769  0.0912
    2MPD2    C314361   4.229   3.820  12.172 -0.6711  0.1295 -0.1981
    2MPD2    C414362   4.289   3.728  12.252  0.0015  0.5096  0.1965
    2MPD2    C514363   4.423   3.699  12.233 -0.2014  0.4890  0.0684
    2MPD2     H14364   4.256   3.946  12.014 -0.9578 -0.3128  0.3106
    2MPD2    H114365   4.235   3.684  12.336  0.7726 -0.3602  0.2396
    2MPD2    H214366   4.606   3.708  12.145  0.0943  0.2636 -1.6605
    2MPD2    H314367   4.480   3.645  12.307 -0.0089 -0.4860 -0.7863
    2MPD2     N14368   4.093   3.854  12.180 -0.3506  0.1531 -0.3264
    2MPD2    H514369   4.064   3.934  12.125 -2.1309 -0.1963  0.0839
    2MPD2    N114370   4.504   3.885  11.935 -0.3541  0.4608 -0.2565
    2MPD2    H714371   4.454   3.951  11.876 -0.0982  0.2483 -0.7172
    3TCq1    O114372   3.575   3.686  12.368  0.0469  0.0476 -0.1840
    3TCq1    C114373   3.568   3.807  12.427  0.6376  0.2635 -0.6525
    3TCq1    O214374   3.471   3.838  12.494 -0.0448 -0.2427 -0.4050
    3TCq1    C214375   3.649   3.884  12.344  0.1149 -0.0696  0.1494
    3TCq1    C314376   3.600   3.918  12.219 -0.3665 -0.0966  1.2472
    3TCq1    C414377   3.685   3.929  12.113  0.5900  0.0367 -0.0895
    3TCq1    C514378   3.813   3.900  12.118  0.3525 -0.6513 -1.1675
    3TCq1    C614379   3.866   3.863  12.244 -0.1030  0.3877  0.6881
    3TCq1    C714380   3.780   3.849  12.352 -0.4035  0.2274  1.1315
    3TCq1    C814381   3.997   3.814  12.270  0.0460 -0.0156  0.1340
    3TCq1    O414382   4.016   3.751  12.371 -0.5763  0.1092  0.2345
    3TCq1    C914383   3.628   3.973  11.989 -0.2730 -0.1528  0.6981
    3TCq1    O514384   3.710   3.993  11.897 -0.1311 -0.0473 -0.0707
    3TCq1    O614385   3.512   4.014  12.001 -0.4227  0.8041 -0.1530
    3TCq1    H114386   3.642   3.673  12.297  0.4435  0.5798  0.0945
    3TCq1    H214387   3.494   3.940  12.218  0.3462  3.4012  0.4536
    3TCq1    H314388   3.877   3.923  12.034 -0.0092  2.1722 -0.6875
    3TCq1    H414389   3.809   3.804  12.446  0.8833  2.6905  1.9274
    1MPD2     C14390   3.736   4.559  14.642  0.3611  0.2877 -0.0603
    1MPD2    C114391   3.596   4.561  14.624 -0.0389 -0.0705 -0.4746
    1MPD2    C214392   3.515   4.555  14.735  0.6450  0.0034  0.0035
    1MPD2    C314393   3.561   4.541  14.866 -0.1971 -0.2755  0.3757
    1MPD2    C414394   3.699   4.551  14.880  0.2592  0.0461 -0.2176
    1MPD2    C514395   3.774   4.547  14.772  0.7587 -0.0776 -0.7086
    1MPD2     H14396   3.408   4.551  14.721  0.8919 -0.0245 -1.8281
    1MPD2    H114397   3.745   4.552  14.978 -4.8248  0.9432  2.1789
    1MPD2    H214398   3.815   4.557  14.568 -1.0828 -0.6113 -1.5725
    1MPD2    H314399   3.881   4.531  14.784  1.2530  2.7671 -1.4248
    1MPD2     N14400   3.464   4.525  14.965  0.6836  0.0528 -0.4877
    1MPD2    H514401   3.370   4.529  14.927  0.8086  1.9192 -0.5924
    1MPD2    N114402   3.552   4.541  14.496  0.4135 -0.6279 -0.1225
    1MPD2    H714403   3.624   4.536  14.425 -0.9032 -0.3716 -1.4840
    2TMC3    C114404   3.406   4.495  14.322  0.2141 -0.2731  0.0619
    2TMC3    C214405   3.289   4.432  14.326  0.7007  0.0864 -0.1280
    2TMC3    C314406   3.185   4.470  14.234  0.5506 -0.4250  0.0047
    2TMC3    C414407   3.438   4.599  14.237 -0.1147 -0.5258 -0.3279
    2TMC3    C514408   3.335   4.648  14.164 -0.2265 -0.2835 -0.3246
    2TMC3    C614409   3.213   4.585  14.162 -0.3055 -0.6216  0.0426
    2TMC3     C14410   3.419   4.527  14.462  0.1677 -0.0107 -0.0910
    2TMC3     O14411   3.313   4.550  14.521  0.0572 -0.6493  0.3632
    2TMC3     H14412   3.274   4.339  14.379  1.5414 -0.1040 -0.2307
    2TMC3    H114413   3.535   4.646  14.248 -0.4909  0.3410 -0.6952
    2TMC3    H214414   3.133   4.618  14.096  0.3053  1.3129  0.2741
    2TMC3    C714415   3.335   0.038  14.110 -0.2583 -0.4449  0.0361
    2TMC3    C814416   3.052   4.460  14.291 -0.4788  1.0851 -0.1743
    2TMC3    O114417   3.230   0.093  14.085  0.4090 -0.2147  0.4111
    2TMC3    O214418   2.957   4.452  14.217  0.0142  0.4564  0.3957
    3TCq1    O114419   3.885   0.773  14.931  0.2609  0.1168  0.1971
    3TCq1    C114420   3.787   0.700  14.873  0.0020  0.2128  0.6194
    3TCq1    O214421   3.676   0.680  14.923  0.4781 -0.7534  0.2197
    3TCq1    C214422   3.820   0.659  14.734  0.5377  0.5546  0.8707
    3TCq1    C314423   3.940   0.604  14.693  0.2598 -0.3872  0.0843
    3TCq1    C414424   3.954   0.565  14.558 -0.0673 -0.5353 -0.0396
    3TCq1    C514425   3.846   0.572  14.472  0.3476  0.1221 -1.5039
    3TCq1    C614426   3.724   0.604  14.525  0.4933 -0.6824 -0.0120
    3TCq1    C714427   3.715   0.659  14.647 -0.0735 -0.2220 -0.0947
    3TCq1    C814428   3.611   0.552  14.465  0.2020 -0.8342  0.1496
    3TCq1    O414429   3.504   0.610  14.481  0.6878  0.0196  0.1451
    3TCq1    C914430   4.078   0.506  14.516  0.0780 -0.4278 -0.3301
    3TCq1    O514431   4.079   0.445  14.404  0.1993  0.0232 -0.2887
    3TCq1    O614432   4.155   0.483  14.609  0.7007  0.6652  0.1326
    3TCq1    H114433   3.967   0.786  14.878  0.2519  2.4779  0.7755
    3TCq1    H214434   4.025   0.591  14.759 -1.6705  1.0983  2.8770
    3TCq1    H314435   3.873   0.524  14.378 -2.5082 -1.8753 -1.3131
    3TCq1    H414436   3.616   0.683  14.683 -0.1188 -1.2497  0.4636
    4MPD2     C14437   3.447   0.485  14.235 -0.8527  0.0099  0.2582
    4MPD2    C114438   3.551   0.404  14.285 -0.7505  0.6534  0.0314
    4MPD2    C214439   3.555   0.281  14.230  0.0028 -0.4300 -0.2279
    4MPD2    C314440   3.468   0.233  14.132 -0.6113  0.4562  0.1821
    4MPD2    C414441   3.388   0.320  14.062 -0.4357  0.7474  0.5461
    4MPD2    C514442   3.374   0.449  14.112 -0.3359 -0.2762 -0.6467
    4MPD2     H14443   3.621   0.210  14.278  1.0370  1.1080  0.6259
    4MPD2    H114444   3.322   0.288  13.982  0.8998  1.6119 -0.9014
    4MPD2    H214445   3.440   0.586  14.273 -3.3770  0.1452 -0.5759
    4MPD2    H314446   3.300   0.516  14.069 -0.5567  0.1598  0.4294
    4MPD2     N14447   3.457   0.094  14.124  0.4023 -0.4218  0.5680
    4MPD2    H514448   3.534   0.044  14.167  0.4742  0.0001  0.9367
    4MPD2    N114449   3.635   0.443  14.390 -0.4998  0.1259  0.3678
    4MPD2    H714450   3.721   0.393  14.410 -1.6183 -1.4503  1.2049
    5TMC2    C114451   3.138   4.486  15.083  0.4497 -0.1480  0.2669
    5TMC2    C214452   3.112   4.366  15.150  0.5466 -0.6568 -0.0107
    5TMC2    C314453   3.211   4.315  15.230 -0.5342  0.0546 -0.9029
    5TMC2    C414454   3.256   4.560  15.104  0.1052  0.8372  0.0084
    5TMC2    C514455   3.355   4.503  15.175 -0.3923 -0.4050 -0.6402
    5TMC2    C614456   3.328   4.385  15.249 -0.4864  0.5271  0.2049
    5TMC2     C14457   3.106   4.492  14.942  0.2896  0.7666  0.2228
    5TMC2     O14458   3.186   4.555  14.875  0.0766 -0.1223  0.5048
    5TMC2     H14459   3.040   4.294  15.113 -0.1928  0.7330 -1.2723
    5TMC2    H114460   3.271   4.649  15.044  2.2952  1.4226  1.4131
    5TMC2    H214461   3.404   4.326  15.298  1.1615  3.2167  0.8525
    5TMC2    C714462   3.482   4.502  15.100 -0.1272 -0.0380 -0.0773
    5TMC2    C814463   3.177   4.242  15.344  0.2272 -0.6412 -0.5279
    5TMC2    O114464   3.587   4.459  15.142  0.5536  0.1196  0.1137
    5TMC2    O214465   3.263   4.191  15.411 -0.5927 -0.1516 -0.0930
    5TMC2    O514466   3.044   4.261  15.376 -0.1539 -0.2217  0.0715
    5TMC2    H514467   2.991   4.312  15.310 -1.2907  0.4701  1.5342
    6MPD2     C14468   2.853   4.400  14.509 -0.3561 -0.1760 -0.0527
    6MPD2    C114469   2.978   4.446  14.533  0.1295  0.3146 -0.3267
    6MPD2    C214470   3.019   4.461  14.664  0.4198  0.2312  0.0036
    6MPD2    C314471   2.941   4.432  14.776 -0.7822 -0.9163 -0.8021
    6MPD2    C414472   2.815   4.373  14.752 -0.1436  0.8212 -0.0815
    6MPD2    C514473   2.775   4.362  14.621 -0.2337  0.0292 -0.6548
    6MPD2     H14474   3.124   4.488  14.673  0.5768 -1.1248  2.2076
    6MPD2    H114475   2.747   4.348  14.832 -1.3126 -0.2277 -1.4082
    6MPD2    H214476   2.827   4.385  14.405  1.2753  0.2498 -0.5222
    6MPD2    H314477   2.693   4.296  14.596  0.3698 -0.7117 -0.6742
    6MPD2     N14478   2.988   4.438  14.909 -0.0311 -0.4883 -0.1382
    6MPD2    H514479   2.927   4.395  14.978  0.0480 -1.1980 -0.5105
    6MPD2    N114480   3.077   4.468  14.429 -0.2735  0.2597 -0.2527
    6MPD2    H714481   3.170   4.489  14.463 -0.9232 -1.0503  2.4042
  945NH3     N114482   1.176   2.658  14.692  0.2036 -0.3992  0.0600
  945NH3     H214483   1.195   2.593  14.616 -0.6550 -2.0281  1.2491
  945NH3     H314484   1.273   2.668  14.719  0.9610 -0.3758 -2.6557
  945NH3     H414485   1.135   2.596  14.761  2.3797 -1.4556  0.3958
  946SOD     NA14486   0.729   4.226   0.725 -0.5185  0.0231  0.1694
  947SOD     NA14487   3.953   3.433  11.631  0.1865  0.0059 -0.2768
  948SOD     NA14488   3.302   0.655  15.079  0.0512  0.0722 -0.1128
  949SOD     NA14489   4.287   1.708   2.474  0.3377  0.2666 -0.1865
  950SOD     NA14490   1.723   1.309  12.805  0.0002 -0.5407 -0.4120
  951SOD     NA14491   0.473   1.048   2.842  0.6841  0.5202  0.1837
  952SOD     NA14492   0.107   2.178   6.766 -0.3549  0.2180  0.1667
  953SOD     NA14493   0.998   2.761  14.531 -0.0496 -0.2954 -0.3605
  954SOL     OW14494   4.691   0.303   8.292  0.0142 -0.3285 -0.4673
  954SOL    HW114495   0.002   0.234   8.252  0.6802  0.8185 -1.5840
  954SOL    HW214496   4.710   0.294   8.386  2.8797 -1.2214 -1.1555
  955SOL     OW14497   2.083   0.915  10.378  0.5844 -0.6497  0.5363
  955SOL    HW114498   2.073   0.902  10.284 -3.0647 -0.1205  0.8804
  955SOL    HW214499   2.140   0.844  10.408  1.2109  0.8362  2.8843
  956SOL     OW14500   4.404   1.611   0.817  0.4250 -0.3376 -0.1978
  956SOL    HW114501   4.425   1.519   0.805 -1.1912 -1.1990  3.7729
  956SOL    HW214502   4.321   1.608   0.768  1.2634 -1.1166 -1.5604
  957SOL     OW14503   2.328   4.224   3.799  0.6261  0.1330 -0.2156
  957SOL    HW114504   2.267   4.179   3.741 -0.8303  2.0507 -0.1794
  957SOL    HW214505   2.300   4.177   3.878  1.4090 -0.6934 -0.4366
  958SOL     OW14506   4.240   4.520   8.035 -0.3876  0.5239 -0.5498
  958SOL    HW114507   4.262   4.441   7.985 -1.2344  0.8018 -1.3521
  958SOL    HW214508   4.149   4.539   8.013 -0.3859  1.0663 -0.0691
  959SOL     OW14509   2.806   1.576   9.291  0.1363  0.0649  0.3915
  959SOL    HW114510   2.806   1.591   9.196  3.4144  0.6528  0.5051
  959SOL    HW214511   2.724   1.622   9.308 -0.8543 -2.0659  1.3808
  960SOL     OW14512   4.489   2.266   3.155 -0.7151  0.5030 -0.5673
  960SOL    HW114513   4.525   2.354   3.160  1.2552 -0.3408  0.6925
  960SOL    HW214514   4.402   2.299   3.133 -0.3353  1.7403 -0.2174
  961SOL     OW14515   0.301   4.248   3.757 -0.0582 -0.4288 -0.6442
  961SOL    HW114516   0.294   4.163   3.714  1.0260 -1.2343  0.7690
  961SOL    HW214517   0.211   4.279   3.774  0.8529  2.7492 -1.6506
  962SOL     OW14518   3.307   3.854   0.107  0.3641 -0.8479 -0.5989
  962SOL    HW114519   3.259   3.880   0.028  1.1045  0.1110 -0.7287
  962SOL    HW214520   3.395   3.857   0.071  0.7481 -0.9076  0.3549
  963SOL     OW14521   3.498   0.029  10.713 -0.1542 -0.0491 -0.1673
  963SOL    HW114522   3.584   0.073  10.710  0.4235 -1.2143 -0.8611
  963SOL    HW214523   3.495   0.002  10.621 -2.3327 -1.7684  0.4464
  964SOL     OW14524   4.359   2.870   4.106  0.1896 -0.1522  0.0417
  964SOL    HW114525   4.437   2.923   4.088  0.4988 -0.3171  0.8799
  964SOL    HW214526   4.390   2.784   4.078 -1.0657 -1.1342  1.6562
  965SOL     OW14527   1.672   2.817   3.852 -0.3803 -0.1070  0.3048
  965SOL    HW114528   1.745   2.812   3.791 -0.6874 -2.2005  0.0844
  965SOL    HW214529   1.642   2.907   3.843 -3.0622 -1.0372 -0.1970
  966SOL     OW14530   0.767   2.457   3.897  0.3874 -0.5317 -0.1189
  966SOL    HW114531   0.726   2.407   3.968  1.0946 -1.0080 -0.0424
  966SOL    HW214532   0.721   2.416   3.825 -0.7571  2.5288 -1.1373
  967SOL     OW14533   2.531   4.163   3.403 -0.0365  0.3571  0.5654
  967SOL    HW114534   2.549   4.103   3.332 -1.3832 -0.5600  1.0183
  967SOL    HW214535   2.602   4.148   3.466  0.2480 -0.0573  0.1478
  968SOL     OW14536   4.549   4.512   7.949  0.2800 -0.1114 -0.0751
  968SOL    HW114537   4.607   4.584   7.924  2.1879 -1.0474  1.6589
  968SOL    HW214538   4.461   4.548   7.947  0.0765 -0.6673 -1.1817
  969SOL     OW14539   3.648   1.771   1.426  0.0731 -0.2145 -0.3165
  969SOL    HW114540   3.697   1.710   1.371  0.5816  0.2040 -0.3207
  969SOL    HW214541   3.594   1.807   1.356 -1.2761  0.7818  1.2337
  970SOL     OW14542   4.288   3.681   7.985 -0.0562  0.0136  0.3080
  970SOL    HW114543   4.221   3.664   8.051  0.5261 -1.3102  0.5516
  970SOL    HW214544   4.327   3.595   7.970 -1.7251 -0.7519  0.3367
  971SOL     OW14545   3.310   1.633  12.618  0.1709 -0.2304  0.4433
  971SOL    HW114546   3.315   1.543  12.585  1.3819  0.0932 -0.2353
  971SOL    HW214547   3.392   1.665  12.581 -1.1298 -1.0263 -3.1440
  972SOL     OW14548   0.054   4.415   2.571  0.0824  0.1982  0.6290
  972SOL    HW114549   0.038   4.422   2.665 -1.8516  1.0574  0.2360
  972SOL    HW214550   0.084   4.324   2.576  2.9349  1.0571 -1.0112
  973SOL     OW14551   3.198   1.676   6.525  0.2024 -0.0611  0.3534
  973SOL    HW114552   3.138   1.694   6.452  0.2501 -0.3637  0.2398
  973SOL    HW214553   3.235   1.764   6.535 -0.2794  0.1356  0.4263
  974SOL     OW14554   0.352   1.506   2.102 -0.0689 -0.0975  0.4368
  974SOL    HW114555   0.375   1.413   2.098  1.3579  0.2260  1.1919
  974SOL    HW214556   0.262   1.496   2.134 -0.0702 -0.9098  0.1868
  975SOL     OW14557   4.386   1.370   0.164 -0.1599 -0.3744 -0.3981
  975SOL    HW114558   4.471   1.391   0.202 -0.0400 -1.0073 -0.3090
  975SOL    HW214559   4.356   1.312   0.233  0.4077  0.1371  0.2833
  976SOL     OW14560   3.256   3.990  13.096  0.2813 -0.2782  0.2164
  976SOL    HW114561   3.274   4.059  13.032  1.8572 -0.9636 -0.0928
  976SOL    HW214562   3.326   3.928  13.074 -0.1663 -0.8012  0.2891
  977SOL     OW14563   2.696   1.492   7.597  0.4743  0.3531  0.6282
  977SOL    HW114564   2.658   1.514   7.682 -3.3247  2.2639 -1.5705
  977SOL    HW214565   2.767   1.556   7.590  0.7740  0.2523  2.6255
  978SOL     OW14566   3.639   4.213   6.214  0.3310 -0.2095 -0.2653
  978SOL    HW114567   3.710   4.244   6.158  0.2876  1.0646  0.3944
  978SOL    HW214568   3.590   4.294   6.228 -3.0220 -2.2979 -0.0232
  979SOL     OW14569   4.586   4.263   8.474 -0.1628  0.9616  0.2598
  979SOL    HW114570   4.606   4.170   8.488 -0.6255  0.5013 -2.1607
  979SOL    HW214571   4.562   4.271   8.382  0.2253 -0.9821 -0.0170
  980SOL     OW14572   2.236   3.144  15.535 -0.0469 -0.1952  0.7771
  980SOL    HW114573   2.150   3.102  15.535  0.5659 -1.4414 -0.2478
  980SOL    HW214574   2.282   3.075  15.488  0.7059 -0.3488  1.7558
  981SOL     OW14575   2.479   3.981   4.790 -0.5888  0.0884 -0.5212
  981SOL    HW114576   2.568   3.970   4.758  0.2381 -0.7732  2.0996
  981SOL    HW214577   2.420   3.966   4.716 -0.2739  2.4291 -1.2670
  982SOL     OW14578   0.139   2.494   2.375 -0.6907 -0.4248 -0.2605
  982SOL    HW114579   0.086   2.532   2.444  0.7873 -0.2536  0.7769
  982SOL    HW214580   0.101   2.525   2.292 -2.1201 -1.9735 -0.1849
  983SOL     OW14581   1.125   1.790  15.855  0.0749  0.0861 -0.1152
  983SOL    HW114582   1.037   1.821  15.834 -0.0726 -0.6284 -0.5780
  983SOL    HW214583   1.176   1.794  15.774  1.1220 -0.3435  0.5193
  984SOL     OW14584   3.313   1.622   5.528  0.0368  0.3580  0.0331
  984SOL    HW114585   3.385   1.579   5.573  0.0405  2.3341  1.8784
  984SOL    HW214586   3.245   1.558   5.547 -1.0033  0.8133 -2.1236
  985SOL     OW14587   3.173   1.757   5.347 -0.3781  0.6005 -0.5955
  985SOL    HW114588   3.230   1.711   5.407  0.8192  1.0802 -1.3617
  985SOL    HW214589   3.181   1.846   5.381  2.3341 -0.2074  0.8650
  986SOL     OW14590   3.869   2.984  16.645 -0.7061  0.1165  0.4655
  986SOL    HW114591   3.958   2.965  16.677 -0.5239  0.1671 -0.0201
  986SOL    HW214592   3.890   3.058  16.588 -0.0621  0.3217  0.9564
  987SOL     OW14593   4.565   1.804   3.510 -0.0573 -0.1597 -0.1684
  987SOL    HW114594   4.479   1.772   3.536  0.0005  0.6370  0.9753
  987SOL    HW214595   4.613   1.733   3.552  1.9337  0.6676 -1.0390
  988SOL     OW14596   3.249   0.382   7.618  0.2754 -0.2171 -0.1737
  988SOL    HW114597   3.188   0.437   7.569 -0.5012  0.1648  1.2229
  988SOL    HW214598   3.330   0.432   7.609 -0.0239  0.3021  0.0217
  989SOL     OW14599   3.401   3.464   2.218  0.0241 -0.0410 -0.2613
  989SOL    HW114600   3.392   3.482   2.312 -0.0771  0.3422 -0.3466
  989SOL    HW214601   3.489   3.427   2.209  0.1672  0.3668 -0.5281
  990SOL     OW14602   0.844   0.860   5.997 -0.3447 -0.2482 -0.2486
  990SOL    HW114603   0.858   0.928   6.063  0.8762 -0.1770 -0.5884
  990SOL    HW214604   0.748   0.854   5.989 -0.1438 -2.6013 -0.8817
  991SOL     OW14605   3.601   4.469   8.794 -0.6817 -0.1056  0.1073
  991SOL    HW114606   3.541   4.492   8.723 -0.3051 -2.0624 -0.8475
  991SOL    HW214607   3.561   4.399   8.846  2.3394  0.5551  3.3162
  992SOL     OW14608   3.032   3.889  17.625 -0.4391 -0.0759 -0.4507
  992SOL    HW114609   3.033   3.861  17.534 -0.3949 -1.4601 -0.0157
  992SOL    HW214610   3.116   3.935  17.629  0.4212 -1.6275 -0.6998
  993SOL     OW14611   0.014   0.592   7.233  0.2956  0.4363 -0.0179
  993SOL    HW114612   4.717   0.620   7.316 -0.0125 -2.1038  0.6745
  993SOL    HW214613   0.010   0.497   7.242  0.4781  0.3087 -1.3108
  994SOL     OW14614   3.980   0.463  12.775  0.1280  0.2320 -0.0031
  994SOL    HW114615   3.917   0.417  12.830  1.7255 -0.9546  0.8655
  994SOL    HW214616   3.961   0.554  12.796 -0.9931 -0.3383  1.4286
  995SOL     OW14617   2.706   3.094   1.992  0.4202  0.2376  0.3004
  995SOL    HW114618   2.630   3.126   1.943  1.5244 -0.3688 -1.8063
  995SOL    HW214619   2.707   3.003   1.963  0.1917  0.0672  0.8182
  996SOL     OW14620   2.941   3.303   1.376  0.2398 -0.6866 -0.0041
  996SOL    HW114621   3.007   3.289   1.444 -1.1240 -1.4230  1.1627
  996SOL    HW214622   2.920   3.396   1.387  0.4002 -0.8307  1.5429
  997SOL     OW14623   3.798   0.428   9.636  0.3197 -0.3907 -0.2991
  997SOL    HW114624   3.748   0.357   9.676  0.1091 -0.9828 -1.6282
  997SOL    HW214625   3.795   0.396   9.546 -3.3149 -1.0607  0.0828
  998SOL     OW14626   2.559   2.149   4.713 -0.1705  0.0828 -0.2655
  998SOL    HW114627   2.545   2.242   4.694  3.9911  1.2252  2.1807
  998SOL    HW214628   2.620   2.125   4.643  0.9303 -1.1270  1.1289
  999SOL     OW14629   2.082   0.875   9.409 -0.1497  0.1496 -0.3291
  999SOL    HW114630   2.117   0.922   9.333  0.3649 -1.3489 -1.0094
  999SOL    HW214631   2.108   0.786   9.387  0.2927  0.1401  0.2303
 1000SOL     OW14632   2.690   1.003   2.497  0.5614 -0.1478  0.0535
 1000SOL    HW114633   2.607   0.955   2.492 -0.5924  1.8066  0.5512
 1000SOL    HW214634   2.681   1.083   2.445  2.0283 -0.0565 -0.0747
 1001SOL     OW14635   1.407   1.586   2.480 -0.9442 -0.4137 -0.2615
 1001SOL    HW114636   1.498   1.615   2.467 -1.1206  1.0326  1.8274
 1001SOL    HW214637   1.371   1.675   2.484  0.3653  0.0472  1.5049
 1002SOL     OW14638   3.867   1.836  11.803  0.0450  0.2620 -0.0037
 1002SOL    HW114639   3.831   1.763  11.854  0.2034 -0.8964 -1.5579
 1002SOL    HW214640   3.845   1.909  11.861  1.8221  1.6514 -1.0614
 1003SOL     OW14641   0.237   0.417   9.383  0.0314  0.2538 -0.2424
 1003SOL    HW114642   0.276   0.428   9.469 -1.4645  0.2441  0.4499
 1003SOL    HW214643   0.315   0.422   9.327 -0.6627 -0.7283 -1.3105
 1004SOL     OW14644   0.477   0.871   5.140  0.1187 -0.3531  0.4545
 1004SOL    HW114645   0.382   0.881   5.133  0.3573 -0.2710 -2.6798
 1004SOL    HW214646   0.501   0.959   5.168 -0.1191 -0.2924  0.4639
 1005SOL     OW14647   2.161   3.806   8.504 -0.4122  0.2587 -0.4078
 1005SOL    HW114648   2.256   3.811   8.516 -0.3804  1.5940 -1.2277
 1005SOL    HW214649   2.134   3.786   8.594  0.0183 -0.9356 -0.5443
 1006SOL     OW14650   3.172   3.246   7.223 -0.3499  0.5223 -0.0744
 1006SOL    HW114651   3.218   3.291   7.293 -1.9966 -0.2756  1.5142
 1006SOL    HW214652   3.087   3.249   7.268 -0.2474  0.6420  0.1090
 1007SOL     OW14653   3.601   1.831   1.841 -0.1918  0.3065  0.0170
 1007SOL    HW114654   3.578   1.849   1.932  1.2233 -0.7025  0.5765
 1007SOL    HW214655   3.690   1.796   1.848 -0.2416  0.7183  2.7164
 1008SOL     OW14656   4.297   1.234   0.363  0.0330 -0.1498 -0.5908
 1008SOL    HW114657   4.214   1.188   0.379 -0.7107  1.5997  0.5496
 1008SOL    HW214658   4.363   1.180   0.407  0.1274  1.7444  1.5881
 1009SOL     OW14659   3.213   4.325  11.449 -0.1990  0.2083  0.5162
 1009SOL    HW114660   3.231   4.358  11.537  2.5195 -0.8252  0.3491
 1009SOL    HW214661   3.158   4.249  11.466 -1.8206  1.3338  0.3296
 1010SOL     OW14662   0.341   3.879   5.708 -0.1552  0.2672  0.4795
 1010SOL    HW114663   0.407   3.879   5.778  1.4813  0.3808 -1.0588
 1010SOL    HW214664   0.383   3.934   5.642  0.5330 -0.1019  0.6112
 1011SOL     OW14665   0.731   2.947   5.940 -0.0756  0.1322 -0.4160
 1011SOL    HW114666   0.740   3.003   6.017 -3.9684  0.3791 -0.1263
 1011SOL    HW214667   0.663   3.001   5.899 -0.2551  0.9649  0.9684
 1012SOL     OW14668   0.767   3.782   2.375 -0.3792  0.4708  0.0107
 1012SOL    HW114669   0.739   3.710   2.432 -1.8540  0.7625 -0.3487
 1012SOL    HW214670   0.860   3.793   2.393 -0.0515 -1.4025 -0.5291
 1013SOL     OW14671   0.623   1.679   7.284  0.8333 -0.3880 -0.4226
 1013SOL    HW114672   0.655   1.769   7.276 -0.8215  0.3308  0.9919
 1013SOL    HW214673   0.621   1.676   7.379 -1.3855 -1.9321 -0.5060
 1014SOL     OW14674   1.165   0.474   6.775 -0.3207  0.5791  0.5653
 1014SOL    HW114675   1.075   0.465   6.744 -0.5179  2.1444  0.7119
 1014SOL    HW214676   1.200   0.385   6.784 -3.1315 -0.5538  0.1628
 1015SOL     OW14677   2.423   4.135  17.290  0.8857 -0.1990  0.2580
 1015SOL    HW114678   2.351   4.151  17.351  0.8640  2.0925 -0.3742
 1015SOL    HW214679   2.397   4.188  17.215 -0.9833  0.1060  1.1377
 1016SOL     OW14680   2.952   1.577   6.671 -0.1355  0.5244 -0.3641
 1016SOL    HW114681   3.042   1.575   6.638  0.2263 -1.7186  0.7417
 1016SOL    HW214682   2.948   1.493   6.716 -0.1824  0.3067 -0.7705
 1017SOL     OW14683   2.665   2.437   6.602 -0.2249  0.4078 -0.1545
 1017SOL    HW114684   2.615   2.498   6.657  1.5075  0.4843  1.3386
 1017SOL    HW214685   2.683   2.370   6.668  0.1042  0.8098  0.1663
 1018SOL     OW14686   2.176   3.197   3.144 -0.1299  0.3167  0.0242
 1018SOL    HW114687   2.125   3.166   3.068  1.1425 -1.2066 -0.2249
 1018SOL    HW214688   2.186   3.290   3.126 -0.7790  0.5950  1.1279
 1019SOL     OW14689   3.025   3.903  12.784 -0.1978  0.1354  1.0000
 1019SOL    HW114690   3.047   3.958  12.859 -0.9407  0.9255  0.6346
 1019SOL    HW214691   3.053   3.814  12.804 -2.5071 -0.5107  1.2851
 1020SOL     OW14692   4.616   2.048   9.584 -0.0600  0.2141 -0.2813
 1020SOL    HW114693   4.653   1.969   9.624 -3.0370 -0.1260  1.8344
 1020SOL    HW214694   4.524   2.023   9.575  0.8401 -2.2889 -2.6519
 1021SOL     OW14695   1.908   4.303   7.950  1.0320 -0.1151  0.4426
 1021SOL    HW114696   1.850   4.350   7.891 -0.5903 -2.8459 -0.1617
 1021SOL    HW214697   1.936   4.374   8.008  3.6904 -0.9639  0.1901
 1022SOL     OW14698   1.973   1.388   5.330 -0.3808 -0.3565 -0.0901
 1022SOL    HW114699   2.001   1.469   5.372  0.8950 -1.1358  0.5632
 1022SOL    HW214700   1.900   1.433   5.289 -0.8746 -1.5631 -0.5361
 1023SOL     OW14701   0.958   1.696  16.904 -0.2837 -0.2115  0.4667
 1023SOL    HW114702   0.976   1.744  16.823  0.7361 -1.5577 -0.1018
 1023SOL    HW214703   0.899   1.757  16.948  0.2389  1.0364 -0.5831
 1024SOL     OW14704   0.851   1.870   5.425  0.1517  0.2825  0.0029
 1024SOL    HW114705   0.827   1.960   5.403 -1.0467  0.0843  0.5355
 1024SOL    HW214706   0.895   1.846   5.343  1.5233  0.5598  0.6602
 1025SOL     OW14707   0.464   1.004   1.725  0.2888  0.1921  0.0213
 1025SOL    HW114708   0.438   1.089   1.689  1.1731  0.7735  0.7300
 1025SOL    HW214709   0.556   1.009   1.697  0.5407  0.3238  0.8801
 1026SOL     OW14710   1.053   2.427   7.161 -0.2998  0.1838  0.0562
 1026SOL    HW114711   1.007   2.497   7.117 -1.3167 -0.7175 -0.3168
 1026SOL    HW214712   0.985   2.368   7.193 -1.5268  2.3887  1.5052
 1027SOL     OW14713   3.469   1.643   7.687 -0.4371  0.3945  0.0146
 1027SOL    HW114714   3.533   1.674   7.752  0.7609 -0.5319 -0.7149
 1027SOL    HW214715   3.406   1.595   7.741 -0.2699  0.8860  0.6511
 1028SOL     OW14716   2.814   3.027   8.140 -0.1058 -0.0816 -0.1782
 1028SOL    HW114717   2.800   3.116   8.172 -0.0866 -0.1920  0.1335
 1028SOL    HW214718   2.777   2.973   8.210  1.7255 -0.8999  0.1631
 1029SOL     OW14719   3.489   4.370   3.076 -0.0304 -0.0699 -0.2290
 1029SOL    HW114720   3.416   4.393   3.018 -1.0690 -1.0888  0.6685
 1029SOL    HW214721   3.528   4.455   3.097 -0.0539 -0.4279  1.2062
 1030SOL     OW14722   4.448   4.639   1.325 -0.4984 -0.2855 -0.2236
 1030SOL    HW114723   4.448   4.570   1.391  1.4973  0.7877  0.8892
 1030SOL    HW214724   4.378   4.696   1.359 -1.3062 -1.3449 -0.0987
 1031SOL     OW14725   2.890   3.870   5.781  0.1879 -0.1778  0.0499
 1031SOL    HW114726   2.934   3.786   5.790  0.9837  0.0963 -1.3022
 1031SOL    HW214727   2.810   3.854   5.832 -0.0811 -1.0345 -0.6501
 1032SOL     OW14728   2.352   0.802  10.844 -0.6585  0.4417 -0.5167
 1032SOL    HW114729   2.352   0.898  10.836 -0.6132  0.5748  1.1086
 1032SOL    HW214730   2.283   0.781  10.780 -0.3237  0.2294 -0.8054
 1033SOL     OW14731   0.256   0.995   2.820 -0.1481 -0.4969  0.0867
 1033SOL    HW114732   0.184   1.018   2.762  0.0146  0.4445  0.2568
 1033SOL    HW214733   0.208   0.965   2.898 -0.2229  0.0913  0.2675
 1034SOL     OW14734   2.127   3.630  16.107 -0.2112  0.3233 -0.4400
 1034SOL    HW114735   2.124   3.691  16.181  3.5349 -0.2186  0.1590
 1034SOL    HW214736   2.098   3.682  16.032 -0.3163  0.4728 -0.2965
 1035SOL     OW14737   4.113   2.636  16.040  0.1944 -0.0553 -0.2165
 1035SOL    HW114738   4.059   2.567  16.000  1.1133 -1.2665  0.6556
 1035SOL    HW214739   4.146   2.677  15.960  2.3403 -1.6452 -0.1431
 1036SOL     OW14740   2.330   2.708   8.961 -0.1327 -0.1992  0.0864
 1036SOL    HW114741   2.367   2.687   9.048  1.2114 -1.4760 -0.7869
 1036SOL    HW214742   2.274   2.781   8.985  0.1621 -0.2304  0.8800
 1037SOL     OW14743   2.266   0.315   3.473 -0.4818  0.3334 -0.5910
 1037SOL    HW114744   2.176   0.294   3.495  0.5065 -0.9195  2.2617
 1037SOL    HW214745   2.239   0.359   3.392 -2.6631  1.1157  0.5799
 1038SOL     OW14746   3.819   0.577   6.521  0.3210  0.5212  0.1981
 1038SOL    HW114747   3.731   0.539   6.520  0.7781 -0.5928  1.9928
 1038SOL    HW214748   3.867   0.536   6.448  0.6691 -0.1514  0.8014
 1039SOL     OW14749   2.626   2.666   3.420 -0.5487  0.4574 -0.1262
 1039SOL    HW114750   2.658   2.744   3.375  1.7038 -1.3777 -1.7652
 1039SOL    HW214751   2.532   2.678   3.412 -0.3095  1.4967 -1.4177
 1040SOL     OW14752   3.619   4.256   7.656  0.0089 -0.5258  0.0432
 1040SOL    HW114753   3.570   4.236   7.577  0.5693  2.2095 -0.9725
 1040SOL    HW214754   3.679   4.326   7.628 -0.3012  0.2128  1.2098
 1041SOL     OW14755   4.526   2.813   5.493  0.2216 -0.1339 -0.6426
 1041SOL    HW114756   4.495   2.899   5.463  0.1005  0.1653  0.3429
 1041SOL    HW214757   4.616   2.808   5.462 -0.4624  0.3167 -2.6663
 1042SOL     OW14758   3.708   1.547  13.281 -0.6886 -0.6650  0.0149
 1042SOL    HW114759   3.675   1.600  13.354  1.9646  0.3621  0.4886
 1042SOL    HW214760   3.795   1.585  13.266 -0.7414 -0.6111 -0.1510
 1043SOL     OW14761   2.350   0.100   6.858 -0.2893 -0.0681 -0.3681
 1043SOL    HW114762   2.361   0.017   6.904 -2.1925 -0.5280 -0.7405
 1043SOL    HW214763   2.301   0.087   6.776 -1.5266 -1.0965  0.5366
 1044SOL     OW14764   0.992   1.973   7.136  0.3160 -0.4097  0.1282
 1044SOL    HW114765   1.015   2.015   7.218  0.6483  0.6827 -0.5259
 1044SOL    HW214766   1.076   1.934   7.111  0.1002  0.7419 -2.4026
 1045SOL     OW14767   4.692   4.233   1.913 -0.2735  0.4082  0.2780
 1045SOL    HW114768   0.005   4.226   1.991  0.1351  0.3244 -0.0150
 1045SOL    HW214769   4.632   4.160   1.927 -0.8556  0.5834 -1.2265
 1046SOL     OW14770   1.880   2.000   7.879  0.7661  0.2839 -0.3477
 1046SOL    HW114771   1.969   1.969   7.862  0.5370 -0.9046  0.5889
 1046SOL    HW214772   1.872   1.962   7.967 -1.3830  0.4446 -0.4931
 1047SOL     OW14773   1.945   1.173   8.506  0.6469 -0.6707 -0.0468
 1047SOL    HW114774   1.990   1.088   8.505  1.1894 -0.3905  1.5086
 1047SOL    HW214775   1.860   1.131   8.492  0.9028 -1.5156  0.9078
 1048SOL     OW14776   3.304   2.780   4.390 -0.3589 -0.1043 -0.0980
 1048SOL    HW114777   3.288   2.696   4.347 -1.0689 -1.7950  3.4801
 1048SOL    HW214778   3.220   2.787   4.436  0.5939  1.3903  1.4125
 1049SOL     OW14779   0.023   4.445   5.405 -0.3279 -0.2953 -0.0200
 1049SOL    HW114780   0.107   4.492   5.403  0.3928 -1.5470  0.7035
 1049SOL    HW214781   0.003   4.478   5.492  0.8765 -1.6667  0.7867
 1050SOL     OW14782   3.106   0.961   6.808  0.3628  0.5171  0.0962
 1050SOL    HW114783   3.019   0.993   6.833  0.1615 -0.3630  0.5137
 1050SOL    HW214784   3.158   0.945   6.887  2.1424  2.6637 -0.6082
 1051SOL     OW14785   0.646   4.127   2.754 -0.3085  0.2349  0.4297
 1051SOL    HW114786   0.693   4.191   2.807  1.9306 -1.5840  0.6480
 1051SOL    HW214787   0.713   4.090   2.697  0.0737  2.7709 -0.7591
 1052SOL     OW14788   4.735   4.004   8.296 -0.1148  0.1572  0.2122
 1052SOL    HW114789   4.666   3.961   8.348 -0.4091 -0.3979 -0.6385
 1052SOL    HW214790   4.682   4.033   8.222 -1.2032 -1.3606  0.3924
 1053SOL     OW14791   2.019   0.303   3.022  0.1788  0.0018  0.2924
 1053SOL    HW114792   2.056   0.357   2.951  3.9753 -2.6373  0.2411
 1053SOL    HW214793   1.926   0.323   3.026  0.0714  0.1842 -2.5588
 1054SOL     OW14794   1.167   3.218   7.630 -0.1274 -0.3227  0.1332
 1054SOL    HW114795   1.129   3.143   7.676  1.0778 -1.1363 -0.1797
 1054SOL    HW214796   1.240   3.234   7.690 -1.6759  0.0930  1.9083
 1055SOL     OW14797   2.967   2.399   7.275  0.1303  0.0641  0.0010
 1055SOL    HW114798   2.945   2.383   7.367  0.0007 -1.0033 -0.2130
 1055SOL    HW214799   2.882   2.436   7.252 -0.2901 -0.6421  0.4054
 1056SOL     OW14800   4.123   1.301   7.098  0.2067 -0.0253  0.5417
 1056SOL    HW114801   4.071   1.278   7.175  0.7907 -1.5380  0.4819
 1056SOL    HW214802   4.071   1.271   7.023 -0.9419  1.9727  0.5334
 1057SOL     OW14803   3.291   0.256   0.596  0.2934  0.9213 -0.5819
 1057SOL    HW114804   3.296   0.340   0.550 -1.8595  2.0367  1.2657
 1057SOL    HW214805   3.212   0.219   0.557  0.3951  1.6744 -1.5316
 1058SOL     OW14806   2.857   0.998   3.069 -0.4159  0.5277  0.1172
 1058SOL    HW114807   2.799   0.926   3.090 -1.0168  1.6587  2.3350
 1058SOL    HW214808   2.940   0.951   3.060  0.4953  1.5383  2.9861
 1059SOL     OW14809   1.120   1.497   4.447 -0.2991  0.3918  0.9490
 1059SOL    HW114810   1.201   1.460   4.483  0.1964 -1.4559 -2.0831
 1059SOL    HW214811   1.129   1.591   4.464 -0.5324  1.0407 -2.6367
 1060SOL     OW14812   1.921   1.758   8.321  0.2580  0.3299  1.0126
 1060SOL    HW114813   1.965   1.839   8.347  0.6480  1.1949 -2.2748
 1060SOL    HW214814   1.882   1.794   8.240  2.2408 -1.6060 -0.7818
 1061SOL     OW14815   1.677   1.510   8.869 -0.1112 -0.0872 -0.0441
 1061SOL    HW114816   1.593   1.548   8.846  0.1207  0.4241 -0.0423
 1061SOL    HW214817   1.705   1.481   8.782  2.2346  2.1799 -0.0513
 1062SOL     OW14818   1.835   4.552  14.940 -0.1462  0.0445 -0.0234
 1062SOL    HW114819   1.854   4.629  14.886 -0.0466  1.0536  1.4502
 1062SOL    HW214820   1.741   4.546  14.953 -0.3038  0.8266 -0.7356
 1063SOL     OW14821   1.659   0.590   4.422 -0.2837  0.0586 -0.6189
 1063SOL    HW114822   1.687   0.589   4.514 -1.5518  2.5957 -0.1979
 1063SOL    HW214823   1.694   0.503   4.402  3.8046  1.1918  1.4392
 1064SOL     OW14824   1.910   2.848   9.859  0.5679 -0.2535 -0.4139
 1064SOL    HW114825   1.934   2.771   9.909 -0.4512 -1.6539 -2.0788
 1064SOL    HW214826   1.867   2.900   9.927  3.3652  1.2053  0.2223
 1065SOL     OW14827   3.126   0.304   2.448  0.3256  0.7444 -0.5694
 1065SOL    HW114828   3.210   0.349   2.453  1.6542 -1.8668  0.6825
 1065SOL    HW214829   3.139   0.272   2.359 -0.2742 -0.1074 -0.3505
 1066SOL     OW14830   1.267   4.508  14.066 -0.0700  0.0221  0.0771
 1066SOL    HW114831   1.361   4.487  14.063 -0.0574  0.1618 -0.5987
 1066SOL    HW214832   1.240   4.497  13.975 -1.8491  0.6607  0.5280
 1067SOL     OW14833   0.114   4.236   2.131 -0.1643  0.0438  0.4279
 1067SOL    HW114834   0.149   4.191   2.207 -0.2277  0.4993  0.7274
 1067SOL    HW214835   0.125   4.325   2.165  0.0888 -0.2884  1.2098
 1068SOL     OW14836   0.074   2.582   5.491 -0.3054  0.0140 -0.3729
 1068SOL    HW114837   0.023   2.621   5.562  0.5159 -2.6091  1.6199
 1068SOL    HW214838   0.141   2.651   5.486  0.1936 -0.4955 -0.6529
 1069SOL     OW14839   4.125   2.362  11.224 -0.4138 -0.2207 -0.0979
 1069SOL    HW114840   4.092   2.277  11.255 -0.5153  0.5978  2.0222
 1069SOL    HW214841   4.200   2.344  11.167  1.3425  1.2566  1.7785
 1070SOL     OW14842   1.738   1.622   3.648 -0.2041 -0.4109  0.1196
 1070SOL    HW114843   1.643   1.609   3.649 -0.3639  0.6916 -0.7186
 1070SOL    HW214844   1.754   1.588   3.560  1.1228  2.4802 -0.7535
 1071SOL     OW14845   1.659   0.867   8.345 -1.0562 -0.1621 -0.4585
 1071SOL    HW114846   1.575   0.912   8.352  0.8101  3.0512  1.1137
 1071SOL    HW214847   1.706   0.903   8.419 -3.6140 -0.2014  1.1931
 1072SOL     OW14848   4.045   2.119   1.944  0.3929 -0.5041  0.7341
 1072SOL    HW114849   4.058   2.032   1.983 -0.6082 -1.2877 -0.6672
 1072SOL    HW214850   3.957   2.134   1.981  2.1108  2.7028  3.4927
 1073SOL     OW14851   4.505   0.373  14.748  0.1707  0.1025 -0.0826
 1073SOL    HW114852   4.571   0.371  14.817 -0.3429 -1.7507  0.3535
 1073SOL    HW214853   4.429   0.340  14.797 -0.9894  0.7490 -1.4426
 1074SOL     OW14854   4.104   4.060   7.715 -0.2512 -0.7559  0.2924
 1074SOL    HW114855   4.010   4.045   7.703 -0.1870 -1.4657  0.7190
 1074SOL    HW214856   4.104   4.143   7.763 -0.9695 -0.0911 -0.8523
 1075SOL     OW14857   0.775   2.419   9.484  0.0692  0.4607 -0.0419
 1075SOL    HW114858   0.697   2.474   9.471  0.2268  0.7061  0.0504
 1075SOL    HW214859   0.738   2.342   9.526  0.0084  0.8434  0.6067
 1076SOL     OW14860   2.778   4.052   4.259  0.4511  0.1881  0.0121
 1076SOL    HW114861   2.707   4.067   4.196  2.0671  3.7844 -0.9833
 1076SOL    HW214862   2.727   4.049   4.340 -1.2500  1.0827 -1.0129
 1077SOL     OW14863   1.152   2.863  14.409 -0.9040 -0.4394 -0.1292
 1077SOL    HW114864   1.239   2.832  14.384 -1.8411 -2.8661 -0.4797
 1077SOL    HW214865   1.130   2.908  14.328 -3.1078 -1.4625 -0.0995
 1078SOL     OW14866   0.961   0.703   8.419 -0.3211  0.4519 -0.0696
 1078SOL    HW114867   0.901   0.737   8.485  0.8305  0.2916  1.0520
 1078SOL    HW214868   0.896   0.662   8.362  0.5876 -1.2457  0.1336
 1079SOL     OW14869   2.302   2.433   8.950  0.3574  0.5151  0.0692
 1079SOL    HW114870   2.256   2.424   9.033  0.6958 -2.3905 -0.0418
 1079SOL    HW214871   2.291   2.526   8.930  0.4480  0.2634 -1.1682
 1080SOL     OW14872   2.686   3.810   4.499  0.4399 -0.0309 -0.3631
 1080SOL    HW114873   2.726   3.863   4.568  1.9358 -0.6670 -0.7594
 1080SOL    HW214874   2.764   3.785   4.450  0.0634 -0.2805 -0.8310
 1081SOL     OW14875   2.082   0.211  10.508  0.1218 -0.1039 -0.1784
 1081SOL    HW114876   2.100   0.136  10.452  1.0384 -1.5742  2.0888
 1081SOL    HW214877   2.171   0.245  10.518 -0.8369  1.7502  2.0396
 1082SOL     OW14878   2.774   4.715  11.376 -0.1669  0.6155 -0.5330
 1082SOL    HW114879   2.855   4.702  11.328 -0.9262  0.7794 -1.8538
 1082SOL    HW214880   2.783   0.067  11.392  0.7691  0.5490 -0.6968
 1083SOL     OW14881   4.447   2.246  17.603  0.2151 -0.0868  0.3011
 1083SOL    HW114882   4.460   2.333  17.565 -0.6426 -1.0047 -2.1192
 1083SOL    HW214883   4.355   2.241  17.628  0.8084  0.9043  2.6766
 1084SOL     OW14884   4.279   0.524   7.805  0.2004  0.1086  0.3858
 1084SOL    HW114885   4.217   0.570   7.861  0.5019  0.2874  0.5727
 1084SOL    HW214886   4.223   0.470   7.749 -0.7081  1.6245 -0.1668
 1085SOL     OW14887   0.850   4.100   6.589 -0.1509  0.0462  0.4103
 1085SOL    HW114888   0.841   4.155   6.667 -0.3229 -0.8282  1.0140
 1085SOL    HW214889   0.808   4.019   6.619 -0.0054  0.3789  1.5346
 1086SOL     OW14890   4.058   3.791   6.432  0.8891 -0.3549 -0.6893
 1086SOL    HW114891   4.036   3.882   6.412  1.9053 -0.0856 -0.5882
 1086SOL    HW214892   4.110   3.758   6.358  1.3595  0.2963 -0.6491
 1087SOL     OW14893   0.384   0.341   2.081 -0.3482 -0.1649 -0.2866
 1087SOL    HW114894   0.403   0.433   2.098 -1.6214  0.1115 -0.3727
 1087SOL    HW214895   0.413   0.342   1.990  0.0427 -0.2803 -0.1648
 1088SOL     OW14896   2.017   3.023   9.648  0.3897 -0.2406  0.1105
 1088SOL    HW114897   1.991   2.973   9.726 -1.8567  0.1694 -0.3732
 1088SOL    HW214898   2.113   3.021   9.651  0.3900 -0.4634  0.0132
 1089SOL     OW14899   3.321   3.329   7.457 -1.1351  0.0890 -0.2542
 1089SOL    HW114900   3.308   3.420   7.482 -3.6772 -0.1975 -0.5147
 1089SOL    HW214901   3.363   3.294   7.535 -0.3519  0.3562 -0.5596
 1090SOL     OW14902   1.560   0.609  11.627 -0.5752  0.0979 -0.0784
 1090SOL    HW114903   1.501   0.684  11.622  1.5200  1.7506 -0.1402
 1090SOL    HW214904   1.556   0.573  11.539  0.2182 -0.6878  0.2077
 1091SOL     OW14905   1.280   2.992  11.114 -0.5677  0.1179 -0.1557
 1091SOL    HW114906   1.317   2.919  11.065 -1.9689 -0.3226 -0.5636
 1091SOL    HW214907   1.190   2.985  11.083  0.4203 -2.0979 -2.4809
 1092SOL     OW14908   2.685   4.710   8.697 -0.5797 -0.4008 -0.1317
 1092SOL    HW114909   2.679   4.673   8.785  0.3878 -3.7215 -1.4446
 1092SOL    HW214910   2.629   0.046   8.703 -1.8195 -1.2577 -0.5693
 1093SOL     OW14911   2.779   4.737   5.355  0.2432  0.8883  0.6737
 1093SOL    HW114912   2.825   4.682   5.291 -0.3011 -2.4158  3.1038
 1093SOL    HW214913   2.686   4.716   5.346  0.2822  0.2176  1.9014
 1094SOL     OW14914   3.638   0.636   5.098 -0.0758  0.1768 -0.2685
 1094SOL    HW114915   3.546   0.613   5.092  0.3309 -1.3003 -0.8951
 1094SOL    HW214916   3.673   0.557   5.055 -0.4547 -0.6344  0.8920
 1095SOL     OW14917   3.331   3.195   2.180 -0.0712  0.3625  0.3125
 1095SOL    HW114918   3.378   3.142   2.116  0.3166 -0.2224  1.0892
 1095SOL    HW214919   3.332   3.286   2.149  2.0971  0.1151 -0.3130
 1096SOL     OW14920   2.015   1.318   8.137  0.3131  0.1044 -0.1079
 1096SOL    HW114921   2.103   1.355   8.149  0.6515 -0.2020 -1.6216
 1096SOL    HW214922   1.966   1.376   8.194  0.7693  1.5613 -1.2024
 1097SOL     OW14923   2.663   2.472  14.405  0.2786 -0.0394 -0.0560
 1097SOL    HW114924   2.706   2.552  14.436 -1.6736  0.4441  1.4477
 1097SOL    HW214925   2.738   2.446  14.352 -0.6394 -0.0283 -1.3825
 1098SOL     OW14926   2.769   0.639   5.410 -0.3414 -0.1496 -0.1238
 1098SOL    HW114927   2.741   0.689   5.488 -2.7996 -0.6770 -0.6869
 1098SOL    HW214928   2.715   0.688   5.349  0.5666 -0.5684 -1.2548
 1099SOL     OW14929   0.092   3.547   7.587  0.3729 -0.0138 -0.4003
 1099SOL    HW114930   0.060   3.621   7.638 -1.8723  0.7432 -2.9060
 1099SOL    HW214931   0.043   3.552   7.504 -0.3504  1.3210  0.1071
 1100SOL     OW14932   1.657   0.611   8.536 -0.0949  0.1080 -0.4894
 1100SOL    HW114933   1.711   0.688   8.522  0.9854 -0.6375 -0.4374
 1100SOL    HW214934   1.712   0.564   8.599 -3.2378 -0.3155  1.9322
 1101SOL     OW14935   4.434   0.122   7.382 -0.1113 -0.0460  0.2137
 1101SOL    HW114936   4.362   0.171   7.424 -0.9227 -0.3711 -0.8044
 1101SOL    HW214937   4.400   0.035   7.361 -2.0699  0.4020  1.4317
 1102SOL     OW14938   4.078   0.693   8.960 -0.1660 -0.5936  0.2952
 1102SOL    HW114939   4.040   0.765   9.011  0.1694 -0.4541  0.3538
 1102SOL    HW214940   4.097   0.629   9.029 -0.5332 -1.0062  0.0089
 1103SOL     OW14941   3.488   1.835   4.757 -0.0244 -0.1095  0.3187
 1103SOL    HW114942   3.428   1.845   4.831 -0.4508  0.7746 -0.1573
 1103SOL    HW214943   3.561   1.785   4.795  1.0971  4.7089  4.4375
 1104SOL     OW14944   1.366   0.572   5.222 -0.0216 -0.2738  0.3295
 1104SOL    HW114945   1.385   0.524   5.142 -1.3478  0.2045 -0.2668
 1104SOL    HW214946   1.430   0.643   5.213  0.1707 -0.3976  0.6941
 1105SOL     OW14947   1.045   1.054   9.676 -0.3881  0.0495 -0.0557
 1105SOL    HW114948   1.052   1.071   9.582  0.0843  0.6398  0.0817
 1105SOL    HW214949   1.084   0.968   9.691  0.4290  0.7335  1.7045
 1106SOL     OW14950   0.369   3.565   3.337  0.4556 -0.3308  0.3158
 1106SOL    HW114951   0.375   3.660   3.339  0.4120 -0.3275  0.2883
 1106SOL    HW214952   0.442   3.551   3.398  1.5410  1.7624 -0.4828
 1107SOL     OW14953   1.388   2.951   5.065  0.2214 -0.4552  0.5463
 1107SOL    HW114954   1.293   2.956   5.063  0.2545 -0.4828 -0.6730
 1107SOL    HW214955   1.404   3.016   4.998 -1.5533  0.1504  0.7255
 1108SOL     OW14956   2.256   3.396   2.433 -0.2536 -0.1242  0.5358
 1108SOL    HW114957   2.199   3.442   2.495 -0.5804  0.6786 -0.3673
 1108SOL    HW214958   2.225   3.431   2.350 -2.0413  2.9611  2.4764
 1109SOL     OW14959   0.486   0.547   7.825  0.4354 -0.1514 -0.0827
 1109SOL    HW114960   0.421   0.477   7.834 -0.2855  0.4414 -0.7465
 1109SOL    HW214961   0.540   0.493   7.767  1.1314  0.2512  0.1928
 1110SOL     OW14962   3.679   3.277   5.462 -0.2264  0.2409  0.3721
 1110SOL    HW114963   3.766   3.244   5.484 -1.0255 -0.2696  2.7934
 1110SOL    HW214964   3.686   3.267   5.367 -1.3739  1.8677  0.1098
 1111SOL     OW14965   4.671   3.729   3.530 -0.3135  0.1477  0.3542
 1111SOL    HW114966   4.710   3.728   3.617 -0.5967 -1.7545  0.4629
 1111SOL    HW214967   0.005   3.756   3.479  0.6597  0.3771  1.9203
 1112SOL     OW14968   4.354   3.369   7.334  0.1342 -0.6280 -0.3821
 1112SOL    HW114969   4.447   3.361   7.317  0.5989  1.5833  1.0110
 1112SOL    HW214970   4.317   3.328   7.257 -1.9460  1.6769 -0.6183
 1113SOL     OW14971   1.747   3.710   5.593 -0.1796  0.4123 -0.3281
 1113SOL    HW114972   1.819   3.662   5.553 -0.9473  1.3026 -2.7823
 1113SOL    HW214973   1.746   3.665   5.678  3.4984 -0.1273 -0.5788
 1114SOL     OW14974   0.424   4.184   5.989  0.0070 -0.1742  0.3661
 1114SOL    HW114975   0.345   4.231   5.964  1.4266  1.8266 -0.2967
 1114SOL    HW214976   0.487   4.214   5.924  0.3371 -2.1865 -0.2472
 1115SOL     OW14977   3.623   2.166   2.627  0.0105  0.0822  0.2763
 1115SOL    HW114978   3.543   2.113   2.627  1.8183 -2.5976 -2.2061
 1115SOL    HW214979   3.680   2.148   2.702 -0.3535  0.8464  0.7354
 1116SOL     OW14980   0.680   2.461   1.402 -0.1666  0.8039  0.2532
 1116SOL    HW114981   0.707   2.381   1.448 -0.0942  1.3124  1.1030
 1116SOL    HW214982   0.590   2.432   1.393 -0.1989  0.4720  1.5911
 1117SOL     OW14983   0.954   3.291   4.687 -0.4009 -0.3595  0.6069
 1117SOL    HW114984   0.964   3.201   4.656  1.0027  0.1506 -0.3968
 1117SOL    HW214985   0.941   3.339   4.605  1.2492 -2.0524 -0.6398
 1118SOL     OW14986   1.546   4.290  15.227 -0.2238  0.2667  0.7244
 1118SOL    HW114987   1.472   4.276  15.286  0.1419  0.9885  1.3575
 1118SOL    HW214988   1.572   4.382  15.229  1.6354 -0.2743  0.7828
 1119SOL     OW14989   2.367   0.661   4.890  0.0501 -0.2663 -0.1949
 1119SOL    HW114990   2.271   0.652   4.885 -0.0319 -0.5894  1.8498
 1119SOL    HW214991   2.384   0.725   4.821 -0.4528 -0.0493 -0.1199
 1120SOL     OW14992   1.902   0.636   5.982  0.3421 -0.5106 -0.2520
 1120SOL    HW114993   1.876   0.558   6.030  2.2357 -1.4905 -0.8272
 1120SOL    HW214994   1.991   0.613   5.954 -0.4562 -3.4782 -0.3070
 1121SOL     OW14995   0.962   0.442  13.883 -0.1762 -0.0358  0.2934
 1121SOL    HW114996   0.944   0.423  13.975  0.6748 -1.3440  0.1910
 1121SOL    HW214997   0.878   0.466  13.843 -0.9157 -0.4782  1.5706
 1122SOL     OW14998   0.553   3.883  11.593 -0.4350  0.3986  0.4655
 1122SOL    HW114999   0.522   3.845  11.511  1.3454 -0.5473  0.2416
 1122SOL    HW215000   0.489   3.849  11.656  1.2974 -2.6327  0.5639
 1123SOL     OW15001   4.116   2.878  13.918 -0.7498 -0.0458  0.3032
 1123SOL    HW115002   4.146   2.857  13.829 -1.7418  0.6021 -0.1856
 1123SOL    HW215003   4.025   2.850  13.920 -0.7587  0.0060  0.6270
 1124SOL     OW15004   2.962   4.129  11.535  0.3777 -0.7274 -0.3502
 1124SOL    HW115005   2.982   4.088  11.619  0.3154  2.0677  1.0443
 1124SOL    HW215006   2.896   4.193  11.563 -0.5319 -1.6083 -0.4664
 1125SOL     OW15007   1.120   1.764   9.387 -0.0775  0.7878 -0.2544
 1125SOL    HW115008   1.164   1.830   9.440 -0.4639  0.2096  0.7740
 1125SOL    HW215009   1.071   1.715   9.453  2.9056  0.9990  2.1151
 1126SOL     OW15010   1.019   2.569   7.716 -0.2078 -0.1706 -0.2914
 1126SOL    HW115011   0.988   2.616   7.639 -0.0968 -0.3975 -0.4748
 1126SOL    HW215012   0.951   2.576   7.783  0.9013 -1.1900  0.9317
 1127SOL     OW15013   1.978   2.036   7.551 -0.3598 -0.2376 -0.1805
 1127SOL    HW115014   2.062   2.082   7.554 -0.7692  0.5263 -0.4675
 1127SOL    HW215015   1.990   1.956   7.603  0.8844 -0.8816 -1.4761
 1128SOL     OW15016   0.937   2.629   6.105  0.8359 -0.0563 -0.1494
 1128SOL    HW115017   0.848   2.594   6.103  0.1693  1.4421  2.4949
 1128SOL    HW215018   0.967   2.570   6.174  2.8048  1.0712 -0.0493
 1129SOL     OW15019   4.527   2.483   3.618  0.0264  0.3636 -0.5344
 1129SOL    HW115020   4.558   2.494   3.708 -0.6357  0.8527 -0.3650
 1129SOL    HW215021   4.605   2.498   3.564  2.0455  1.6469  2.7442
 1130SOL     OW15022   2.952   4.343   8.129 -0.3134  0.1193  0.2313
 1130SOL    HW115023   2.985   4.433   8.125 -0.8636  0.2505 -1.3325
 1130SOL    HW215024   2.875   4.365   8.181 -1.6816  0.2342 -1.8416
 1131SOL     OW15025   0.349   3.509  14.876  0.2492  0.6411  0.4236
 1131SOL    HW115026   0.295   3.430  14.869  2.1158 -0.4793 -1.3225
 1131SOL    HW215027   0.352   3.528  14.782 -0.6330 -1.4219 -0.0213
 1132SOL     OW15028   4.412   0.139   7.115 -0.5557 -0.0491  0.2935
 1132SOL    HW115029   4.408   0.155   7.210 -1.1896  0.2336  0.2179
 1132SOL    HW215030   4.400   0.227   7.080 -0.6426  0.5341  1.7992
 1133SOL     OW15031   2.021   0.951   9.670 -0.0435 -0.4156  0.3927
 1133SOL    HW115032   2.079   1.013   9.715 -2.8562  0.9727  2.0608
 1133SOL    HW215033   2.050   0.952   9.578 -1.5968  0.0957 -0.1024
 1134SOL     OW15034   1.172   4.527   3.558  0.3373  0.0304 -0.1896
 1134SOL    HW115035   1.164   4.623   3.564 -0.8812 -0.1227  0.7198
 1134SOL    HW215036   1.243   4.519   3.495  0.2165 -0.7194 -0.2250
 1135SOL     OW15037   4.246   1.847   7.557 -0.5577  0.2630  0.4580
 1135SOL    HW115038   4.184   1.887   7.617 -1.3248  1.0372 -0.8467
 1135SOL    HW215039   4.287   1.925   7.517  0.8641 -1.1682 -0.8846
 1136SOL     OW15040   3.133   2.108   6.933  0.6055  0.1854  0.1846
 1136SOL    HW115041   3.099   2.086   7.020  1.7772 -0.0690  0.5754
 1136SOL    HW215042   3.089   2.039   6.883  0.9095 -0.5121  0.8942
 1137SOL     OW15043   2.005   4.278   2.761  0.1810 -0.2504  0.5810
 1137SOL    HW115044   1.914   4.302   2.780  0.7835  1.5945  1.1832
 1137SOL    HW215045   2.051   4.358   2.735 -0.4735 -0.8013 -2.3584
 1138SOL     OW15046   0.930   3.259   5.754  0.3547  0.3465  0.3024
 1138SOL    HW115047   1.007   3.314   5.768 -0.4267  1.5073 -0.0144
 1138SOL    HW215048   0.935   3.240   5.660  0.5007  0.9794  0.1818
 1139SOL     OW15049   2.782   1.655  15.436 -0.6935  0.0208 -0.1766
 1139SOL    HW115050   2.727   1.596  15.384 -1.4701  1.3448 -0.8402
 1139SOL    HW215051   2.828   1.706  15.369 -1.1185 -1.0418 -1.2838
 1140SOL     OW15052   3.669   2.953   9.351  0.1981  0.6839 -0.1693
 1140SOL    HW115053   3.747   2.918   9.309  0.2494 -0.1989  0.6809
 1140SOL    HW215054   3.646   2.889   9.418  1.3644  0.7373  0.2901
 1141SOL     OW15055   3.789   4.636   5.083 -0.2084 -0.3742  0.0337
 1141SOL    HW115056   3.730   4.643   5.008  0.4831 -3.3314 -0.8202
 1141SOL    HW215057   3.856   4.578   5.045 -0.6412 -1.1213  0.4198
 1142SOL     OW15058   3.971   4.203  13.952  0.2283  0.4046 -0.3829
 1142SOL    HW115059   4.040   4.137  13.959  1.1272  1.1393 -2.3665
 1142SOL    HW215060   3.991   4.219  13.860 -1.3766  3.1990 -0.2552
 1143SOL     OW15061   4.518   2.316   9.338 -0.4087 -0.5335 -0.5039
 1143SOL    HW115062   4.610   2.342   9.334 -0.3921 -0.5292 -0.1015
 1143SOL    HW215063   4.502   2.353   9.425  0.3294 -0.9821 -0.1768
 1144SOL     OW15064   4.392   2.679   7.042 -0.5771  0.0191 -0.6663
 1144SOL    HW115065   4.325   2.745   7.061  0.5651  0.5704  1.4690
 1144SOL    HW215066   4.363   2.651   6.955 -3.0969  4.0149 -1.1359
 1145SOL     OW15067   0.990   2.457   6.300  0.1415  0.0307 -0.3253
 1145SOL    HW115068   1.043   2.491   6.372 -0.3810 -0.2167  0.1772
 1145SOL    HW215069   1.022   2.367   6.292  1.5418  0.5808 -0.9301
 1146SOL     OW15070   3.417   3.741   1.538 -0.3732 -0.2662  0.3679
 1146SOL    HW115071   3.372   3.662   1.508  0.1923 -0.2419 -0.5209
 1146SOL    HW215072   3.443   3.722   1.629  0.0118 -0.5038  0.2094
 1147SOL     OW15073   1.220   1.030   0.735 -0.4851  0.5257  0.0150
 1147SOL    HW115074   1.287   0.977   0.692  1.5356  1.3384  2.1079
 1147SOL    HW215075   1.141   1.027   0.682 -0.7976  0.9088  0.4482
 1148SOL     OW15076   3.966   0.083  16.550  0.1475  0.0834  0.1012
 1148SOL    HW115077   3.986   0.005  16.601 -0.0105 -0.2267 -0.3123
 1148SOL    HW215078   3.934   0.135  16.624  1.2896  2.5287 -1.1315
 1149SOL     OW15079   0.718   0.976   2.504  0.6917  0.2016 -0.1522
 1149SOL    HW115080   0.744   1.061   2.468 -1.7999 -0.3098 -3.2370
 1149SOL    HW215081   0.652   0.959   2.436 -0.3513  2.9672  0.1668
 1150SOL     OW15082   0.369   1.432   9.210 -0.2041 -0.5662 -0.1764
 1150SOL    HW115083   0.431   1.382   9.263  1.7229  2.2610  0.2561
 1150SOL    HW215084   0.341   1.373   9.140  0.8377 -2.9353  1.3955
 1151SOL     OW15085   2.635   2.154   8.269 -0.7444 -0.6055 -0.1473
 1151SOL    HW115086   2.675   2.080   8.224  2.6232  1.5611 -0.6691
 1151SOL    HW215087   2.626   2.210   8.193 -2.0684  0.2376  0.6288
 1152SOL     OW15088   2.118   1.903  12.414 -0.3817  0.7269  0.2427
 1152SOL    HW115089   2.088   1.954  12.338  2.5417  0.8672 -0.8201
 1152SOL    HW215090   2.097   1.963  12.486  1.5378  0.1920  1.2400
 1153SOL     OW15091   0.578   2.776  17.662  0.1068  0.1447 -0.6141
 1153SOL    HW115092   0.510   2.815  17.608  0.3635  0.4318 -0.7267
 1153SOL    HW215093   0.627   2.730  17.594 -0.2833 -1.1071 -0.0500
 1154SOL     OW15094   0.684   3.506   4.482 -0.0078  0.0316 -0.4434
 1154SOL    HW115095   0.763   3.497   4.428 -0.6653 -2.7121 -0.9638
 1154SOL    HW215096   0.693   3.429   4.538  0.7930 -0.3311 -1.0604
 1155SOL     OW15097   0.126   2.196   3.653  0.4609  0.1505  0.0601
 1155SOL    HW115098   0.097   2.182   3.743 -1.5725 -1.1888 -0.8153
 1155SOL    HW215099   0.200   2.256   3.666  0.9728 -0.4436 -0.0616
 1156SOL     OW15100   3.191   1.769  15.698 -0.1349 -0.2733  0.5889
 1156SOL    HW115101   3.174   1.733  15.785 -0.6041 -0.1978  0.5300
 1156SOL    HW215102   3.105   1.763  15.656  0.5255  1.3941 -0.9689
 1157SOL     OW15103   4.236   3.770   4.572  0.6071 -0.0630  0.3708
 1157SOL    HW115104   4.260   3.810   4.656 -1.8059  1.9323  0.0873
 1157SOL    HW215105   4.151   3.809   4.553  0.9890  0.6735  0.1961
 1158SOL     OW15106   1.390   2.076   6.562 -0.0138 -0.0889 -0.0446
 1158SOL    HW115107   1.412   2.162   6.599 -1.6908 -0.3701  1.6415
 1158SOL    HW215108   1.418   2.094   6.473  1.8594 -0.8074  0.4144
 1159SOL     OW15109   1.770   0.847  10.388 -0.3690  0.1149 -0.2460
 1159SOL    HW115110   1.748   0.754  10.387 -0.9594  0.2577 -0.8894
 1159SOL    HW215111   1.865   0.837  10.379 -0.4270  0.0444 -0.8365
 1160SOL     OW15112   2.456   3.483   0.044 -0.3506 -0.0242 -0.3018
 1160SOL    HW115113   2.539   3.477  17.762  0.3032  1.4247  0.6786
 1160SOL    HW215114   2.393   3.487  17.737  1.6591  0.9005 -2.0324
 1161SOL     OW15115   3.227   3.504   5.379  0.3165  0.6968  0.2318
 1161SOL    HW115116   3.193   3.469   5.461  0.7290  0.9091  0.4948
 1161SOL    HW215117   3.245   3.426   5.327 -2.6207 -0.6628  1.2405
 1162SOL     OW15118   0.756   3.272   5.294  0.0384 -0.1413  0.0424
 1162SOL    HW115119   0.678   3.306   5.338 -0.5742  0.4095 -1.4673
 1162SOL    HW215120   0.736   3.213   5.221  4.3263 -2.4735  0.7416
 1163SOL     OW15121   2.829   4.054   1.554 -0.4504 -0.2588 -0.1484
 1163SOL    HW115122   2.902   4.114   1.570  0.6946 -1.2968 -1.4534
 1163SOL    HW215123   2.880   3.986   1.509  1.7495  2.1141 -1.3104
 1164SOL     OW15124   1.138   1.574   7.663  0.4692 -0.5180  0.0895
 1164SOL    HW115125   1.231   1.562   7.648  0.1341 -1.4414 -1.2915
 1164SOL    HW215126   1.128   1.496   7.718  1.2614 -1.6773 -1.4119
 1165SOL     OW15127   4.603   4.039   3.758  0.0011 -0.0657 -0.8355
 1165SOL    HW115128   4.658   4.031   3.836 -0.7680 -0.4911 -0.3330
 1165SOL    HW215129   4.651   3.969   3.714 -1.0983  0.0890 -2.2879
 1166SOL     OW15130   0.288   0.274   3.981 -0.6207 -0.2133 -0.4101
 1166SOL    HW115131   0.326   0.188   3.997  0.0822  0.3834  1.1158
 1166SOL    HW215132   0.277   0.310   4.069  1.4911 -2.7193  0.8878
 1167SOL     OW15133   1.095   3.850   9.052 -0.9430  0.4536  0.7425
 1167SOL    HW115134   1.121   3.911   9.121  1.5562 -0.1753  0.3694
 1167SOL    HW215135   1.117   3.764   9.089  0.0074  1.3222  2.2015
 1168SOL     OW15136   2.333   3.024  12.598  0.4327  0.0181 -0.2844
 1168SOL    HW115137   2.263   3.057  12.654  1.2925  1.1003  0.1446
 1168SOL    HW215138   2.372   3.103  12.560  0.8288  0.6667  1.4822
 1169SOL     OW15139   1.880   1.612   4.775  0.1365 -0.6161  0.3664
 1169SOL    HW115140   1.952   1.638   4.831 -1.2682  0.7766  1.5176
 1169SOL    HW215141   1.901   1.522   4.749 -0.5520 -0.7250  0.1931
 1170SOL     OW15142   3.027   2.848   6.689 -1.1244  0.5883  0.2097
 1170SOL    HW115143   3.117   2.862   6.661 -0.2433 -2.1643  1.6905
 1170SOL    HW215144   3.015   2.757   6.664  0.5646  0.5989 -0.6415
 1171SOL     OW15145   0.748   3.723   7.853 -0.3471  0.3154 -0.4155
 1171SOL    HW115146   0.655   3.705   7.836 -1.0970  4.5044 -0.8334
 1171SOL    HW215147   0.767   3.670   7.930 -1.0304  0.6828  0.0118
 1172SOL     OW15148   2.555   2.287  15.913  0.1497  0.0212 -0.0083
 1172SOL    HW115149   2.564   2.226  15.840 -1.6489 -0.0877 -0.1397
 1172SOL    HW215150   2.481   2.239  15.953  0.5382  0.6954  1.5413
 1173SOL     OW15151   1.022   1.720   7.264 -0.3157  0.2633 -0.2211
 1173SOL    HW115152   1.102   1.728   7.212 -0.3740 -0.6475 -0.4556
 1173SOL    HW215153   0.971   1.793   7.230  2.3265  1.7205 -1.0193
 1174SOL     OW15154   3.111   0.647   9.308 -0.1220  0.2502  0.7502
 1174SOL    HW115155   3.166   0.609   9.239  0.8301  1.8897  0.6079
 1174SOL    HW215156   3.145   0.737   9.310  0.2084  0.1523 -0.8229
 1175SOL     OW15157   1.901   4.408   6.966  0.1670  0.0447 -0.5098
 1175SOL    HW115158   1.975   4.382   7.022  1.6963  2.7012 -1.2806
 1175SOL    HW215159   1.937   4.478   6.912  2.3397 -0.3604  0.4121
 1176SOL     OW15160   2.521   4.543   8.405  0.1266 -0.0469  0.4471
 1176SOL    HW115161   2.466   4.465   8.405 -1.1214  0.8338  2.7858
 1176SOL    HW215162   2.533   4.569   8.496  0.0109 -0.5779  0.6112
 1177SOL     OW15163   3.177   3.585  13.869  0.3709 -0.1244 -0.1941
 1177SOL    HW115164   3.158   3.496  13.899  0.3977  0.0167  0.2359
 1177SOL    HW215165   3.112   3.591  13.799  0.9329  0.0250 -0.7021
 1178SOL     OW15166   4.741   0.341  11.953  0.4087  0.3636 -0.6720
 1178SOL    HW115167   4.692   0.336  12.035 -1.0531  2.5304 -1.4364
 1178SOL    HW215168   4.673   0.368  11.891  0.1045  0.2262 -0.3947
 1179SOL     OW15169   2.684   4.526   0.563 -0.1559 -0.1163  0.4596
 1179SOL    HW115170   2.598   4.529   0.521  0.1037 -0.9250 -0.1215
 1179SOL    HW215171   2.663   4.510   0.655  2.7224  0.1568  1.1704
 1180SOL     OW15172   3.498   4.513   7.674 -0.3579  0.4185  0.5273
 1180SOL    HW115173   3.474   4.445   7.736  2.3788  0.8059  2.0009
 1180SOL    HW215174   3.421   4.563   7.644  0.5814  1.3804 -0.2933
 1181SOL     OW15175   1.195   4.584   8.358 -0.5056 -0.2125 -0.2442
 1181SOL    HW115176   1.106   4.582   8.392 -0.0422 -0.3332  0.9842
 1181SOL    HW215177   1.224   4.674   8.368  0.2047 -0.2791 -1.7889
 1182SOL     OW15178   0.316   0.248  11.950 -0.6001  0.3983 -0.1574
 1182SOL    HW115179   0.223   0.263  11.931 -0.2133  1.9214 -0.8654
 1182SOL    HW215180   0.347   0.216  11.865 -0.7678 -0.3060  0.0519
 1183SOL     OW15181   4.181   4.619   5.984 -0.0290 -0.0817 -0.5930
 1183SOL    HW115182   4.088   4.600   5.970 -0.4936  1.1017  0.9511
 1183SOL    HW215183   4.200   4.621   5.890  2.2356 -0.2290 -0.1299
 1184SOL     OW15184   0.603   1.363  16.805 -0.2936 -0.0220  0.4341
 1184SOL    HW115185   0.625   1.353  16.897  0.9788  0.3599  0.1695
 1184SOL    HW215186   0.685   1.403  16.776 -1.5450  1.8953 -0.4959
 1185SOL     OW15187   0.758   1.830   0.212 -0.0027  0.0318 -0.6511
 1185SOL    HW115188   0.720   1.819   0.125 -0.0223 -4.8352 -0.0251
 1185SOL    HW215189   0.682   1.859   0.262  0.4214  2.3045 -1.2880
 1186SOL     OW15190   0.303   1.804   9.433  0.4493 -0.1710 -0.2332
 1186SOL    HW115191   0.366   1.770   9.370  0.2951  0.6982 -0.8605
 1186SOL    HW215192   0.293   1.894   9.400 -0.2747  0.4530  1.6442
 1187SOL     OW15193   1.069   4.114   0.372 -0.0115  0.2030  0.0317
 1187SOL    HW115194   1.093   4.021   0.363 -0.9791  0.1462 -1.9726
 1187SOL    HW215195   1.155   4.154   0.382  0.8815 -1.2734 -1.9081
 1188SOL     OW15196   0.009   0.109   7.982  0.2360  0.2791  0.4958
 1188SOL    HW115197   0.033   0.194   7.943 -1.9791  0.8623  0.3749
 1188SOL    HW215198   4.734   0.053   7.907  0.3179 -0.7847  1.2719
 1189SOL     OW15199   2.779   2.481   8.763  0.8670 -0.4663  0.1124
 1189SOL    HW115200   2.786   2.563   8.812  0.4880 -0.1912 -0.2918
 1189SOL    HW215201   2.689   2.458   8.787  0.0732  0.2617 -2.1856
 1190SOL     OW15202   4.621   1.516   8.675  0.5726 -0.8794 -0.2840
 1190SOL    HW115203   4.692   1.513   8.610  0.9229 -1.7454  0.1407
 1190SOL    HW215204   4.563   1.458   8.627 -0.9643  0.2239  0.2563
 1191SOL     OW15205   3.586   4.290   2.810  0.5373  0.1605  0.0128
 1191SOL    HW115206   3.550   4.296   2.898  0.3631  1.8536 -0.1805
 1191SOL    HW215207   3.597   4.381   2.784 -0.3305  0.0375 -0.7820
 1192SOL     OW15208   0.195   4.204  15.207 -0.2983  0.1281  0.3096
 1192SOL    HW115209   0.269   4.216  15.266 -0.0849 -0.3642  0.1404
 1192SOL    HW215210   0.229   4.245  15.128 -0.2250 -1.1573 -0.3396
 1193SOL     OW15211   4.372   4.663  14.898  0.2208 -0.4562  0.1547
 1193SOL    HW115212   4.376   0.004  14.850  1.6765 -0.4212  0.3418
 1193SOL    HW215213   4.299   4.617  14.855  1.1872 -1.0320 -0.8804
 1194SOL     OW15214   3.264   4.153   6.212  0.1864 -0.0824  0.1051
 1194SOL    HW115215   3.175   4.167   6.244  0.4777  1.3235  0.2900
 1194SOL    HW215216   3.287   4.078   6.267 -0.0137  1.2210  1.9816
 1195SOL     OW15217   0.539   3.405  10.474  0.2157  0.3223 -0.2676
 1195SOL    HW115218   0.454   3.432  10.507  1.0245 -0.3021  2.3072
 1195SOL    HW215219   0.521   3.311  10.475 -0.1988  0.4124  0.6862
 1196SOL     OW15220   0.364   1.461  10.234  0.6134  0.8344 -0.4521
 1196SOL    HW115221   0.373   1.506  10.150  1.4630 -1.2299 -1.4781
 1196SOL    HW215222   0.275   1.469  10.266  0.4142  0.3948 -0.8873
 1197SOL     OW15223   3.213   2.525  14.627 -0.3552  0.3217 -0.6656
 1197SOL    HW115224   3.145   2.458  14.633  0.4393 -0.4134  0.1317
 1197SOL    HW215225   3.232   2.546  14.718  1.7109 -0.9028 -0.8044
 1198SOL     OW15226   0.977   2.968   9.219 -0.1756 -0.2306 -0.2227
 1198SOL    HW115227   0.988   2.989   9.311 -0.0403 -1.2860  0.0079
 1198SOL    HW215228   1.046   3.028   9.190 -3.7863  3.9809  0.0519
 1199SOL     OW15229   4.697   4.442  10.607  0.6659 -0.0410  0.2620
 1199SOL    HW115230   4.713   4.513  10.544  4.7610 -0.2981  0.9926
 1199SOL    HW215231   0.020   4.457  10.676  0.3419 -0.6072  0.6852
 1200SOL     OW15232   1.137   2.206   3.512 -0.4369  0.4515 -0.4548
 1200SOL    HW115233   1.149   2.165   3.597 -0.2754  0.4165 -0.4946
 1200SOL    HW215234   1.106   2.291   3.545 -1.6218 -0.6873  1.3617
 1201SOL     OW15235   0.764   2.371   4.363 -0.0144  0.1260  0.4798
 1201SOL    HW115236   0.682   2.338   4.400 -0.2807  0.5291  0.2453
 1201SOL    HW215237   0.817   2.293   4.377 -1.0334 -0.2364  2.3307
 1202SOL     OW15238   2.940   3.792  15.108 -0.0827 -0.2903  0.0375
 1202SOL    HW115239   2.899   3.815  15.191  1.4283 -0.5129  0.8459
 1202SOL    HW215240   2.956   3.698  15.112  0.8231 -0.0911  1.1823
 1203SOL     OW15241   2.927   2.560   4.030 -0.0778 -0.7487 -0.1247
 1203SOL    HW115242   2.937   2.503   3.954 -0.5532 -0.7912 -0.1555
 1203SOL    HW215243   3.000   2.619   4.012 -0.0565 -1.2613 -1.7328
 1204SOL     OW15244   4.124   3.762   7.773  0.1458  0.1023  0.2978
 1204SOL    HW115245   4.198   3.735   7.828 -0.0722 -2.1924 -0.5433
 1204SOL    HW215246   4.177   3.833   7.737 -1.0927 -0.0926 -1.8573
 1205SOL     OW15247   2.935   4.320  10.811  0.6192  0.6813  0.4272
 1205SOL    HW115248   2.956   4.395  10.754  1.9707  0.0853  0.1402
 1205SOL    HW215249   2.945   4.368  10.893 -0.7892  0.5867  0.6637
 1206SOL     OW15250   2.791   2.337  14.062  0.0580  0.4218  0.0707
 1206SOL    HW115251   2.784   2.250  14.024 -1.8596 -0.7479  3.0946
 1206SOL    HW215252   2.721   2.380  14.013  1.4584  0.9588 -1.4561
 1207SOL     OW15253   1.795   2.719  11.383 -0.3883 -0.2356 -0.2327
 1207SOL    HW115254   1.724   2.659  11.360 -0.3108 -0.1171 -0.8019
 1207SOL    HW215255   1.777   2.781  11.312 -2.3259 -0.7886 -0.2107
 1208SOL     OW15256   4.603   2.380  16.279  0.0646 -0.2604 -0.0458
 1208SOL    HW115257   4.643   2.407  16.362 -1.0423  0.4648  0.2506
 1208SOL    HW215258   4.526   2.436  16.278  0.3419  0.1561  1.5529
 1209SOL     OW15259   1.186   3.752   1.194 -0.5337  0.6096 -0.5228
 1209SOL    HW115260   1.148   3.814   1.130 -3.5234  1.4366  2.0368
 1209SOL    HW215261   1.275   3.736   1.164  0.0529 -1.6286  2.5125
 1210SOL     OW15262   3.783   3.719   2.964  0.0913 -0.3647 -0.0267
 1210SOL    HW115263   3.707   3.759   3.006  0.4819  2.4659 -2.0801
 1210SOL    HW215264   3.786   3.625   2.984 -0.6106  0.1400  2.5268
 1211SOL     OW15265   3.373   3.074   0.667  0.2756 -0.0043 -0.2937
 1211SOL    HW115266   3.278   3.066   0.653  0.8352 -1.2543 -3.2462
 1211SOL    HW215267   3.401   3.125   0.591  1.4484  0.2929  0.3352
 1212SOL     OW15268   1.746   3.266   2.473 -0.0724 -0.3349 -0.4467
 1212SOL    HW115269   1.691   3.200   2.432  0.1262 -1.4377  1.0549
 1212SOL    HW215270   1.780   3.313   2.397 -0.0444  0.5826  0.1252
 1213SOL     OW15271   2.346   2.720   4.223  0.6102 -0.7895  0.0165
 1213SOL    HW115272   2.258   2.750   4.200  0.4855 -1.4760 -0.4054
 1213SOL    HW215273   2.382   2.692   4.139  3.1839 -0.0648  0.8943
 1214SOL     OW15274   2.762   4.709   6.385 -0.7980  0.4746  0.0699
 1214SOL    HW115275   2.848   4.671   6.404 -1.5827 -0.6298  1.4633
 1214SOL    HW215276   2.707   4.634   6.364 -2.3518  1.5318  0.4178
 1215SOL     OW15277   3.904   3.010   4.897 -0.0576  0.1436  0.3174
 1215SOL    HW115278   3.865   2.937   4.848 -0.0584  0.3719 -0.0262
 1215SOL    HW215279   3.858   2.995   4.979 -0.8579  1.7810  0.1715
 1216SOL     OW15280   3.301   1.691   9.109  0.2957  0.3479 -0.1885
 1216SOL    HW115281   3.292   1.771   9.057 -1.1667 -1.5329 -2.8677
 1216SOL    HW215282   3.377   1.705   9.164  0.9194  2.8782 -1.6956
 1217SOL     OW15283   1.639   2.970   6.927  0.0448  0.1810 -0.1132
 1217SOL    HW115284   1.634   2.916   7.006  1.0755 -0.6672 -0.6316
 1217SOL    HW215285   1.605   3.057   6.949  1.1247  0.3177  1.0722
 1218SOL     OW15286   1.156   3.170  14.857  0.3135 -0.9203 -0.0387
 1218SOL    HW115287   1.178   3.118  14.935  4.4421  0.8051  0.0012
 1218SOL    HW215288   1.183   3.256  14.891 -0.8946 -0.4896 -0.2043
 1219SOL     OW15289   1.617   2.380   8.059 -0.1964  0.4879  0.5775
 1219SOL    HW115290   1.707   2.360   8.086  0.1638 -0.8167 -1.6035
 1219SOL    HW215291   1.632   2.445   7.991  0.1450  0.8115  0.9643
 1220SOL     OW15292   1.544   0.573   6.269  0.0980  0.9114  0.3554
 1220SOL    HW115293   1.632   0.598   6.298  0.9796 -2.1039  0.3045
 1220SOL    HW215294   1.493   0.602   6.344 -1.8412 -0.3241 -0.5100
 1221SOL     OW15295   2.907   3.651   3.052  0.2120  0.1560 -0.5177
 1221SOL    HW115296   2.996   3.649   3.017  0.2626  1.4080 -0.4687
 1221SOL    HW215297   2.846   3.635   2.979  0.4656 -0.5518 -0.5775
 1222SOL     OW15298   2.322   4.496   6.244  0.4919  0.1565 -0.1378
 1222SOL    HW115299   2.335   4.408   6.209 -0.1453  0.5857 -1.4518
 1222SOL    HW215300   2.398   4.543   6.211  0.7960  0.0263  0.3700
 1223SOL     OW15301   0.982   0.180  15.963 -0.0115  0.0219 -0.4649
 1223SOL    HW115302   0.959   0.098  16.007  0.2509  0.1310 -0.1296
 1223SOL    HW215303   0.903   0.198  15.912  0.0269  1.5823  0.0338
 1224SOL     OW15304   2.835   1.007  12.375 -0.0320 -0.2124 -0.0854
 1224SOL    HW115305   2.871   0.991  12.462  1.0622 -0.6727 -0.6161
 1224SOL    HW215306   2.921   1.013  12.334  0.3577  1.6987  1.0222
 1225SOL     OW15307   0.739   2.031   3.521  0.0431 -0.0942  0.0573
 1225SOL    HW115308   0.757   2.119   3.488  2.0903 -0.3081  0.6086
 1225SOL    HW215309   0.767   1.988   3.440 -0.1784 -0.0920 -0.0193
 1226SOL     OW15310   1.856   3.452   4.202 -0.6559  0.1203 -0.0986
 1226SOL    HW115311   1.830   3.498   4.282 -0.8968 -0.2678  0.0469
 1226SOL    HW215312   1.913   3.517   4.160  0.0539 -0.0404  0.6138
 1227SOL     OW15313   4.403   0.653  10.302 -0.0506 -0.2217 -0.1198
 1227SOL    HW115314   4.364   0.726  10.349 -0.5697 -0.9986  0.6677
 1227SOL    HW215315   4.470   0.627  10.366  1.2814 -0.5307 -1.6429
 1228SOL     OW15316   2.809   1.242   4.779 -0.5611  0.2106  0.2418
 1228SOL    HW115317   2.833   1.311   4.841 -0.6446  1.5819 -1.2700
 1228SOL    HW215318   2.889   1.221   4.730 -1.0007 -1.2011  0.1252
 1229SOL     OW15319   0.044   2.965   6.189 -0.2320  0.1683 -0.3854
 1229SOL    HW115320   4.707   2.985   6.238  0.7857  2.0198  0.4952
 1229SOL    HW215321   0.103   3.034   6.220 -2.4243  1.6702  0.4028
 1230SOL     OW15322   2.919   4.075  10.662  0.2998  0.1965  0.1313
 1230SOL    HW115323   3.009   4.048  10.677 -0.6895 -1.6608  2.7589
 1230SOL    HW215324   2.924   4.162  10.701  0.8690  0.4198 -0.4263
 1231SOL     OW15325   1.276   3.331   6.034 -0.2095 -0.5983 -0.3611
 1231SOL    HW115326   1.182   3.316   6.026 -0.4575  1.0693 -0.4771
 1231SOL    HW215327   1.316   3.250   6.002  1.1677  0.0125 -0.2256
 1232SOL     OW15328   1.154   3.210   2.303 -0.1352 -0.2644 -0.2092
 1232SOL    HW115329   1.100   3.212   2.224  1.2743  0.4113 -1.1650
 1232SOL    HW215330   1.143   3.124   2.344 -0.2425 -0.2069 -0.1202
 1233SOL     OW15331   2.923   0.423   6.241  0.2257 -0.4912 -0.1326
 1233SOL    HW115332   2.889   0.356   6.301  2.0035  0.2973  1.7528
 1233SOL    HW215333   2.841   0.466   6.215  1.0684 -0.3973 -2.5892
 1234SOL     OW15334   1.765   0.736   6.351 -0.5268  0.2222  0.2800
 1234SOL    HW115335   1.784   0.720   6.444 -0.6378  2.0109  0.6089
 1234SOL    HW215336   1.854   0.751   6.321 -0.2663 -2.8572 -0.4472
 1235SOL     OW15337   0.130   1.627   0.088  0.2877  0.0749  0.1227
 1235SOL    HW115338   0.074   1.568   0.037  0.3272  0.0837  0.0692
 1235SOL    HW215339   0.213   1.617   0.042 -1.6599 -2.7634 -2.8225
 1236SOL     OW15340   0.342   0.959   2.542 -0.6001 -0.6297  0.0030
 1236SOL    HW115341   0.354   1.048   2.573 -1.0448 -0.0385 -1.4949
 1236SOL    HW215342   0.284   0.977   2.468  1.2689  2.1208 -0.7562
 1237SOL     OW15343   1.290   2.871   4.178  0.3171 -0.3574  0.2797
 1237SOL    HW115344   1.260   2.865   4.087  0.1836  0.9885  0.2323
 1237SOL    HW215345   1.325   2.960   4.169  1.2426 -0.6563  0.9108
 1238SOL     OW15346   1.121   3.411   7.954 -0.2479  0.0035  0.1437
 1238SOL    HW115347   1.102   3.361   8.033  1.2821 -0.0859  0.4628
 1238SOL    HW215348   1.044   3.385   7.903 -0.8061  0.3486  0.8187
 1239SOL     OW15349   1.312   2.919   9.392 -0.7563 -0.4731  0.0585
 1239SOL    HW115350   1.236   2.903   9.447 -1.1165  0.8614 -0.0591
 1239SOL    HW215351   1.282   2.902   9.303  0.0265  0.9669 -0.5006
 1240SOL     OW15352   1.416   1.771   3.456  0.0358 -0.2815 -0.1609
 1240SOL    HW115353   1.420   1.861   3.490 -0.9678 -0.0797 -0.5577
 1240SOL    HW215354   1.428   1.722   3.537 -0.3144  1.3361  0.8878
 1241SOL     OW15355   3.156   0.636   7.540  0.1397  0.1742 -0.4003
 1241SOL    HW115356   3.087   0.669   7.483 -0.3462  2.2757  1.3742
 1241SOL    HW215357   3.129   0.674   7.624  1.4511 -2.2273  1.0991
 1242SOL     OW15358   2.716   4.624   8.028 -0.4113  0.1347 -0.1030
 1242SOL    HW115359   2.644   4.661   8.079  0.8237 -0.1543  1.8878
 1242SOL    HW215360   2.718   4.679   7.950 -1.4425  0.7241  0.2753
 1243SOL     OW15361   3.336   2.142   5.779  0.0764  0.3307 -0.4824
 1243SOL    HW115362   3.373   2.117   5.694  0.9504 -1.5918  0.4445
 1243SOL    HW215363   3.274   2.209   5.751  1.3659  1.6244 -0.2457
 1244SOL     OW15364   3.886   2.275   6.009 -0.0802  0.4936  0.3460
 1244SOL    HW115365   3.924   2.341   5.952  1.7838 -1.2230 -0.3940
 1244SOL    HW215366   3.825   2.230   5.950  0.5449 -0.3346  0.3401
 1245SOL     OW15367   1.155   0.711   1.995  0.2072  0.5186  0.3576
 1245SOL    HW115368   1.188   0.784   2.046 -0.9556  2.3522 -1.5119
 1245SOL    HW215369   1.232   0.654   1.998  0.2499  0.5939  0.6726
 1246SOL     OW15370   4.186   3.679   8.864 -0.6326 -0.3597  0.6689
 1246SOL    HW115371   4.210   3.654   8.953 -0.3089  0.9127  0.9489
 1246SOL    HW215372   4.206   3.595   8.823  1.6399  0.6526 -0.3293
 1247SOL     OW15373   3.787   1.306   1.552  0.1154 -0.1094  0.3683
 1247SOL    HW115374   3.719   1.258   1.600  0.2976  1.7113  2.4726
 1247SOL    HW215375   3.782   1.399   1.575 -1.8743 -0.4006  1.1070
 1248SOL     OW15376   2.527   1.605   4.987  0.2679  0.1104  0.5917
 1248SOL    HW115377   2.516   1.577   4.896  0.4574 -0.4462  0.7417
 1248SOL    HW215378   2.617   1.582   5.009  0.4933  0.2497 -0.1587
 1249SOL     OW15379   2.266   1.284   4.084  0.0074  0.0772  0.0213
 1249SOL    HW115380   2.270   1.220   4.013 -1.1121  0.4320 -0.3665
 1249SOL    HW215381   2.184   1.330   4.063 -0.0517  1.0183  2.3476
 1250SOL     OW15382   4.531   1.286   7.905  0.0811  0.2685  0.0661
 1250SOL    HW115383   4.578   1.355   7.951  0.5220  0.2081 -0.3052
 1250SOL    HW215384   4.583   1.281   7.826  0.0284 -0.6582  0.0893
 1251SOL     OW15385   1.752   0.050   3.181 -0.7603  0.2777 -0.5155
 1251SOL    HW115386   1.845   0.041   3.203 -1.1857 -0.8932  0.7996
 1251SOL    HW215387   1.719   4.707   3.211 -2.3450  0.7689 -0.9161
 1252SOL     OW15388   0.114   1.452   5.206  0.0817  0.0089 -0.2313
 1252SOL    HW115389   0.122   1.503   5.286 -0.0084  0.5865 -0.5843
 1252SOL    HW215390   0.019   1.457   5.193  0.2872  1.2947 -1.3303
 1253SOL     OW15391   2.442   0.521   5.587  0.1488 -0.4633 -0.2402
 1253SOL    HW115392   2.421   0.501   5.496 -3.3358 -1.6604  0.8003
 1253SOL    HW215393   2.395   0.453   5.636  1.7542 -1.0843  0.4342
 1254SOL     OW15394   2.852   1.646   2.767 -0.4486  0.0066  0.2036
 1254SOL    HW115395   2.845   1.586   2.841 -0.0850 -0.4683 -0.1487
 1254SOL    HW215396   2.943   1.634   2.740 -0.9471  0.1887 -1.5279
 1255SOL     OW15397   3.342   2.390   5.086 -0.3843 -0.1488 -0.0857
 1255SOL    HW115398   3.290   2.393   5.005  2.2659  1.2956 -1.7507
 1255SOL    HW215399   3.430   2.378   5.052  0.3907 -0.6676  2.1744
 1256SOL     OW15400   0.886   4.498   8.913 -0.4219 -0.5638  0.4245
 1256SOL    HW115401   0.959   4.553   8.942 -0.0611  0.4623 -2.3822
 1256SOL    HW215402   0.823   4.564   8.941  0.2665  0.4796 -0.4713
 1257SOL     OW15403   3.610   3.608   5.498  0.0135 -0.3848 -0.3360
 1257SOL    HW115404   3.557   3.602   5.578 -1.1455 -1.8914 -1.2068
 1257SOL    HW215405   3.665   3.530   5.512 -1.2541 -0.8111  2.3133
 1258SOL     OW15406   2.443   1.534   4.077  0.3395 -0.6731  0.0846
 1258SOL    HW115407   2.431   1.466   4.143  0.2836 -1.5704 -0.8646
 1258SOL    HW215408   2.357   1.575   4.088  0.4190 -0.8016  1.2063
 1259SOL     OW15409   0.470   1.516  14.121  0.1311  0.6123 -0.1658
 1259SOL    HW115410   0.395   1.533  14.065 -0.4950 -0.2688  0.4177
 1259SOL    HW215411   0.453   1.422  14.122  0.7582  0.4946 -0.7639
 1260SOL     OW15412   4.670   3.025  14.846  0.2148  0.3861  0.1824
 1260SOL    HW115413   4.721   3.082  14.788 -1.6595 -0.6119 -2.4102
 1260SOL    HW215414   4.586   3.070  14.845  0.7468  1.2521 -3.8171
 1261SOL     OW15415   3.847   3.614   1.594 -0.3004 -0.5889 -0.0576
 1261SOL    HW115416   3.911   3.609   1.523  0.3588 -1.6808  0.6132
 1261SOL    HW215417   3.789   3.550   1.553 -1.8021  0.2439  0.7805
 1262SOL     OW15418   1.994   2.986  15.459 -0.4161  0.1246 -0.4086
 1262SOL    HW115419   1.925   3.022  15.516 -0.9464 -0.8171 -0.4592
 1262SOL    HW215420   1.960   2.992  15.370 -2.1041 -2.0519  0.0746
 1263SOL     OW15421   1.281   0.871  10.914  0.6072  0.0436  0.3044
 1263SOL    HW115422   1.241   0.893  10.830  0.4218 -1.2400  0.0628
 1263SOL    HW215423   1.275   0.776  10.925 -0.6287 -0.0032 -0.7820
 1264SOL     OW15424   0.786   2.075   7.458 -0.0747 -0.2850 -0.0735
 1264SOL    HW115425   0.856   2.010   7.445  2.1128  1.7043  1.6606
 1264SOL    HW215426   0.838   2.154   7.444  0.6422 -0.9202 -1.0465
 1265SOL     OW15427   0.509   1.372   4.053 -0.6270  0.3316 -0.0503
 1265SOL    HW115428   0.594   1.369   4.097  0.7651 -0.4280 -2.8598
 1265SOL    HW215429   0.477   1.448   4.103 -1.9631 -0.1572 -0.1522
 1266SOL     OW15430   4.194   4.739   8.418 -0.3820 -0.3914 -0.1341
 1266SOL    HW115431   4.156   4.663   8.372  1.2327 -1.5381  0.4541
 1266SOL    HW215432   4.131   0.033   8.480  0.6453  1.7924 -0.3493
 1267SOL     OW15433   0.854   2.702   5.838  0.0942 -0.0472 -0.7382
 1267SOL    HW115434   0.815   2.701   5.751  0.2379  0.5878 -0.8104
 1267SOL    HW215435   0.802   2.771   5.881 -1.2210 -0.0465 -2.3191
 1268SOL     OW15436   3.612   3.473   8.102 -0.3178 -0.4950  0.3702
 1268SOL    HW115437   3.655   3.390   8.124  0.3145 -0.1220  0.5666
 1268SOL    HW215438   3.518   3.456   8.109 -0.4173 -0.4497 -0.8067
 1269SOL     OW15439   0.196   3.472   9.239  0.5910  0.5759  0.1796
 1269SOL    HW115440   0.236   3.484   9.153 -1.8599  0.1152 -1.0291
 1269SOL    HW215441   0.252   3.413   9.288  0.9769  1.0356  0.3000
 1270SOL     OW15442   4.321   1.560   1.976  0.5769 -0.2804  0.4874
 1270SOL    HW115443   4.261   1.499   1.933  0.5074  0.4843 -0.4945
 1270SOL    HW215444   4.275   1.643   1.971  0.6980 -0.3694 -2.1384
 1271SOL     OW15445   4.587   0.898   3.909  0.1861  0.6726 -0.2125
 1271SOL    HW115446   4.543   0.905   3.824  0.8374 -0.6539 -0.6535
 1271SOL    HW215447   4.671   0.856   3.893 -0.1187  0.3441 -0.9637
 1272SOL     OW15448   3.162   3.326   1.866 -0.5169 -0.1552  0.7915
 1272SOL    HW115449   3.145   3.410   1.909  0.8037  1.2477 -1.4071
 1272SOL    HW215450   3.107   3.257   1.903 -0.7897 -0.2979  0.1102
 1273SOL     OW15451   3.657   0.674   6.967  0.1705 -0.1626  0.0400
 1273SOL    HW115452   3.713   0.601   6.991  0.4276 -0.8447 -2.6916
 1273SOL    HW215453   3.639   0.716   7.052 -0.3671 -0.2285 -0.0423
 1274SOL     OW15454   3.567   1.178  17.023 -0.1718  0.4321  0.2639
 1274SOL    HW115455   3.632   1.248  17.030  0.1423  0.2216 -0.6031
 1274SOL    HW215456   3.607   1.099  17.061  1.4610  0.5136 -1.3016
 1275SOL     OW15457   1.340   2.237   4.481  0.0288 -0.1695 -0.1305
 1275SOL    HW115458   1.300   2.233   4.568 -1.7844  1.5386 -0.8975
 1275SOL    HW215459   1.431   2.226   4.510  0.3501  0.4685 -0.9178
 1276SOL     OW15460   2.214   4.693  15.997 -0.4011  0.2399 -0.3397
 1276SOL    HW115461   2.228   0.018  15.930 -4.1732  0.8527 -0.5296
 1276SOL    HW215462   2.244   4.611  15.957 -1.6168 -1.4840  2.3069
 1277SOL     OW15463   2.961   1.464  14.250 -0.3617 -0.3653  0.6381
 1277SOL    HW115464   2.887   1.430  14.200  0.3940 -1.2937  0.1646
 1277SOL    HW215465   2.996   1.537  14.199  0.9602 -1.6258 -0.2676
 1278SOL     OW15466   1.352   2.699  16.580  0.4791 -0.1887 -0.2228
 1278SOL    HW115467   1.365   2.709  16.485 -0.7430 -2.1838 -0.6058
 1278SOL    HW215468   1.428   2.643  16.597  0.0659 -0.3139  1.2065
 1279SOL     OW15469   0.002   3.898   6.879 -0.4281  0.2958 -0.0411
 1279SOL    HW115470   4.684   3.965   6.846 -0.6682  0.3763  0.5567
 1279SOL    HW215471   0.049   3.939   6.952  1.0610 -0.4032 -0.6125
 1280SOL     OW15472   4.137   3.605   0.695 -0.5751  0.5625 -0.1935
 1280SOL    HW115473   4.215   3.561   0.728 -1.6290  0.0295  1.5570
 1280SOL    HW215474   4.121   3.669   0.765  0.0468 -0.0969  0.5424
 1281SOL     OW15475   0.808   3.819   9.046 -0.0397  0.0780 -0.5748
 1281SOL    HW115476   0.831   3.810   9.139 -0.4363  1.7365 -0.3141
 1281SOL    HW215477   0.900   3.831   9.025 -0.3912  1.7097 -1.1144
 1282SOL     OW15478   1.445   2.074   8.719  0.2624 -0.0048  0.4832
 1282SOL    HW115479   1.528   2.045   8.758 -0.0556  1.1567  2.0306
 1282SOL    HW215480   1.445   2.169   8.724  1.2850  0.1055 -1.2560
 1283SOL     OW15481   0.029   0.263  12.876 -0.0528  0.1914 -0.2521
 1283SOL    HW115482   4.722   0.248  12.795  1.0824 -1.2938 -0.6675
 1283SOL    HW215483   4.705   0.247  12.944  1.3890 -1.1633  0.8411
 1284SOL     OW15484   1.988   1.266   4.352  0.2304 -0.6729 -0.4114
 1284SOL    HW115485   1.907   1.288   4.306 -0.0166  0.9229  0.7691
 1284SOL    HW215486   2.054   1.244   4.287 -0.3954  3.8833 -2.6227
 1285SOL     OW15487   1.206   1.404   2.667  0.0786  0.1177 -0.4830
 1285SOL    HW115488   1.122   1.367   2.639  0.9123 -2.7180  0.8435
 1285SOL    HW215489   1.182   1.452   2.746  0.2518 -1.4257  0.5045
 1286SOL     OW15490   2.970   0.400   0.801  0.0249  0.0620 -0.1257
 1286SOL    HW115491   3.040   0.375   0.862  0.2849  1.9588  0.3315
 1286SOL    HW215492   2.976   0.321   0.747 -3.7174 -1.8739  2.3038
 1287SOL     OW15493   2.568   1.456   3.428 -0.6780 -0.6320  0.3219
 1287SOL    HW115494   2.495   1.421   3.478 -1.0991  0.5052  0.5134
 1287SOL    HW215495   2.634   1.487   3.490 -1.6822  0.4460  0.8492
 1288SOL     OW15496   3.826   0.544   2.237  0.0177  0.4321 -0.2096
 1288SOL    HW115497   3.913   0.507   2.251  1.1606  2.7436 -1.1025
 1288SOL    HW215498   3.779   0.464   2.214 -0.7157  0.6793  0.4493
 1289SOL     OW15499   4.157   0.514   7.395 -0.1602 -0.0995  0.3079
 1289SOL    HW115500   4.189   0.566   7.321  1.9698 -0.4752  0.9491
 1289SOL    HW215501   4.135   0.586   7.454  1.0395 -1.1011  1.9663
 1290SOL     OW15502   1.158   4.616   2.289 -0.1495 -0.6504 -0.2800
 1290SOL    HW115503   1.212   4.537   2.298 -0.6427 -1.2641 -2.7805
 1290SOL    HW215504   1.217   4.659   2.350 -0.6510  0.7668 -0.8049
 1291SOL     OW15505   2.249   3.681   2.346 -0.2924 -0.0883  0.6730
 1291SOL    HW115506   2.275   3.647   2.432  0.0960  1.4447  1.1532
 1291SOL    HW215507   2.290   3.620   2.284 -0.6841 -0.3749  0.6902
 1292SOL     OW15508   2.463   1.183   7.315  0.2866  0.5273 -0.0991
 1292SOL    HW115509   2.395   1.245   7.289  1.0411  1.2540 -0.3568
 1292SOL    HW215510   2.484   1.206   7.405 -1.2486 -0.0666  0.4041
 1293SOL     OW15511   1.003   3.720   8.458  0.0254 -0.1409  0.1560
 1293SOL    HW115512   0.968   3.695   8.544  0.4319 -0.6996  0.1605
 1293SOL    HW215513   1.028   3.636   8.419  1.1899 -0.3738  1.3955
 1294SOL     OW15514   3.033   0.017   1.182 -0.1038  0.2706  0.5302
 1294SOL    HW115515   3.051   4.713   1.100 -1.6378 -0.8622  0.8188
 1294SOL    HW215516   3.051   4.678   1.231 -0.9945  1.4245  2.7459
 1295SOL     OW15517   4.252   0.290   7.504 -0.0975  0.2659 -0.1547
 1295SOL    HW115518   4.168   0.245   7.508  1.2354 -2.3861 -2.3654
 1295SOL    HW215519   4.232   0.363   7.445 -0.7917  0.7456  0.6810
 1296SOL     OW15520   0.040   3.827   5.092  0.3253  0.3163  0.1472
 1296SOL    HW115521   4.732   3.761   5.045  0.0219 -0.3031  1.3312
 1296SOL    HW215522   4.728   3.905   5.080 -0.0984  0.0664  0.4145
 1297SOL     OW15523   3.012   0.174  14.653  0.5408  0.7483 -0.0630
 1297SOL    HW115524   3.060   0.217  14.582 -0.2724  1.7921  0.0237
 1297SOL    HW215525   3.080   0.107  14.664 -1.6411 -1.2695  1.2245
 1298SOL     OW15526   1.476   3.340  17.193 -0.3178 -0.0709 -0.0426
 1298SOL    HW115527   1.482   3.273  17.261 -1.4133  1.3788  1.4960
 1298SOL    HW215528   1.566   3.372  17.195  0.4055 -2.0289 -1.7540
 1299SOL     OW15529   1.551   3.329   8.043  0.0256  0.3730 -0.1039
 1299SOL    HW115530   1.472   3.316   8.095 -0.0561  1.2439  0.0004
 1299SOL    HW215531   1.620   3.332   8.110 -0.9477  0.5081  0.8939
 1300SOL     OW15532   2.432   1.821   7.023 -0.4618 -0.0123  0.0589
 1300SOL    HW115533   2.452   1.889   6.958 -3.3009  0.3962 -0.4275
 1300SOL    HW215534   2.516   1.816   7.067 -0.5536  1.4800  0.4232
 1301SOL     OW15535   2.582   1.951   9.554 -0.0161  0.1732  0.2950
 1301SOL    HW115536   2.549   1.905   9.632  1.1580 -1.1423  0.0078
 1301SOL    HW215537   2.514   1.921   9.494 -0.6533  3.4532 -0.6157
 1302SOL     OW15538   3.853   1.358   4.671 -0.8819 -0.1954 -0.4011
 1302SOL    HW115539   3.788   1.295   4.640 -1.2393  0.5252 -1.1125
 1302SOL    HW215540   3.936   1.313   4.652 -1.1478 -0.9659  0.2798
 1303SOL     OW15541   4.372   1.529   6.105  0.5544  0.3648 -0.4973
 1303SOL    HW115542   4.387   1.469   6.177  1.6601 -0.7580 -1.6571
 1303SOL    HW215543   4.412   1.604   6.149  3.1286 -2.2541  1.6406
 1304SOL     OW15544   3.986   1.893   4.904  0.1880 -0.1660 -0.6844
 1304SOL    HW115545   3.974   1.798   4.905 -1.2208  0.0207 -1.0066
 1304SOL    HW215546   4.001   1.906   4.810  0.1979 -2.5018 -1.0056
 1305SOL     OW15547   2.572   0.801   5.302  0.1666 -0.4973 -0.2131
 1305SOL    HW115548   2.481   0.817   5.326  0.1804  0.2780 -0.6713
 1305SOL    HW215549   2.560   0.729   5.241  1.2437 -1.1974  0.4050
 1306SOL     OW15550   0.724   3.583   8.130  0.4174 -0.3485  0.0424
 1306SOL    HW115551   0.711   3.491   8.109 -0.3551 -0.5980  1.6065
 1306SOL    HW215552   0.671   3.609   8.205 -0.2738  2.6752 -1.4535
 1307SOL     OW15553   1.789   4.175   8.350 -0.1206 -0.1766  0.2706
 1307SOL    HW115554   1.742   4.147   8.429  2.3466 -2.2023  1.0107
 1307SOL    HW215555   1.837   4.093   8.340  1.6571  0.7827  1.1692
 1308SOL     OW15556   1.630   2.073   2.335  0.4214 -0.6355  0.2529
 1308SOL    HW115557   1.659   2.135   2.402  0.3741  0.2995 -0.5867
 1308SOL    HW215558   1.701   2.074   2.271 -0.1542 -1.5806 -0.4041
 1309SOL     OW15559   1.274   4.506   6.339  0.3163 -0.0290 -0.6943
 1309SOL    HW115560   1.325   4.552   6.405 -2.2037  2.1201 -0.2592
 1309SOL    HW215561   1.329   4.427   6.342  3.2784  2.0962  0.5281
 1310SOL     OW15562   3.604   1.668  12.600  0.2436 -0.0001  0.6839
 1310SOL    HW115563   3.598   1.684  12.694 -4.0283  1.6286  0.1037
 1310SOL    HW215564   3.655   1.746  12.578 -0.4178 -0.1685 -1.4344
 1311SOL     OW15565   3.298   2.627   6.649 -0.2847 -0.1270 -0.7841
 1311SOL    HW115566   3.267   2.611   6.738  2.6706  0.4208  0.3637
 1311SOL    HW215567   3.324   2.540   6.620 -2.3709 -1.0415  0.1217
 1312SOL     OW15568   0.512   1.264   5.903  0.2142  0.7454 -0.2298
 1312SOL    HW115569   0.452   1.332   5.933  0.3592  0.6282  0.3237
 1312SOL    HW215570   0.506   1.205   5.978 -0.3321  0.1442 -0.7487
 1313SOL     OW15571   1.304   3.776   7.356 -0.7031 -0.0977  0.6600
 1313SOL    HW115572   1.311   3.691   7.400  3.3093  0.6229  1.3985
 1313SOL    HW215573   1.319   3.830   7.433  0.8826 -1.3996  1.2749
 1314SOL     OW15574   1.695   3.747   8.101  0.0025 -0.2377 -0.4339
 1314SOL    HW115575   1.643   3.823   8.126  1.8805  0.0454  2.6053
 1314SOL    HW215576   1.634   3.685   8.141  0.7929 -0.1036  0.9525
 1315SOL     OW15577   1.956   0.358   8.038  0.4792  0.1835  0.2444
 1315SOL    HW115578   1.888   0.354   8.106  0.6724  0.6018  0.4587
 1315SOL    HW215579   1.900   0.368   7.961 -0.7122  1.0263  1.2253
 1316SOL     OW15580   0.270   2.267   1.648  0.3485  0.0061 -0.3781
 1316SOL    HW115581   0.319   2.196   1.690 -3.2425 -1.8191  0.7756
 1316SOL    HW215582   0.273   2.342   1.707 -1.6346 -1.5741  1.7425
 1317SOL     OW15583   2.424   3.821  12.335 -0.2029 -0.2093  0.3643
 1317SOL    HW115584   2.506   3.792  12.377  0.2464 -0.5553 -0.7609
 1317SOL    HW215585   2.369   3.827  12.413 -1.4500 -0.9970 -0.4534
 1318SOL     OW15586   2.173   0.534   9.939 -0.4821 -0.8455  0.6592
 1318SOL    HW115587   2.266   0.553   9.927 -0.7397  0.1170  0.2262
 1318SOL    HW215588   2.136   0.589   9.871  1.3772  2.1337  2.0375
 1319SOL     OW15589   3.667   4.421   9.479 -0.4312 -0.1557  0.3697
 1319SOL    HW115590   3.609   4.478   9.428 -0.6194 -0.7127 -0.0301
 1319SOL    HW215591   3.738   4.485   9.486 -2.0511  1.5542  1.1162
 1320SOL     OW15592   0.609   4.407   7.035  0.2769  0.0952 -0.5809
 1320SOL    HW115593   0.592   4.445   6.949 -2.1066 -1.3130 -0.7144
 1320SOL    HW215594   0.704   4.404   7.044  0.1426  2.0223  1.4052
 1321SOL     OW15595   2.376   3.596   1.965 -0.3224  0.7445  0.5845
 1321SOL    HW115596   2.350   3.563   1.879  1.4599  2.7115 -0.7169
 1321SOL    HW215597   2.331   3.681   1.965 -0.6513  0.5717  0.5033
 1322SOL     OW15598   2.800   4.251   3.974 -0.4450  0.3642  0.4765
 1322SOL    HW115599   2.732   4.184   3.965 -0.2307  0.1432  0.5030
 1322SOL    HW215600   2.769   4.304   3.901  2.1106  1.2117  0.0313
 1323SOL     OW15601   2.435   0.923   2.523 -0.2341 -0.0551  0.2044
 1323SOL    HW115602   2.381   0.976   2.464  1.3278  1.4065  0.1109
 1323SOL    HW215603   2.400   0.835   2.509  1.3518 -0.5859 -0.3933
 1324SOL     OW15604   0.474   2.519   2.130 -0.0873 -0.7336  0.5509
 1324SOL    HW115605   0.567   2.495   2.129  0.2705  0.5979  1.4407
 1324SOL    HW215606   0.443   2.444   2.181 -0.5187 -1.7978 -1.2963
 1325SOL     OW15607   0.761   2.698  17.469  0.7029 -0.2758 -0.3627
 1325SOL    HW115608   0.853   2.680  17.449  1.0096  0.7863  0.1184
 1325SOL    HW215609   0.731   2.635  17.403  0.6120 -1.6542  1.0057
 1326SOL     OW15610   4.548   0.264   0.511  0.3280 -0.2588  0.3204
 1326SOL    HW115611   4.547   0.248   0.605  1.3099  2.2953  0.7722
 1326SOL    HW215612   4.517   0.355   0.508 -1.1120 -0.7683  0.0549
 1327SOL     OW15613   1.838   2.668   7.046  0.0577 -0.1756  0.0467
 1327SOL    HW115614   1.818   2.671   7.140 -0.0785 -0.4673  0.0279
 1327SOL    HW215615   1.759   2.625   7.012  0.6340  0.2748 -1.8130
 1328SOL     OW15616   4.051   4.305   5.157 -0.2078 -0.2426 -0.0763
 1328SOL    HW115617   3.966   4.298   5.200 -0.1224  1.4568  0.3555
 1328SOL    HW215618   4.030   4.375   5.095  0.6854  0.3094  0.2435
 1329SOL     OW15619   1.050   3.203   8.496  0.1110 -0.0003  0.2374
 1329SOL    HW115620   1.062   3.113   8.464  0.2623 -0.1537  0.7231
 1329SOL    HW215621   0.954   3.210   8.491  0.1319 -0.5503 -0.7367
 1330SOL     OW15622   2.696   4.006   7.485 -0.7109 -0.1595  0.1467
 1330SOL    HW115623   2.713   3.999   7.579  2.2895 -0.5994 -0.4370
 1330SOL    HW215624   2.601   4.006   7.490 -0.6700  1.8056  0.6904
 1331SOL     OW15625   2.081   0.996   5.747  0.1216  0.1263  0.4108
 1331SOL    HW115626   2.117   0.996   5.836 -1.8343  1.8019  1.2240
 1331SOL    HW215627   2.023   0.920   5.750  0.3635 -0.2110 -3.4944
 1332SOL     OW15628   2.237   3.716  13.956  0.1836 -0.2851  0.2255
 1332SOL    HW115629   2.315   3.726  13.903  0.3516 -0.8565  0.3618
 1332SOL    HW215630   2.242   3.785  14.022 -1.0593 -0.2579  0.2947
 1333SOL     OW15631   0.321   3.969   8.034  0.1135  0.5716 -0.4020
 1333SOL    HW115632   0.252   4.035   8.024 -0.1349  0.8101  2.8365
 1333SOL    HW215633   0.390   4.001   7.976  0.1839  0.3075 -0.4629
 1334SOL     OW15634   4.337   2.902   6.127 -0.2709  0.1867  0.2535
 1334SOL    HW115635   4.356   2.977   6.184 -1.0423 -0.6413  1.6204
 1334SOL    HW215636   4.415   2.903   6.073 -0.7212  0.1858 -0.4008
 1335SOL     OW15637   4.170   1.039   8.551 -0.0355 -0.2637  0.9799
 1335SOL    HW115638   4.163   0.994   8.466  0.8020 -1.5638  1.6027
 1335SOL    HW215639   4.248   1.093   8.539 -1.7495  1.7713 -0.9280
 1336SOL     OW15640   4.219   4.184  15.933 -0.0057 -0.3137  0.7309
 1336SOL    HW115641   4.215   4.231  15.850 -1.8653 -2.3220 -0.3140
 1336SOL    HW215642   4.172   4.103  15.911  0.8521 -0.2353 -1.4345
 1337SOL     OW15643   0.696   4.324   1.431 -0.5314  0.4122  0.1101
 1337SOL    HW115644   0.608   4.349   1.457 -0.1286  0.7312  1.1315
 1337SOL    HW215645   0.754   4.392   1.464  3.2767 -2.5834 -0.3877
 1338SOL     OW15646   2.374   3.032   0.783 -0.0699 -0.6777 -0.5697
 1338SOL    HW115647   2.304   3.019   0.847  0.5655  1.7574  0.6202
 1338SOL    HW215648   2.398   3.122   0.806 -0.2793 -0.7257 -0.1498
 1339SOL     OW15649   3.012   3.271  15.055 -0.1877 -0.1649  0.2928
 1339SOL    HW115650   2.956   3.347  15.040  0.7638  0.1844 -1.5480
 1339SOL    HW215651   2.973   3.230  15.132 -0.0599 -1.1588 -0.1706
 1340SOL     OW15652   3.344   4.588   1.836 -0.2436 -0.2050 -0.4301
 1340SOL    HW115653   3.309   4.539   1.761 -3.7265  1.1115  0.3386
 1340SOL    HW215654   3.262   4.604   1.883  0.4972 -0.4024  0.9147
 1341SOL     OW15655   4.330   2.896  15.885 -0.0193  0.0517  0.0763
 1341SOL    HW115656   4.337   2.988  15.861  0.5047  0.6282  2.4156
 1341SOL    HW215657   4.282   2.920  15.964  0.3439 -0.2306  0.3810
 1342SOL     OW15658   1.984   2.808   8.529 -0.2311  0.4207 -0.1783
 1342SOL    HW115659   2.072   2.844   8.536 -0.2570  0.3668  0.4642
 1342SOL    HW215660   1.967   2.809   8.624  0.9214  2.4276  0.0138
 1343SOL     OW15661   0.496   0.659  11.140  0.1641 -0.7582  0.5690
 1343SOL    HW115662   0.541   0.705  11.211  0.3266  2.5090 -1.6723
 1343SOL    HW215663   0.406   0.683  11.164  0.1158  0.4354 -0.8351
 1344SOL     OW15664   1.589   4.023   6.940  0.1261 -0.2798  0.4119
 1344SOL    HW115665   1.542   3.956   6.892  0.9988 -0.3292 -0.3622
 1344SOL    HW215666   1.516   4.077   6.970  1.5944  1.7890  0.3314
 1345SOL     OW15667   0.197   0.147   8.595 -0.2964  0.5874 -0.0558
 1345SOL    HW115668   0.287   0.176   8.609 -0.2315 -0.4751  1.7182
 1345SOL    HW215669   0.170   0.144   8.686 -1.3151  1.6684 -0.3192
 1346SOL     OW15670   2.050   2.077   2.750 -0.2368 -0.7438  0.1500
 1346SOL    HW115671   2.017   2.167   2.755  0.5679 -0.3937 -0.7539
 1346SOL    HW215672   2.015   2.034   2.828  0.3888 -0.2449  0.7085
 1347SOL     OW15673   2.150   0.131  16.371 -0.3775  0.0629  0.4400
 1347SOL    HW115674   2.113   0.176  16.295  1.0823 -0.5682 -0.6455
 1347SOL    HW215675   2.091   0.164  16.438 -1.9801 -3.5681  0.8256
 1348SOL     OW15676   2.294   4.422  15.984  0.3360  0.0685 -0.0543
 1348SOL    HW115677   2.269   4.330  15.993  0.9684 -0.2580 -1.6788
 1348SOL    HW215678   2.369   4.427  16.043 -0.0901  1.4878  0.3862
 1349SOL     OW15679   1.055   3.864   7.947 -0.1897 -0.2302 -0.3434
 1349SOL    HW115680   1.002   3.835   8.022 -2.0112 -0.3379 -1.6582
 1349SOL    HW215681   1.134   3.815   7.969  0.0082  0.1321 -0.2632
 1350SOL     OW15682   2.694   4.008   2.693  0.0341  0.7989  0.3132
 1350SOL    HW115683   2.779   4.020   2.735  1.8640 -2.3650 -2.5394
 1350SOL    HW215684   2.633   4.041   2.760  1.8540  1.2369  1.7587
 1351SOL     OW15685   1.224   0.556  10.860 -0.6875  0.0473  0.0656
 1351SOL    HW115686   1.273   0.534  10.781  1.2714  2.8054  0.5434
 1351SOL    HW215687   1.133   0.567  10.832 -0.1479  3.2719 -0.3473
 1352SOL     OW15688   3.804   0.187  16.374  0.2525  0.1803  0.2821
 1352SOL    HW115689   3.819   0.280  16.390  2.2322 -0.2055  0.6867
 1352SOL    HW215690   3.866   0.143  16.432 -3.2153 -2.0124  2.3909
 1353SOL     OW15691   4.135   3.260   4.218  0.0542  0.2243 -0.0828
 1353SOL    HW115692   4.150   3.302   4.302 -2.1614  2.3721 -0.7555
 1353SOL    HW215693   4.139   3.168   4.243  0.4553  0.4433  0.6566
 1354SOL     OW15694   0.059   0.384   5.519  0.3689  0.0197  0.0452
 1354SOL    HW115695   4.714   0.384   5.560  0.1341  1.3676 -0.4612
 1354SOL    HW215696   0.041   0.391   5.425  0.2449  1.1699  0.1491
 1355SOL     OW15697   1.699   1.845   5.880 -0.3673  0.0369  0.0892
 1355SOL    HW115698   1.714   1.913   5.814  0.8109  0.5514  0.8864
 1355SOL    HW215699   1.767   1.780   5.861  0.1379  1.2711 -2.3524
 1356SOL     OW15700   0.120   0.362  16.717  0.0842 -0.6313  0.7456
 1356SOL    HW115701   0.163   0.349  16.801  0.4290  3.6250  1.2708
 1356SOL    HW215702   0.149   0.278  16.682 -0.4349 -0.5053  0.0155
 1357SOL     OW15703   3.863   4.325   3.714  0.5599  0.1799 -0.0617
 1357SOL    HW115704   3.887   4.418   3.717 -0.7331  0.5535 -1.4079
 1357SOL    HW215705   3.809   4.321   3.793  1.5986 -2.3338  0.5140
 1358SOL     OW15706   2.713   3.019  10.803 -0.2406  0.1655 -0.1843
 1358SOL    HW115707   2.693   3.059  10.888 -1.0225  0.5357 -0.5383
 1358SOL    HW215708   2.643   3.052  10.747 -2.1854 -0.8437  1.6174
 1359SOL     OW15709   3.218   3.476   8.306 -0.2406  0.2358  0.2812
 1359SOL    HW115710   3.171   3.510   8.230 -0.5164  2.7841  1.5927
 1359SOL    HW215711   3.150   3.483   8.373 -0.0310  0.6243  0.4523
 1360SOL     OW15712   2.265   0.894   6.799 -0.3574 -0.0374 -0.4591
 1360SOL    HW115713   2.238   0.939   6.719  0.3365  1.1684 -0.0093
 1360SOL    HW215714   2.256   0.803   6.772 -1.0979 -0.0563 -0.1704
 1361SOL     OW15715   1.788   3.262   7.363 -0.5172  0.0586 -0.0979
 1361SOL    HW115716   1.761   3.269   7.272 -3.2738 -0.9335  0.6422
 1361SOL    HW215717   1.723   3.319   7.404 -2.0054 -0.2887 -1.9970
 1362SOL     OW15718   4.614   0.777   3.378 -0.1460 -0.5192 -0.0915
 1362SOL    HW115719   4.652   0.697   3.414  1.0326  0.3642  0.6241
 1362SOL    HW215720   4.527   0.741   3.359  0.1481 -0.5192 -1.4864
 1363SOL     OW15721   1.112   2.026  10.362  0.4737  0.6220  0.8749
 1363SOL    HW115722   1.105   2.043  10.456  1.3875 -3.3696  1.6746
 1363SOL    HW215723   1.110   2.113  10.321 -1.4050  0.3558  0.3980
 1364SOL     OW15724   0.020   4.286   3.862 -0.0262  0.6180  0.3986
 1364SOL    HW115725   4.737   4.323   3.947 -1.6413 -2.5652  1.3083
 1364SOL    HW215726   4.679   4.255   3.828 -0.9844  1.8982  1.5592
 1365SOL     OW15727   1.698   4.195   9.026 -0.0308 -0.1503  0.2613
 1365SOL    HW115728   1.679   4.234   8.941  2.0651  0.3374 -0.0037
 1365SOL    HW215729   1.613   4.173   9.064 -0.1538 -0.2562 -0.0820
 1366SOL     OW15730   1.865   2.802  10.635  0.0767 -0.2952  0.2238
 1366SOL    HW115731   1.941   2.772  10.585 -3.4045 -1.6528 -4.3091
 1366SOL    HW215732   1.806   2.833  10.566 -0.1217  2.9171  1.7920
 1367SOL     OW15733   0.488   3.411   6.233 -0.7633 -0.3089 -0.4729
 1367SOL    HW115734   0.405   3.437   6.273 -1.4650 -2.4189 -0.5592
 1367SOL    HW215735   0.507   3.489   6.180  0.1499  1.1723  2.0015
 1368SOL     OW15736   2.909   3.631  17.748 -0.5315  0.1420 -0.6880
 1368SOL    HW115737   2.909   3.690   0.059 -0.4070 -0.1717 -0.4417
 1368SOL    HW215738   2.916   3.692  17.675 -0.1378  1.6973  0.6413
 1369SOL     OW15739   1.135   1.044  15.544  0.2233 -0.2755  0.6653
 1369SOL    HW115740   1.152   0.999  15.461 -1.0415 -0.1862  0.3607
 1369SOL    HW215741   1.197   1.117  15.546 -0.9893  0.7790 -0.9852
 1370SOL     OW15742   3.939   2.341  10.595 -0.4505  0.2934  0.1151
 1370SOL    HW115743   3.993   2.336  10.516  2.1911 -2.2047  2.0891
 1370SOL    HW215744   3.932   2.433  10.619  0.4321 -0.3581  2.8666
 1371SOL     OW15745   3.166   3.529   2.076 -0.4392 -0.7628 -0.2871
 1371SOL    HW115746   3.111   3.542   2.153  0.3731 -1.3332  0.3745
 1371SOL    HW215747   3.252   3.515   2.116 -0.2456 -1.0528 -0.8074
 1372SOL     OW15748   2.916   2.200   5.472  0.8003 -0.5401  0.1316
 1372SOL    HW115749   2.897   2.290   5.499  5.2582  1.4043 -3.1010
 1372SOL    HW215750   2.978   2.209   5.400  2.4501 -3.0744  1.2425
 1373SOL     OW15751   1.231   0.405   2.349  0.1176 -0.3044 -0.6571
 1373SOL    HW115752   1.156   0.452   2.387 -1.6507 -4.0605  0.5047
 1373SOL    HW215753   1.276   0.482   2.313 -0.1255 -0.6409 -1.6703
 1374SOL     OW15754   0.004   3.932   4.431 -0.0899  0.5465 -0.2507
 1374SOL    HW115755   4.682   3.932   4.359 -0.6260  1.2890  0.2333
 1374SOL    HW215756   0.002   3.837   4.442 -0.9186  0.7012  0.8808
 1375SOL     OW15757   0.892   0.257  12.417 -0.2695 -1.3400  0.2622
 1375SOL    HW115758   0.971   0.278  12.467  1.5485 -0.2594 -3.0493
 1375SOL    HW215759   0.833   0.248  12.491 -1.1216  3.3161  0.1894
 1376SOL     OW15760   1.479   2.282   5.169  0.4642  0.0606  0.2923
 1376SOL    HW115761   1.551   2.329   5.210  0.2917 -1.2236  2.0409
 1376SOL    HW215762   1.529   2.215   5.122 -0.4009  0.1150 -0.7141
 1377SOL     OW15763   2.071   1.292   6.468  0.3639 -0.4944  0.0574
 1377SOL    HW115764   2.019   1.367   6.438  0.2659 -0.0410  1.3234
 1377SOL    HW215765   2.038   1.290   6.558  1.9048  0.8788  0.6668
 1378SOL     OW15766   3.684   1.887  12.408 -0.0831 -0.0130 -0.0446
 1378SOL    HW115767   3.713   1.915  12.321 -0.2861 -3.6589 -1.2735
 1378SOL    HW215768   3.691   1.970  12.456 -0.3604 -0.3620  0.6000
 1379SOL     OW15769   4.416   0.150   8.375 -0.4082  0.2683  0.1881
 1379SOL    HW115770   4.352   0.079   8.366  1.5360 -1.1206 -2.7581
 1379SOL    HW215771   4.483   0.132   8.308 -0.9729  1.6748 -0.7607
 1380SOL     OW15772   3.344   0.507  12.795 -0.5495  0.2160 -0.1420
 1380SOL    HW115773   3.332   0.412  12.801  2.1708 -0.0012  1.9404
 1380SOL    HW215774   3.269   0.539  12.746  0.3600  2.8066  0.1255
 1381SOL     OW15775   3.003   1.317   2.045 -0.1770 -0.0206  0.7179
 1381SOL    HW115776   2.962   1.401   2.068  1.6598  1.3847 -1.0921
 1381SOL    HW215777   3.082   1.356   2.007 -0.0108 -0.4006  0.6691
 1382SOL     OW15778   0.934   4.454   8.478 -0.1451  0.2613 -0.2717
 1382SOL    HW115779   0.951   4.388   8.545 -1.8817  0.9518  0.8372
 1382SOL    HW215780   0.841   4.472   8.491 -0.3209 -0.6243 -0.3252
 1383SOL     OW15781   3.403   1.576   6.333  0.3018 -0.1885 -0.1017
 1383SOL    HW115782   3.342   1.606   6.401  1.0703  2.2522 -0.4798
 1383SOL    HW215783   3.435   1.660   6.299  1.6175 -0.6995 -0.1321
 1384SOL     OW15784   2.907   3.288  16.503  0.9209 -1.0530 -0.8374
 1384SOL    HW115785   2.916   3.309  16.596 -0.7728  0.3262 -0.9954
 1384SOL    HW215786   2.923   3.194  16.512  2.3151 -1.0099 -2.6623
 1385SOL     OW15787   3.499   2.484   6.422  0.0271  0.4067  0.5353
 1385SOL    HW115788   3.571   2.506   6.482  0.9943 -0.3317 -0.3498
 1385SOL    HW215789   3.447   2.421   6.473  1.1499 -0.9653 -0.0096
 1386SOL     OW15790   1.735   3.711   3.496  0.5369  0.3310  0.3539
 1386SOL    HW115791   1.827   3.690   3.511  0.5241  1.1225  1.5335
 1386SOL    HW215792   1.744   3.749   3.409  2.3921 -1.7322 -0.3491
 1387SOL     OW15793   1.718   1.145   6.570  0.1071 -0.0529  0.4675
 1387SOL    HW115794   1.655   1.194   6.517  1.8021 -0.2150 -1.6806
 1387SOL    HW215795   1.672   1.133   6.654 -0.0312 -0.8515  0.2747
 1388SOL     OW15796   0.736   0.289  12.653  0.5627 -0.1626 -0.0041
 1388SOL    HW115797   0.746   0.274  12.747 -1.0380  0.8998  0.3322
 1388SOL    HW215798   0.667   0.230  12.622  1.0060 -0.4171 -0.5157
 1389SOL     OW15799   0.776   1.185  10.712 -0.3835 -0.7560  0.1165
 1389SOL    HW115800   0.758   1.279  10.720 -0.4185 -0.7173 -0.4138
 1389SOL    HW215801   0.700   1.139  10.747 -0.2227  0.2669  1.7794
 1390SOL     OW15802   2.435   2.558   5.992 -0.2384  0.2401 -0.6646
 1390SOL    HW115803   2.483   2.571   6.074 -0.6966  2.5943 -0.7878
 1390SOL    HW215804   2.358   2.511   6.024 -1.4187  2.0299 -0.9207
 1391SOL     OW15805   1.807   3.363   7.841 -0.0456  1.3847  0.5366
 1391SOL    HW115806   1.741   3.407   7.894 -1.7406  0.2264 -0.6116
 1391SOL    HW215807   1.876   3.340   7.904 -0.4830 -0.3426  0.3805
 1392SOL     OW15808   3.531   3.842   4.197 -0.0645 -0.2905 -0.8597
 1392SOL    HW115809   3.566   3.859   4.284  1.5005 -0.9768 -1.3563
 1392SOL    HW215810   3.592   3.770   4.179  2.2967  1.4397  0.1201
 1393SOL     OW15811   0.052   0.103   5.658 -0.3244 -0.5021  0.1606
 1393SOL    HW115812   0.131   0.147   5.627  0.0158 -2.1507 -1.3221
 1393SOL    HW215813   0.047   0.136   5.748  0.8119  1.8290 -0.6543
 1394SOL     OW15814   2.310   0.006   8.391 -0.4003 -0.1943 -0.0699
 1394SOL    HW115815   2.405   0.007   8.379 -0.5242  1.3714 -0.9441
 1394SOL    HW215816   2.302   4.657   8.418 -0.7856 -0.4797 -1.1587
 1395SOL     OW15817   3.682   3.500   6.401  0.2153 -0.2568 -0.5860
 1395SOL    HW115818   3.615   3.439   6.370 -1.0707  0.7393  0.2309
 1395SOL    HW215819   3.657   3.586   6.368  2.0906  0.4834 -0.0982
 1396SOL     OW15820   1.284   4.078   7.959  0.5611 -0.1897 -0.6925
 1396SOL    HW115821   1.288   4.114   8.047  0.5555  0.0629 -0.7975
 1396SOL    HW215822   1.194   4.051   7.939  0.5964 -1.1919  0.4987
 1397SOL     OW15823   1.063   1.817   8.815 -0.0472  0.3207  0.1036
 1397SOL    HW115824   1.138   1.799   8.758 -1.1285 -2.9047 -0.3318
 1397SOL    HW215825   1.098   1.839   8.901  1.1365 -2.5211  0.3512
 1398SOL     OW15826   3.471   2.499   7.059 -0.9584  0.2789 -0.3486
 1398SOL    HW115827   3.429   2.437   7.119 -2.9571 -1.6822 -3.7334
 1398SOL    HW215828   3.444   2.586   7.089  0.8904  1.7878 -3.0585
 1399SOL     OW15829   3.308   2.588   2.662 -0.5104 -0.0291  0.2370
 1399SOL    HW115830   3.374   2.521   2.680 -0.2082 -0.0062 -0.7788
 1399SOL    HW215831   3.353   2.655   2.611  1.9476 -1.7590  0.1201
 1400SOL     OW15832   3.626   1.008  15.035  0.0493  0.5891  0.9289
 1400SOL    HW115833   3.717   0.999  15.005 -0.1053 -0.4236  0.7590
 1400SOL    HW215834   3.584   1.058  14.964 -0.0917  1.1760  1.4284
 1401SOL     OW15835   1.145   1.913   2.736 -0.5597  0.7034 -0.2415
 1401SOL    HW115836   1.207   1.974   2.774  0.9656  0.1713 -1.8933
 1401SOL    HW215837   1.096   1.958   2.666 -0.6108  0.7018 -0.2069
 1402SOL     OW15838   4.239   1.316   9.240  0.1879  0.5936 -0.4594
 1402SOL    HW115839   4.232   1.375   9.316 -2.0807 -0.9640  0.5334
 1402SOL    HW215840   4.330   1.331   9.213  0.7906 -0.9555  0.7458
 1403SOL     OW15841   4.027   0.827   5.307  0.0205 -0.2879  1.0436
 1403SOL    HW115842   4.096   0.888   5.332 -1.4684  1.9736 -0.3452
 1403SOL    HW215843   4.019   0.791   5.395 -1.4481  1.6457  1.7170
 1404SOL     OW15844   4.269   0.023   3.060 -0.3251  0.2920  0.3138
 1404SOL    HW115845   4.214   4.694   3.094  1.3231 -0.7696  0.7657
 1404SOL    HW215846   4.281   4.736   2.969 -0.9526 -1.8039  0.8849
 1405SOL     OW15847   1.516   3.295   3.430 -0.2412 -0.4799 -0.4612
 1405SOL    HW115848   1.537   3.388   3.422  2.9190 -1.0456  1.1005
 1405SOL    HW215849   1.454   3.298   3.503 -1.2825 -0.4319 -1.3440
 1406SOL     OW15850   3.248   0.651  16.447  0.3768  0.0593  0.4753
 1406SOL    HW115851   3.232   0.723  16.387 -2.0623 -0.6191  0.3326
 1406SOL    HW215852   3.294   0.596  16.383 -2.6920  2.1905 -3.4534
 1407SOL     OW15853   2.888   4.068   0.374 -0.1764  0.0151  0.0627
 1407SOL    HW115854   2.861   4.159   0.363 -1.2890 -0.4460 -0.9336
 1407SOL    HW215855   2.833   4.048   0.450  0.4851  1.6588  0.9696
 1408SOL     OW15856   4.021   3.142  16.469 -1.0190 -0.0252  0.3574
 1408SOL    HW115857   4.018   3.110  16.379 -1.8498  0.7269  0.1193
 1408SOL    HW215858   4.044   3.234  16.453  0.7149 -0.7304 -1.2738
 1409SOL     OW15859   2.710   0.785   5.647  0.4862 -0.0476  0.6769
 1409SOL    HW115860   2.641   0.850   5.656 -0.8316 -1.1722 -1.1883
 1409SOL    HW215861   2.785   0.838   5.673  0.8281 -1.2340  2.0854
 1410SOL     OW15862   3.339   2.850   1.626  0.9196 -0.5939  0.2699
 1410SOL    HW115863   3.303   2.864   1.713  0.0108  0.8280 -0.3354
 1410SOL    HW215864   3.312   2.762   1.602 -1.2141  1.0009 -3.2722
 1411SOL     OW15865   4.038   2.527   6.932  0.4196  0.5673 -0.3275
 1411SOL    HW115866   3.994   2.562   7.010  0.8195 -0.4461  0.3424
 1411SOL    HW215867   4.127   2.526   6.966  0.5483  2.5835 -0.5767
 1412SOL     OW15868   3.857   1.885   1.238  0.2675  0.1496 -0.1746
 1412SOL    HW115869   3.875   1.926   1.153 -3.6419  2.1827 -0.0354
 1412SOL    HW215870   3.787   1.828   1.207  0.1362 -0.4892  1.3098
 1413SOL     OW15871   0.348   4.648  12.360 -0.0280  0.0629  0.3085
 1413SOL    HW115872   0.261   4.669  12.393 -0.3426  0.4251 -0.7553
 1413SOL    HW215873   0.366   4.717  12.297  0.4069 -1.0798 -0.8285
 1414SOL     OW15874   1.067   4.297   8.298  0.0059  0.3775 -0.2359
 1414SOL    HW115875   1.004   4.248   8.245 -3.3527  2.1613  2.1316
 1414SOL    HW215876   1.011   4.357   8.346 -0.4910 -0.8848  0.7567
 1415SOL     OW15877   0.984   2.647   1.990  0.0088  0.0040 -0.0952
 1415SOL    HW115878   1.037   2.643   1.910  2.6984  1.4725  1.6131
 1415SOL    HW215879   1.053   2.633   2.055 -0.2433  0.4010  0.2552
 1416SOL     OW15880   1.926   1.404  10.968  0.0166 -0.6055  0.1902
 1416SOL    HW115881   1.977   1.476  10.932 -3.3582  0.2479 -2.8418
 1416SOL    HW215882   1.995   1.341  10.945  0.3355 -0.1468 -0.1050
 1417SOL     OW15883   3.005   3.128   1.961 -0.3040  0.7489 -1.0834
 1417SOL    HW115884   3.071   3.080   2.012 -1.0224  1.1145  0.1974
 1417SOL    HW215885   2.924   3.119   2.011 -0.9809  0.8994 -2.1541
 1418SOL     OW15886   4.436   2.997   6.570  0.2640  0.9375 -0.6177
 1418SOL    HW115887   4.524   3.032   6.583  1.3679 -2.1212  0.0754
 1418SOL    HW215888   4.388   3.033   6.644  0.0302 -0.9394  0.1561
 1419SOL     OW15889   3.503   0.160   2.588  1.0888  0.1481 -0.8508
 1419SOL    HW115890   3.466   0.242   2.555 -1.6012 -0.1129  1.5547
 1419SOL    HW215891   3.420   0.114   2.599  0.4267  0.8214 -3.0069
 1420SOL     OW15892   3.766   0.403   5.012  0.2584  0.3446 -0.1022
 1420SOL    HW115893   3.722   0.319   5.027  1.0795 -0.0084  0.3421
 1420SOL    HW215894   3.846   0.393   5.065 -0.9485 -0.1140  1.6557
 1421SOL     OW15895   3.815   3.029  13.521  0.0981 -0.0355 -0.3675
 1421SOL    HW115896   3.882   3.031  13.452  1.4125 -2.6256  0.8357
 1421SOL    HW215897   3.867   2.993  13.593 -0.7633 -0.3895  0.0701
 1422SOL     OW15898   3.029   3.440  11.619 -0.1261  0.0777 -0.0997
 1422SOL    HW115899   3.016   3.373  11.686 -0.6210 -0.9899 -1.2724
 1422SOL    HW215900   3.036   3.380  11.545 -2.8288 -0.3848  0.0480
 1423SOL     OW15901   2.518   4.672  14.095  0.1686 -0.1044 -0.2694
 1423SOL    HW115902   2.516   4.718  14.011 -2.5823  1.4374  0.6633
 1423SOL    HW215903   2.552   4.583  14.081 -0.4674 -0.7167  1.9675
 1424SOL     OW15904   3.866   1.404  16.906 -0.0907 -0.6044  0.3065
 1424SOL    HW115905   3.787   1.453  16.932 -1.4640 -3.1144  0.8895
 1424SOL    HW215906   3.834   1.379  16.819 -1.6668  1.3627  0.3244
 1425SOL     OW15907   2.992   3.946   6.593  0.0642 -0.2128 -0.1991
 1425SOL    HW115908   2.948   3.958   6.509 -0.5616  1.5510  0.3919
 1425SOL    HW215909   3.021   3.854   6.595  3.6465  0.8998 -1.1198
 1426SOL     OW15910   4.643   3.903   3.099  0.6275 -0.4184  0.1164
 1426SOL    HW115911   4.638   3.855   3.017  0.3240 -0.7507  0.3331
 1426SOL    HW215912   4.555   3.887   3.132  1.1645 -0.7065  1.4008
 1427SOL     OW15913   1.070   1.682   5.991  0.1332 -0.5160 -0.4135
 1427SOL    HW115914   1.010   1.627   5.941  0.3368 -2.2369  1.2258
 1427SOL    HW215915   1.079   1.749   5.922 -2.0200  0.7851  0.5690
 1428SOL     OW15916   2.443   2.513   2.186  0.4274 -0.2902 -0.8247
 1428SOL    HW115917   2.507   2.527   2.256 -0.9418  0.6959  0.2389
 1428SOL    HW215918   2.387   2.586   2.215  1.2517  0.5405 -1.3066
 1429SOL     OW15919   4.343   3.111   1.066 -0.2804 -0.0368  0.0586
 1429SOL    HW115920   4.308   3.122   1.154  0.4208 -2.2778  0.6204
 1429SOL    HW215921   4.390   3.029   1.082 -1.2288  0.0512  3.1496
 1430SOL     OW15922   1.544   1.782   6.104 -0.1723 -0.4147 -0.1344
 1430SOL    HW115923   1.480   1.768   6.034  1.0126 -2.7622 -0.7230
 1430SOL    HW215924   1.617   1.806   6.048 -2.0908  1.2464 -1.9434
 1431SOL     OW15925   2.733   2.399   9.232  0.8565 -0.0211 -0.0001
 1431SOL    HW115926   2.754   2.328   9.294 -0.6777 -0.5067 -0.0394
 1431SOL    HW215927   2.740   2.354   9.148 -0.3068  2.0835 -1.2163
 1432SOL     OW15928   3.204   0.884   9.215 -0.1811 -0.4001 -0.0286
 1432SOL    HW115929   3.115   0.911   9.195 -0.1108 -0.9892 -1.1287
 1432SOL    HW215930   3.213   0.911   9.307 -1.1153  0.2433 -0.1290
 1433SOL     OW15931   0.441   0.020  11.140  0.1284  0.2945  0.6149
 1433SOL    HW115932   0.474   0.094  11.088 -1.0589 -0.1930 -0.8240
 1433SOL    HW215933   0.507   4.694  11.126 -0.5533 -0.5796  1.6183
 1434SOL     OW15934   1.734   0.453   9.298  0.1535  0.5577  0.3217
 1434SOL    HW115935   1.727   0.391   9.371  0.2801 -0.7610 -0.8003
 1434SOL    HW215936   1.779   0.526   9.341 -1.9662  1.8499  0.3528
 1435SOL     OW15937   2.161   1.657  10.509  0.2109  0.4353  0.3064
 1435SOL    HW115938   2.104   1.716  10.460  0.1917  0.4100  0.2981
 1435SOL    HW215939   2.210   1.725  10.554  0.0437  1.1644 -0.5959
 1436SOL     OW15940   0.715   0.613   4.193  0.2150 -0.5882 -0.1274
 1436SOL    HW115941   0.791   0.594   4.250  0.1952 -1.4406 -0.3759
 1436SOL    HW215942   0.661   0.538   4.220  0.7953 -0.0015  2.7220
 1437SOL     OW15943   2.502   1.907  12.287 -0.3370 -0.3410 -0.1106
 1437SOL    HW115944   2.515   1.814  12.273 -2.1986 -0.5329 -0.5387
 1437SOL    HW215945   2.594   1.928  12.307  0.2256 -2.8526 -0.1515
 1438SOL     OW15946   1.673   1.177   4.630 -0.6668  0.0888  0.0127
 1438SOL    HW115947   1.593   1.131   4.656  0.0324 -0.6169  0.9562
 1438SOL    HW215948   1.644   1.266   4.610 -1.7451  0.1885  1.9921
 1439SOL     OW15949   0.848   1.731   2.132 -0.0067 -0.6588 -0.5743
 1439SOL    HW115950   0.817   1.676   2.204  0.6833 -0.2695  0.0148
 1439SOL    HW215951   0.790   1.807   2.134  0.2644 -0.4435 -0.9730
 1440SOL     OW15952   4.037   0.210   4.241  0.1325 -0.3602  0.2293
 1440SOL    HW115953   4.000   0.122   4.244  2.4720 -1.4050 -0.6374
 1440SOL    HW215954   3.969   0.263   4.199  0.8380 -0.7283 -1.3998
 1441SOL     OW15955   1.530   1.175  10.264 -0.2700 -0.4021 -0.4770
 1441SOL    HW115956   1.488   1.239  10.207  0.1614 -1.0279 -1.4889
 1441SOL    HW215957   1.449   1.132  10.292 -0.1957  0.6360  1.3675
 1442SOL     OW15958   2.270   2.848   8.545 -0.0148 -0.0724 -0.4951
 1442SOL    HW115959   2.345   2.789   8.545  0.6003  0.7056  1.5181
 1442SOL    HW215960   2.284   2.901   8.624 -0.1537 -0.2396 -0.3585
 1443SOL     OW15961   1.308   0.760   5.520  0.3858  0.5312 -0.2115
 1443SOL    HW115962   1.228   0.731   5.477 -0.0493  0.3896  0.6840
 1443SOL    HW215963   1.273   0.846   5.541 -0.5266  0.1791 -0.2842
 1444SOL     OW15964   0.076   1.282   4.578 -0.1008 -0.0315 -0.2211
 1444SOL    HW115965   4.739   1.230   4.594 -1.3668  1.2668 -2.3231
 1444SOL    HW215966   0.059   1.319   4.492  1.4310 -1.6473 -1.2165
 1445SOL     OW15967   4.150   4.480  17.577  0.0709  0.0839  0.7256
 1445SOL    HW115968   4.178   4.489  17.486 -0.7285  0.0141  0.4707
 1445SOL    HW215969   4.223   4.516  17.627 -1.7503  1.4104  2.3846
 1446SOL     OW15970   4.480   2.330  16.611 -0.5317  0.0222  0.1696
 1446SOL    HW115971   4.430   2.259  16.571  0.4006 -1.8006  2.2266
 1446SOL    HW215972   4.425   2.408  16.606  1.1537  1.1449 -0.7454
 1447SOL     OW15973   4.693   2.498   3.845 -0.2557 -0.0087  0.1647
 1447SOL    HW115974   4.732   2.434   3.905  1.5095  1.2738  0.4153
 1447SOL    HW215975   0.032   2.540   3.817  0.3298 -1.7732 -0.7932
 1448SOL     OW15976   3.726   1.279  12.173  0.3720 -0.5048 -0.5562
 1448SOL    HW115977   3.819   1.293  12.191  0.2529  0.2757 -0.5586
 1448SOL    HW215978   3.733   1.221  12.097  0.5006 -1.9866  0.5980
 1449SOL     OW15979   1.063   0.263  13.697 -0.4341 -0.7212 -0.3595
 1449SOL    HW115980   1.152   0.258  13.732  0.3362  0.4988 -2.1477
 1449SOL    HW215981   1.029   0.307  13.775  0.9342  0.0318 -0.2048
 1450SOL     OW15982   0.928   0.317   7.476  0.2466  0.2117 -0.3545
 1450SOL    HW115983   0.882   0.326   7.560  1.5941 -2.6284  0.6758
 1450SOL    HW215984   1.018   0.321   7.509  0.1948  1.4988 -0.3697
 1451SOL     OW15985   1.344   2.107   4.243 -0.0142 -0.0564 -0.4125
 1451SOL    HW115986   1.295   2.032   4.274  2.6867 -2.3504 -1.6946
 1451SOL    HW215987   1.346   2.156   4.325  0.1959 -1.9971  0.7335
 1452SOL     OW15988   3.392   1.961   5.025  0.1037  0.5102  0.2253
 1452SOL    HW115989   3.478   1.998   5.003  0.3120 -0.8956 -1.3344
 1452SOL    HW215990   3.332   1.994   4.959 -0.9788  0.9138  1.4081
 1453SOL     OW15991   2.992   2.649   4.879 -0.5533  0.1870  0.5766
 1453SOL    HW115992   3.036   2.667   4.962 -2.4953 -0.1721  1.6899
 1453SOL    HW215993   2.966   2.737   4.854 -1.0503 -0.2388 -0.4281
 1454SOL     OW15994   1.733   0.898   9.052 -0.2094  0.5103 -0.5427
 1454SOL    HW115995   1.673   0.868   9.121 -1.1182  1.2021 -1.0468
 1454SOL    HW215996   1.728   0.992   9.068 -0.6958  0.4540 -0.3717
 1455SOL     OW15997   1.676   3.255   6.848 -0.3684  0.3298  0.1774
 1455SOL    HW115998   1.742   3.295   6.792  0.5095 -0.0310  0.9517
 1455SOL    HW215999   1.724   3.266   6.930 -1.8037 -1.0890  1.2091
 1456SOL     OW16000   2.466   1.810   3.382  0.3561 -0.1350 -0.3528
 1456SOL    HW116001   2.553   1.777   3.361  0.2560  0.7382 -2.1962
 1456SOL    HW216002   2.480   1.904   3.398  0.2450 -0.5301  2.0050
 1457SOL     OW16003   2.763   0.996   4.539 -0.0883 -0.6523  0.3281
 1457SOL    HW116004   2.793   0.909   4.511  0.5402 -0.3240 -0.0213
 1457SOL    HW216005   2.816   0.997   4.619 -1.8276 -2.4317  1.5156
 1458SOL     OW16006   1.132   0.099   8.696 -0.3735 -0.2272 -0.0218
 1458SOL    HW116007   1.119   0.184   8.737  1.0511  0.5911 -1.3003
 1458SOL    HW216008   1.047   0.087   8.652 -0.0602 -1.1326 -0.3901
 1459SOL     OW16009   1.324   1.067   4.918 -0.2772  0.6977  0.1126
 1459SOL    HW116010   1.231   1.053   4.936  0.0096 -0.8080  0.3872
 1459SOL    HW216011   1.364   1.033   4.998 -2.4359 -0.1638  0.8262
 1460SOL     OW16012   2.523   1.263   5.002 -0.1451  0.3719 -0.1271
 1460SOL    HW116013   2.497   1.355   5.007  1.6642  0.9926 -2.1016
 1460SOL    HW216014   2.598   1.259   5.061  0.5588  0.6065 -1.0067
 1461SOL     OW16015   3.807   3.618  13.815  0.2337  0.0127 -0.4009
 1461SOL    HW116016   3.809   3.611  13.719  2.5547  0.1923 -0.3638
 1461SOL    HW216017   3.872   3.688  13.819 -0.2624  0.4945 -0.7135
 1462SOL     OW16018   1.156   1.985  10.759 -0.1875 -0.2355 -0.1553
 1462SOL    HW116019   1.130   1.897  10.786  1.5261 -0.4523  0.7162
 1462SOL    HW216020   1.083   2.001  10.698  1.1176  0.4471 -1.5419
 1463SOL     OW16021   0.093   2.453   7.025 -0.2952 -0.7271  0.7806
 1463SOL    HW116022   0.028   2.480   6.961 -1.1531 -1.3843  1.3699
 1463SOL    HW216023   0.091   2.520   7.093  1.2410  0.5429 -0.4587
 1464SOL     OW16024   0.402   2.466  17.276 -0.8153 -0.1583  0.5429
 1464SOL    HW116025   0.340   2.472  17.203  0.4293  0.3784 -0.4861
 1464SOL    HW216026   0.395   2.374  17.300 -3.8889 -0.3078 -0.9366
 1465SOL     OW16027   3.021   1.641   6.052  0.5451  0.3663 -0.9682
 1465SOL    HW116028   3.012   1.732   6.081 -1.5430 -0.5650  1.3401
 1465SOL    HW216029   3.051   1.597   6.132  0.2152 -0.2248 -1.1716
 1466SOL     OW16030   3.605   0.004   9.230 -0.4966  0.2882  0.0080
 1466SOL    HW116031   3.649   4.696   9.161 -1.7141  1.5356 -1.6648
 1466SOL    HW216032   3.557   0.068   9.177 -1.7137 -1.8465 -1.4753
 1467SOL     OW16033   4.095   3.931   4.082 -0.5117 -0.4461  0.0517
 1467SOL    HW116034   4.112   4.013   4.036  1.1521 -2.4401 -2.9096
 1467SOL    HW216035   4.128   3.866   4.019  0.2371 -2.2978  2.3692
 1468SOL     OW16036   0.923   3.955  17.622  0.2466  0.7287  0.1620
 1468SOL    HW116037   0.864   4.030  17.607  0.2524  0.8640  0.8260
 1468SOL    HW216038   0.955   3.986  17.707 -0.2560  0.8111  0.3221
 1469SOL     OW16039   3.350   1.843  15.434  0.3086  0.0226  0.0814
 1469SOL    HW116040   3.297   1.772  15.471 -0.1679  0.6245  0.5602
 1469SOL    HW216041   3.415   1.846  15.504  0.4564 -0.4849 -0.0367
 1470SOL     OW16042   0.864   1.162  16.372  0.4533  0.3363  0.2573
 1470SOL    HW116043   0.804   1.209  16.429  1.7013  1.3206  0.7588
 1470SOL    HW216044   0.814   1.190  16.295 -2.2798 -0.5751  1.6850
 1471SOL     OW16045   2.795   2.849   7.832 -0.3887  0.8139  0.0995
 1471SOL    HW116046   2.789   2.754   7.835 -1.6852  0.8384 -1.4112
 1471SOL    HW216047   2.784   2.883   7.921 -1.3819  0.3846  0.1388
 1472SOL     OW16048   0.323   2.003  17.618 -0.1262  0.0328  0.5560
 1472SOL    HW116049   0.236   2.032  17.644  0.0444  0.9241  0.1263
 1472SOL    HW216050   0.302   1.932  17.558  1.8646  0.0680 -0.2104
 1473SOL     OW16051   2.408   3.914   2.393 -0.2050 -0.5780  0.4271
 1473SOL    HW116052   2.364   3.845   2.344 -0.8211  1.9549 -2.5878
 1473SOL    HW216053   2.389   3.992   2.342  2.6678 -0.0920  0.0858
 1474SOL     OW16054   4.000   2.955   3.724  0.2231 -0.2913 -0.5303
 1474SOL    HW116055   4.036   2.961   3.812  1.1594  3.5675 -1.1571
 1474SOL    HW216056   4.070   2.989   3.668 -1.0080  0.6877 -1.4663
 1475SOL     OW16057   2.531   2.884   4.330  0.4399  0.3954  0.0218
 1475SOL    HW116058   2.470   2.816   4.301  1.6789 -0.0214 -1.6309
 1475SOL    HW216059   2.588   2.833   4.388 -0.1323  0.8056  0.9278
 1476SOL     OW16060   3.144   1.834   3.995  0.1036  0.2181 -0.2852
 1476SOL    HW116061   3.054   1.859   3.975  0.4242 -0.5083 -2.7053
 1476SOL    HW216062   3.155   1.866   4.084 -0.8132 -1.7933  0.5542
 1477SOL     OW16063   1.059   1.617  11.627  0.1158 -0.4030 -0.0960
 1477SOL    HW116064   1.007   1.657  11.697  1.3959 -3.7619  2.7865
 1477SOL    HW216065   1.016   1.663  11.555 -1.8199 -1.2498  0.5153
 1478SOL     OW16066   3.056   1.738   7.866  0.0471  0.7925  0.4598
 1478SOL    HW116067   3.098   1.823   7.881  0.4881  0.6070  0.3008
 1478SOL    HW216068   2.985   1.744   7.929  0.1773 -0.1569  0.6899
 1479SOL     OW16069   1.596   3.494   2.600  0.5220  0.0207  0.2956
 1479SOL    HW116070   1.651   3.416   2.588 -0.5809 -0.8699  1.0257
 1479SOL    HW216071   1.618   3.515   2.691 -1.7018 -1.1585  1.1085
 1480SOL     OW16072   3.317   1.590   3.427 -0.1188  0.0857 -0.0569
 1480SOL    HW116073   3.244   1.531   3.449  0.0853 -1.1534 -2.6990
 1480SOL    HW216074   3.260   1.666   3.416  1.5548  1.2572 -0.5837
 1481SOL     OW16075   2.076   1.388  13.913  0.6182 -0.8168  0.0782
 1481SOL    HW116076   2.128   1.361  13.837  3.5867 -0.8398  2.0921
 1481SOL    HW216077   2.091   1.481  13.895  0.4194 -0.9459 -0.7647
 1482SOL     OW16078   0.108   4.737   4.619  0.2578  0.4835  0.8512
 1482SOL    HW116079   0.203   0.006   4.629  0.6358 -1.5707 -0.5980
 1482SOL    HW216080   0.079   0.018   4.708  0.6384  2.0425  0.5734
 1483SOL     OW16081   1.928   0.941   7.053 -0.1332  0.5081 -0.4044
 1483SOL    HW116082   1.905   0.849   7.046  2.1980 -0.2911  2.1611
 1483SOL    HW216083   1.906   0.957   7.145 -1.5621  0.6060 -0.7674
 1484SOL     OW16084   0.908   1.346  13.085 -0.5363  0.1439 -0.2721
 1484SOL    HW116085   0.824   1.390  13.076 -1.4046 -1.4218  0.1860
 1484SOL    HW216086   0.909   1.295  13.004  0.6194 -1.4857  0.7629
 1485SOL     OW16087   0.106   0.522   3.885 -0.5721 -0.7909 -0.5673
 1485SOL    HW116088   0.197   0.545   3.865 -0.3871  1.4371  2.7873
 1485SOL    HW216089   0.106   0.436   3.844 -0.6931 -1.1705  0.2395
 1486SOL     OW16090   3.803   2.561   5.210  0.5002  0.0556  0.0771
 1486SOL    HW116091   3.731   2.563   5.274  1.5650  2.4771  1.2238
 1486SOL    HW216092   3.869   2.614   5.255  1.1387  1.0246 -1.9955
 1487SOL     OW16093   3.449   3.143   1.737  0.0800 -0.4103  0.7499
 1487SOL    HW116094   3.393   3.220   1.729  0.0971 -0.7229 -2.4177
 1487SOL    HW216095   3.529   3.191   1.712 -0.4837 -0.5634 -1.3377
 1488SOL     OW16096   0.580   2.506   1.807  0.5942  0.0909  0.1384
 1488SOL    HW116097   0.565   2.582   1.863  0.0388  0.2694 -0.2552
 1488SOL    HW216098   0.488   2.483   1.794  1.1114 -2.5405  1.0045
 1489SOL     OW16099   1.376   2.404   7.424 -0.0427  0.5171 -0.2135
 1489SOL    HW116100   1.399   2.495   7.404  0.1641  0.3045 -0.9062
 1489SOL    HW216101   1.459   2.370   7.456 -0.1407  0.6018  0.1393
 1490SOL     OW16102   0.272   1.410  11.963 -0.7468  0.0939 -0.4919
 1490SOL    HW116103   0.213   1.336  11.976 -0.0202 -0.2548  0.8481
 1490SOL    HW216104   0.306   1.423  12.052 -0.2410  0.0791 -0.6871
 1491SOL     OW16105   0.922   3.604  13.837  0.0496 -0.3324  0.0802
 1491SOL    HW116106   0.916   3.552  13.757  0.5840 -0.3941  0.0794
 1491SOL    HW216107   0.911   3.689  13.795 -0.7771  0.1620  1.2964
 1492SOL     OW16108   4.662   2.191   6.109 -0.7007  0.8435  0.0603
 1492SOL    HW116109   4.673   2.185   6.014 -1.4717 -0.9332  0.0667
 1492SOL    HW216110   4.727   2.260   6.121 -0.9093  1.0096  0.2288
 1493SOL     OW16111   3.238   2.491   8.632 -0.1632  0.0167 -0.0678
 1493SOL    HW116112   3.253   2.416   8.689  0.7943  1.2334  1.2756
 1493SOL    HW216113   3.169   2.543   8.672 -0.7061  0.0503 -1.0590
 1494SOL     OW16114   3.740   3.792   5.309  0.4060 -0.2929  0.8909
 1494SOL    HW116115   3.695   3.756   5.386 -0.3930  0.3364  0.7174
 1494SOL    HW216116   3.715   3.883   5.323 -1.1326 -0.7139  0.8341
 1495SOL     OW16117   3.905   3.745   0.694  0.0166 -0.2892 -0.0138
 1495SOL    HW116118   3.963   3.675   0.665 -0.3443 -0.6349  0.1006
 1495SOL    HW216119   3.828   3.725   0.641  0.4458 -0.1415 -0.6880
 1496SOL     OW16120   4.461   2.238  16.872 -0.3979  0.0403  0.0582
 1496SOL    HW116121   4.468   2.287  16.790 -0.7227  0.6938  0.4227
 1496SOL    HW216122   4.435   2.151  16.842  1.8949 -0.2465 -1.1122
 1497SOL     OW16123   3.410   3.004   8.304  0.7171  0.7113  0.1165
 1497SOL    HW116124   3.318   3.000   8.330 -0.4491 -2.8445 -4.5958
 1497SOL    HW216125   3.450   2.997   8.391  1.2270 -1.5502 -0.2885
 1498SOL     OW16126   1.277   0.787  10.427  0.8323  0.2641 -0.2781
 1498SOL    HW116127   1.359   0.830  10.452  0.9443  0.4199 -0.9165
 1498SOL    HW216128   1.221   0.795  10.504 -0.5891 -0.0609 -1.2812
 1499SOL     OW16129   0.111   3.943   0.038 -0.3066 -0.4214  0.7566
 1499SOL    HW116130   0.068   4.010  17.749  2.8362  0.3119 -0.8007
 1499SOL    HW216131   0.146   4.002   0.105  0.9558 -1.4356  0.9938
 1500SOL     OW16132   4.679   3.046   4.535 -0.5618 -0.1444 -0.1105
 1500SOL    HW116133   4.688   3.031   4.629 -0.1240  1.7856  0.1461
 1500SOL    HW216134   4.595   3.091   4.528 -0.9303 -0.5584  1.9209
 1501SOL     OW16135   1.977   3.708  13.881 -0.0882  0.3156 -0.3691
 1501SOL    HW116136   1.973   3.646  13.808  0.3143  0.4330 -0.4894
 1501SOL    HW216137   2.071   3.706  13.900  0.2101  0.9959 -1.7473
 1502SOL     OW16138   3.735   0.964   1.863 -0.2666 -0.3583 -0.7617
 1502SOL    HW116139   3.747   0.874   1.893 -2.3507 -1.2965 -2.7641
 1502SOL    HW216140   3.826   0.984   1.841  0.2152  0.5947  2.1033
 1503SOL     OW16141   2.241   2.995   8.816  0.1114 -0.1199 -0.3470
 1503SOL    HW116142   2.215   3.081   8.850  3.6862  1.5275 -1.7194
 1503SOL    HW216143   2.334   3.017   8.823  0.4960 -1.1346 -2.3711
 1504SOL     OW16144   2.039   0.653  17.234  0.6325 -0.0941  0.5266
 1504SOL    HW116145   2.069   0.742  17.252  0.8783 -0.3254  1.2373
 1504SOL    HW216146   2.039   0.615  17.322 -1.3090  0.5513  0.7949
 1505SOL     OW16147   2.335   3.249   3.892 -0.0223  0.5322 -0.5321
 1505SOL    HW116148   2.420   3.277   3.857  0.2573 -0.0653 -0.3361
 1505SOL    HW216149   2.371   3.221   3.976  0.8501  0.4563 -0.9224
 1506SOL     OW16150   3.643   2.257   6.167 -0.4297  0.4945  0.3638
 1506SOL    HW116151   3.715   2.263   6.104 -0.7349 -2.0864 -0.2402
 1506SOL    HW216152   3.693   2.271   6.247  1.0994  1.8458 -0.8249
 1507SOL     OW16153   1.972   4.289   4.768  0.0228 -0.1152  0.2588
 1507SOL    HW116154   2.060   4.328   4.771  0.1051 -0.2804 -0.0984
 1507SOL    HW216155   1.965   4.277   4.863  3.6340  3.1971  0.9587
 1508SOL     OW16156   3.621   4.460   8.332 -0.2965  0.5049  0.4400
 1508SOL    HW116157   3.581   4.374   8.330 -0.4164  0.5386  1.1836
 1508SOL    HW216158   3.689   4.437   8.395 -0.6377  0.0605  0.6382
 1509SOL     OW16159   1.855   3.243   6.521  0.4997 -0.1591 -0.2652
 1509SOL    HW116160   1.850   3.161   6.571 -1.6687  0.1485  0.0303
 1509SOL    HW216161   1.887   3.297   6.592  2.1126 -1.0765 -0.3006
 1510SOL     OW16162   0.365   0.417  12.158  0.0031  0.0214  0.3071
 1510SOL    HW116163   0.357   0.379  12.071  1.3362 -2.6052  1.3221
 1510SOL    HW216164   0.434   0.363  12.195  0.2049 -0.1222 -0.2821
 1511SOL     OW16165   4.024   1.985   7.759 -0.0821  0.0216  0.0188
 1511SOL    HW116166   3.993   2.045   7.827 -0.6831  1.0306 -1.1521
 1511SOL    HW216167   3.970   1.907   7.776 -0.6960  0.7856  1.5063
 1512SOL     OW16168   0.248   0.103  17.376  0.0227  0.4082  0.4268
 1512SOL    HW116169   0.168   0.089  17.425 -0.2648  1.1083  0.1576
 1512SOL    HW216170   0.319   0.058  17.421 -1.0421 -2.0769 -0.3602
 1513SOL     OW16171   4.242   3.775  17.460  0.5202  0.2668  0.3529
 1513SOL    HW116172   4.235   3.842  17.528  2.5063  1.4214 -0.5778
 1513SOL    HW216173   4.149   3.766  17.438  1.2185 -1.8254 -1.7729
 1514SOL     OW16174   3.603   2.562  17.310  0.6159 -0.5786 -0.3535
 1514SOL    HW116175   3.632   2.511  17.386 -1.4508 -1.0792  0.1133
 1514SOL    HW216176   3.648   2.644  17.330  0.9855 -0.8766  0.0226
 1515SOL     OW16177   1.338   1.085  17.353 -0.0789 -0.9284 -0.0664
 1515SOL    HW116178   1.265   1.146  17.366  0.9529  0.2518  0.1742
 1515SOL    HW216179   1.323   1.068  17.260  0.4007 -3.0649  0.2597
 1516SOL     OW16180   3.937   4.048   5.411  0.8437 -0.2167  0.4688
 1516SOL    HW116181   3.946   4.135   5.450  2.8305 -0.7498  1.2264
 1516SOL    HW216182   3.847   4.046   5.381  1.0821  1.7406 -0.3672
 1517SOL     OW16183   1.806   2.124  15.007 -1.0876 -0.6890 -0.0377
 1517SOL    HW116184   1.890   2.081  14.991  0.8799  1.4396  4.4256
 1517SOL    HW216185   1.768   2.123  14.919  0.6007 -0.9913 -0.7672
 1518SOL     OW16186   4.143   1.236  11.019  0.2727  0.0640  0.4446
 1518SOL    HW116187   4.211   1.302  11.026  0.6930 -0.4014  0.7337
 1518SOL    HW216188   4.204   1.162  11.015  0.2575  0.0220  1.0044
 1519SOL     OW16189   4.100   2.253   5.106  0.3149  0.3112  0.2088
 1519SOL    HW116190   4.043   2.327   5.086 -0.4635 -0.2765  0.2449
 1519SOL    HW216191   4.134   2.278   5.192 -1.4446  0.0574  0.9969
 1520SOL     OW16192   2.706   2.596   4.186  0.0923  0.2801  0.2999
 1520SOL    HW116193   2.664   2.669   4.141  0.6821  0.0836 -0.5767
 1520SOL    HW216194   2.789   2.578   4.141 -0.8371 -0.6034 -1.0783
 1521SOL     OW16195   3.142   2.946  12.702 -0.4197 -0.5861  0.1277
 1521SOL    HW116196   3.188   3.027  12.725 -1.8914 -0.1790  1.5474
 1521SOL    HW216197   3.203   2.921  12.632  0.4309  3.5854 -0.6219
 1522SOL     OW16198   4.439   2.633   2.707 -0.2851  0.0228  0.6083
 1522SOL    HW116199   4.397   2.719   2.706  1.2797  0.7743 -0.8629
 1522SOL    HW216200   4.481   2.634   2.793  2.1503 -0.1347 -0.5772
 1523SOL     OW16201   3.004   0.687  13.167 -0.0298  0.7938 -0.1027
 1523SOL    HW116202   2.940   0.639  13.220  0.8037  0.6314  0.7596
 1523SOL    HW216203   2.969   0.673  13.079 -0.2442 -2.0906  0.4419
 1524SOL     OW16204   2.761   3.746  11.729 -0.0524 -0.3648  0.6869
 1524SOL    HW116205   2.716   3.758  11.645  2.2853 -0.3714 -0.5707
 1524SOL    HW216206   2.766   3.836  11.761 -0.8496 -0.5998  1.4662
 1525SOL     OW16207   1.075   2.039   7.388 -0.0385 -0.1121  0.0188
 1525SOL    HW116208   1.130   1.964   7.412 -0.2293 -0.1775  0.2429
 1525SOL    HW216209   1.138   2.110   7.371  0.9156 -1.3739 -1.7444
 1526SOL     OW16210   1.546   2.553   2.588  0.4025 -0.2662 -0.3020
 1526SOL    HW116211   1.557   2.633   2.639 -0.8046 -2.4627  3.3600
 1526SOL    HW216212   1.637   2.524   2.581  0.9088  1.1070  0.5676
 1527SOL     OW16213   0.563   3.511   1.677  0.5427 -0.5008  0.5618
 1527SOL    HW116214   0.573   3.543   1.766  1.5143 -0.3956  0.4231
 1527SOL    HW216215   0.645   3.543   1.638  0.1401  0.4430  0.5051
 1528SOL     OW16216   1.930   4.275   3.081  0.5641 -0.5835 -0.3992
 1528SOL    HW116217   1.996   4.241   3.021 -0.0101  0.5335 -1.6529
 1528SOL    HW216218   1.886   4.341   3.027  1.1711  1.1122  1.1621
 1529SOL     OW16219   2.113   0.253   5.773 -0.3319 -0.6673  0.2252
 1529SOL    HW116220   2.069   0.175   5.741  0.1086 -1.3674  1.3327
 1529SOL    HW216221   2.040   0.314   5.783  1.7950  2.2574 -1.9559
 1530SOL     OW16222   1.026   1.578   9.538 -0.4418  0.0471 -0.0059
 1530SOL    HW116223   0.954   1.518   9.517 -0.0563  0.4118 -2.3684
 1530SOL    HW216224   1.039   1.562   9.632  0.1400  1.1776  0.1011
 1531SOL     OW16225   0.829   4.474   7.308 -0.5821 -0.3148 -0.8108
 1531SOL    HW116226   0.816   4.515   7.222  1.9089 -0.4195 -1.2441
 1531SOL    HW216227   0.854   4.552   7.357 -0.3492  0.2437 -1.8148
 1532SOL     OW16228   4.281   4.686   9.333  0.5906  0.1579  0.3175
 1532SOL    HW116229   4.291   0.013   9.266 -2.3985  0.3015  0.0227
 1532SOL    HW216230   4.368   4.646   9.341  0.2727 -0.4345  0.8324
 1533SOL     OW16231   3.898   2.040   3.135 -0.6520  0.2522 -0.6219
 1533SOL    HW116232   3.947   2.087   3.203  0.2281 -3.5561  1.4015
 1533SOL    HW216233   3.902   1.950   3.167  3.9084 -0.2497 -2.6662
 1534SOL     OW16234   3.219   3.476   8.670 -0.1857  0.0430  0.0566
 1534SOL    HW116235   3.132   3.506   8.699  1.3377  2.8413  1.7468
 1534SOL    HW216236   3.244   3.543   8.606  0.7814 -0.0758  0.3097
 1535SOL     OW16237   2.427   1.836  13.938 -0.1221  0.3236 -0.0738
 1535SOL    HW116238   2.349   1.868  13.893 -1.2359 -0.9047  0.9860
 1535SOL    HW216239   2.407   1.744  13.921  1.5539 -0.4327  2.1136
 1536SOL     OW16240   4.345   2.999   2.140 -0.4502 -0.3257  0.0605
 1536SOL    HW116241   4.408   2.986   2.069 -0.8674  3.0605 -0.9364
 1536SOL    HW216242   4.306   2.912   2.145  0.3845 -0.6516  0.8172
 1537SOL     OW16243   2.271   4.147   6.513  0.0562  0.0611 -0.1687
 1537SOL    HW116244   2.244   4.235   6.484  1.5062  0.6647  0.3410
 1537SOL    HW216245   2.187   4.106   6.535  0.1250  1.1786  2.2222
 1538SOL     OW16246   3.914   1.305  15.966 -0.8031  0.3054 -0.1612
 1538SOL    HW116247   3.875   1.253  15.896  2.9472 -1.9139 -0.5588
 1538SOL    HW216248   4.007   1.298  15.945 -1.0163 -2.2584 -0.1871
 1539SOL     OW16249   3.409   2.893   3.421 -0.1331 -0.4373  0.1673
 1539SOL    HW116250   3.381   2.811   3.460  1.7274 -1.0763  0.1867
 1539SOL    HW216251   3.374   2.957   3.482 -2.0344  0.5575 -1.9455
 1540SOL     OW16252   3.754   2.194  13.168  0.3189  0.0360 -0.2428
 1540SOL    HW116253   3.764   2.099  13.166  0.6555  0.1001 -1.6411
 1540SOL    HW216254   3.827   2.216  13.110  0.8740 -1.8828 -0.2749
 1541SOL     OW16255   0.879   2.747   8.150  0.2557  0.4524  0.6695
 1541SOL    HW116256   0.873   2.748   8.246 -0.1550  0.0249  0.6456
 1541SOL    HW216257   0.970   2.717   8.146 -0.2597 -1.0471  0.6001
 1542SOL     OW16258   2.130   3.844   5.490 -0.6098  0.1660 -0.2739
 1542SOL    HW116259   2.194   3.773   5.487 -1.5253 -0.7439  1.7802
 1542SOL    HW216260   2.075   3.834   5.412  0.7733 -0.7296 -1.1439
 1543SOL     OW16261   2.289   1.205   9.540 -0.2993 -0.1045  0.4098
 1543SOL    HW116262   2.287   1.184   9.633 -0.9562 -0.7406  0.2559
 1543SOL    HW216263   2.345   1.138   9.501 -0.6281  0.2907 -0.7540
 1544SOL     OW16264   2.208   3.824  10.135  0.4353 -0.5427  0.6930
 1544SOL    HW116265   2.287   3.781  10.167  1.1814  0.1576 -0.1979
 1544SOL    HW216266   2.158   3.805  10.214  0.5917 -0.9010  0.7075
 1545SOL     OW16267   2.003   2.306  14.764  0.0226 -0.4890  0.0022
 1545SOL    HW116268   1.957   2.286  14.682 -0.4873  3.1276 -0.5962
 1545SOL    HW216269   1.992   2.229  14.820  0.9338 -1.4413 -1.1326
 1546SOL     OW16270   0.176   3.861   3.490  0.2578 -0.1131  0.5998
 1546SOL    HW116271   0.262   3.872   3.449  0.5400  0.5800  1.3794
 1546SOL    HW216272   0.147   3.952   3.498 -0.6729 -0.5031  1.6532
 1547SOL     OW16273   1.959   0.374   7.678 -0.3891 -0.0141 -0.0358
 1547SOL    HW116274   1.914   0.354   7.760  0.4071  1.8393  0.8450
 1547SOL    HW216275   1.956   0.468   7.666 -1.0778 -0.0894 -0.4134
 1548SOL     OW16276   0.589   4.294   7.833  0.4833  0.6235  0.2150
 1548SOL    HW116277   0.495   4.303   7.814  0.2917 -1.1296  0.2801
 1548SOL    HW216278   0.613   4.261   7.746 -2.0229 -0.5712 -0.0246
 1549SOL     OW16279   2.135   2.537   4.844 -0.1318 -0.2878 -0.0477
 1549SOL    HW116280   2.156   2.627   4.870 -1.7206 -0.1332  0.7486
 1549SOL    HW216281   2.088   2.554   4.762 -1.0574  0.3434  0.5988
 1550SOL     OW16282   1.533   2.883   7.661  0.2522 -0.1886  0.1017
 1550SOL    HW116283   1.514   2.977   7.664 -0.2361 -0.3070  0.7578
 1550SOL    HW216284   1.613   2.888   7.608  0.0950  2.4188  0.1119
 1551SOL     OW16285   3.033   1.231   0.242 -0.0734 -0.3827  0.2493
 1551SOL    HW116286   3.004   1.321   0.262  0.6789 -0.5571  2.2150
 1551SOL    HW216287   3.106   1.223   0.303  0.9561  0.5604 -0.8726
 1552SOL     OW16288   2.070   4.701   9.363  0.1617 -0.0042  0.3144
 1552SOL    HW116289   2.154   4.722   9.323 -0.5036  1.4645 -0.3085
 1552SOL    HW216290   2.096   4.645   9.437 -0.8413 -0.1713  0.5508
 1553SOL     OW16291   2.681   1.801   7.096 -0.5284 -0.1512 -0.3516
 1553SOL    HW116292   2.726   1.793   7.012  0.4426 -0.9618  0.2543
 1553SOL    HW216293   2.743   1.761   7.158 -1.5780 -0.0432  0.7789
 1554SOL     OW16294   1.427   3.578   4.122  0.2414 -0.2051  0.0750
 1554SOL    HW116295   1.473   3.662   4.114 -1.3417  0.6386  0.0241
 1554SOL    HW216296   1.343   3.608   4.089 -1.2182  0.4569  4.5248
 1555SOL     OW16297   2.476   0.629  11.608 -0.1887  0.2756 -0.4975
 1555SOL    HW116298   2.428   0.592  11.682  1.7161 -1.7173 -0.2648
 1555SOL    HW216299   2.450   0.721  11.616  0.1460  0.3676 -0.4468
 1556SOL     OW16300   1.506   4.544   7.917  0.0764  0.0598 -0.3700
 1556SOL    HW116301   1.544   4.487   7.984  1.0454 -0.6761 -1.5393
 1556SOL    HW216302   1.460   4.471   7.876  1.0735 -1.8937  1.9937
 1557SOL     OW16303   4.001   1.668   8.681 -0.2957 -0.0112 -0.0968
 1557SOL    HW116304   3.959   1.722   8.613  0.5010 -0.3627 -0.8780
 1557SOL    HW216305   4.082   1.719   8.686 -0.0983 -0.4325  0.8950
 1558SOL     OW16306   2.724   0.553   3.890  0.3549 -0.2739  0.5658
 1558SOL    HW116307   2.813   0.536   3.861  0.3090 -0.0314  0.2859
 1558SOL    HW216308   2.700   0.475   3.941  1.1055 -1.6867 -1.2652
 1559SOL     OW16309   0.917   1.021   2.784 -0.1691 -0.7325  0.4989
 1559SOL    HW116310   0.997   0.968   2.793  0.8831  0.9727  1.1935
 1559SOL    HW216311   0.901   1.018   2.690  1.5444 -0.3127  0.1931
 1560SOL     OW16312   4.161   1.797   2.945  0.3567 -0.0691 -0.4096
 1560SOL    HW116313   4.213   1.871   2.976 -0.0239  0.0915 -0.1540
 1560SOL    HW216314   4.091   1.852   2.908 -0.8891 -1.8034 -0.6289
 1561SOL     OW16315   2.828   3.705   0.483  0.5512  0.1572  0.4002
 1561SOL    HW116316   2.888   3.665   0.420  1.2082  1.0659  0.4423
 1561SOL    HW216317   2.866   3.678   0.567 -0.1636 -2.3486 -0.0961
 1562SOL     OW16318   1.469   0.639   1.543 -0.4133  0.0385 -0.5927
 1562SOL    HW116319   1.375   0.629   1.526 -0.0924  0.0280 -2.3307
 1562SOL    HW216320   1.501   0.552   1.521 -2.8479 -1.3080  1.1189
 1563SOL     OW16321   1.325   4.295   7.233 -0.6359 -1.1017 -0.3602
 1563SOL    HW116322   1.240   4.312   7.274 -0.9377 -0.7201 -1.1438
 1563SOL    HW216323   1.369   4.380   7.230 -2.7992  0.0229 -0.1449
 1564SOL     OW16324   1.045   2.635  15.424  0.1305  0.0946  0.4721
 1564SOL    HW116325   1.013   2.601  15.508  0.5259  0.4635  0.7708
 1564SOL    HW216326   1.080   2.556  15.383  1.0297  0.8360 -0.1603
 1565SOL     OW16327   4.631   1.322   2.422 -0.2891 -0.0952  0.5654
 1565SOL    HW116328   4.723   1.337   2.446 -0.3644  1.5448 -0.1862
 1565SOL    HW216329   4.600   1.409   2.398 -1.2347 -0.8158 -0.7899
 1566SOL     OW16330   2.925   4.617   0.633 -0.3724  0.1244  0.2358
 1566SOL    HW116331   2.934   4.567   0.714 -0.2906  0.5338  0.4819
 1566SOL    HW216332   2.841   4.582   0.605 -1.0018  2.3358 -0.6632
 1567SOL     OW16333   1.345   1.440  10.383  0.1704  0.1614 -0.1903
 1567SOL    HW116334   1.264   1.461  10.338  0.1408  1.6138  0.5285
 1567SOL    HW216335   1.409   1.480  10.324 -1.3911  2.8889 -0.0562
 1568SOL     OW16336   2.606   1.201   2.311  0.8602  0.3506 -0.2026
 1568SOL    HW116337   2.598   1.288   2.349 -0.0992 -0.5441  1.6767
 1568SOL    HW216338   2.555   1.210   2.231 -0.8408 -0.1603  0.8078
 1569SOL     OW16339   4.025   1.360   4.146  0.7079 -0.1329  0.8169
 1569SOL    HW116340   3.986   1.401   4.068 -0.2409 -1.9992  0.3236
 1569SOL    HW216341   3.952   1.305   4.175  0.6298 -0.6231 -0.3289
 1570SOL     OW16342   1.269   4.546   5.712 -0.0882 -0.0791  0.5277
 1570SOL    HW116343   1.221   4.600   5.775  0.4758 -0.4673  1.2899
 1570SOL    HW216344   1.358   4.574   5.735  0.3276 -0.7271 -0.3056
 1571SOL     OW16345   1.709   1.069   6.085  0.0745 -0.2938  0.3964
 1571SOL    HW116346   1.641   1.061   6.152 -0.1490 -0.7253  0.1198
 1571SOL    HW216347   1.687   1.150   6.040  0.3994 -0.2122  0.3845
 1572SOL     OW16348   0.159   1.389   3.327  0.1343  0.7063  0.2227
 1572SOL    HW116349   0.217   1.464   3.314  2.5692 -1.7718 -3.3850
 1572SOL    HW216350   0.075   1.433   3.342 -0.6171 -0.7968  0.3823
 1573SOL     OW16351   0.626   2.782  15.352  0.5682 -0.3391  0.4963
 1573SOL    HW116352   0.542   2.827  15.356  2.5201  3.4213 -0.7743
 1573SOL    HW216353   0.597   2.695  15.324 -0.9835  0.1615  0.5326
 1574SOL     OW16354   2.664   0.717   8.365 -0.0881  0.6364 -0.0420
 1574SOL    HW116355   2.699   0.629   8.352  0.8603  0.7868  1.5489
 1574SOL    HW216356   2.688   0.730   8.457  1.3482  1.4619 -0.5203
 1575SOL     OW16357   2.962   3.062  14.878  0.2663  0.3956 -0.4408
 1575SOL    HW116358   2.880   3.038  14.922 -0.1555 -1.0361 -2.0134
 1575SOL    HW216359   2.984   3.141  14.927 -0.9726 -0.9003  2.2102
 1576SOL     OW16360   3.608   0.726  10.179  0.6401  0.2306 -0.3962
 1576SOL    HW116361   3.512   0.722  10.178  0.5978  1.4738 -1.0565
 1576SOL    HW216362   3.617   0.821  10.171  1.3068  0.3527  1.8603
 1577SOL     OW16363   2.756   0.450   7.033 -0.1816  0.3591  0.0161
 1577SOL    HW116364   2.675   0.451   6.982  0.3140 -0.8422 -0.8041
 1577SOL    HW216365   2.792   0.379   6.979  0.1230  2.5806 -2.7021
 1578SOL     OW16366   0.277   3.667   8.287  0.3581  0.3163  0.0850
 1578SOL    HW116367   0.279   3.680   8.382 -2.0973 -1.3160  0.3546
 1578SOL    HW216368   0.372   3.668   8.272  0.2122  0.8972 -0.7786
 1579SOL     OW16369   1.057   4.690  15.017  0.6378 -0.5175  0.4006
 1579SOL    HW116370   1.000   4.665  15.090 -2.7584 -0.2066 -2.1379
 1579SOL    HW216371   1.002   4.668  14.943  1.7000  0.7246 -0.7550
 1580SOL     OW16372   3.486   3.358   5.911  0.4229 -0.8382 -0.1287
 1580SOL    HW116373   3.573   3.379   5.944  0.2285 -0.1671 -0.0383
 1580SOL    HW216374   3.440   3.329   5.990 -0.2555 -0.1472 -0.2726
 1581SOL     OW16375   0.395   1.261  14.105  0.2631  0.2764  0.5385
 1581SOL    HW116376   0.465   1.203  14.134 -1.4691 -0.6624  2.8616
 1581SOL    HW216377   0.321   1.200  14.116 -0.8187  1.2390 -1.3041
 1582SOL     OW16378   2.683   1.020   9.091 -0.2633 -0.1684 -0.0886
 1582SOL    HW116379   2.602   0.979   9.061 -1.2297  0.5336  1.5332
 1582SOL    HW216380   2.649   1.099   9.134  3.5664  1.3672  0.0651
 1583SOL     OW16381   4.563   1.335  12.148  0.1945 -0.5266 -0.1343
 1583SOL    HW116382   4.639   1.291  12.187  0.6658  1.0990  0.7788
 1583SOL    HW216383   4.585   1.427  12.164  1.0463 -0.3109 -2.4647
 1584SOL     OW16384   0.891   3.201   3.839  0.4827 -0.1765 -0.4119
 1584SOL    HW116385   0.864   3.109   3.836  2.0463 -0.6342 -0.3360
 1584SOL    HW216386   0.955   3.194   3.909 -0.5267 -1.2078  0.4029
 1585SOL     OW16387   0.699   3.867   7.414 -0.3681  0.9784 -0.5584
 1585SOL    HW116388   0.768   3.867   7.348  0.0250 -1.3510 -0.1429
 1585SOL    HW216389   0.743   3.828   7.489 -0.1051  2.6691  0.1783
 1586SOL     OW16390   3.143   3.217   3.284  0.2920 -0.7024  0.2332
 1586SOL    HW116391   3.087   3.255   3.216  1.2114  1.3928  0.6426
 1586SOL    HW216392   3.216   3.279   3.286 -0.8521  0.6275  1.2513
 1587SOL     OW16393   1.270   3.719   8.543 -0.1347 -0.0974  0.6803
 1587SOL    HW116394   1.244   3.730   8.635 -1.2018  1.1852  0.2197
 1587SOL    HW216395   1.191   3.736   8.491 -0.7571  1.1926  2.0491
 1588SOL     OW16396   3.300   3.235   8.570 -0.8072 -0.3492  0.6700
 1588SOL    HW116397   3.266   3.312   8.617  0.7523  0.1637  0.9509
 1588SOL    HW216398   3.274   3.168   8.633 -0.2614 -1.5876 -0.4469
 1589SOL     OW16399   0.147   4.249  14.749  0.6786 -0.1627 -0.4711
 1589SOL    HW116400   0.102   4.248  14.665 -1.0484 -0.6658  0.4510
 1589SOL    HW216401   0.193   4.165  14.750 -0.4044 -0.7492  0.0594
 1590SOL     OW16402   4.424   0.434   8.938 -0.3093  0.1824  0.0509
 1590SOL    HW116403   4.342   0.399   8.902  1.4552 -0.6628 -3.0910
 1590SOL    HW216404   4.403   0.439   9.032 -0.1749  4.7981 -0.1710
 1591SOL     OW16405   2.836   2.451   5.549 -0.2276  0.0419  0.2534
 1591SOL    HW116406   2.743   2.448   5.527  0.2507 -0.6066 -1.6411
 1591SOL    HW216407   2.872   2.515   5.488 -1.5889  0.5787 -0.0010
 1592SOL     OW16408   2.626   2.748   5.316  0.3171  0.1145  0.2357
 1592SOL    HW116409   2.623   2.664   5.271  0.6520  0.8839 -1.2102
 1592SOL    HW216410   2.561   2.743   5.387  1.1845 -0.7495  0.9625
 1593SOL     OW16411   2.794   3.975  11.851  0.1165  0.7285 -0.1233
 1593SOL    HW116412   2.742   4.054  11.839 -0.8704 -0.0592 -0.9966
 1593SOL    HW216413   2.792   3.966  11.946  2.7690  0.3341 -0.1140
 1594SOL     OW16414   1.686   0.469   3.759  0.0776  0.7294 -0.0309
 1594SOL    HW116415   1.761   0.429   3.714 -0.2414  0.2166 -0.1152
 1594SOL    HW216416   1.719   0.558   3.767 -0.2990  0.9234 -0.6136
 1595SOL     OW16417   2.635   2.308   6.865  0.4231  0.1386 -0.1428
 1595SOL    HW116418   2.600   2.384   6.911 -0.8805 -1.1889  1.0259
 1595SOL    HW216419   2.695   2.262   6.924  0.1921  2.2422  1.7045
 1596SOL     OW16420   2.156   0.418  11.927 -0.2778 -0.6687 -0.1960
 1596SOL    HW116421   2.101   0.357  11.977 -3.2217  2.0155 -0.1440
 1596SOL    HW216422   2.121   0.395  11.841  0.1542 -1.5156 -0.1445
 1597SOL     OW16423   0.322   3.347  13.341  0.2296  0.1999  0.0702
 1597SOL    HW116424   0.302   3.424  13.393  1.6575  0.9296 -0.4240
 1597SOL    HW216425   0.406   3.368  13.300 -0.7129 -0.0863 -2.0195
 1598SOL     OW16426   2.284   2.923  11.303  0.1633  0.5447 -0.1036
 1598SOL    HW116427   2.242   2.860  11.361 -0.5000  0.7469 -0.3619
 1598SOL    HW216428   2.205   2.974  11.283  0.5058  0.8322 -0.7493
 1599SOL     OW16429   1.978   3.539   4.527 -0.5191 -0.0598  0.5047
 1599SOL    HW116430   1.975   3.469   4.592 -1.4895 -0.5627 -0.0810
 1599SOL    HW216431   2.054   3.514   4.475 -0.3818 -1.3681  1.3347
 1600SOL     OW16432   4.477   2.366   7.298  0.3069  0.0429  0.1077
 1600SOL    HW116433   4.437   2.283   7.271  2.2702 -0.4426 -1.2825
 1600SOL    HW216434   4.420   2.395   7.369  0.4127 -0.6787  0.4925
 1601SOL     OW16435   3.053   4.590  10.743 -0.2103 -0.2190 -0.0233
 1601SOL    HW116436   3.030   4.624  10.829 -0.4410 -0.1234 -0.1218
 1601SOL    HW216437   3.118   4.520  10.752  0.5349  0.3233 -1.1718
 1602SOL     OW16438   4.317   3.795  11.444 -0.1910 -0.3056  0.3359
 1602SOL    HW116439   4.307   3.837  11.529  2.6073 -0.0485  0.5420
 1602SOL    HW216440   4.378   3.728  11.473 -0.0148 -0.5933 -0.7065
 1603SOL     OW16441   2.281   1.844  17.079  0.2149 -0.2006  0.1557
 1603SOL    HW116442   2.252   1.765  17.126  0.0760 -0.2325  0.0179
 1603SOL    HW216443   2.262   1.819  16.989  1.7721 -0.8229  0.0033
 1604SOL     OW16444   1.569   3.376   4.013 -0.0571  0.2130 -0.4221
 1604SOL    HW116445   1.662   3.374   4.036 -0.4596 -3.0314  0.9627
 1604SOL    HW216446   1.528   3.444   4.066  0.2085 -1.3281  1.7700
 1605SOL     OW16447   0.656   4.615   9.024  0.2806 -0.8762  0.1921
 1605SOL    HW116448   0.615   4.694   9.057 -1.3079 -1.5754 -0.0879
 1605SOL    HW216449   0.608   4.602   8.942  0.9270 -0.7839 -0.1994
 1606SOL     OW16450   1.502   2.507   4.613  0.5905 -0.5284 -0.0104
 1606SOL    HW116451   1.595   2.503   4.593  0.9244  1.4634  1.1826
 1606SOL    HW216452   1.460   2.439   4.560 -1.0393  1.1445 -0.8471
 1607SOL     OW16453   0.125   2.365  12.642  0.2299 -0.0023  0.4682
 1607SOL    HW116454   0.056   2.302  12.624  0.0132  0.5140 -0.5172
 1607SOL    HW216455   0.084   2.422  12.706  1.6721  0.3307  1.0993
 1608SOL     OW16456   1.821   3.742   2.505 -1.2713  0.0558  0.2864
 1608SOL    HW116457   1.844   3.814   2.446  0.6080 -0.1036  0.8201
 1608SOL    HW216458   1.870   3.768   2.584 -1.0771 -0.5498  0.3617
 1609SOL     OW16459   0.977   0.483   1.621 -0.0441  0.0450 -0.3056
 1609SOL    HW116460   0.968   0.496   1.715  0.1635 -2.2382  0.0210
 1609SOL    HW216461   1.052   0.425   1.615 -0.5582 -0.9039  2.8893
 1610SOL     OW16462   2.264   3.624   3.601  0.1836 -0.0599 -0.2955
 1610SOL    HW116463   2.315   3.548   3.571 -0.1815 -0.4381  0.0492
 1610SOL    HW216464   2.287   3.621   3.694 -1.1401 -0.6341  0.0082
 1611SOL     OW16465   0.490   2.839   0.159 -0.1815  0.1582  0.2807
 1611SOL    HW116466   0.505   2.840   0.065  1.0610 -0.2407  0.4649
 1611SOL    HW216467   0.539   2.762   0.189  0.0158 -0.1823 -0.9238
 1612SOL     OW16468   0.186   1.213   6.911 -0.1131 -0.7839 -0.0962
 1612SOL    HW116469   0.223   1.302   6.911  0.0075 -0.8341 -0.2571
 1612SOL    HW216470   0.093   1.233   6.924  0.5169  2.8330 -1.0596
 1613SOL     OW16471   1.985   3.841   4.362  0.3328 -0.1798 -0.4300
 1613SOL    HW116472   2.075   3.809   4.368  0.3153  0.0369  1.0557
 1613SOL    HW216473   2.000   3.928   4.399  1.1668 -1.4298  2.1564
 1614SOL     OW16474   4.009   1.302   3.698  0.2106 -0.2529  0.1078
 1614SOL    HW116475   4.009   1.381   3.752  0.1742 -1.5881  2.0571
 1614SOL    HW216476   4.027   1.335   3.610 -1.6528  1.1685  0.2537
 1615SOL     OW16477   0.195   1.907   2.207 -0.7372  0.0554 -0.2727
 1615SOL    HW116478   0.153   1.822   2.226 -1.3409  0.3965 -0.0820
 1615SOL    HW216479   0.239   1.919   2.292 -0.1997 -3.9900  0.0451
 1616SOL     OW16480   2.583   1.269   7.997  0.3533  0.0141 -0.5317
 1616SOL    HW116481   2.580   1.195   7.937 -2.5224 -2.1807  2.3398
 1616SOL    HW216482   2.575   1.220   8.079 -0.3617  0.5526 -0.2704
 1617SOL     OW16483   3.879   0.759   8.488  0.5732  0.0837 -0.1723
 1617SOL    HW116484   3.798   0.793   8.525 -0.1454  0.6716 -2.2552
 1617SOL    HW216485   3.902   0.700   8.560  0.7792  0.9188  0.4331
 1618SOL     OW16486   3.425   4.014   0.694 -0.1299  0.4765 -0.1244
 1618SOL    HW116487   3.348   4.070   0.688  0.1813  0.7492 -1.5010
 1618SOL    HW216488   3.493   4.078   0.673  1.8256 -2.0041 -1.3435
 1619SOL     OW16489   1.587   0.337   9.899 -0.0637  0.1591 -0.2824
 1619SOL    HW116490   1.682   0.339   9.882 -0.0394 -1.2340 -0.3058
 1619SOL    HW216491   1.599   0.354   9.992  1.6330 -0.2139 -0.4315
 1620SOL     OW16492   1.083   3.737   9.440 -0.2475 -0.7573 -0.3822
 1620SOL    HW116493   1.132   3.664   9.477 -0.4321 -0.4983  0.3825
 1620SOL    HW216494   1.139   3.810   9.468  1.1233 -0.6505 -3.4247
 1621SOL     OW16495   1.269   4.684   4.504  0.2886 -0.1670  0.5659
 1621SOL    HW116496   1.176   4.703   4.491  1.1622  2.3185 -2.0646
 1621SOL    HW216497   1.263   4.614   4.570 -0.4247  1.0268  1.7680
 1622SOL     OW16498   0.952   0.361   1.238 -0.7488 -0.2270  0.2502
 1622SOL    HW116499   0.930   0.454   1.228 -1.5648 -0.3356  1.0419
 1622SOL    HW216500   0.868   0.324   1.267 -0.9333  0.5070  0.6530
 1623SOL     OW16501   0.957   2.365   5.971  0.2861  0.0530  0.0816
 1623SOL    HW116502   0.876   2.416   5.976 -0.0652 -0.7611  3.0516
 1623SOL    HW216503   0.925   2.301   5.907  1.0581  0.6147 -0.8603
 1624SOL     OW16504   1.020   4.083  13.191 -0.0230  0.3739 -0.3120
 1624SOL    HW116505   1.075   4.157  13.167 -1.2678  1.0251 -1.1892
 1624SOL    HW216506   0.991   4.114  13.277 -1.5282  0.9592 -1.0187
 1625SOL     OW16507   3.463   4.300   5.507 -0.1757 -0.2393  0.5022
 1625SOL    HW116508   3.472   4.264   5.419  1.6881 -1.0652  1.0236
 1625SOL    HW216509   3.552   4.309   5.542 -0.5213  1.2271  1.0008
 1626SOL     OW16510   0.008   2.407  10.788  0.1643  0.1208  0.2485
 1626SOL    HW116511   4.736   2.492  10.745  1.9878  1.3412  2.0719
 1626SOL    HW216512   0.051   2.435  10.868 -0.4926  4.1412 -0.7917
 1627SOL     OW16513   1.872   2.729   5.202 -0.5825 -0.6762 -0.1012
 1627SOL    HW116514   1.934   2.798   5.224 -1.2601 -0.4421  1.1183
 1627SOL    HW216515   1.824   2.721   5.285  0.6676 -0.4105  0.6500
 1628SOL     OW16516   4.302   1.599   4.966 -0.3471 -0.0860  0.0420
 1628SOL    HW116517   4.336   1.685   4.992  2.4130 -0.8622 -1.1001
 1628SOL    HW216518   4.325   1.598   4.874 -0.1232 -0.2552  0.1014
 1629SOL     OW16519   3.091   0.116  14.362 -0.2111 -0.2023 -0.2199
 1629SOL    HW116520   3.067   0.116  14.269  1.9582 -1.2357 -0.7753
 1629SOL    HW216521   3.020   0.063  14.399 -0.0978  0.0516  0.3504
 1630SOL     OW16522   2.208   3.985   1.090 -0.0613 -0.0780 -0.7904
 1630SOL    HW116523   2.260   4.064   1.104  2.2563 -1.9544  1.2592
 1630SOL    HW216524   2.118   4.016   1.080  0.6056  2.0315 -0.2456
 1631SOL     OW16525   0.916   1.320   9.497 -0.4399 -0.3347 -0.2798
 1631SOL    HW116526   0.936   1.243   9.443 -0.0272  0.6142 -1.4722
 1631SOL    HW216527   0.821   1.318   9.500 -0.4555  0.3369 -0.4465
 1632SOL     OW16528   3.520   3.344   8.424 -0.1202 -0.2441 -0.5733
 1632SOL    HW116529   3.458   3.407   8.388 -0.1050  0.3643  0.4588
 1632SOL    HW216530   3.463   3.308   8.493  2.1780 -0.2538  1.3163
 1633SOL     OW16531   0.790   2.651   9.641 -0.0069  0.2897  0.0537
 1633SOL    HW116532   0.738   2.696   9.575 -1.6457  1.2303  1.9834
 1633SOL    HW216533   0.807   2.568   9.595  1.0923  0.9809 -0.7739
 1634SOL     OW16534   2.471   2.058   2.492 -0.2907  0.2378 -0.4620
 1634SOL    HW116535   2.414   2.135   2.494 -1.9190 -1.0493  2.0246
 1634SOL    HW216536   2.402   1.995   2.511 -0.3095  0.5622  0.5529
 1635SOL     OW16537   0.361   1.987   7.229  0.2544 -0.2263 -0.0697
 1635SOL    HW116538   0.282   1.941   7.199 -0.0431 -0.3034  0.8408
 1635SOL    HW216539   0.356   1.967   7.322  0.8384  0.1392  0.0388
 1636SOL     OW16540   4.115   3.591  16.663 -0.2480 -0.4465 -0.9533
 1636SOL    HW116541   4.042   3.534  16.689  0.3230 -0.3715  0.7593
 1636SOL    HW216542   4.064   3.670  16.645 -0.3388  0.1335  1.8845
 1637SOL     OW16543   2.632   4.559   2.022 -0.3908 -0.5337  0.2485
 1637SOL    HW116544   2.552   4.561   2.075 -0.9934 -0.2744 -0.6821
 1637SOL    HW216545   2.644   4.646   1.984  0.1268 -1.0171 -0.7002
 1638SOL     OW16546   3.948   3.069   4.491  0.3576 -0.0511  0.2107
 1638SOL    HW116547   3.968   3.136   4.556 -0.1419  0.6027 -0.3076
 1638SOL    HW216548   4.035   3.059   4.450  0.3822  1.7884 -0.1867
 1639SOL     OW16549   0.616   3.753   4.929 -0.2600 -0.0383 -0.0301
 1639SOL    HW116550   0.708   3.769   4.948 -1.0097  3.2165  0.9279
 1639SOL    HW216551   0.607   3.749   4.834 -1.2525  0.6844  0.0274
 1640SOL     OW16552   2.935   2.649  17.184  0.5900 -0.6925  0.1868
 1640SOL    HW116553   2.878   2.703  17.240  1.7242  0.0102  0.6600
 1640SOL    HW216554   2.873   2.576  17.175  0.2838 -0.2085 -1.4980
 1641SOL     OW16555   1.606   3.296  17.679 -0.1855 -0.1625 -0.1011
 1641SOL    HW116556   1.662   3.299  17.756  1.5281 -1.3613 -1.2961
 1641SOL    HW216557   1.668   3.275  17.610  0.9176  1.8166  0.2810
 1642SOL     OW16558   0.019   3.123  10.909  1.3926  0.1174  0.0835
 1642SOL    HW116559   4.716   3.039  10.912  1.4626  0.1217  1.0082
 1642SOL    HW216560   4.735   3.148  10.997 -0.8206  0.9894 -0.8078
 1643SOL     OW16561   2.845   1.382  11.238 -0.7536  0.1264  0.9239
 1643SOL    HW116562   2.939   1.398  11.248 -0.5959  0.0895 -0.5513
 1643SOL    HW216563   2.832   1.324  11.313  1.5456 -0.8404  0.5946
 1644SOL     OW16564   1.675   0.022   1.657  0.0204 -0.0873 -0.6059
 1644SOL    HW116565   1.667   4.684   1.604 -0.2546  0.6005 -1.5874
 1644SOL    HW216566   1.739   0.067   1.602  0.9008  1.0968  1.3920
 1645SOL     OW16567   4.112   3.286   8.602 -0.3400 -0.7467  0.4300
 1645SOL    HW116568   4.111   3.333   8.518 -1.4630 -0.4989  0.5742
 1645SOL    HW216569   4.030   3.327   8.631 -1.5326 -1.8744 -1.3181
 1646SOL     OW16570   0.358   3.224   5.115  0.6136  0.0989 -0.1036
 1646SOL    HW116571   0.270   3.220   5.077 -0.1428  1.4896  1.4970
 1646SOL    HW216572   0.395   3.309   5.094 -1.3805  0.6824 -1.2961
 1647SOL     OW16573   3.412   4.309   9.216  0.2861 -0.1818  0.4460
 1647SOL    HW116574   3.365   4.392   9.226 -1.1119 -0.8355 -0.6132
 1647SOL    HW216575   3.355   4.256   9.271  1.8579 -0.5595  1.7081
 1648SOL     OW16576   0.733   4.075   4.827  0.0331 -0.3317 -0.3592
 1648SOL    HW116577   0.810   4.061   4.772  2.0408 -0.2509  2.4630
 1648SOL    HW216578   0.758   4.036   4.911 -1.7946 -0.7586 -0.0098
 1649SOL     OW16579   2.874   4.681   7.706  0.0998 -0.6500  0.3968
 1649SOL    HW116580   2.902   0.020   7.750 -1.1799 -0.0727  0.1462
 1649SOL    HW216581   2.796   4.707   7.657 -0.3706  0.0234  1.5138
 1650SOL     OW16582   2.285   4.614   6.997 -0.4880 -0.3030  0.5278
 1650SOL    HW116583   2.220   4.649   7.057 -0.9734  1.0430 -0.7744
 1650SOL    HW216584   2.338   4.560   7.056  0.2443  1.4579  1.4954
 1651SOL     OW16585   1.843   2.799  10.341 -0.3019  0.1091  0.1081
 1651SOL    HW116586   1.914   2.743  10.309  0.0820  1.0418 -0.6428
 1651SOL    HW216587   1.773   2.743  10.309  1.3498 -0.4165 -2.5451
 1652SOL     OW16588   0.301   3.620   2.112 -0.4919 -0.3923 -0.1455
 1652SOL    HW116589   0.300   3.698   2.168 -0.3987 -0.3746 -0.1675
 1652SOL    HW216590   0.332   3.544   2.163 -1.3598 -0.6732 -0.0457
 1653SOL     OW16591   0.645   2.820  11.479  0.5228  0.4243 -0.3083
 1653SOL    HW116592   0.579   2.846  11.544  0.8290 -1.6360  0.8382
 1653SOL    HW216593   0.704   2.896  11.479 -2.4259  2.7466  1.4947
 1654SOL     OW16594   0.800   4.638  16.905 -0.7082  0.4638 -0.0860
 1654SOL    HW116595   0.706   4.651  16.911 -0.9119 -1.0211 -0.1229
 1654SOL    HW216596   0.804   4.581  16.828 -5.0760 -3.0971  2.3918
 1655SOL     OW16597   2.089   2.772  16.267  0.7158  0.0700  0.4791
 1655SOL    HW116598   2.146   2.813  16.332  1.3298 -2.2480  1.3970
 1655SOL    HW216599   2.157   2.731  16.215  0.7190  0.6372  0.0373
 1656SOL     OW16600   1.195   2.411  15.087 -0.3867 -0.2180 -0.0135
 1656SOL    HW116601   1.180   2.379  15.176 -0.0450  0.9091  0.4484
 1656SOL    HW216602   1.234   2.498  15.094  0.7219 -0.8926  2.2508
 1657SOL     OW16603   4.478   4.366   6.655  0.0194  0.5694 -0.2190
 1657SOL    HW116604   4.553   4.423   6.671  1.1574 -1.3843  1.5374
 1657SOL    HW216605   4.410   4.430   6.634  1.2944  2.0277  0.1336
 1658SOL     OW16606   4.190   4.092   5.321  0.0175  0.0056  0.1701
 1658SOL    HW116607   4.172   4.178   5.284 -1.1964 -0.6345 -0.7523
 1658SOL    HW216608   4.105   4.058   5.349 -0.6537  1.7607  0.2293
 1659SOL     OW16609   4.093   4.320   5.913  0.2175  0.4501  0.3874
 1659SOL    HW116610   4.025   4.256   5.931 -1.5044  2.7263  1.9398
 1659SOL    HW216611   4.046   4.395   5.949  1.5166  0.2911  2.4392
 1660SOL     OW16612   1.208   2.739   9.989 -0.5108 -0.2082  0.2326
 1660SOL    HW116613   1.169   2.778   9.911 -0.0680 -0.6328 -0.1963
 1660SOL    HW216614   1.198   2.811  10.052  0.9656  2.0703 -2.1545
 1661SOL     OW16615   2.650   3.505   2.610  0.2498  0.0809 -0.2766
 1661SOL    HW116616   2.650   3.550   2.525 -0.1995 -0.2361 -0.4459
 1661SOL    HW216617   2.577   3.442   2.611 -1.4747  2.1146  0.3911
 1662SOL     OW16618   3.307   4.040   8.815 -0.3898  0.0169 -0.3046
 1662SOL    HW116619   3.384   4.005   8.770  0.2672  1.8897 -0.6240
 1662SOL    HW216620   3.342   4.044   8.904  1.3171  2.8207 -1.1349
 1663SOL     OW16621   1.771   2.461  14.318  0.5064  0.2727 -0.9412
 1663SOL    HW116622   1.707   2.486  14.251 -0.0451 -0.1631 -0.5860
 1663SOL    HW216623   1.838   2.526  14.298 -0.1580  1.2798  0.0413
 1664SOL     OW16624   0.852   1.205   8.846 -0.1767  0.0579  0.5800
 1664SOL    HW116625   0.864   1.183   8.754 -1.6149 -1.0836  0.6616
 1664SOL    HW216626   0.927   1.158   8.882 -0.0686 -2.1746 -2.5079
 1665SOL     OW16627   2.479   3.334   1.220 -0.6130 -0.6451 -0.1183
 1665SOL    HW116628   2.543   3.267   1.198  0.7498  0.8958 -0.8355
 1665SOL    HW216629   2.461   3.323   1.313 -1.8808  3.7642  0.1653
 1666SOL     OW16630   0.388   0.858   1.474  0.2052 -0.2005 -0.1632
 1666SOL    HW116631   0.424   0.877   1.388 -1.4709 -0.5494 -0.9418
 1666SOL    HW216632   0.430   0.924   1.530 -0.5239 -0.1567  0.3439
 1667SOL     OW16633   0.120   1.809  16.572  0.5870 -0.4907  0.3532
 1667SOL    HW116634   0.104   1.728  16.621 -2.0485  0.5947  1.2925
 1667SOL    HW216635   0.033   1.848  16.563  1.1698  0.5974 -0.6072
 1668SOL     OW16636   1.197   4.336   2.778  0.6100 -0.1229  0.4881
 1668SOL    HW116637   1.268   4.344   2.842 -0.4226 -2.5708  1.9449
 1668SOL    HW216638   1.156   4.259   2.819 -0.2714  0.6555  1.0878
 1669SOL     OW16639   1.251   1.156   6.846  0.2488  0.4729  0.2618
 1669SOL    HW116640   1.249   1.237   6.897 -0.8316  1.1185 -0.7941
 1669SOL    HW216641   1.158   1.154   6.823  0.3089 -1.4707  0.2166
 1670SOL     OW16642   1.577   4.393   2.442  0.3003  0.4004 -0.0788
 1670SOL    HW116643   1.543   4.433   2.522 -0.2955 -2.5583  1.1674
 1670SOL    HW216644   1.606   4.314   2.489 -3.1108 -1.1221 -0.5565
 1671SOL     OW16645   1.076   1.066   6.245  0.0819 -0.4839 -0.4883
 1671SOL    HW116646   1.041   1.129   6.181 -1.0045  0.3778  0.9579
 1671SOL    HW216647   1.126   1.015   6.181  1.8454  1.6198 -0.8040
 1672SOL     OW16648   0.997   2.486   9.299 -0.0312 -0.3619 -0.1269
 1672SOL    HW116649   0.959   2.407   9.260 -0.6514  1.0207 -2.3273
 1672SOL    HW216650   0.959   2.480   9.386 -0.7277  0.3869 -0.3876
 1673SOL     OW16651   1.776   0.254   1.835 -0.1589  0.6874  0.2732
 1673SOL    HW116652   1.747   0.299   1.755  0.3788  0.5047 -0.0212
 1673SOL    HW216653   1.701   0.199   1.857 -0.5548  1.2768  0.4040
 1674SOL     OW16654   2.663   2.960  14.348  0.0355  0.1292 -0.0161
 1674SOL    HW116655   2.688   2.928  14.435 -0.8313  2.1404  0.9547
 1674SOL    HW216656   2.603   3.031  14.368  0.0522  0.5359 -1.4179
 1675SOL     OW16657   3.280   1.205   8.437 -0.5500  0.1278 -0.2478
 1675SOL    HW116658   3.275   1.271   8.368  1.0270  0.4477 -0.0548
 1675SOL    HW216659   3.363   1.159   8.423 -1.2033 -1.7143  1.8557
 1676SOL     OW16660   3.517   0.581   6.500 -0.3061 -0.4640 -0.2761
 1676SOL    HW116661   3.453   0.616   6.438 -0.2578 -0.6256 -0.4163
 1676SOL    HW216662   3.476   0.608   6.583  1.1423  0.3654  0.1642
 1677SOL     OW16663   2.420   3.934   9.347  0.0222 -0.0554  0.0757
 1677SOL    HW116664   2.433   4.027   9.365  1.8568  0.0000 -1.6189
 1677SOL    HW216665   2.480   3.896   9.412 -1.6674 -0.9105  1.1380
 1678SOL     OW16666   0.161   1.628   1.675 -0.0921  0.2268  0.5760
 1678SOL    HW116667   0.096   1.653   1.610  2.0806  2.1852 -0.8316
 1678SOL    HW216668   0.166   1.703   1.735  0.7229 -0.5720  1.4986
 1679SOL     OW16669   0.121   0.579  11.001  0.5435 -0.3498 -0.2460
 1679SOL    HW116670   0.110   0.487  11.024 -1.1463  0.3972  1.9842
 1679SOL    HW216671   0.133   0.621  11.086 -1.0269  0.1863 -0.2802
 1680SOL     OW16672   0.087   3.127  14.653 -0.1567  0.3227  0.2104
 1680SOL    HW116673   0.023   3.157  14.589 -0.4147  1.1024  0.8315
 1680SOL    HW216674   0.150   3.082  14.597 -0.8872  2.3676 -2.2924
 1681SOL     OW16675   2.905   2.268   4.003  0.0095 -0.3198  0.4264
 1681SOL    HW116676   2.949   2.280   3.919  2.6781 -0.6031  1.7703
 1681SOL    HW216677   2.815   2.295   3.987 -0.2960 -0.1886  2.3786
 1682SOL     OW16678   0.559   3.596   0.331  0.0105  0.0716  0.7915
 1682SOL    HW116679   0.465   3.613   0.326 -0.0844 -0.4655  0.7597
 1682SOL    HW216680   0.555   3.508   0.370  1.1634  0.0028  0.7599
 1683SOL     OW16681   0.708   4.077   3.770  0.6380  0.5220 -0.2347
 1683SOL    HW116682   0.796   4.104   3.795  0.4615 -1.1788  2.1536
 1683SOL    HW216683   0.677   4.075   3.860 -0.2638  2.7806 -0.4879
 1684SOL     OW16684   4.012   1.130  11.888 -0.4380 -0.0204  0.3825
 1684SOL    HW116685   3.922   1.154  11.865 -0.9297 -1.4719  0.7740
 1684SOL    HW216686   4.027   1.199  11.953  0.3120  0.7713 -0.6317
 1685SOL     OW16687   0.435   2.855   3.818  0.1910  0.3420  0.4419
 1685SOL    HW116688   0.400   2.790   3.879  1.1611  0.5698  1.2487
 1685SOL    HW216689   0.511   2.816   3.775 -0.1074  0.8133 -0.5093
 1686SOL     OW16690   0.677   3.086   5.062 -0.4063  0.4106  0.2007
 1686SOL    HW116691   0.730   3.077   4.983  2.0426 -0.4693  1.9368
 1686SOL    HW216692   0.609   3.142   5.026 -0.9906  0.4693  1.3908
 1687SOL     OW16693   2.304   1.618   9.213  0.0104 -0.5707  0.0071
 1687SOL    HW116694   2.271   1.692   9.162 -1.7321  0.3344  2.4490
 1687SOL    HW216695   2.255   1.615   9.295  0.7134 -0.9800  0.4148
 1688SOL     OW16696   3.092   2.654   9.307 -0.2519 -0.4021 -0.0157
 1688SOL    HW116697   3.093   2.750   9.309  2.4328 -0.4205 -0.5402
 1688SOL    HW216698   3.147   2.633   9.382 -3.5022  0.0096  2.4637
 1689SOL     OW16699   0.648   4.340   7.470 -0.1365  0.7345  0.3229
 1689SOL    HW116700   0.557   4.332   7.441  0.7151 -1.7849 -1.5956
 1689SOL    HW216701   0.697   4.396   7.410 -1.4780  2.5333  0.8913
 1690SOL     OW16702   4.447   2.929   1.222  0.2456  0.4164 -0.0721
 1690SOL    HW116703   4.516   2.978   1.266  0.1437  1.4263 -1.0617
 1690SOL    HW216704   4.435   2.856   1.284  0.3010  0.0220 -0.5241
 1691SOL     OW16705   4.155   0.950   6.226  0.1717  0.0290  0.4823
 1691SOL    HW116706   4.123   0.952   6.316 -0.4979  1.2105  0.2316
 1691SOL    HW216707   4.138   1.042   6.203 -0.0911  0.0896  0.9074
 1692SOL     OW16708   1.341   1.028  11.293  0.2279 -0.2311 -0.1489
 1692SOL    HW116709   1.410   1.089  11.268  0.3721 -0.4363 -0.2400
 1692SOL    HW216710   1.394   0.949  11.291 -1.1845 -1.1227 -2.2400
 1693SOL     OW16711   3.443   3.876   7.362  0.0611  0.1775  0.7110
 1693SOL    HW116712   3.445   3.885   7.267  0.1703 -1.8305  0.5358
 1693SOL    HW216713   3.539   3.880   7.366  0.1376 -1.3111  0.1391
 1694SOL     OW16714   1.245   2.491   5.482 -0.4000  0.2349 -0.4780
 1694SOL    HW116715   1.306   2.540   5.537  2.5915 -2.0920 -1.6495
 1694SOL    HW216716   1.181   2.466   5.548  0.4350 -0.9179 -0.1047
 1695SOL     OW16717   2.137   1.994   0.660 -0.0796 -0.5248  0.0253
 1695SOL    HW116718   2.129   2.047   0.581 -0.5084  1.0242  1.1089
 1695SOL    HW216719   2.053   2.005   0.704  0.1334  1.2487 -0.0083
 1696SOL     OW16720   4.417   3.294   1.543 -0.0028  0.2970 -0.3387
 1696SOL    HW116721   4.446   3.354   1.611  0.1797  1.1418 -1.1559
 1696SOL    HW216722   4.423   3.351   1.466  0.6184 -1.3781 -1.5172
 1697SOL     OW16723   1.782   3.072   6.224  0.1594  0.3098 -0.6169
 1697SOL    HW116724   1.689   3.050   6.214 -0.6118  2.7366  0.9915
 1697SOL    HW216725   1.772   3.093   6.317  0.5020 -0.5467 -0.3902
 1698SOL     OW16726   0.733   2.962   3.911  0.0747 -0.1286 -0.0877
 1698SOL    HW116727   0.679   2.922   3.843  0.8206 -1.1925 -0.0473
 1698SOL    HW216728   0.723   2.895   3.978  1.0756 -0.4182 -0.2354
 1699SOL     OW16729   1.259   2.515   2.760 -0.3762  0.0267  0.1525
 1699SOL    HW116730   1.273   2.588   2.699  2.2537  0.0425  0.8025
 1699SOL    HW216731   1.222   2.558   2.837  0.2551  2.2814 -0.8006
 1700SOL     OW16732   4.565   1.751   7.706 -0.0799  0.2372  0.3214
 1700SOL    HW116733   4.560   1.834   7.752 -1.4079 -0.6909  1.8518
 1700SOL    HW216734   4.482   1.719   7.740  0.0131  0.2847  0.5946
 1701SOL     OW16735   0.778   1.547   3.267  0.7185  0.0558 -0.7531
 1701SOL    HW116736   0.739   1.460   3.256 -2.1414  1.2575 -0.1899
 1701SOL    HW216737   0.700   1.601   3.282  1.4091  0.2049  2.4774
 1702SOL     OW16738   4.524   1.156   6.227 -0.6246 -0.0020  0.5093
 1702SOL    HW116739   4.544   1.089   6.293 -0.7773 -1.3000 -0.7574
 1702SOL    HW216740   4.429   1.165   6.231 -0.7977 -2.0385  0.9798
 1703SOL     OW16741   1.155   1.111   8.632 -0.2025 -0.2238 -0.4793
 1703SOL    HW116742   1.131   1.202   8.649  3.5754  0.8403 -0.7904
 1703SOL    HW216743   1.081   1.072   8.585  0.7561 -2.2999 -0.2454
 1704SOL     OW16744   1.032   3.560   3.227  0.2096 -0.5807  0.1568
 1704SOL    HW116745   0.940   3.580   3.208  0.2813  1.1193  1.6116
 1704SOL    HW216746   1.066   3.647   3.246  0.1580 -0.4208 -0.4549
 1705SOL     OW16747   3.540   0.112   5.345 -0.2576 -0.1437 -0.1752
 1705SOL    HW116748   3.548   0.189   5.401 -0.9218  0.1067 -0.4278
 1705SOL    HW216749   3.528   0.042   5.410 -1.3559 -0.8561 -1.1331
 1706SOL     OW16750   0.124   0.448   6.255 -0.4579  0.1778 -0.2330
 1706SOL    HW116751   0.175   0.513   6.303 -2.2279  1.2716  0.1757
 1706SOL    HW216752   0.060   0.509   6.218  2.0809  1.4827 -2.4906
 1707SOL     OW16753   2.098   0.457   4.360  0.6497  0.0886  0.4882
 1707SOL    HW116754   2.060   0.409   4.287  0.8097 -1.8887  1.7110
 1707SOL    HW216755   2.164   0.389   4.373 -1.9147 -2.5861 -0.4878
 1708SOL     OW16756   0.777   3.274   8.457 -0.7102 -0.5298  0.1038
 1708SOL    HW116757   0.762   3.264   8.363  0.9151 -1.5987 -0.0232
 1708SOL    HW216758   0.683   3.274   8.476 -0.6404 -0.5858  0.4395
 1709SOL     OW16759   0.422   1.679   2.593  0.0512  0.4007 -0.0066
 1709SOL    HW116760   0.367   1.716   2.524  0.4710  0.9424 -0.0504
 1709SOL    HW216761   0.446   1.754   2.646 -0.2262  2.3605 -2.6418
 1710SOL     OW16762   0.757   2.537   9.922  0.2441 -0.1517  0.1897
 1710SOL    HW116763   0.796   2.546   9.835 -1.8153  0.3622 -0.6721
 1710SOL    HW216764   0.704   2.458   9.916 -0.5551  0.3395  0.7895
 1711SOL     OW16765   2.577   2.511   6.236 -0.3766  0.1400  0.3367
 1711SOL    HW116766   2.541   2.426   6.209 -0.1741 -0.0367  0.6175
 1711SOL    HW216767   2.662   2.476   6.264  0.9311  2.1498 -1.1715
 1712SOL     OW16768   4.093   2.017   8.947  0.4399  0.2765  0.3995
 1712SOL    HW116769   4.083   2.031   9.041 -3.1376 -0.8685  0.1895
 1712SOL    HW216770   4.002   1.998   8.924  0.8818 -2.1922  0.6394
 1713SOL     OW16771   1.140   3.211   9.297 -0.2527 -0.1272  0.0923
 1713SOL    HW116772   1.117   3.293   9.341 -4.8567 -2.1227  1.3968
 1713SOL    HW216773   1.235   3.218   9.307 -0.4104 -0.0703  1.6735
 1714SOL     OW16774   0.364   1.762  13.623 -0.1081  0.6133 -1.1477
 1714SOL    HW116775   0.273   1.792  13.614 -0.3578  0.0194 -0.5859
 1714SOL    HW216776   0.344   1.689  13.682  0.3793  2.1329  0.9184
 1715SOL     OW16777   1.476   3.471   5.041 -0.5983  0.0741 -0.0491
 1715SOL    HW116778   1.542   3.435   5.100 -0.9617  0.7093  0.7391
 1715SOL    HW216779   1.447   3.547   5.091 -0.1992 -0.3808  0.8811
 1716SOL     OW16780   0.560   2.667   9.453 -0.1912  0.2860 -0.1565
 1716SOL    HW116781   0.482   2.721   9.437  0.2599  0.1934 -2.7528
 1716SOL    HW216782   0.522   2.586   9.418 -0.1338 -0.6122  1.8833
 1717SOL     OW16783   4.658   3.600  12.887  0.1096 -0.5767  0.3062
 1717SOL    HW116784   4.604   3.635  12.958  0.7523  1.8669 -0.4072
 1717SOL    HW216785   4.617   3.515  12.873  0.3064 -0.2633 -2.2095
 1718SOL     OW16786   2.712   0.593   7.957 -0.0621  0.1403 -0.1557
 1718SOL    HW116787   2.661   0.673   7.941 -0.0014  0.0297 -0.9383
 1718SOL    HW216788   2.666   0.541   8.023  0.8402 -0.7204 -0.2225
 1719SOL     OW16789   4.539   4.519  16.773 -0.3520  0.0693  0.1186
 1719SOL    HW116790   4.460   4.520  16.719 -1.1621 -0.5893  1.2855
 1719SOL    HW216791   4.544   4.614  16.783 -0.8417  0.0563  0.4928
 1720SOL     OW16792   1.171   2.867   6.174  0.2003 -0.1061  0.4727
 1720SOL    HW116793   1.153   2.896   6.084  2.8228  0.9253  0.2838
 1720SOL    HW216794   1.085   2.835   6.199 -0.4203  0.9046 -0.3815
 1721SOL     OW16795   1.566   2.421   8.836 -0.4565  0.1920 -0.1723
 1721SOL    HW116796   1.598   2.488   8.775 -0.7901 -0.3960 -0.9909
 1721SOL    HW216797   1.493   2.389   8.783 -0.0914 -0.1987 -0.4442
 1722SOL     OW16798   2.876   0.078   9.093  0.9363 -0.5344  0.1746
 1722SOL    HW116799   2.817   0.135   9.044  2.2268  1.0363  0.4637
 1722SOL    HW216800   2.958   0.126   9.085  1.1657 -0.9310  0.1688
 1723SOL     OW16801   3.508   4.041  10.825  0.0839 -0.4485 -0.2550
 1723SOL    HW116802   3.593   4.078  10.802 -0.0710 -1.2714 -2.1443
 1723SOL    HW216803   3.447   4.113  10.811 -0.0915 -0.3932  0.7890
 1724SOL     OW16804   1.764   2.520   3.504 -0.2816  0.0372 -0.7173
 1724SOL    HW116805   1.711   2.472   3.441  0.1165 -2.6214  0.9738
 1724SOL    HW216806   1.709   2.596   3.523 -2.0170 -1.2748 -0.5614
 1725SOL     OW16807   0.133   3.245   4.352 -0.1722 -0.4022  0.3090
 1725SOL    HW116808   0.207   3.252   4.413  1.2685 -0.1997 -1.4587
 1725SOL    HW216809   0.082   3.189   4.411  0.2177 -0.9918  0.0900
 1726SOL     OW16810   2.261   0.932   1.854 -0.6937 -0.0695 -0.3108
 1726SOL    HW116811   2.353   0.910   1.864  0.1159  1.9195 -3.2760
 1726SOL    HW216812   2.237   0.924   1.946  1.3457  0.2071  0.2383
 1727SOL     OW16813   3.603   0.502   9.441 -0.2608 -0.4298 -0.3059
 1727SOL    HW116814   3.598   0.543   9.528  1.3036 -2.0656  0.5494
 1727SOL    HW216815   3.573   0.413   9.457  0.9204 -0.7786  0.0171
 1728SOL     OW16816   1.011   2.231   6.733  0.6518 -0.8374  0.1601
 1728SOL    HW116817   0.945   2.181   6.781  0.7116  0.1342  1.2365
 1728SOL    HW216818   1.043   2.293   6.797  0.6011  0.9280 -1.5099
 1729SOL     OW16819   0.742   2.168  12.803  0.2130 -0.3149  0.0337
 1729SOL    HW116820   0.732   2.074  12.821  4.3139 -0.6452  0.4445
 1729SOL    HW216821   0.815   2.166  12.742  0.9021  1.2781  0.8004
 1730SOL     OW16822   0.949   3.394   4.418 -0.2644 -0.3400  0.3676
 1730SOL    HW116823   0.968   3.484   4.444 -0.5199  0.2371 -1.4740
 1730SOL    HW216824   1.016   3.370   4.355  0.2430  1.8839  0.0683
 1731SOL     OW16825   3.955   3.094   7.232  0.7674 -0.1773  0.4375
 1731SOL    HW116826   3.977   3.174   7.280  0.3662 -0.4034  1.0051
 1731SOL    HW216827   3.991   3.115   7.146  0.5925 -1.8067 -0.0299
 1732SOL     OW16828   3.681   0.701   4.126 -0.0585  0.3641  0.0229
 1732SOL    HW116829   3.653   0.779   4.077 -0.4814  1.2611  1.6731
 1732SOL    HW216830   3.646   0.707   4.216  0.1858  0.1740  0.1282
 1733SOL     OW16831   4.522   2.938   3.497 -0.0566  0.2549 -0.1321
 1733SOL    HW116832   4.507   2.952   3.591 -3.2877  1.5155 -0.8513
 1733SOL    HW216833   4.443   2.889   3.474 -0.5554  1.2996 -0.6202
 1734SOL     OW16834   2.405   3.283   2.874  0.1437 -0.2397  0.0604
 1734SOL    HW116835   2.429   3.369   2.907 -0.4648 -0.7627  1.9101
 1734SOL    HW216836   2.415   3.295   2.780  0.4322 -1.1004 -0.0225
 1735SOL     OW16837   0.846   4.353  11.767 -0.2673  0.4220  1.0498
 1735SOL    HW116838   0.926   4.311  11.735  1.6556  5.0015 -0.2565
 1735SOL    HW216839   0.866   4.447  11.764 -0.6439  0.5227  1.6712
 1736SOL     OW16840   3.941   2.322  10.930 -0.1908 -0.5051  0.1118
 1736SOL    HW116841   3.915   2.361  11.014  0.1688 -0.1322  0.0478
 1736SOL    HW216842   3.907   2.393  10.876  1.8367  0.8233  0.5593
 1737SOL     OW16843   2.926   1.037   9.614 -0.5330  0.3298 -0.6545
 1737SOL    HW116844   2.839   1.071   9.593  0.3636  1.2518 -2.9236
 1737SOL    HW216845   2.972   1.107   9.568  1.6264  0.3587  1.5110
 1738SOL     OW16846   2.362   4.644   2.729  0.2805  0.8184  0.0767
 1738SOL    HW116847   2.324   4.706   2.667  0.1498 -0.1834 -0.8560
 1738SOL    HW216848   2.359   4.692   2.811 -2.4053  0.5999  0.1006
 1739SOL     OW16849   2.304   2.375   4.053 -0.8797  0.1840 -0.1731
 1739SOL    HW116850   2.256   2.311   4.000  2.3360 -3.6252  1.5156
 1739SOL    HW216851   2.334   2.444   3.995 -1.0447  0.3174 -0.1015
 1740SOL     OW16852   2.905   2.657   5.347  0.0831  0.0454 -0.1766
 1740SOL    HW116853   2.855   2.605   5.284 -0.5856  0.1262  0.2834
 1740SOL    HW216854   2.901   2.745   5.309  0.3212 -0.5675 -1.6125
 1741SOL     OW16855   2.065   1.096   0.098  0.1791  0.1942 -0.0355
 1741SOL    HW116856   2.073   1.148   0.178  3.5646 -1.5538  0.7473
 1741SOL    HW216857   2.158   1.086   0.077  0.1032  1.7470 -1.1825
 1742SOL     OW16858   0.491   3.008   2.203  0.0781  0.1949 -0.1326
 1742SOL    HW116859   0.501   2.988   2.110  1.2510 -4.2835  0.9294
 1742SOL    HW216860   0.419   2.949   2.224  0.7129 -0.0918  1.2447
 1743SOL     OW16861   0.226   4.573  16.347 -0.3175 -0.2889  0.1931
 1743SOL    HW116862   0.275   4.639  16.396  1.1085 -0.0536 -1.5825
 1743SOL    HW216863   0.294   4.514  16.316 -1.1454 -1.3672  0.4223
 1744SOL     OW16864   4.628   3.659   4.904 -0.3777 -0.6294  0.2068
 1744SOL    HW116865   4.538   3.675   4.929 -0.4838 -0.1716 -0.4603
 1744SOL    HW216866   4.635   3.563   4.913 -0.4208 -0.8920 -2.4105
 1745SOL     OW16867   2.726   2.022   6.673  0.8964  0.0340  0.0590
 1745SOL    HW116868   2.721   1.927   6.679  0.7854  0.0342 -0.0335
 1745SOL    HW216869   2.667   2.049   6.744 -0.7595  0.9435 -1.6556
 1746SOL     OW16870   4.634   3.947   2.619  0.2727 -0.4265 -0.0194
 1746SOL    HW116871   4.558   3.892   2.600 -0.4451  0.9133 -1.0413
 1746SOL    HW216872   4.612   4.039   2.604  0.7638 -0.4410 -0.8479
 1747SOL     OW16873   1.049   1.965   5.142 -0.2843  0.0776 -0.1429
 1747SOL    HW116874   1.143   1.967   5.126  0.1246  0.7944  2.3332
 1747SOL    HW216875   1.017   2.052   5.121  2.5481  1.0764 -0.3499
 1748SOL     OW16876   0.977   3.702  17.684  0.6616  0.4521 -0.0712
 1748SOL    HW116877   0.960   3.667  17.597 -1.7028  0.3912  0.4177
 1748SOL    HW216878   0.969   3.797  17.676 -1.1563  0.3295  0.1708
 1749SOL     OW16879   0.863   3.637   4.175  0.3244 -0.3119  0.0643
 1749SOL    HW116880   0.926   3.590   4.121  2.1716  1.5554  0.5673
 1749SOL    HW216881   0.919   3.653   4.251  0.4828  0.2538 -0.1681
 1750SOL     OW16882   3.612   1.119   8.899  0.0798  0.0929 -0.0009
 1750SOL    HW116883   3.614   1.208   8.933  0.4620  0.6876 -1.5609
 1750SOL    HW216884   3.703   1.091   8.904 -0.0391 -0.6653 -1.9301
 1751SOL     OW16885   1.586   0.697   1.786 -0.1081  0.1306 -0.0806
 1751SOL    HW116886   1.545   0.778   1.816 -0.9782 -1.2063  2.3293
 1751SOL    HW216887   1.544   0.686   1.701 -2.3138  0.1799  0.9959
 1752SOL     OW16888   3.880   3.807   5.599  0.0157  0.0387  0.3950
 1752SOL    HW116889   3.896   3.717   5.570 -1.4678 -0.0492 -0.1608
 1752SOL    HW216890   3.890   3.860   5.520  2.2759  1.8857  1.9552
 1753SOL     OW16891   2.143   4.475   8.197 -0.1071 -0.4430  0.1788
 1753SOL    HW116892   2.146   4.388   8.158 -2.3138 -0.7778  0.7707
 1753SOL    HW216893   2.048   4.481   8.208 -0.4220 -2.9115 -1.1189
 1754SOL     OW16894   1.910   0.820   6.768  0.5205  0.4836 -0.4240
 1754SOL    HW116895   1.928   0.883   6.698 -1.4586  0.1396 -1.2561
 1754SOL    HW216896   1.917   0.873   6.847  3.5922  0.0635 -0.4150
 1755SOL     OW16897   3.111   4.247   3.826 -0.1710  1.0213  0.8404
 1755SOL    HW116898   3.056   4.291   3.762 -0.1806  0.4753  0.4761
 1755SOL    HW216899   3.103   4.156   3.797  1.4416  0.7597  1.2278
 1756SOL     OW16900   1.513   3.218   2.930  0.7894  0.5486 -0.3034
 1756SOL    HW116901   1.473   3.257   2.852  1.7285  1.7596 -0.1822
 1756SOL    HW216902   1.579   3.160   2.891 -0.5171 -1.4094  0.4007
 1757SOL     OW16903   2.735   1.623   8.565 -0.8379  0.0168 -0.1850
 1757SOL    HW116904   2.774   1.551   8.614 -0.3589  1.5512  1.6862
 1757SOL    HW216905   2.813   1.642   8.512 -2.0199 -0.2197 -2.0192
 1758SOL     OW16906   4.578   2.973   6.012 -0.2874  0.1759  0.1895
 1758SOL    HW116907   4.594   2.942   5.923  0.8968 -1.7914  1.1049
 1758SOL    HW216908   4.662   2.977   6.057 -0.5298  1.2585  0.5552
 1759SOL     OW16909   2.906   3.597   6.831 -0.1779  0.6844  0.4080
 1759SOL    HW116910   2.853   3.524   6.861  2.3657 -1.2219  0.2327
 1759SOL    HW216911   2.887   3.605   6.737  0.0439  0.2790  0.3293
 1760SOL     OW16912   0.796   2.311   3.464 -0.1093  0.0916 -0.0701
 1760SOL    HW116913   0.813   2.369   3.539 -1.5545  0.1564  0.2125
 1760SOL    HW216914   0.725   2.364   3.427  0.7684 -0.3493 -2.3570
 1761SOL     OW16915   4.590   4.372   7.594  0.6117  0.2444 -0.2296
 1761SOL    HW116916   4.553   4.284   7.609 -2.0293  0.8189 -3.2870
 1761SOL    HW216917   4.518   4.431   7.617 -3.5844 -3.6468 -3.3853
 1762SOL     OW16918   1.333   2.640   5.691  0.4669 -0.1136 -0.0593
 1762SOL    HW116919   1.274   2.613   5.761  2.5933 -0.8586  1.4138
 1762SOL    HW216920   1.341   2.736   5.691 -0.9805  0.0163  0.5309
 1763SOL     OW16921   0.503   0.866   2.332  0.4247 -0.4397  0.2979
 1763SOL    HW116922   0.458   0.895   2.411  1.2224  2.4900 -0.3172
 1763SOL    HW216923   0.523   0.776   2.357 -0.3562 -0.1206  2.0677
 1764SOL     OW16924   0.089   1.944   8.113  0.3611  0.5172 -0.2378
 1764SOL    HW116925   0.036   1.877   8.071  0.1609 -0.3045  1.3393
 1764SOL    HW216926   0.151   1.974   8.046  0.3099  0.3956 -0.3377
 1765SOL     OW16927   3.325   0.268  13.718  1.0089  0.0298 -0.0483
 1765SOL    HW116928   3.316   0.362  13.728 -0.3911  0.1224 -2.2943
 1765SOL    HW216929   3.340   0.262  13.624  3.3449  1.3556  0.2365
 1766SOL     OW16930   3.985   0.568   6.254  0.3613 -0.1373 -0.6304
 1766SOL    HW116931   3.922   0.497   6.258  0.9153 -0.6020 -0.1058
 1766SOL    HW216932   4.019   0.540   6.169 -0.4462 -0.9733 -0.6740
 1767SOL     OW16933   1.977   1.052   1.917 -0.2912  0.1196 -0.0104
 1767SOL    HW116934   2.034   1.036   1.992 -0.2009  1.7741  0.2831
 1767SOL    HW216935   1.899   1.084   1.964  0.0717  1.2268 -0.1492
 1768SOL     OW16936   0.883   3.270   3.054  0.0125 -0.1058 -0.7302
 1768SOL    HW116937   0.961   3.221   3.026  0.7500  2.5035 -3.2767
 1768SOL    HW216938   0.886   3.276   3.150 -0.8771 -1.4906 -0.6214
 1769SOL     OW16939   2.880   1.696   7.641  0.2293  0.2084  0.0200
 1769SOL    HW116940   2.939   1.731   7.574 -1.1357  0.3285 -1.1253
 1769SOL    HW216941   2.934   1.701   7.719 -0.1304  0.4349  0.2586
 1770SOL     OW16942   0.432   3.805  16.160 -0.7404 -0.3243 -0.3489
 1770SOL    HW116943   0.380   3.731  16.190  0.4874 -0.9617  0.2275
 1770SOL    HW216944   0.500   3.816  16.227 -0.6152  2.8266 -0.9834
 1771SOL     OW16945   3.784   4.043   2.653  0.2470 -0.8006  0.2133
 1771SOL    HW116946   3.733   4.059   2.573  0.6832 -0.3407  0.0256
 1771SOL    HW216947   3.741   4.099   2.718  0.0930 -0.6457 -0.0224
 1772SOL     OW16948   0.497   2.063   1.302 -0.0792  0.2130  0.3273
 1772SOL    HW116949   0.528   1.991   1.357  1.8582 -1.8773 -3.5550
 1772SOL    HW216950   0.418   2.034   1.256  1.4175 -1.7511 -1.0099
 1773SOL     OW16951   0.226   1.058  13.296 -0.4926 -0.6019  0.1742
 1773SOL    HW116952   0.273   1.118  13.237 -0.0380 -3.3623 -2.2755
 1773SOL    HW216953   0.279   0.979  13.286 -1.9391 -1.7967  1.9812
 1774SOL     OW16954   3.163   1.501   8.959  0.6147 -0.3008 -0.3122
 1774SOL    HW116955   3.162   1.413   8.996 -1.8727 -0.6299 -1.1088
 1774SOL    HW216956   3.216   1.552   9.020  1.3804 -1.0986 -0.3123
 1775SOL     OW16957   1.241   2.769   7.314 -0.2050  0.1396 -0.2296
 1775SOL    HW116958   1.277   2.746   7.399  0.9038  0.6584 -0.5570
 1775SOL    HW216959   1.168   2.822   7.346 -0.5056 -0.4910  0.1174
 1776SOL     OW16960   2.332   3.455  14.066  0.5723  0.0751  0.3021
 1776SOL    HW116961   2.277   3.404  14.008  1.8181  1.6691 -2.2603
 1776SOL    HW216962   2.306   3.539  14.029  1.6747  0.3902  0.2327
 1777SOL     OW16963   3.609   4.093   2.152 -0.3872 -0.6379  0.1502
 1777SOL    HW116964   3.527   4.044   2.151 -0.5571 -0.3844  1.5939
 1777SOL    HW216965   3.601   4.166   2.091  0.6508  0.6220  1.5266
 1778SOL     OW16966   1.490   1.453  12.006 -0.1195 -0.7105 -0.1693
 1778SOL    HW116967   1.446   1.501  12.076  1.3334 -1.1126  1.0210
 1778SOL    HW216968   1.473   1.499  11.923  0.7152  0.8853  0.5334
 1779SOL     OW16969   0.861   0.184   7.746  0.3125  0.0447 -0.3158
 1779SOL    HW116970   0.940   0.129   7.753  0.4460  0.7121  3.5793
 1779SOL    HW216971   0.891   0.257   7.799  1.0024 -1.1405  0.9399
 1780SOL     OW16972   0.191   3.274  14.859 -0.1455 -0.3623  0.2566
 1780SOL    HW116973   0.139   3.245  14.784  2.2433 -2.5858 -0.5342
 1780SOL    HW216974   0.241   3.194  14.877 -0.6776 -0.0176  3.1901
 1781SOL     OW16975   4.718   2.531   4.758  0.2835  0.0568  0.0985
 1781SOL    HW116976   4.656   2.555   4.826 -2.0273  0.9341 -2.3157
 1781SOL    HW216977   0.062   2.543   4.800  0.6585 -0.9214 -0.3952
 1782SOL     OW16978   3.256   3.611   6.776  0.1071 -0.1515  0.1317
 1782SOL    HW116979   3.328   3.583   6.833  0.8389  1.6690  0.1012
 1782SOL    HW216980   3.188   3.619   6.843  1.3560 -1.4784  1.5418
 1783SOL     OW16981   1.923   4.583  12.496 -0.2720 -0.5940  0.4479
 1783SOL    HW116982   1.954   4.640  12.425 -1.3194 -0.4081  0.1281
 1783SOL    HW216983   1.941   4.495  12.463  0.2245 -1.1405  2.2144
 1784SOL     OW16984   2.239   2.488   8.397  0.6650  0.6041 -0.3008
 1784SOL    HW116985   2.254   2.495   8.303  0.2364  0.7575 -0.3587
 1784SOL    HW216986   2.327   2.479   8.433  0.1711  0.9093  0.9832
 1785SOL     OW16987   0.370   3.803   2.433 -0.3678  0.4204 -0.3156
 1785SOL    HW116988   0.407   3.891   2.433  0.4375  0.1009 -2.1739
 1785SOL    HW216989   0.298   3.808   2.495  1.1857  0.7328  1.4413
 1786SOL     OW16990   2.435   0.195   5.217  0.9846  0.1183 -0.3901
 1786SOL    HW116991   2.527   0.210   5.195  0.5365  1.5663 -1.2031
 1786SOL    HW216992   2.445   0.109   5.259  2.0609 -0.1097 -1.1071
 1787SOL     OW16993   0.385   0.413   2.378  0.2373  0.4020  0.8365
 1787SOL    HW116994   0.321   0.482   2.390 -0.1790  0.5806 -2.4335
 1787SOL    HW216995   0.436   0.448   2.305  1.0245  1.4304  1.8798
 1788SOL     OW16996   1.669   1.360   7.528  0.0413 -0.3176  0.1367
 1788SOL    HW116997   1.760   1.340   7.506  0.2719  0.3276  0.4843
 1788SOL    HW216998   1.672   1.418   7.604 -2.6516 -1.4334  1.0976
 1789SOL     OW16999   0.030   0.171  16.349  0.0763  0.7619  0.5054
 1789SOL    HW117000   4.726   0.161  16.265  1.1356  4.4843 -0.4919
 1789SOL    HW217001   0.122   0.181  16.328 -0.0943 -2.1728 -1.7082
 1790SOL     OW17002   1.798   3.049   5.396  0.5488 -0.2153 -0.1981
 1790SOL    HW117003   1.744   3.011   5.466 -0.6078  0.6966 -0.6016
 1790SOL    HW217004   1.745   3.035   5.318 -2.4048 -0.1107  1.7780
 1791SOL     OW17005   4.205   0.269   2.475 -0.3727 -0.0274  0.1693
 1791SOL    HW117006   4.210   0.176   2.501  0.5720  0.1727  0.6909
 1791SOL    HW217007   4.297   0.281   2.453 -0.0942 -1.0716  0.7408
 1792SOL     OW17008   1.373   3.495   9.261  0.3962 -0.1741 -0.9595
 1792SOL    HW117009   1.417   3.469   9.342 -0.1142  0.6968 -0.4058
 1792SOL    HW217010   1.389   3.417   9.208 -0.3345  0.7751 -2.5703
 1793SOL     OW17011   1.524   0.763   5.147 -0.2855  0.1836 -0.8431
 1793SOL    HW117012   1.500   0.855   5.162  0.3997  0.4328 -1.3093
 1793SOL    HW217013   1.602   0.762   5.092  1.2546  0.3329  1.2972
 1794SOL     OW17014   0.112   1.239   8.072  0.2485  0.0551 -0.2675
 1794SOL    HW117015   0.082   1.329   8.065  1.5743  0.5211 -0.0677
 1794SOL    HW217016   0.207   1.252   8.080  0.6780  0.3369 -6.0780
 1795SOL     OW17017   0.865   1.086  10.447  0.6483 -0.5094  0.1250
 1795SOL    HW117018   0.956   1.110  10.430  0.1471  0.1666 -1.5301
 1795SOL    HW217019   0.841   1.141  10.523  2.5093  1.0328 -0.3981
 1796SOL     OW17020   2.652   4.648  15.331 -0.0006  0.2604 -0.2895
 1796SOL    HW117021   2.664   0.001  15.322 -0.7029  0.2852 -0.9648
 1796SOL    HW217022   2.570   4.625  15.376  0.5765 -0.4567  0.3804
 1797SOL     OW17023   2.587   2.286   5.740 -0.1198 -0.0850 -0.6844
 1797SOL    HW117024   2.564   2.197   5.711  2.8245 -1.2683  0.6261
 1797SOL    HW217025   2.539   2.343   5.680  0.1798  1.3093  0.4164
 1798SOL     OW17026   2.507   2.943   2.473 -0.1252 -0.4637  0.0641
 1798SOL    HW117027   2.561   2.908   2.403  0.9698 -0.0509  0.7009
 1798SOL    HW217028   2.536   3.034   2.467  1.2986 -0.9807 -0.6774
 1799SOL     OW17029   2.361   3.473   9.299  0.2255  0.4254  0.5375
 1799SOL    HW117030   2.403   3.425   9.370 -0.9058 -0.8538  0.3382
 1799SOL    HW217031   2.396   3.415   9.231  1.2437  1.3423  0.2700
 1800SOL     OW17032   1.815   1.395  14.238 -0.1036  0.9621  0.0412
 1800SOL    HW117033   1.819   1.462  14.170  0.3985  0.2156 -0.6628
 1800SOL    HW217034   1.879   1.337  14.197 -0.4247  0.3513  0.3998
 1801SOL     OW17035   0.368   2.384   2.683 -0.4375 -0.3394  0.1138
 1801SOL    HW117036   0.383   2.293   2.709 -2.1533 -0.5785  0.2568
 1801SOL    HW217037   0.306   2.414   2.749 -1.2394  0.3633 -0.9698
 1802SOL     OW17038   2.954   1.002   9.230 -0.0691 -0.5248  0.0097
 1802SOL    HW117039   2.980   1.094   9.237  0.4627 -0.6816  0.1249
 1802SOL    HW217040   2.871   1.009   9.182  0.6513 -0.7177 -1.2605
 1803SOL     OW17041   1.653   4.195   2.604 -0.1849  0.4374  0.0391
 1803SOL    HW117042   1.728   4.144   2.635  0.5256  0.7075 -1.2607
 1803SOL    HW217043   1.577   4.147   2.637 -1.2775  1.0801 -1.5310
 1804SOL     OW17044   1.932   2.196  17.269  0.5819  0.1970 -0.1495
 1804SOL    HW117045   1.936   2.291  17.264  0.0243  0.1836 -0.8831
 1804SOL    HW217046   2.016   2.170  17.231  0.0426  0.8621 -1.8026
 1805SOL     OW17047   2.383   1.058  12.909 -0.2573 -0.2732 -0.2990
 1805SOL    HW117048   2.410   0.990  12.848  0.3407  0.1263 -0.4906
 1805SOL    HW217049   2.448   1.126  12.889 -0.5844 -0.2016 -1.1521
 1806SOL     OW17050   3.527   0.098   8.445  0.5890  0.2972  0.1217
 1806SOL    HW117051   3.581   0.154   8.388  0.0570  1.7831  1.0831
 1806SOL    HW217052   3.455   0.154   8.473 -0.2382  0.5550 -2.4699
 1807SOL     OW17053   3.744   3.902   4.428  0.5460  0.2890 -0.4333
 1807SOL    HW117054   3.818   3.963   4.423 -0.4289  1.5616  0.7312
 1807SOL    HW217055   3.700   3.923   4.510  0.0586 -0.8256 -0.4120
 1808SOL     OW17056   3.379   0.112  16.903  0.1519  0.1698 -0.4360
 1808SOL    HW117057   3.380   0.190  16.957 -2.1369  0.6779 -1.1162
 1808SOL    HW217058   3.387   0.163  16.822  0.3774 -0.4290 -0.7893
 1809SOL     OW17059   0.744   1.802   9.702  0.5477  0.0265 -0.4176
 1809SOL    HW117060   0.689   1.731   9.735 -0.7996  1.2755  0.0073
 1809SOL    HW217061   0.804   1.759   9.641 -0.2897 -1.7515  0.0224
 1810SOL     OW17062   3.765   2.844   8.740 -0.4733 -0.2859 -0.3283
 1810SOL    HW117063   3.781   2.750   8.742  0.5028 -0.1013  1.5718
 1810SOL    HW217064   3.834   2.886   8.688  1.2117 -1.7073  0.7478
 1811SOL     OW17065   2.184   4.170   9.580 -0.0331  0.0822 -0.1903
 1811SOL    HW117066   2.121   4.242   9.589  0.3987  0.5720 -1.1884
 1811SOL    HW217067   2.126   4.104   9.542 -0.6337  1.1551 -1.1406
 1812SOL     OW17068   3.447   4.519   9.684 -0.0660 -0.6309 -0.5129
 1812SOL    HW117069   3.540   4.500   9.699  0.2165  1.6216  0.4849
 1812SOL    HW217070   3.448   4.576   9.607  0.4072 -0.6471 -0.5206
 1813SOL     OW17071   0.853   0.540   5.765  0.2381  0.0688 -0.3512
 1813SOL    HW117072   0.810   0.460   5.734 -0.5281 -0.9267  3.3559
 1813SOL    HW217073   0.839   0.533   5.859 -1.7474 -0.1581 -0.6761
 1814SOL     OW17074   3.173   3.102  14.354 -0.2605 -0.1031 -0.3182
 1814SOL    HW117075   3.128   3.034  14.303  1.3515 -0.8668 -0.7396
 1814SOL    HW217076   3.180   3.063  14.442 -2.6960  1.2694  0.4626
 1815SOL     OW17077   1.944   1.496   6.365  0.2783 -0.3690  0.9389
 1815SOL    HW117078   1.893   1.518   6.287  2.6765  0.4323 -0.4297
 1815SOL    HW217079   1.921   1.565   6.427 -0.0378  0.6953 -0.3622
 1816SOL     OW17080   2.544   3.669  14.580  0.0046  0.0679 -0.0337
 1816SOL    HW117081   2.509   3.758  14.574 -0.0849  0.1313  1.4081
 1816SOL    HW217082   2.630   3.676  14.538 -0.1323 -1.4443 -0.5822
 1817SOL     OW17083   0.148   1.693   7.496 -0.0493  0.5457 -0.8572
 1817SOL    HW117084   0.109   1.622   7.547 -0.4797  0.8033 -0.8314
 1817SOL    HW217085   0.130   1.765   7.557 -0.7010  0.4690 -0.9627
 1818SOL     OW17086   3.501   3.013   8.589 -0.2038  0.2405 -0.7110
 1818SOL    HW117087   3.426   3.023   8.648  1.3621  1.7763  0.9845
 1818SOL    HW217088   3.567   3.065   8.634  0.1686 -1.7067  0.9921
 1819SOL     OW17089   2.689   2.241  17.607 -0.6193 -0.4406  0.1745
 1819SOL    HW117090   2.620   2.242  17.541 -0.2351 -0.6164 -0.2256
 1819SOL    HW217091   2.653   2.307  17.667 -1.5133  0.7100 -1.6103
 1820SOL     OW17092   2.356   1.465  11.050  0.6585  0.4610  0.3500
 1820SOL    HW117093   2.446   1.440  11.070  0.4532 -0.3170  0.2933
 1820SOL    HW217094   2.364   1.504  10.963 -1.1032 -2.1562 -0.9995
 1821SOL     OW17095   4.401   3.356   5.013  0.0460  0.1253 -0.1685
 1821SOL    HW117096   4.397   3.268   5.050  2.7476 -0.3324 -1.0063
 1821SOL    HW217097   4.406   3.420   5.083 -3.1309 -0.1485  0.3413
 1822SOL     OW17098   0.777   1.926   4.741 -0.2881 -0.1505 -1.0244
 1822SOL    HW117099   0.762   1.914   4.835 -1.9106 -0.6160 -1.3542
 1822SOL    HW217100   0.805   1.841   4.708 -2.2581 -0.7381 -1.1632
 1823SOL     OW17101   0.720   4.309   2.996  0.0038 -0.2068  0.1087
 1823SOL    HW117102   0.758   4.387   2.957  1.6432 -1.6382 -1.1313
 1823SOL    HW217103   0.791   4.291   3.058  0.5296 -0.1248 -0.4731
 1824SOL     OW17104   1.116   1.162  10.419  0.2496 -0.4342 -0.2585
 1824SOL    HW117105   1.156   1.248  10.433  0.2266 -0.6424  1.1244
 1824SOL    HW217106   1.179   1.112  10.369  2.2242  0.2721  1.5311
 1825SOL     OW17107   1.774   2.582   2.125 -0.0226 -0.0394  0.6375
 1825SOL    HW117108   1.854   2.584   2.072 -0.9044 -1.1581 -0.7473
 1825SOL    HW217109   1.803   2.521   2.193 -0.7351 -0.3959  0.6185
 1826SOL     OW17110   2.425   1.830  11.997  0.2715 -0.2560  0.3900
 1826SOL    HW117111   2.415   1.924  12.012 -1.9444 -0.0641 -2.3034
 1826SOL    HW217112   2.396   1.795  12.081 -1.1644  2.5557  1.0728
 1827SOL     OW17113   0.497   2.996   6.647 -0.0401 -0.1226  0.7267
 1827SOL    HW117114   0.439   3.011   6.572 -2.2026  0.1192  2.4346
 1827SOL    HW217115   0.537   3.083   6.648  0.3079 -0.2899  1.2556
 1828SOL     OW17116   3.770   2.923   5.130  0.0865 -0.6757  0.2874
 1828SOL    HW117117   3.776   2.941   5.224  1.2376 -1.8241  0.4284
 1828SOL    HW217118   3.722   2.840   5.138 -1.7415  0.2272 -1.1862
 1829SOL     OW17119   0.058   3.083   6.466 -0.6798 -0.4937 -0.3855
 1829SOL    HW117120   0.012   3.139   6.528 -0.5824 -0.4645 -0.3396
 1829SOL    HW217121   0.067   2.998   6.510 -1.8676 -0.4764 -0.1074
 1830SOL     OW17122   2.638   2.063   5.493 -0.3539 -0.1954  0.2881
 1830SOL    HW117123   2.661   1.986   5.441 -1.9912 -0.7867  0.4202
 1830SOL    HW217124   2.715   2.119   5.488  0.5046 -1.4194 -0.1145
 1831SOL     OW17125   2.572   4.688   6.621 -0.4920  0.7218  0.2696
 1831SOL    HW117126   2.554   4.624   6.552 -3.3293  3.0626 -1.1900
 1831SOL    HW217127   2.524   0.025   6.594  0.1435  0.9203 -0.2838
 1832SOL     OW17128   3.025   3.732   4.624  0.0911  0.5196 -0.2863
 1832SOL    HW117129   3.010   3.808   4.680 -1.5205 -0.6573  0.8863
 1832SOL    HW217130   2.972   3.752   4.547  0.4782  2.5670 -0.0287
 1833SOL     OW17131   3.822   3.448   7.131 -0.3450 -0.0268 -0.4933
 1833SOL    HW117132   3.737   3.406   7.119 -0.9468  0.8265  0.7851
 1833SOL    HW217133   3.806   3.483   7.219 -0.9271  0.4568 -0.7968
 1834SOL     OW17134   4.248   0.153   4.937  0.2064  0.7671  0.3135
 1834SOL    HW117135   4.320   0.159   4.874 -1.0406  1.0328 -1.0874
 1834SOL    HW217136   4.230   0.244   4.964 -0.4333  0.1835  1.8879
 1835SOL     OW17137   4.470   2.216   4.419  0.1878  0.1053  0.1369
 1835SOL    HW117138   4.408   2.217   4.493  0.7395  1.3721  0.5833
 1835SOL    HW217139   4.553   2.193   4.460  0.9710 -0.6885 -1.9059
 1836SOL     OW17140   4.200   0.677   6.278 -0.8456  0.3220 -0.4161
 1836SOL    HW117141   4.112   0.644   6.296 -0.7527  0.7381  0.8146
 1836SOL    HW217142   4.169   0.763   6.250  0.0941  0.7489 -0.1643
 1837SOL     OW17143   4.351   0.502   0.602 -0.6214  0.5380 -0.4600
 1837SOL    HW117144   4.332   0.530   0.512  2.2032  1.3001 -0.8068
 1837SOL    HW217145   4.343   0.589   0.642  0.0616  0.1495  0.5089
 1838SOL     OW17146   4.098   1.822  10.701 -0.4098 -0.1123 -0.3546
 1838SOL    HW117147   4.041   1.898  10.696 -0.6838 -0.2673  0.3459
 1838SOL    HW217148   4.037   1.751  10.681  0.7195 -0.7981 -1.3932
 1839SOL     OW17149   1.837   2.196   4.252 -0.3508  0.7474  0.4684
 1839SOL    HW117150   1.909   2.241   4.207 -1.7019  1.3895 -1.0228
 1839SOL    HW217151   1.788   2.173   4.174  2.5622 -2.6552 -0.3785
 1840SOL     OW17152   0.449   0.439   5.849 -0.0486  0.1590  0.6925
 1840SOL    HW117153   0.402   0.520   5.830 -0.7535 -1.1693 -3.2674
 1840SOL    HW217154   0.519   0.476   5.903  0.4877 -1.8866  1.3977
 1841SOL     OW17155   3.633   1.112   5.906  0.1745 -0.2880  0.5770
 1841SOL    HW117156   3.669   1.197   5.930  1.4550 -0.4467 -0.7435
 1841SOL    HW217157   3.635   1.072   5.993  0.2446 -0.7327  0.3724
 1842SOL     OW17158   3.773   2.824   1.043 -0.0962 -0.0588  0.3939
 1842SOL    HW117159   3.806   2.830   1.133  0.3855  1.3803  0.1182
 1842SOL    HW217160   3.681   2.806   1.063  0.1513 -0.5039  1.1293
 1843SOL     OW17161   4.626   0.891  14.923 -0.4936  0.3064 -0.2313
 1843SOL    HW117162   4.706   0.861  14.967  0.0894  1.6141 -0.4164
 1843SOL    HW217163   4.571   0.908  15.000 -0.9193 -2.0009 -0.0293
 1844SOL     OW17164   2.532   2.966   6.736 -0.4895  0.5446  0.2540
 1844SOL    HW117165   2.474   3.014   6.795  0.8390  1.7269  0.5849
 1844SOL    HW217166   2.607   2.954   6.794 -1.2539 -0.6930  0.9957
 1845SOL     OW17167   1.198   2.701   2.575 -0.2200 -0.1018 -0.3375
 1845SOL    HW117168   1.110   2.712   2.538 -0.7056 -1.6807  0.3623
 1845SOL    HW217169   1.252   2.678   2.499  0.0179 -0.1228 -0.1622
 1846SOL     OW17170   4.587   2.072   5.441  0.3812 -0.2615  0.1698
 1846SOL    HW117171   4.508   2.063   5.387 -1.1487 -2.6353  2.8649
 1846SOL    HW217172   4.568   2.150   5.492  0.4670  0.0237 -0.2314
 1847SOL     OW17173   1.628   2.864   3.278 -0.4852  0.3731 -0.0034
 1847SOL    HW117174   1.545   2.875   3.325 -0.2200  0.5452  0.4238
 1847SOL    HW217175   1.662   2.953   3.274 -2.6465  1.1983 -0.0810
 1848SOL     OW17176   0.412   2.955   9.283 -0.2107 -0.1435 -0.1075
 1848SOL    HW117177   0.408   2.996   9.196  0.0979  1.9745  0.8659
 1848SOL    HW217178   0.507   2.952   9.293 -0.1285 -0.9459 -1.1026
 1849SOL     OW17179   4.364   3.252   7.088  0.6073 -0.0062  0.1998
 1849SOL    HW117180   4.448   3.221   7.120  0.3529  0.2461  1.1116
 1849SOL    HW217181   4.373   3.346   7.069  1.8226 -0.0668  0.4714
 1850SOL     OW17182   1.347   4.122   2.150 -0.2877  0.3298 -0.0043
 1850SOL    HW117183   1.375   4.081   2.068  1.7795  0.2342  0.7583
 1850SOL    HW217184   1.386   4.063   2.215 -0.8734 -0.4034 -0.3124
 1851SOL     OW17185   1.071   1.365   5.819  0.4313  0.0063  0.6980
 1851SOL    HW117186   0.997   1.424   5.832  0.4418  0.3096 -0.5966
 1851SOL    HW217187   1.124   1.414   5.757  0.1927 -0.7090 -0.0809
 1852SOL     OW17188   4.017   1.917   5.418  0.3126 -0.3339  0.6815
 1852SOL    HW117189   3.979   1.830   5.426 -1.7514  0.4637 -0.5552
 1852SOL    HW217190   4.027   1.919   5.323 -0.6990  0.2173  0.5936
 1853SOL     OW17191   1.815   1.503   5.127  0.0060 -0.3582  0.6667
 1853SOL    HW117192   1.865   1.583   5.113 -0.8789 -0.1633 -1.3115
 1853SOL    HW217193   1.878   1.455   5.074  0.7533 -0.5339  1.6931
 1854SOL     OW17194   1.895   3.971   2.406 -0.2310  0.0847  0.0573
 1854SOL    HW117195   1.956   3.932   2.343 -1.4971 -0.5971 -0.7457
 1854SOL    HW217196   1.873   4.049   2.356  0.6008 -0.5327 -1.2837
 1855SOL     OW17197   0.262   4.111  12.530 -0.1961 -0.1191  0.8786
 1855SOL    HW117198   0.224   4.139  12.613 -1.3833 -1.6185  0.8533
 1855SOL    HW217199   0.356   4.111  12.550  0.1707 -2.4952 -0.7730
 1856SOL     OW17200   0.756   1.685   9.253  0.4481 -0.0565  0.6125
 1856SOL    HW117201   0.792   1.773   9.240  0.2607  0.0710  0.9634
 1856SOL    HW217202   0.820   1.644   9.195  0.5616  2.4125 -1.0325
 1857SOL     OW17203   0.674   3.422   8.838  0.2188  0.3913 -0.4642
 1857SOL    HW117204   0.731   3.373   8.779 -1.2426 -0.0921 -1.4839
 1857SOL    HW217205   0.733   3.497   8.851 -0.8376  1.6205 -2.6442
 1858SOL     OW17206   4.692   4.264  12.754 -0.4557 -0.3188 -0.3878
 1858SOL    HW117207   4.701   4.313  12.836 -1.0511  0.1317 -0.5894
 1858SOL    HW217208   0.039   4.230  12.756  0.7453  2.6826 -1.5025
 1859SOL     OW17209   4.174   3.944   1.933  0.3239 -0.6371 -0.2479
 1859SOL    HW117210   4.238   3.938   1.862  1.4487  1.4561  0.5953
 1859SOL    HW217211   4.122   3.868   1.908  0.5020 -0.9382  0.3013
 1860SOL     OW17212   1.520   1.259   6.392 -0.0152 -0.1712 -0.1942
 1860SOL    HW117213   1.533   1.333   6.334  2.6064  1.1859  2.1607
 1860SOL    HW217214   1.509   1.184   6.333 -2.4457 -0.3443  0.4572
 1861SOL     OW17215   3.891   3.584   3.329  0.0335 -0.8738 -0.4077
 1861SOL    HW117216   3.947   3.618   3.260  2.1677  1.5117  2.4865
 1861SOL    HW217217   3.916   3.492   3.318  0.5105 -0.9583  1.4217
 1862SOL     OW17218   3.869   2.417   5.001 -0.1896 -0.4982 -0.5830
 1862SOL    HW117219   3.798   2.432   4.939  0.0812 -2.7948 -1.4436
 1862SOL    HW217220   3.854   2.493   5.057 -2.5544 -0.5277 -1.1840
 1863SOL     OW17221   4.478   3.106   8.146 -0.3070 -0.1727 -0.1375
 1863SOL    HW117222   4.538   3.131   8.076  0.7970  0.7223  1.1231
 1863SOL    HW217223   4.517   3.155   8.219  0.3758  0.0268 -0.6380
 1864SOL     OW17224   2.326   1.393  12.958 -0.4124 -0.1603 -0.1949
 1864SOL    HW117225   2.401   1.352  12.915 -1.1023 -1.1632 -0.4398
 1864SOL    HW217226   2.304   1.322  13.019 -0.5197 -0.2513 -0.3393
 1865SOL     OW17227   0.538   2.447   7.571 -0.1577  0.5290 -0.0996
 1865SOL    HW117228   0.503   2.380   7.629  0.8078  0.4697  0.4249
 1865SOL    HW217229   0.589   2.387   7.516 -1.0497  0.9914 -1.4348
 1866SOL     OW17230   1.035   4.704   1.275 -0.2436  0.4711 -0.3736
 1866SOL    HW117231   1.087   4.739   1.348  2.2644 -0.2187 -1.8201
 1866SOL    HW217232   1.064   0.016   1.202  0.0615  0.1005 -0.5291
 1867SOL     OW17233   0.136   4.111   3.481  0.1162  0.3852  0.0486
 1867SOL    HW117234   0.186   4.192   3.480  2.6803 -1.2024 -0.5511
 1867SOL    HW217235   0.103   4.107   3.391  2.1542 -1.5621 -0.6317
 1868SOL     OW17236   3.868   3.935   0.883  0.2288 -0.5501 -0.0163
 1868SOL    HW117237   3.935   3.995   0.850 -2.7662  1.7787 -1.9036
 1868SOL    HW217238   3.873   3.868   0.815 -3.3907 -0.4040 -0.4628
 1869SOL     OW17239   1.346   0.933  14.708  0.5331  0.1803 -0.3775
 1869SOL    HW117240   1.273   0.992  14.724  1.2517  1.1888 -0.7694
 1869SOL    HW217241   1.308   0.846  14.715 -2.0903  1.0661 -3.6495
 1870SOL     OW17242   2.932   3.195  17.538  0.1068 -0.0745 -0.3403
 1870SOL    HW117243   2.971   3.255  17.602  1.0867 -1.0246 -0.0282
 1870SOL    HW217244   2.920   3.117  17.593 -1.4973 -1.0429 -2.0823
 1871SOL     OW17245   4.594   3.301   7.214 -0.2488 -0.2154 -0.1705
 1871SOL    HW117246   4.630   3.370   7.157  1.1396 -0.4595  0.4086
 1871SOL    HW217247   4.671   3.288   7.270 -0.4805  0.4299  0.3017
 1872SOL     OW17248   4.273   3.142  16.234 -0.2267 -0.8245  0.5194
 1872SOL    HW117249   4.253   3.058  16.193 -0.4794 -0.9739  0.9464
 1872SOL    HW217250   4.289   3.111  16.323  1.9781  1.8662  1.0751
 1873SOL     OW17251   3.314   1.380   4.075  0.1212 -0.3637 -0.5723
 1873SOL    HW117252   3.360   1.454   4.034  1.0043  0.3289  1.6119
 1873SOL    HW217253   3.340   1.392   4.167 -2.2963  1.5234 -0.1295
 1874SOL     OW17254   0.330   0.740   4.779  0.0662 -0.1370 -0.1057
 1874SOL    HW117255   0.415   0.730   4.821 -0.5523 -0.3942  1.0823
 1874SOL    HW217256   0.352   0.798   4.706  0.7486 -1.4418 -0.9326
 1875SOL     OW17257   4.678   3.542   7.067 -0.5766 -0.3704  0.2015
 1875SOL    HW117258   4.624   3.582   7.000 -0.4603 -1.7790 -0.7176
 1875SOL    HW217259   0.026   3.565   7.043 -1.1528  1.0066 -0.6083
 1876SOL     OW17260   1.425   0.472   9.751 -0.1068  0.0304 -0.3357
 1876SOL    HW117261   1.487   0.496   9.682 -0.2560  2.5490  0.4147
 1876SOL    HW217262   1.484   0.422   9.807 -0.1566 -0.3725 -0.6399
 1877SOL     OW17263   3.281   3.721   0.910 -0.3212  0.1258 -0.3191
 1877SOL    HW117264   3.344   3.780   0.951 -3.0347  1.4853  1.8801
 1877SOL    HW217265   3.253   3.755   0.825 -2.2240  0.0999  0.2941
 1878SOL     OW17266   2.318   1.578   4.784 -0.7190  0.2125  0.5618
 1878SOL    HW117267   2.288   1.592   4.695 -0.6600  1.3017  0.7121
 1878SOL    HW217268   2.401   1.539   4.757 -0.0780  2.2632 -0.4296
 1879SOL     OW17269   2.157   1.977  17.689 -0.3087  0.3619 -0.0821
 1879SOL    HW117270   2.182   1.914  17.756  1.3804  0.2762 -0.7763
 1879SOL    HW217271   2.198   2.057  17.723 -1.1788  1.6120 -1.9889
 1880SOL     OW17272   1.407   0.384   3.982  0.8208 -0.0972 -0.1917
 1880SOL    HW117273   1.460   0.327   3.926 -0.0967 -1.1058 -0.0478
 1880SOL    HW217274   1.411   0.332   4.063  0.6370  0.7633  0.3712
 1881SOL     OW17275   3.332   3.920   8.125 -0.3677 -0.0361  0.1501
 1881SOL    HW117276   3.406   3.898   8.068 -2.1593  0.1852 -2.2853
 1881SOL    HW217277   3.301   3.997   8.078  0.4899 -1.4124 -2.6784
 1882SOL     OW17278   0.339   2.846   2.506  0.2158  0.2975  0.3992
 1882SOL    HW117279   0.267   2.906   2.487  0.2547  0.0524 -0.5269
 1882SOL    HW217280   0.370   2.819   2.419  1.6528 -0.5147  1.1730
 1883SOL     OW17281   0.990   2.937   3.525  0.2195 -0.5959  0.6442
 1883SOL    HW117282   0.900   2.960   3.502  0.6840  1.5664  0.9875
 1883SOL    HW217283   1.033   2.971   3.446  0.0836  0.7173  1.1272
 1884SOL     OW17284   0.949   3.495   2.340  0.4531  0.3831  0.5697
 1884SOL    HW117285   0.899   3.475   2.261  2.4617 -0.6741 -0.4220
 1884SOL    HW217286   0.883   3.470   2.405  0.2689 -0.9057 -0.1151
 1885SOL     OW17287   2.890   1.742   5.403  0.4432  0.0979  0.1127
 1885SOL    HW117288   2.910   1.760   5.495  1.1195  0.3958 -0.0908
 1885SOL    HW217289   2.978   1.739   5.365 -0.5865  1.7825 -2.3726
 1886SOL     OW17290   0.665   3.203   9.018 -0.1568  0.1337  0.0453
 1886SOL    HW117291   0.741   3.151   8.993 -0.0352 -0.9160  2.5577
 1886SOL    HW217292   0.687   3.286   8.976  0.3836 -0.9942 -1.8813
 1887SOL     OW17293   1.984   3.473  10.252  0.3693 -0.1853 -0.4377
 1887SOL    HW117294   1.889   3.468  10.240  0.2062  1.7464 -0.0049
 1887SOL    HW217295   1.997   3.380  10.270  0.6834 -0.0153  0.2353
 1888SOL     OW17296   4.700   1.816  17.377 -0.4099  0.2755  0.2437
 1888SOL    HW117297   4.641   1.892  17.383 -1.8003 -0.9663  2.4238
 1888SOL    HW217298   4.636   1.745  17.386  0.3099 -0.6152 -1.6869
 1889SOL     OW17299   3.154   4.419   0.959  0.0203 -0.3805 -0.0455
 1889SOL    HW117300   3.106   4.502   0.959 -1.1378 -1.0377 -0.1838
 1889SOL    HW217301   3.159   4.404   1.053 -1.2151  3.6734  0.6732
 1890SOL     OW17302   4.571   0.344   9.514 -0.3660  0.7394  0.2484
 1890SOL    HW117303   4.479   0.367   9.524 -0.4552  0.9973 -1.1958
 1890SOL    HW217304   4.585   0.283   9.586  0.3252  2.3010  1.4323
 1891SOL     OW17305   3.005   4.241   7.868 -0.2748 -0.2128  0.1366
 1891SOL    HW117306   2.973   4.267   7.955 -0.3425 -0.0408  0.0592
 1891SOL    HW217307   2.938   4.272   7.807  0.5575 -1.1570 -1.2559
 1892SOL     OW17308   0.450   0.373   3.781  0.0338  0.0378 -0.3576
 1892SOL    HW117309   0.384   0.352   3.847 -0.0655 -2.6506 -1.3197
 1892SOL    HW217310   0.436   0.468   3.777  0.0433  0.0566  0.0504
 1893SOL     OW17311   4.631   1.065  15.938  0.8007  0.4032 -0.4258
 1893SOL    HW117312   4.686   1.071  16.016 -0.8452  0.1201  0.7541
 1893SOL    HW217313   4.664   0.983  15.900 -0.6652 -0.3713 -0.0564
 1894SOL     OW17314   0.176   0.026   9.514  0.2725  0.2946  0.8008
 1894SOL    HW117315   0.268   0.027   9.487  0.0023 -0.1071 -0.1616
 1894SOL    HW217316   0.145   4.682   9.485  0.1419  0.7872 -0.5388
 1895SOL     OW17317   3.425   0.444   2.092 -0.3722 -0.0014 -0.0957
 1895SOL    HW117318   3.448   0.351   2.093 -1.8341 -0.3925 -3.4126
 1895SOL    HW217319   3.392   0.465   2.179 -0.8179  0.2033 -0.3166
 1896SOL     OW17320   1.156   4.563  14.529 -0.0645 -0.2905  0.2260
 1896SOL    HW117321   1.193   4.519  14.452 -2.9285  1.9688 -2.4703
 1896SOL    HW217322   1.202   4.646  14.515 -0.2959  0.3266  3.2634
 1897SOL     OW17323   2.024   1.217  14.113 -0.3972 -0.6561  0.1276
 1897SOL    HW117324   2.050   1.273  14.040 -0.7480 -0.2163  0.3433
 1897SOL    HW217325   1.975   1.147  14.070 -0.2449 -0.7790  0.1534
 1898SOL     OW17326   2.073   4.497  16.166  0.0459 -0.1527  0.1819
 1898SOL    HW117327   2.088   4.543  16.248  0.3771  0.3350 -0.1478
 1898SOL    HW217328   2.151   4.522  16.116 -0.1447  1.0404  0.4651
 1899SOL     OW17329   2.126   0.426   3.264  0.2760 -0.4661  0.0513
 1899SOL    HW117330   2.145   0.424   3.170 -1.1442  0.4805 -0.2555
 1899SOL    HW217331   2.037   0.461   3.257 -0.2866 -1.5883  1.8295
 1900SOL     OW17332   2.099   0.141   7.743  0.2328 -0.0192  0.1264
 1900SOL    HW117333   2.168   0.193   7.785  2.0156 -0.7887 -1.8677
 1900SOL    HW217334   2.038   0.207   7.710  0.9928  0.5210 -0.2061
 1901SOL     OW17335   1.814   1.010   9.341  0.4568 -0.2457  0.2108
 1901SOL    HW117336   1.806   1.042   9.251 -1.5522 -0.3745  0.3334
 1901SOL    HW217337   1.905   0.985   9.332  0.7757  0.9825 -0.0182
 1902SOL     OW17338   1.974   3.777   2.713  0.0911 -0.1372  0.3564
 1902SOL    HW117339   1.983   3.722   2.791 -0.0826 -2.6771 -1.4369
 1902SOL    HW217340   1.991   3.865   2.747 -0.1958  0.7594 -1.8296
 1903SOL     OW17341   4.272   2.577   2.924 -0.8798 -0.4504  0.1143
 1903SOL    HW117342   4.181   2.596   2.903 -0.2556  0.8129 -1.4087
 1903SOL    HW217343   4.303   2.525   2.849 -0.2836  0.7394 -0.4510
 1904SOL     OW17344   1.144   4.733   5.851 -0.0671  0.5747  0.8090
 1904SOL    HW117345   1.097   0.042   5.917  0.0858  1.1875  0.4473
 1904SOL    HW217346   1.085   4.737   5.775 -0.0208 -1.2572  0.6651
 1905SOL     OW17347   0.149   2.642  10.720 -0.4940  0.5812  0.5435
 1905SOL    HW117348   0.205   2.630  10.797  0.0804  1.0952  0.2001
 1905SOL    HW217349   0.102   2.724  10.736 -1.6983  0.4607 -2.4039
 1906SOL     OW17350   2.782   1.081   2.733 -0.1843  0.2202  0.2447
 1906SOL    HW117351   2.757   1.038   2.651 -2.1168  1.0144  0.4306
 1906SOL    HW217352   2.713   1.147   2.741 -1.6484 -1.2180 -0.5626
 1907SOL     OW17353   3.690   3.495  11.911 -0.0715 -0.1867  0.0471
 1907SOL    HW117354   3.647   3.559  11.855 -0.7214  1.3072  2.2572
 1907SOL    HW217355   3.766   3.469  11.859  1.5797  0.8428  1.9192
 1908SOL     OW17356   0.006   4.485   4.050 -0.3591  0.4687 -0.0679
 1908SOL    HW117357   0.031   4.554   3.988 -1.8818  2.0443  1.0770
 1908SOL    HW217358   0.033   4.530   4.130 -0.2490  0.2515  0.0167
 1909SOL     OW17359   3.223   2.281   8.113  0.3298 -0.1207  0.7831
 1909SOL    HW117360   3.259   2.302   8.199 -0.7136 -1.5802  1.5918
 1909SOL    HW217361   3.169   2.205   8.137  0.1426 -0.4926 -0.8542
 1910SOL     OW17362   2.528   3.673   6.757  0.6068  0.7395 -0.0381
 1910SOL    HW117363   2.518   3.579   6.742  2.8539  0.6375 -0.8910
 1910SOL    HW217364   2.475   3.714   6.689 -0.5506 -1.2799 -0.3426
 1911SOL     OW17365   1.203   3.078   7.165 -0.0112  0.5462 -0.3208
 1911SOL    HW117366   1.250   3.026   7.100  1.5445 -0.1319  1.3287
 1911SOL    HW217367   1.228   3.163   7.129  1.5978  1.1460  2.1756
 1912SOL     OW17368   4.304   2.737  10.263  0.3806  0.1679 -0.2875
 1912SOL    HW117369   4.230   2.796  10.272  0.1798  0.2283 -2.3617
 1912SOL    HW217370   4.371   2.767  10.325  1.8031 -1.5455 -0.9816
 1913SOL     OW17371   3.775   0.088   4.011  0.4253  0.3513  0.3602
 1913SOL    HW117372   3.817   0.144   3.945  0.8333  1.8514  1.8804
 1913SOL    HW217373   3.705   0.147   4.039 -0.0907  0.4765 -1.2073
 1914SOL     OW17374   1.807   2.942   3.653 -0.3611 -0.3185 -0.2057
 1914SOL    HW117375   1.885   2.995   3.669 -1.7991  2.1495 -1.3263
 1914SOL    HW217376   1.736   3.004   3.632 -0.3049 -0.4596 -0.8276
 1915SOL     OW17377   1.742   1.363  11.945 -1.0670  0.0197 -0.1170
 1915SOL    HW117378   1.723   1.299  11.877 -3.1057 -0.5798  1.0071
 1915SOL    HW217379   1.657   1.370  11.988  0.1212  1.3784  2.0333
 1916SOL     OW17380   2.917   2.279  13.269 -0.2050  0.1380 -0.2933
 1916SOL    HW117381   2.906   2.345  13.200  2.7673  0.4699 -0.4620
 1916SOL    HW217382   2.879   2.308  13.352 -0.6237  1.2334 -0.8674
 1917SOL     OW17383   1.829   3.051   8.985 -0.1105 -0.0144 -0.0561
 1917SOL    HW117384   1.878   3.086   9.060  0.9813 -1.2729 -0.1733
 1917SOL    HW217385   1.837   3.122   8.921 -0.0733 -0.9611 -1.1052
 1918SOL     OW17386   4.079   2.087  16.511 -0.2657  0.3148 -0.1840
 1918SOL    HW117387   4.047   2.091  16.601 -2.3571  1.0312 -0.9387
 1918SOL    HW217388   4.172   2.102  16.525 -0.2721  0.4989 -0.3262
 1919SOL     OW17389   4.543   0.365  10.458 -0.3916  0.7832  0.3324
 1919SOL    HW117390   4.456   0.336  10.489 -0.5060  1.1654  0.3653
 1919SOL    HW217391   4.532   0.406  10.373  0.6156 -0.3220 -0.3283
 1920SOL     OW17392   1.553   0.002  17.490  0.3663 -0.4327 -0.1145
 1920SOL    HW117393   1.543   4.675  17.424  0.6694  2.3121 -3.0285
 1920SOL    HW217394   1.477   4.734  17.547  1.1456  2.2583  1.3824
 1921SOL     OW17395   0.978   3.672  12.807 -0.5056 -0.7249 -0.0741
 1921SOL    HW117396   0.966   3.580  12.829 -1.1813 -0.8066 -0.7830
 1921SOL    HW217397   0.997   3.721  12.887 -2.9705 -1.7192  1.1085
 1922SOL     OW17398   3.447   0.143   7.644  0.2331  0.0917 -0.1474
 1922SOL    HW117399   3.539   0.169   7.652  0.2842 -0.4614  0.9766
 1922SOL    HW217400   3.396   0.193   7.707 -0.0742 -1.1720  0.6092
 1923SOL     OW17401   4.268   0.664  14.135 -0.1055 -0.5465  0.1153
 1923SOL    HW117402   4.244   0.752  14.164  2.3675  0.9155 -2.1928
 1923SOL    HW217403   4.307   0.631  14.216  0.2263 -0.7565 -0.1302
 1924SOL     OW17404   2.485   3.052   8.562  0.2378 -0.3589  0.0440
 1924SOL    HW117405   2.495   3.140   8.526  0.6493 -0.2738  0.3632
 1924SOL    HW217406   2.492   3.072   8.656 -1.0703 -1.5867  0.3992
 1925SOL     OW17407   3.901   4.437  15.437 -0.2463 -0.1903  0.2002
 1925SOL    HW117408   3.857   4.507  15.486  0.5123 -0.6834  1.5786
 1925SOL    HW217409   3.833   4.398  15.382  1.0239 -1.0891 -0.7186
 1926SOL     OW17410   3.814   0.797   7.805  0.3330 -0.3812  0.2327
 1926SOL    HW117411   3.839   0.719   7.756 -2.3994 -0.4818 -0.9814
 1926SOL    HW217412   3.725   0.773   7.831 -0.5028 -1.0393 -3.2095
 1927SOL     OW17413   2.786   2.141   2.008 -0.0468 -0.5537  0.4384
 1927SOL    HW117414   2.823   2.079   2.071 -2.0749  0.0195  2.1737
 1927SOL    HW217415   2.729   2.185   2.071  0.6709  0.7308  0.1939
 1928SOL     OW17416   2.043   0.873  14.978 -0.1944  0.4377 -0.3488
 1928SOL    HW117417   2.018   0.864  15.070 -0.3993  1.5396 -0.2947
 1928SOL    HW217418   2.132   0.836  14.971 -0.2730  0.4046 -1.0802
 1929SOL     OW17419   3.951   1.421   3.163  0.2567  0.4005  0.3277
 1929SOL    HW117420   3.959   1.492   3.100  1.7703  0.2292  0.3337
 1929SOL    HW217421   3.984   1.342   3.121  1.5432  0.7077  0.7651
 1930SOL     OW17422   4.534   2.341   8.430 -0.3297  0.0768 -0.1450
 1930SOL    HW117423   4.508   2.403   8.498  1.1003  1.8259 -1.1688
 1930SOL    HW217424   4.550   2.267   8.488  0.7447 -0.5268 -1.2161
 1931SOL     OW17425   0.442   2.691   7.502 -0.2389 -0.1355  0.2011
 1931SOL    HW117426   0.390   2.667   7.578  0.3674  3.3946  1.7182
 1931SOL    HW217427   0.486   2.608   7.484  2.2516  1.7786 -2.6548
 1932SOL     OW17428   2.716   0.548  12.922 -0.0116 -0.2654  0.1149
 1932SOL    HW117429   2.708   0.531  13.016  2.4883  2.5948  0.8380
 1932SOL    HW217430   2.809   0.557  12.899  0.6954 -0.8069  2.7526
 1933SOL     OW17431   2.081   0.287  16.163  0.5018 -0.0517 -0.2532
 1933SOL    HW117432   2.051   0.246  16.082  1.9744  0.1030 -0.8832
 1933SOL    HW217433   2.062   0.379  16.148  0.9195  0.3044  1.4610
 1934SOL     OW17434   2.946   3.424   5.543  0.6952 -0.3097  0.5343
 1934SOL    HW117435   3.018   3.396   5.600  1.4925  0.0594 -0.2922
 1934SOL    HW217436   2.918   3.345   5.495 -0.0429  1.1368 -1.4129
 1935SOL     OW17437   4.698   1.682  15.716 -0.5060 -0.4000 -0.3603
 1935SOL    HW117438   4.645   1.742  15.664 -0.7117  0.9355  1.3768
 1935SOL    HW217439   4.697   1.715  15.806 -2.5591  1.9926 -1.2620
 1936SOL     OW17440   2.610   3.880   5.028  0.8232  0.2481  0.4208
 1936SOL    HW117441   2.542   3.898   4.964  1.3740 -0.0778 -0.2618
 1936SOL    HW217442   2.570   3.794   5.042  1.6509 -0.7026 -2.9007
 1937SOL     OW17443   4.038   1.459   1.589 -0.0586 -0.1390 -0.0636
 1937SOL    HW117444   4.122   1.489   1.554  1.5236 -0.3162  3.6378
 1937SOL    HW217445   4.025   1.381   1.535 -1.9394 -1.0787  1.7336
 1938SOL     OW17446   2.526   1.135  15.287  0.5010  0.8730  0.7096
 1938SOL    HW117447   2.519   1.104  15.197  0.9158  1.9076  0.3144
 1938SOL    HW217448   2.440   1.107  15.317  1.5473 -1.3334  1.6344
 1939SOL     OW17449   3.862   4.342   5.465 -0.1844 -0.2437  0.1196
 1939SOL    HW117450   3.955   4.357   5.445 -0.0418 -0.5791  0.5416
 1939SOL    HW217451   3.819   4.348   5.380  0.1398 -0.8048 -0.0809
 1940SOL     OW17452   2.161   4.686  16.827  0.0803  0.2837 -0.6041
 1940SOL    HW117453   2.094   4.619  16.841  1.3053 -0.9926 -0.7671
 1940SOL    HW217454   2.231   4.648  16.774 -0.9785  0.0167 -1.8048
 1941SOL     OW17455   1.686   0.073  16.420  0.1631  0.3785 -1.1221
 1941SOL    HW117456   1.620   0.137  16.446  2.5094  2.0209  0.8573
 1941SOL    HW217457   1.643   4.737  16.455  1.2624 -0.0746 -0.7629
 1942SOL     OW17458   3.515   0.460   7.588  0.7114 -0.3088  0.0938
 1942SOL    HW117459   3.576   0.404   7.635  0.2071 -0.9013  0.0370
 1942SOL    HW217460   3.536   0.461   7.494 -0.6968 -0.4465 -0.2235
 1943SOL     OW17461   3.621   3.195   6.693  0.2990 -0.0539  0.1719
 1943SOL    HW117462   3.531   3.210   6.666 -0.0193  1.5951  2.1467
 1943SOL    HW217463   3.672   3.240   6.626  0.7273 -0.7362  0.0349
 1944SOL     OW17464   0.837   2.765   0.622  0.5216 -0.2486 -0.2607
 1944SOL    HW117465   0.818   2.681   0.581 -1.9561  0.2867 -0.2147
 1944SOL    HW217466   0.751   2.804   0.606  0.7095  0.9063  1.5552
 1945SOL     OW17467   2.043   0.263  13.872 -0.5043  0.2533  0.4210
 1945SOL    HW117468   2.062   0.353  13.896 -2.7027  1.0623 -0.9161
 1945SOL    HW217469   2.122   0.215  13.897  0.5752  1.2171 -1.1693
 1946SOL     OW17470   0.364   1.240   2.266  0.4033 -0.2943  0.3434
 1946SOL    HW117471   0.457   1.243   2.247  0.5969  0.9634  1.4575
 1946SOL    HW217472   0.327   1.197   2.189 -1.1817 -0.0049  0.9324
 1947SOL     OW17473   1.716   3.781   4.326 -0.1660  0.2955  0.2497
 1947SOL    HW117474   1.700   3.696   4.365  1.7559 -0.3414 -0.3583
 1947SOL    HW217475   1.810   3.794   4.339 -0.2139  1.6324 -0.7494
 1948SOL     OW17476   2.051   2.632   2.813  0.2910  0.1527 -0.0395
 1948SOL    HW117477   2.015   2.696   2.875 -2.3654 -1.5763  0.2409
 1948SOL    HW217478   2.144   2.636   2.836  0.2498 -1.0586  0.3552
 1949SOL     OW17479   3.000   3.780   3.587 -0.1655 -0.4747  0.0392
 1949SOL    HW117480   3.079   3.816   3.546 -0.1793  0.1630  0.5823
 1949SOL    HW217481   3.011   3.687   3.565  0.3239 -0.9350  2.2406
 1950SOL     OW17482   4.354   3.007  13.990  0.6874 -0.1884  0.1038
 1950SOL    HW117483   4.425   2.962  13.945  1.2584 -0.0151  0.8323
 1950SOL    HW217484   4.276   2.964  13.955  1.4013 -0.9686 -0.5385
 1951SOL     OW17485   4.077   1.616   4.242 -0.3822 -0.4494  0.4540
 1951SOL    HW117486   4.055   1.537   4.192  0.4663 -1.1014  1.1161
 1951SOL    HW217487   4.009   1.618   4.310  0.3622  3.4019  1.0283
 1952SOL     OW17488   1.463   2.501   3.464  0.2690  0.7360  0.8176
 1952SOL    HW117489   1.376   2.477   3.432  0.6721 -0.0494  0.3143
 1952SOL    HW217490   1.465   2.459   3.550  2.3914  2.1559  1.4729
 1953SOL     OW17491   2.708   3.440  16.834 -0.1235 -0.3908  0.3406
 1953SOL    HW117492   2.729   3.475  16.747 -0.7808  0.2620  0.4446
 1953SOL    HW217493   2.755   3.357  16.838 -2.9982 -2.0317 -0.0400
 1954SOL     OW17494   3.482   4.318   2.366 -0.3422 -0.2509  0.5532
 1954SOL    HW117495   3.424   4.352   2.298  1.1480  1.4978  0.1601
 1954SOL    HW217496   3.437   4.340   2.448  0.3039 -1.1782  1.1710
 1955SOL     OW17497   2.778   4.511   3.377 -0.0069  0.4019 -0.0439
 1955SOL    HW117498   2.693   4.484   3.342 -0.4792  0.2268  1.2424
 1955SOL    HW217499   2.743   4.557   3.453 -0.9148 -0.8295  0.2872
 1956SOL     OW17500   3.337   3.700  17.533  0.4949 -0.4716  0.0576
 1956SOL    HW117501   3.368   3.652  17.611  0.8542  1.2574  0.9711
 1956SOL    HW217502   3.249   3.667  17.514  0.6340 -0.5895 -0.3862
 1957SOL     OW17503   1.478   0.470   4.731  0.9670  0.3531 -0.2737
 1957SOL    HW117504   1.519   0.546   4.773 -0.7322  0.2706  1.5079
 1957SOL    HW217505   1.546   0.403   4.738  0.3594 -0.3554 -1.2200
 1958SOL     OW17506   1.136   3.804   3.244 -0.2086 -0.4439  0.5562
 1958SOL    HW117507   1.227   3.832   3.238 -0.2288 -0.8693 -2.0027
 1958SOL    HW217508   1.098   3.868   3.304 -2.0002 -0.7789 -0.1919
 1959SOL     OW17509   2.408   1.109   9.290  0.0837 -0.3810  0.2778
 1959SOL    HW117510   2.319   1.134   9.268  0.6566  1.3237 -0.0774
 1959SOL    HW217511   2.424   1.032   9.234  0.0029 -0.2937  0.1339
 1960SOL     OW17512   2.653   3.019   5.726 -0.3470  0.2609 -0.1105
 1960SOL    HW117513   2.571   2.970   5.737  0.0299 -1.2855 -4.0829
 1960SOL    HW217514   2.705   2.943   5.700  0.1435  0.3492  0.6232
 1961SOL     OW17515   3.665   4.121   2.424 -0.2502  0.1913 -0.4692
 1961SOL    HW117516   3.587   4.176   2.434  0.4842  1.2563 -0.6498
 1961SOL    HW217517   3.690   4.148   2.335 -0.7433 -1.1451 -1.0184
 1962SOL     OW17518   3.030   2.849   5.600 -0.0932 -0.4202 -0.2275
 1962SOL    HW117519   2.982   2.837   5.682  0.8900 -0.3333  0.3614
 1962SOL    HW217520   3.096   2.782   5.616  1.8059  1.6234  0.5075
 1963SOL     OW17521   0.429   2.726   7.824 -0.2565  0.1465 -0.7077
 1963SOL    HW117522   0.414   2.809   7.868  1.8160  0.3134 -0.3121
 1963SOL    HW217523   0.338   2.700   7.813 -0.6467  0.7112  1.1739
 1964SOL     OW17524   1.106   0.053   9.313  0.2129  0.3635 -0.4865
 1964SOL    HW117525   1.184   0.097   9.279  1.0788 -2.0072 -1.5731
 1964SOL    HW217526   1.144   4.735   9.377 -2.9434 -0.2753  0.7706
 1965SOL     OW17527   1.521   0.984   8.006  0.5252 -0.4218 -0.4008
 1965SOL    HW117528   1.498   1.003   8.097 -1.7263 -1.3905 -0.7609
 1965SOL    HW217529   1.463   0.914   7.975 -1.0718  1.1436 -0.9734
 1966SOL     OW17530   3.078   3.709   6.593 -0.1184  0.0859  0.1039
 1966SOL    HW117531   3.125   3.684   6.513 -0.7039  0.9815 -0.5173
 1966SOL    HW217532   3.138   3.665   6.653 -0.8926  0.5105  1.1689
 1967SOL     OW17533   1.422   1.041   4.660  0.4476 -0.1994  0.2344
 1967SOL    HW117534   1.447   0.950   4.671  1.4012 -0.2835 -2.4832
 1967SOL    HW217535   1.385   1.057   4.747 -0.5851  1.6868 -0.5416
 1968SOL     OW17536   3.051   1.614   8.681  0.7722  0.3075  0.0746
 1968SOL    HW117537   3.096   1.588   8.761 -1.0698  1.7417  1.5583
 1968SOL    HW217538   2.989   1.541   8.676 -0.5984  1.6502 -2.4746
 1969SOL     OW17539   3.795   0.428   3.195  0.4821 -0.2981 -0.4399
 1969SOL    HW117540   3.777   0.405   3.286  1.0214 -0.4111 -0.3597
 1969SOL    HW217541   3.736   0.502   3.182  0.2684 -0.4067 -0.0888
 1970SOL     OW17542   3.586   1.580   4.250 -0.1957 -0.5238 -0.1064
 1970SOL    HW117543   3.517   1.627   4.204  0.7365  1.9398  0.9746
 1970SOL    HW217544   3.536   1.505   4.281  1.1010 -0.6010  1.7989
 1971SOL     OW17545   3.388   0.422   3.337  0.4437  0.2106  0.2955
 1971SOL    HW117546   3.420   0.338   3.370 -2.8551 -1.5728 -1.0152
 1971SOL    HW217547   3.307   0.430   3.388 -0.3067  2.9967 -1.3326
 1972SOL     OW17548   4.222   0.919  11.807 -0.2611 -0.6156 -0.7975
 1972SOL    HW117549   4.132   0.950  11.796 -0.0352  0.5590  0.7702
 1972SOL    HW217550   4.199   0.831  11.835 -0.6699 -0.3784 -0.3819
 1973SOL     OW17551   4.640   0.881   5.368 -0.0566  0.2435 -0.0554
 1973SOL    HW117552   4.682   0.861   5.284  0.2049 -1.6401  0.5142
 1973SOL    HW217553   4.589   0.957   5.340  1.4702  0.9473 -0.9504
 1974SOL     OW17554   4.540   3.392   2.691 -0.3392  0.0541  0.0028
 1974SOL    HW117555   4.547   3.445   2.771 -1.8046 -0.8973  0.7735
 1974SOL    HW217556   4.531   3.303   2.725 -2.2285  0.0823 -0.4526
 1975SOL     OW17557   2.010   2.643   8.318 -0.1566  0.5650 -0.0365
 1975SOL    HW117558   2.082   2.592   8.353 -1.0055 -0.3806  0.3352
 1975SOL    HW217559   2.004   2.711   8.385  0.3616 -0.7127  1.2927
 1976SOL     OW17560   2.689   3.104  12.395  0.5581  0.0160  0.3012
 1976SOL    HW117561   2.615   3.139  12.446  0.9765 -1.7841  2.1377
 1976SOL    HW217562   2.642   3.040  12.342 -1.0258  0.7833  0.7773
 1977SOL     OW17563   2.238   3.552   7.769 -0.0887  0.1713  0.3793
 1977SOL    HW117564   2.216   3.623   7.829 -0.6488  0.9030 -0.6914
 1977SOL    HW217565   2.223   3.600   7.688 -1.4230  0.9687  1.0946
 1978SOL     OW17566   2.070   0.665   1.608  0.5699 -0.1743 -0.8297
 1978SOL    HW117567   2.073   0.676   1.513 -2.2315  2.7506 -0.5903
 1978SOL    HW217568   2.164   0.666   1.627 -0.0140  0.1650  2.0971
 1979SOL     OW17569   4.223   4.204   0.037  0.1831 -0.3190  0.2633
 1979SOL    HW117570   4.267   4.285   0.010 -2.5660  0.2251 -2.5954
 1979SOL    HW217571   4.172   4.238   0.110 -1.7200 -1.5341 -0.5091
 1980SOL     OW17572   3.197   4.616   0.660  1.0552 -0.3713  0.0796
 1980SOL    HW117573   3.110   4.633   0.624 -0.8350 -1.3317  4.1588
 1980SOL    HW217574   3.224   4.543   0.603  1.2031 -0.2963  0.0549
 1981SOL     OW17575   4.002   2.301   4.429 -0.1320 -0.0835 -0.3057
 1981SOL    HW117576   4.079   2.338   4.387 -1.3487  1.2078 -1.3892
 1981SOL    HW217577   3.958   2.374   4.474  0.2477 -0.1110  0.1119
 1982SOL     OW17578   2.692   4.244   4.720  0.0748 -0.6767  0.5101
 1982SOL    HW117579   2.742   4.323   4.741  0.9024 -0.9431 -0.4667
 1982SOL    HW217580   2.638   4.250   4.799 -1.4293 -1.6787 -0.4304
 1983SOL     OW17581   2.888   2.295   8.614 -0.2288  0.4739 -0.3424
 1983SOL    HW117582   2.815   2.316   8.556 -0.1705  0.7509 -0.3178
 1983SOL    HW217583   2.860   2.353   8.685 -2.5669  0.6568 -1.4177
 1984SOL     OW17584   2.301   3.419   6.491  0.3608 -0.7237 -0.6246
 1984SOL    HW117585   2.311   3.326   6.512  1.2294 -0.5043 -0.1084
 1984SOL    HW217586   2.263   3.420   6.403  0.7980  1.1958 -0.7808
 1985SOL     OW17587   1.204   0.419   0.848  0.3866 -0.3667 -0.1620
 1985SOL    HW117588   1.228   0.502   0.806  1.7629 -1.2051 -1.0210
 1985SOL    HW217589   1.269   0.361   0.809  1.0033 -0.3298  0.7999
 1986SOL     OW17590   1.024   0.083  12.257 -0.3871 -0.2799  0.1275
 1986SOL    HW117591   1.111   0.108  12.287 -0.4259  1.3789 -1.1328
 1986SOL    HW217592   0.971   0.139  12.313  1.6760  1.1343  0.6843
 1987SOL     OW17593   3.597   3.700   6.228 -0.5627 -0.5555 -0.7169
 1987SOL    HW117594   3.554   3.782   6.255  0.1877 -1.0667  1.9902
 1987SOL    HW217595   3.553   3.680   6.145 -0.3943  1.0894 -1.2154
 1988SOL     OW17596   3.525   3.196   0.363 -0.0396 -0.3497 -0.2159
 1988SOL    HW117597   3.478   3.159   0.288 -0.4044 -1.6985  0.6821
 1988SOL    HW217598   3.452   3.217   0.421 -0.2438 -3.0148  0.4929
 1989SOL     OW17599   2.099   4.171   8.539  0.4418  0.3880  0.0642
 1989SOL    HW117600   2.039   4.119   8.485 -0.6300  1.1235  0.5479
 1989SOL    HW217601   2.041   4.246   8.556  0.1064 -0.3173  1.9609
 1990SOL     OW17602   3.556   0.859   4.944 -0.0188 -0.0079  0.2055
 1990SOL    HW117603   3.477   0.806   4.939  0.2970 -0.4562 -0.0717
 1990SOL    HW217604   3.609   0.804   5.002 -2.5488 -1.6119  0.9797
 1991SOL     OW17605   2.057   1.708  12.716 -0.1032 -0.1319  0.2445
 1991SOL    HW117606   2.063   1.785  12.773 -0.3366  0.4389 -0.5092
 1991SOL    HW217607   2.054   1.634  12.778  2.1706 -2.6507 -2.6363
 1992SOL     OW17608   0.357   2.334   7.978  0.4826  0.2536 -0.0471
 1992SOL    HW117609   0.264   2.353   7.973  0.4891  0.8624  2.1748
 1992SOL    HW217610   0.376   2.362   8.068  1.9999 -1.1858  0.0795
 1993SOL     OW17611   0.459   3.794  14.687  0.4157  0.8594 -0.5913
 1993SOL    HW117612   0.528   3.729  14.696  0.6313  0.9819 -1.3368
 1993SOL    HW217613   0.487   3.854  14.756 -0.6341 -0.5242  1.0100
 1994SOL     OW17614   2.381   0.807   1.462  0.7105  0.5561 -0.0893
 1994SOL    HW117615   2.336   0.768   1.537  1.1657 -0.9567 -0.5904
 1994SOL    HW217616   2.317   0.871   1.432 -1.1018 -2.4091 -2.4947
 1995SOL     OW17617   0.684   2.876   6.370  0.1909 -0.2953  0.1671
 1995SOL    HW117618   0.666   2.914   6.456 -0.6581 -1.7829  0.6499
 1995SOL    HW217619   0.721   2.791   6.394 -0.1824 -0.2665  0.8399
 1996SOL     OW17620   3.287   0.126   2.912 -0.1441 -0.0158  0.4172
 1996SOL    HW117621   3.245   0.211   2.894 -1.3175  0.2048  4.2270
 1996SOL    HW217622   3.371   0.135   2.868 -1.5275 -0.0696 -2.2587
 1997SOL     OW17623   2.924   3.112   7.281 -0.2275  0.1580  0.2006
 1997SOL    HW117624   2.938   3.046   7.349  1.6590  3.0474  2.6098
 1997SOL    HW217625   2.877   3.186   7.318  1.5190  0.1618  2.4173
 1998SOL     OW17626   0.517   4.217   3.193 -0.1144  0.8100  0.0137
 1998SOL    HW117627   0.564   4.192   3.114 -0.6674  1.5758 -0.5578
 1998SOL    HW217628   0.558   4.299   3.219  1.1593 -0.1559  1.0272
 1999SOL     OW17629   2.758   3.502   4.383  0.3028 -0.1052 -0.0091
 1999SOL    HW117630   2.709   3.529   4.460 -1.0889  2.5207 -1.7762
 1999SOL    HW217631   2.719   3.546   4.307  2.2335 -1.7664 -1.9620
 2000SOL     OW17632   1.790   0.377   2.084 -0.0544 -0.1058 -0.0999
 2000SOL    HW117633   1.729   0.442   2.049  0.7083  0.4955 -0.3110
 2000SOL    HW217634   1.784   0.310   2.016  1.9655 -0.9247  0.5297
 2001SOL     OW17635   1.268   3.629  11.722  0.1390  0.2269  0.0460
 2001SOL    HW117636   1.356   3.667  11.732 -0.5492  1.5677  0.9567
 2001SOL    HW217637   1.246   3.605  11.812 -1.1839  2.6039  0.3733
 2002SOL     OW17638   3.324   0.691   1.957 -0.1369 -0.0873 -0.3502
 2002SOL    HW117639   3.312   0.612   2.009 -2.6973 -0.2621 -1.2113
 2002SOL    HW217640   3.414   0.684   1.924 -0.0744  0.1204 -0.2266
 2003SOL     OW17641   2.506   4.326  11.347  0.4232 -0.4433 -0.0965
 2003SOL    HW117642   2.506   4.409  11.298 -3.0783 -0.7264 -0.5773
 2003SOL    HW217643   2.443   4.280  11.293  2.6627 -1.8248 -1.5376
 2004SOL     OW17644   3.591   2.659   6.232  0.1851 -0.3167  0.1655
 2004SOL    HW117645   3.542   2.587   6.272 -1.7817 -0.5584 -2.7079
 2004SOL    HW217646   3.576   2.729   6.296 -0.5486  1.7864 -2.3216
 2005SOL     OW17647   2.123   2.835  16.599  0.6809  0.0374 -0.4212
 2005SOL    HW117648   2.060   2.882  16.545  1.4909  1.0257 -0.4986
 2005SOL    HW217649   2.073   2.839  16.680  1.4321 -1.6691  0.1299
 2006SOL     OW17650   0.944   1.082   8.112 -0.3489  0.2112  0.1860
 2006SOL    HW117651   0.866   1.073   8.057  0.0745  2.6296 -0.7863
 2006SOL    HW217652   1.003   1.034   8.054 -1.7092 -1.0490 -0.1539
 2007SOL     OW17653   4.721   4.184  16.303  0.5880  0.1490 -0.0936
 2007SOL    HW117654   0.033   4.170  16.382 -0.0162  1.5137  0.5578
 2007SOL    HW217655   4.689   4.273  16.318  2.8852  1.0242 -0.3497
 2008SOL     OW17656   0.008   1.863   1.751 -0.4728 -0.0448 -0.2928
 2008SOL    HW117657   0.011   1.959   1.758  2.2074 -0.4808  4.2958
 2008SOL    HW217658   4.690   1.838   1.821  2.4190 -0.5918  1.9424
 2009SOL     OW17659   2.473   0.027   9.144 -0.0450 -0.3554 -0.3716
 2009SOL    HW117660   2.441   4.698   9.201  0.6044  0.5825  1.1495
 2009SOL    HW217661   2.400   0.039   9.084 -0.8062  0.2185  0.6689
 2010SOL     OW17662   1.790   3.254   2.725 -0.3461 -0.3118 -0.5342
 2010SOL    HW117663   1.783   3.269   2.631 -1.3928  1.7879 -0.1162
 2010SOL    HW217664   1.753   3.165   2.723 -0.8775 -0.1239  1.1260
 2011SOL     OW17665   2.177   1.221  13.690 -0.4515  0.2744  0.0552
 2011SOL    HW117666   2.102   1.240  13.634 -0.2059  1.8826  0.2571
 2011SOL    HW217667   2.236   1.212  13.615  0.4181 -3.4660  1.1948
 2012SOL     OW17668   0.008   4.053  14.281 -0.2215 -0.2911 -0.1530
 2012SOL    HW117669   4.676   3.995  14.262  0.3477 -0.9892 -0.1968
 2012SOL    HW217670   0.071   3.983  14.297  1.2163  1.4173  1.7852
 2013SOL     OW17671   1.275   1.538  11.309 -0.0126 -0.3904  0.5345
 2013SOL    HW117672   1.297   1.629  11.327 -0.5375  0.0573 -1.1684
 2013SOL    HW217673   1.226   1.508  11.386 -1.6395  0.7444 -0.0700
 2014SOL     OW17674   3.641   2.489  16.260  0.0637  0.1051 -0.0085
 2014SOL    HW117675   3.554   2.483  16.300  0.3902  0.3306  0.7478
 2014SOL    HW217676   3.683   2.554  16.316 -0.8425  1.3478 -0.7611
 2015SOL     OW17677   3.478   1.245  12.753 -0.7160  0.2028 -0.1687
 2015SOL    HW117678   3.547   1.306  12.779 -0.8454  0.3071 -0.0698
 2015SOL    HW217679   3.526   1.207  12.679 -0.2454  0.1480  0.1645
 2016SOL     OW17680   0.613   4.309  15.151  0.6889 -0.3059  0.2703
 2016SOL    HW117681   0.655   4.252  15.216 -1.1906  1.4324  2.9962
 2016SOL    HW217682   0.600   4.376  15.218 -1.1709  0.6553 -1.0731
 2017SOL     OW17683   2.882   2.892  11.025 -0.1051 -0.5336 -0.4698
 2017SOL    HW117684   2.816   2.865  10.961 -1.6344  1.4312  0.2640
 2017SOL    HW217685   2.827   2.915  11.100  0.8636 -0.5062  0.2290
 2018SOL     OW17686   3.084   4.634   7.431 -0.0016  0.3389 -0.7427
 2018SOL    HW117687   3.041   4.564   7.381  0.4025  1.1994 -2.3103
 2018SOL    HW217688   3.175   4.621   7.402  0.3968 -1.4820  1.3518
 2019SOL     OW17689   4.566   0.656   2.301  0.1368 -0.3114 -0.2560
 2019SOL    HW117690   4.574   0.621   2.213 -0.4142  3.2045 -1.7002
 2019SOL    HW217691   4.633   0.605   2.346 -0.9409 -0.7166  0.8841
 2020SOL     OW17692   0.738   2.045   8.549 -0.1209  0.3706 -0.3173
 2020SOL    HW117693   0.675   2.117   8.551  0.4278  0.8103  1.5381
 2020SOL    HW217694   0.816   2.089   8.581  1.1113 -1.0612 -1.3537
 2021SOL     OW17695   3.382   2.455   6.155 -0.3714 -0.0544  0.3729
 2021SOL    HW117696   3.355   2.387   6.092  0.5639 -0.6211  0.5796
 2021SOL    HW217697   3.451   2.410   6.202 -0.8390  0.6406  1.7074
 2022SOL     OW17698   4.688   2.117   7.503 -0.1488 -0.1096  0.3343
 2022SOL    HW117699   4.637   2.163   7.570  2.5472  1.2099  1.4526
 2022SOL    HW217700   0.008   2.186   7.478  0.8235 -0.7017  1.1439
 2023SOL     OW17701   2.336   4.103   7.027  0.8161  0.0072  0.5282
 2023SOL    HW117702   2.429   4.080   7.017  0.4586 -3.1322  4.7136
 2023SOL    HW217703   2.304   4.024   7.070  1.2880 -0.7781 -0.5873
 2024SOL     OW17704   3.578   2.633   4.144 -0.2287 -0.7755  0.2059
 2024SOL    HW117705   3.592   2.596   4.231  0.2969 -0.6178  0.1924
 2024SOL    HW217706   3.506   2.580   4.111  0.4986 -1.3536 -0.4654
 2025SOL     OW17707   3.691   2.430   3.748  0.3752  0.1407 -0.4122
 2025SOL    HW117708   3.610   2.378   3.745  0.1747  0.4140  0.5266
 2025SOL    HW217709   3.695   2.460   3.838  1.7964 -1.9583  0.2383
 2026SOL     OW17710   2.600   0.383   8.144  0.2192 -0.2761 -0.2974
 2026SOL    HW117711   2.657   0.398   8.219 -0.1941 -1.1197  0.1910
 2026SOL    HW217712   2.517   0.395   8.191  0.9939 -0.0910  0.9975
 2027SOL     OW17713   1.384   3.149  14.080  0.3377  0.4396  0.6593
 2027SOL    HW117714   1.294   3.174  14.058 -0.2082 -3.7051 -1.7671
 2027SOL    HW217715   1.389   3.084  14.011  1.1574  0.5243  0.6400
 2028SOL     OW17716   2.015   0.300  16.918  0.4716  0.3036 -0.3610
 2028SOL    HW117717   1.940   0.356  16.897 -0.1602 -0.0353  1.0067
 2028SOL    HW217718   1.987   0.267  17.003  1.7094 -2.7096 -1.1149
 2029SOL     OW17719   4.626   3.299   8.617 -0.2121  0.6632 -0.0834
 2029SOL    HW117720   4.710   3.291   8.662 -1.2335  1.6780  2.0195
 2029SOL    HW217721   4.566   3.272   8.686 -0.1302 -0.5832 -0.5085
 2030SOL     OW17722   3.621   3.104   3.959  0.1459  0.7550  0.2695
 2030SOL    HW117723   3.651   3.017   3.987 -2.1939 -0.2626 -0.4080
 2030SOL    HW217724   3.691   3.125   3.897  0.0832  1.3756  0.4085
 2031SOL     OW17725   1.566   3.525   3.591  0.1536  0.4105 -0.4263
 2031SOL    HW117726   1.594   3.543   3.681  1.4224 -2.7761 -0.1824
 2031SOL    HW217727   1.622   3.588   3.547  1.3621 -0.7161 -0.4927
 2032SOL     OW17728   1.211   1.382  14.314  0.4157  0.2793 -0.0166
 2032SOL    HW117729   1.266   1.318  14.269  1.0097  0.3818  0.5778
 2032SOL    HW217730   1.268   1.452  14.346  1.1111 -0.7098  0.8593
 2033SOL     OW17731   1.274   3.070   6.298  0.3079 -0.5472 -0.4100
 2033SOL    HW117732   1.243   2.991   6.253  0.4575 -0.2347 -1.0731
 2033SOL    HW217733   1.190   3.113   6.315 -0.7110 -1.6802 -2.5090
 2034SOL     OW17734   4.686   4.493   7.293 -0.2928 -0.4133 -0.2063
 2034SOL    HW117735   4.659   4.471   7.382 -0.0249  1.6812  0.4001
 2034SOL    HW217736   0.016   4.434   7.272 -0.7951 -1.2156  0.3163
 2035SOL     OW17737   0.797   1.051   8.348 -0.5374 -0.0219 -0.0965
 2035SOL    HW117738   0.850   1.059   8.269  0.0183  0.4995  0.3238
 2035SOL    HW217739   0.717   1.013   8.312 -2.1950  1.5213  1.9188
 2036SOL     OW17740   3.506   4.526   0.285  0.5204  0.5051  0.1471
 2036SOL    HW117741   3.573   4.539   0.218  1.8311 -0.9491  1.1460
 2036SOL    HW217742   3.430   4.550   0.232  0.3694 -1.1478 -0.4054
 2037SOL     OW17743   0.241   1.833  12.856  0.0958 -0.0500 -0.1806
 2037SOL    HW117744   0.327   1.828  12.898  1.3907 -0.7008 -2.8586
 2037SOL    HW217745   0.256   1.893  12.783  0.5681 -2.8739 -2.4054
 2038SOL     OW17746   3.234   4.565  11.117  0.1604 -0.4594  0.2142
 2038SOL    HW117747   3.265   4.655  11.118  0.2049 -0.4726  0.0790
 2038SOL    HW217748   3.147   4.559  11.157  0.0052 -0.7839 -0.1706
 2039SOL     OW17749   3.840   4.431  16.841 -0.6307 -0.5030  0.3723
 2039SOL    HW117750   3.849   4.337  16.825  1.6257  0.3770 -3.6897
 2039SOL    HW217751   3.764   4.450  16.786  2.2123  2.4965 -2.6007
 2040SOL     OW17752   2.027   1.745   9.234  0.6602  0.2675  0.3873
 2040SOL    HW117753   2.069   1.793   9.162 -2.4077 -0.2306 -1.7457
 2040SOL    HW217754   1.950   1.716   9.186  0.7738  2.5260 -1.1808
 2041SOL     OW17755   2.627   1.997   7.301  0.5215 -0.3524  0.3846
 2041SOL    HW117756   2.718   1.997   7.330  0.6474 -1.3834 -0.0033
 2041SOL    HW217757   2.638   1.941   7.224 -3.2824 -1.0536  0.3663
 2042SOL     OW17758   4.645   2.898   5.748 -0.2657 -0.3869  0.0549
 2042SOL    HW117759   4.624   2.821   5.695  0.5338 -0.8575  0.4267
 2042SOL    HW217760   4.557   2.932   5.761 -0.2569  0.1338 -1.2490
 2043SOL     OW17761   0.697   3.891   6.695  0.0311  0.1529 -0.0809
 2043SOL    HW117762   0.616   3.942   6.696  0.5486  0.8800  4.2405
 2043SOL    HW217763   0.728   3.915   6.782  1.7208 -0.4708 -0.5098
 2044SOL     OW17764   2.790   2.386  10.671 -0.5588  0.3260 -0.0478
 2044SOL    HW117765   2.697   2.387  10.651 -0.7967 -0.6532  0.9704
 2044SOL    HW217766   2.789   2.431  10.756  2.1849 -0.8605  0.6294
 2045SOL     OW17767   1.486   4.279   7.826  0.5684  0.3294 -0.7919
 2045SOL    HW117768   1.425   4.209   7.849  0.3814  0.3995 -1.0730
 2045SOL    HW217769   1.453   4.291   7.737  1.1182 -0.1829 -1.0644
 2046SOL     OW17770   2.278   1.056   0.730 -0.1885  0.7591  0.5022
 2046SOL    HW117771   2.185   1.047   0.752 -0.3679  0.6179 -0.2886
 2046SOL    HW217772   2.317   1.023   0.810 -1.4062  1.0086  1.1986
 2047SOL     OW17773   1.824   3.651  17.007 -0.0091 -0.2583  0.3755
 2047SOL    HW117774   1.780   3.638  16.923  3.2164 -0.3809 -1.3142
 2047SOL    HW217775   1.848   3.743  17.005  2.2317 -0.8755 -1.1339
 2048SOL     OW17776   1.032   4.020   3.417  0.0790  0.0175 -0.3009
 2048SOL    HW117777   1.096   4.062   3.475  0.0912 -1.0960  0.5049
 2048SOL    HW217778   0.951   4.055   3.455  1.1467  1.1958  0.9034
 2049SOL     OW17779   2.780   2.992  17.702 -0.4732  0.0838 -0.9182
 2049SOL    HW117780   2.765   2.939   0.016 -3.1189  0.9370 -0.8400
 2049SOL    HW217781   2.699   3.043  17.709 -1.0785 -0.7378 -2.0439
 2050SOL     OW17782   2.770   1.511  14.719 -0.5555 -0.1942 -0.1663
 2050SOL    HW117783   2.820   1.479  14.644  0.5561  2.4718 -0.5691
 2050SOL    HW217784   2.683   1.537  14.687 -1.4631 -1.9526  0.8198
 2051SOL     OW17785   0.007   4.650   1.857  0.5660 -0.3026  0.0268
 2051SOL    HW117786   4.684   4.691   1.915 -0.9567  1.1970 -2.7097
 2051SOL    HW217787   0.087   4.660   1.908 -0.2129 -0.3433  1.2368
 2052SOL     OW17788   2.353   3.466   8.323 -0.0512 -0.4947  0.7889
 2052SOL    HW117789   2.383   3.446   8.234 -0.2359  0.1808  0.5676
 2052SOL    HW217790   2.289   3.531   8.293  1.9769  0.0380 -2.4139
 2053SOL     OW17791   3.715   0.643   5.906 -0.2343  0.8898 -0.3441
 2053SOL    HW117792   3.747   0.553   5.911  0.1655  1.1235  1.2987
 2053SOL    HW217793   3.791   0.694   5.934  0.6819 -0.6921  0.0437
 2054SOL     OW17794   1.372   3.985   9.942 -0.4474 -0.6437  0.2796
 2054SOL    HW117795   1.287   3.949   9.965 -0.3396 -1.0495  0.0477
 2054SOL    HW217796   1.346   4.051   9.878  0.5599  0.4415  0.9842
 2055SOL     OW17797   4.543   4.131   6.361  0.1015 -0.3337 -0.4974
 2055SOL    HW117798   4.576   4.085   6.284 -0.6413  0.1736 -1.1311
 2055SOL    HW217799   4.483   4.070   6.404 -0.0348  0.5743  0.5918
 2056SOL     OW17800   4.560   3.233   6.223 -0.4924 -0.0928  0.5218
 2056SOL    HW117801   4.650   3.253   6.199 -0.8085 -0.0609 -0.6111
 2056SOL    HW217802   4.512   3.254   6.143 -3.1968 -1.1992  1.8664
 2057SOL     OW17803   2.494   2.836   1.702  0.0283  0.6841 -0.1137
 2057SOL    HW117804   2.537   2.802   1.780 -0.2732 -0.3246 -0.3822
 2057SOL    HW217805   2.506   2.768   1.636 -1.1539  1.4131 -1.0674
 2058SOL     OW17806   4.344   4.213  16.423 -0.7828  0.1685 -0.8881
 2058SOL    HW117807   4.395   4.147  16.468 -1.7986 -0.5804 -0.8191
 2058SOL    HW217808   4.373   4.197  16.333 -1.7238 -0.3362 -1.1068
 2059SOL     OW17809   1.951   3.449  11.498 -0.1807 -1.1338 -0.2747
 2059SOL    HW117810   2.041   3.420  11.485  0.8977  2.3031 -0.3903
 2059SOL    HW217811   1.951   3.487  11.586 -0.2720 -1.4597 -0.1330
 2060SOL     OW17812   4.056   0.479   5.978 -0.2284 -0.4239  0.0577
 2060SOL    HW117813   4.089   0.544   5.915  0.5313  0.5087  1.4268
 2060SOL    HW217814   3.982   0.442   5.930  1.0407 -1.3325 -1.1861
 2061SOL     OW17815   3.342   3.552   7.999  0.2294 -0.3824 -0.4098
 2061SOL    HW117816   3.256   3.583   7.973  0.1460  0.4974  0.9292
 2061SOL    HW217817   3.412   3.611   7.971 -0.7386 -0.3089 -2.6223
 2062SOL     OW17818   3.090   2.842   3.916 -0.3092  0.2716  0.0095
 2062SOL    HW117819   3.141   2.869   3.992  2.9839  1.8150 -2.7790
 2062SOL    HW217820   3.003   2.880   3.928 -1.1971 -2.0164  0.8621
 2063SOL     OW17821   2.982   2.435   2.546 -0.1746  0.3479  0.1558
 2063SOL    HW117822   2.982   2.383   2.626  0.3054 -0.5912 -0.4536
 2063SOL    HW217823   3.075   2.444   2.526 -0.8621 -1.1997 -3.7878
 2064SOL     OW17824   0.839   1.237   4.879  0.2786  0.3018 -0.0987
 2064SOL    HW117825   0.787   1.183   4.819 -1.2803  1.2807  0.3614
 2064SOL    HW217826   0.775   1.278   4.938 -0.7774  0.1679 -1.1566
 2065SOL     OW17827   4.682   2.548  13.328 -0.2583  0.8174  0.1737
 2065SOL    HW117828   0.028   2.572  13.298 -0.4126  2.1634  0.8113
 2065SOL    HW217829   4.640   2.569  13.245  0.6468 -1.7527 -0.9306
 2066SOL     OW17830   3.389   4.311   0.728  0.2544  0.0185 -0.1683
 2066SOL    HW117831   3.362   4.358   0.650 -0.9102  0.4429  0.4904
 2066SOL    HW217832   3.316   4.342   0.782  0.9506  0.3770  0.5701
 2067SOL     OW17833   0.853   2.592   4.513 -0.9776  0.3183 -0.1023
 2067SOL    HW117834   0.830   2.519   4.456 -0.1777  2.2258 -2.8684
 2067SOL    HW217835   0.864   2.554   4.600  0.2576  0.7457 -0.0650
 2068SOL     OW17836   2.814   0.895   7.288  0.2600 -0.4156 -0.0488
 2068SOL    HW117837   2.725   0.920   7.265  0.1511 -1.1123 -0.3682
 2068SOL    HW217838   2.807   0.800   7.283  0.6157 -0.5412  1.9160
 2069SOL     OW17839   2.551   4.603   4.117 -0.0380 -0.7109  0.1741
 2069SOL    HW117840   2.596   4.529   4.158  0.5602  0.8352  2.3350
 2069SOL    HW217841   2.498   4.561   4.050 -0.0783 -1.7366  0.8456
 2070SOL     OW17842   0.850   0.204   6.480 -0.2494 -0.3054 -0.2076
 2070SOL    HW117843   0.945   0.198   6.467 -0.3105  1.4814 -1.4853
 2070SOL    HW217844   0.834   0.113   6.457  1.5439 -0.7890  0.4057
 2071SOL     OW17845   1.163   2.046   2.103  0.6617  0.1264  0.1698
 2071SOL    HW117846   1.258   2.044   2.100  0.5868  0.0430 -1.7882
 2071SOL    HW217847   1.147   2.140   2.110  1.7491  0.2993  0.2274
 2072SOL     OW17848   4.138   2.309  16.304  0.1466 -0.2170 -0.1383
 2072SOL    HW117849   4.092   2.392  16.318  1.3684  0.4074  0.1716
 2072SOL    HW217850   4.148   2.280  16.394  1.6544 -0.3858 -0.3661
 2073SOL     OW17851   0.199   4.371   9.142  0.8973 -0.8994 -0.2637
 2073SOL    HW117852   0.110   4.338   9.132 -0.3498  2.8952 -1.9435
 2073SOL    HW217853   0.255   4.296   9.121  0.2039 -0.5909 -3.2185
 2074SOL     OW17854   4.396   2.025   8.849 -0.2117 -0.0119 -0.7355
 2074SOL    HW117855   4.441   2.009   8.931  0.1778  0.8086 -0.7867
 2074SOL    HW217856   4.306   1.994   8.859  0.2189 -1.4786 -1.4830
 2075SOL     OW17857   2.916   0.776   1.676  0.3514  0.0065 -0.1399
 2075SOL    HW117858   2.913   0.833   1.753  3.7296 -0.5460  0.4055
 2075SOL    HW217859   2.957   0.829   1.608  1.2948 -0.5109  0.0250
 2076SOL     OW17860   3.821   0.332   9.392 -0.1511 -0.2620 -0.2761
 2076SOL    HW117861   3.869   0.292   9.319  1.0531  0.7706 -0.0515
 2076SOL    HW217862   3.747   0.271   9.390  0.3903 -0.9230 -0.2746
 2077SOL     OW17863   0.652   3.504   4.073  0.5041 -0.1364  0.2447
 2077SOL    HW117864   0.719   3.497   4.005 -0.1020  1.9713 -0.5665
 2077SOL    HW217865   0.702   3.542   4.144  1.2095  0.7795 -0.7393
 2078SOL     OW17866   3.726   0.119   1.635  0.2724  0.3527  0.1538
 2078SOL    HW117867   3.802   0.176   1.626  1.0191 -0.8881 -1.4502
 2078SOL    HW217868   3.755   0.029   1.618 -1.0272  0.2647 -1.5657
 2079SOL     OW17869   4.330   3.316   2.306  0.2071 -0.8060 -0.1335
 2079SOL    HW117870   4.238   3.309   2.280 -0.2630 -1.7649  1.8108
 2079SOL    HW217871   4.369   3.287   2.224  2.2203 -1.4232  1.0540
 2080SOL     OW17872   4.573   0.990  10.605 -0.3154 -0.3008 -0.7029
 2080SOL    HW117873   4.561   1.069  10.658 -0.4231 -0.3863 -0.5976
 2080SOL    HW217874   4.502   0.934  10.639 -0.4396  0.0045 -0.4613
 2081SOL     OW17875   0.382   4.053   7.158 -0.8460  0.1230  0.6563
 2081SOL    HW117876   0.406   4.140   7.190 -0.8702  0.3765 -0.0044
 2081SOL    HW217877   0.380   4.007   7.241 -0.5803  0.5177  0.8845
 2082SOL     OW17878   1.627   4.296   8.776 -0.3180 -0.0103  0.0594
 2082SOL    HW117879   1.533   4.309   8.762 -0.5525  1.1422  2.5614
 2082SOL    HW217880   1.651   4.389   8.771 -1.1714  0.2163  0.1078
 2083SOL     OW17881   1.275   3.625   6.955  0.4044  0.0510  0.0382
 2083SOL    HW117882   1.261   3.566   6.881  0.8600 -1.6844  1.3331
 2083SOL    HW217883   1.267   3.563   7.028 -2.2060 -1.0243 -1.1414
 2084SOL     OW17884   2.500   1.265   6.490 -0.4712  0.0466 -0.2998
 2084SOL    HW117885   2.517   1.261   6.396  0.0616 -1.0794 -0.1608
 2084SOL    HW217886   2.425   1.206   6.484 -1.8255  1.6700  0.8349
 2085SOL     OW17887   3.354   2.699   3.663 -0.4102  0.0034 -0.4589
 2085SOL    HW117888   3.394   2.622   3.621  0.1724  0.8287 -1.4102
 2085SOL    HW217889   3.296   2.663   3.730  0.7190 -1.0897 -0.0519
 2086SOL     OW17890   1.277   1.405  11.061  0.0473 -0.5080  0.0435
 2086SOL    HW117891   1.184   1.382  11.058  0.2825 -1.5548  0.9491
 2086SOL    HW217892   1.291   1.426  11.153 -1.8840 -0.2606  0.2826
 2087SOL     OW17893   3.944   1.865   7.071  0.6359 -0.2882  0.0541
 2087SOL    HW117894   4.020   1.915   7.041  1.7483 -2.7441 -1.2569
 2087SOL    HW217895   3.929   1.920   7.148  2.3393 -3.1599  2.4754
 2088SOL     OW17896   4.122   2.707   3.845 -0.0828  0.8217 -0.3460
 2088SOL    HW117897   4.197   2.720   3.786 -0.8968  1.0430 -1.3183
 2088SOL    HW217898   4.041   2.712   3.794 -1.3219 -0.9522  1.4738
 2089SOL     OW17899   2.038   1.129   7.786 -0.5215 -0.2822 -0.6925
 2089SOL    HW117900   1.968   1.108   7.849 -0.7369  1.5042 -0.3518
 2089SOL    HW217901   2.101   1.164   7.849  1.0797 -1.4383 -1.6365
 2090SOL     OW17902   4.127   3.014   3.964 -0.1537 -0.2771  0.5456
 2090SOL    HW117903   4.082   3.022   4.048 -0.6398  0.8636  0.1812
 2090SOL    HW217904   4.199   2.955   3.983 -2.4267 -3.3473 -0.3536
 2091SOL     OW17905   4.607   3.994   4.121  0.2722  0.3792 -0.9861
 2091SOL    HW117906   4.558   4.069   4.088 -0.3784  0.3024 -0.1908
 2091SOL    HW217907   4.539   3.955   4.176  0.3618  1.7782  0.1113
 2092SOL     OW17908   2.818   4.340   0.972  0.3966  0.2470  0.3084
 2092SOL    HW117909   2.811   4.246   0.952 -1.3093  0.9539 -2.4151
 2092SOL    HW217910   2.805   4.340   1.067 -0.6792  1.6880  0.1544
 2093SOL     OW17911   1.576   3.724   0.655  0.4433 -0.8166 -1.0443
 2093SOL    HW117912   1.543   3.639   0.685 -0.1360  0.3634  1.7071
 2093SOL    HW217913   1.553   3.724   0.562 -0.6219 -0.2358 -0.7769
 2094SOL     OW17914   3.546   2.380   8.529 -0.0399  0.3861 -0.4793
 2094SOL    HW117915   3.475   2.442   8.548  0.8055  1.0232  0.5987
 2094SOL    HW217916   3.544   2.329   8.610  0.5746  0.6767 -0.2796
 2095SOL     OW17917   0.237   0.661  11.261  0.0364  0.1463  0.1046
 2095SOL    HW117918   0.290   0.696  11.333 -0.4884  0.0509  0.5342
 2095SOL    HW217919   0.154   0.642  11.305  1.4065 -0.5094  2.4474
 2096SOL     OW17920   3.718   3.465   1.393  0.5837 -0.4592  0.3348
 2096SOL    HW117921   3.729   3.400   1.324 -1.4384 -0.4948  0.0380
 2096SOL    HW217922   3.657   3.526   1.352  0.7715  0.8363  1.9611
 2097SOL     OW17923   2.037   3.965   9.437 -0.7338 -0.4345  0.3946
 2097SOL    HW117924   2.009   3.991   9.349  2.1043  1.7149  0.1467
 2097SOL    HW217925   2.108   3.907   9.412  1.7750  2.9035 -0.1842
 2098SOL     OW17926   1.360   3.335  12.226  0.1072 -0.1080 -0.4658
 2098SOL    HW117927   1.267   3.344  12.245 -0.4374  0.3443 -3.3643
 2098SOL    HW217928   1.366   3.240  12.219  0.5963 -0.1466  0.4384
 2099SOL     OW17929   3.559   4.233   0.144  0.2251 -0.4896 -0.1734
 2099SOL    HW117930   3.517   4.216   0.229  0.0065  0.5823 -0.0593
 2099SOL    HW217931   3.505   4.303   0.107  1.0276  0.8141  1.0961
 2100SOL     OW17932   1.485   2.484  15.950  0.0635 -0.0950 -0.3344
 2100SOL    HW117933   1.523   2.541  16.017 -1.8914  2.2739 -1.2140
 2100SOL    HW217934   1.408   2.446  15.992  1.9826 -3.9766 -0.2905
 2101SOL     OW17935   0.159   3.954   9.834 -0.4325  0.1928  0.4151
 2101SOL    HW117936   0.168   3.874   9.782 -0.4635 -0.4717  1.4513
 2101SOL    HW217937   0.249   3.982   9.813  0.9567 -3.7788  1.0041
 2102SOL     OW17938   0.240   2.717   8.323  0.0787 -0.7382 -0.4549
 2102SOL    HW117939   0.324   2.757   8.348 -0.7625  0.4540  0.4571
 2102SOL    HW217940   0.197   2.700   8.406  1.1838  0.0528  0.2780
 2103SOL     OW17941   3.312   4.122   8.357  0.2677 -0.1118 -0.2929
 2103SOL    HW117942   3.230   4.100   8.312  0.9178 -3.2220  0.0712
 2103SOL    HW217943   3.361   4.152   8.280 -1.3411  1.5149 -0.6891
 2104SOL     OW17944   2.894   0.915  12.693  0.0788  0.1973  0.3523
 2104SOL    HW117945   2.841   0.913  12.773  2.3085 -0.5204  1.8259
 2104SOL    HW217946   2.964   0.974  12.718  1.1790 -1.2145  0.5847
 2105SOL     OW17947   3.542   1.906   3.989 -0.0894  0.5927 -0.1214
 2105SOL    HW117948   3.529   1.812   3.974 -0.9090  0.5787  0.6482
 2105SOL    HW217949   3.621   1.908   4.043 -1.0078  3.4372  1.1484
 2106SOL     OW17950   0.801   4.005  17.254 -0.7924 -0.1779  0.1570
 2106SOL    HW117951   0.716   3.962  17.246 -1.6083  1.1852  1.3196
 2106SOL    HW217952   0.776   4.097  17.249  0.1102  0.0177 -0.6150
 2107SOL     OW17953   2.034   2.808   7.355 -0.0934 -0.4396  0.5508
 2107SOL    HW117954   2.069   2.728   7.317 -0.0020 -0.7878  1.3687
 2107SOL    HW217955   2.101   2.818   7.423 -1.3652 -0.3819  1.7886
 2108SOL     OW17956   1.067   1.840   3.835 -0.0367 -0.0676  0.5091
 2108SOL    HW117957   0.976   1.859   3.858 -0.3153 -1.8879  0.8750
 2108SOL    HW217958   1.060   1.770   3.771  1.6243 -1.5862  2.0061
 2109SOL     OW17959   0.791   3.227   8.160  0.0092  0.1781  0.2614
 2109SOL    HW117960   0.729   3.166   8.200 -1.6137  2.8353  1.8218
 2109SOL    HW217961   0.740   3.268   8.090 -1.0671 -2.3157 -0.4431
 2110SOL     OW17962   1.612   2.871   9.323  0.2421 -0.7977 -0.6387
 2110SOL    HW117963   1.648   2.865   9.411 -0.8219 -0.1307 -0.1597
 2110SOL    HW217964   1.518   2.870   9.342  0.3354 -0.4240 -0.1479
 2111SOL     OW17965   4.574   0.079  12.418 -0.1500  0.5119  0.5842
 2111SOL    HW117966   4.665   0.074  12.389 -0.4692  0.8326 -0.4780
 2111SOL    HW217967   4.530   0.076  12.333  1.3532 -0.1931 -0.1544
 2112SOL     OW17968   4.068   0.075   9.444  0.3484 -0.4355  0.1248
 2112SOL    HW117969   4.145   0.017   9.437  0.1245 -0.6584 -0.4573
 2112SOL    HW217970   4.100   0.141   9.382 -1.0301  0.0047 -0.1031
 2113SOL     OW17971   1.391   2.630   9.109 -0.3772 -0.0968  0.1940
 2113SOL    HW117972   1.385   2.556   9.048  0.0551  0.3440 -0.3893
 2113SOL    HW217973   1.439   2.589   9.180 -1.7510  0.9155  1.6944
 2114SOL     OW17974   1.438   0.153  13.540  0.0390 -0.5082 -0.1980
 2114SOL    HW117975   1.407   0.063  13.544  2.1367 -1.2333 -0.1227
 2114SOL    HW217976   1.455   0.177  13.631 -2.2513  0.1615  0.0402
 2115SOL     OW17977   0.384   1.723  10.693  0.1297  0.0565  0.3758
 2115SOL    HW117978   0.459   1.664  10.687  1.0685  1.4406 -1.4789
 2115SOL    HW217979   0.309   1.665  10.681 -0.7615  1.1963  0.3894
 2116SOL     OW17980   3.952   4.266  13.014  0.0039  0.1589 -0.9616
 2116SOL    HW117981   3.953   4.198  12.947  1.3790  1.2912 -2.0859
 2116SOL    HW217982   3.865   4.257  13.054  1.7957  2.0059  3.3791
 2117SOL     OW17983   3.327   3.292   3.025 -0.3515 -0.0862  0.4756
 2117SOL    HW117984   3.387   3.251   3.088  1.8751  3.3229  0.6006
 2117SOL    HW217985   3.256   3.322   3.082 -2.0217  2.6962 -3.1140
 2118SOL     OW17986   0.138   2.725   6.253 -0.2951 -0.3628 -0.2061
 2118SOL    HW117987   0.234   2.729   6.246 -0.5024  1.2406 -2.0009
 2118SOL    HW217988   0.115   2.805   6.208  1.0289 -0.1331 -0.4852
 2119SOL     OW17989   0.006   1.250   6.103 -0.1995 -0.2284  0.1437
 2119SOL    HW117990   4.670   1.227   6.155  1.6466 -1.7717  2.2119
 2119SOL    HW217991   4.740   1.183   6.035  0.6395 -0.4036  0.2295
 2120SOL     OW17992   2.612   2.433   0.991  0.0274 -0.4246 -0.4672
 2120SOL    HW117993   2.650   2.406   0.908 -1.6886 -1.3276 -0.9640
 2120SOL    HW217994   2.518   2.439   0.975 -0.0391 -0.9080 -0.2656
 2121SOL     OW17995   1.745   1.718   1.505 -0.8079  0.2314 -0.3574
 2121SOL    HW117996   1.782   1.804   1.485 -1.3726 -0.3560 -3.9953
 2121SOL    HW217997   1.674   1.753   1.559 -0.1279  2.2103 -0.7455
 2122SOL     OW17998   3.629   0.266   6.753  0.5287 -0.9037 -0.4013
 2122SOL    HW117999   3.562   0.276   6.687  1.6032 -0.7032 -1.4568
 2122SOL    HW218000   3.576   0.288   6.830 -1.5014 -1.2636 -1.7107
 2123SOL     OW18001   3.063   2.037   6.066 -0.5352  0.2430 -0.7335
 2123SOL    HW118002   3.053   2.022   6.160  0.5594  1.3962 -0.4416
 2123SOL    HW218003   2.972   2.031   6.035 -0.0831  1.4000 -2.2769
 2124SOL     OW18004   0.907   0.340   2.880 -0.2344  0.0241 -0.5327
 2124SOL    HW118005   0.974   0.285   2.839  1.1029  1.2179  0.0347
 2124SOL    HW218006   0.828   0.301   2.843  0.1013  0.2230 -1.4527
 2125SOL     OW18007   0.708   4.324   8.072  0.0531 -0.6562 -0.0521
 2125SOL    HW118008   0.670   4.410   8.054 -2.6799 -1.8182  0.1318
 2125SOL    HW218009   0.661   4.280   8.001 -1.7745 -0.1386  0.8336
 2126SOL     OW18010   1.307   2.836   6.759  0.2284 -0.1193  0.2555
 2126SOL    HW118011   1.272   2.918   6.724  0.9361 -0.4308 -1.1605
 2126SOL    HW218012   1.228   2.790   6.789 -1.4214  1.3428 -1.9218
 2127SOL     OW18013   1.168   4.583   1.879  0.1804  0.0403 -0.3026
 2127SOL    HW118014   1.224   4.529   1.934  0.6237 -1.5365 -2.3174
 2127SOL    HW218015   1.139   4.514   1.819  0.5734 -1.5469  1.3151
 2128SOL     OW18016   4.110   4.589   6.729  0.1201 -0.4701 -0.0650
 2128SOL    HW118017   4.136   4.548   6.811  2.8444 -0.6310 -1.0109
 2128SOL    HW218018   4.119   4.682   6.750 -2.3784  0.3917 -2.7259
 2129SOL     OW18019   3.292   2.430   9.012  0.1189  0.2530 -0.1282
 2129SOL    HW118020   3.212   2.421   9.065  1.4327  3.3387  2.3812
 2129SOL    HW218021   3.271   2.375   8.936 -1.9868  0.2215  0.4630
 2130SOL     OW18022   2.644   1.062   5.570 -0.4983  0.2971 -0.1721
 2130SOL    HW118023   2.659   1.117   5.647 -0.2273  1.5513 -1.1287
 2130SOL    HW218024   2.563   1.102   5.538 -1.7231 -0.1073  2.3719
 2131SOL     OW18025   1.058   4.347  14.707 -0.6841 -0.4955 -0.6921
 2131SOL    HW118026   1.048   4.427  14.655 -0.2047  0.1763  0.2551
 2131SOL    HW218027   1.019   4.367  14.791 -1.3468  0.8344 -1.3230
 2132SOL     OW18028   2.004   2.673  11.933  0.8946  0.7907 -0.2243
 2132SOL    HW118029   2.056   2.651  11.856  0.4130 -0.8547 -0.0809
 2132SOL    HW218030   2.065   2.731  11.978  1.2883 -0.2333  0.5682
 2133SOL     OW18031   0.338   3.317   6.657 -0.0448 -0.3684  0.2983
 2133SOL    HW118032   0.273   3.379   6.624 -1.4906 -1.4510  1.1175
 2133SOL    HW218033   0.342   3.254   6.586 -0.6414  0.8038 -0.7755
 2134SOL     OW18034   2.172   4.516   4.201  0.0696  0.1644  0.2405
 2134SOL    HW118035   2.136   4.429   4.182 -0.2913 -0.4527  3.8395
 2134SOL    HW218036   2.223   4.497   4.280  1.5653  2.7243 -0.0926
 2135SOL     OW18037   1.042   1.128  10.728  0.1443  0.7522 -0.3559
 2135SOL    HW118038   1.072   1.199  10.672  2.3545 -0.3293 -0.5163
 2135SOL    HW218039   0.948   1.149  10.729 -0.1630 -0.6727  1.7158
 2136SOL     OW18040   1.745   4.398   3.732  0.0049  0.6282  0.8089
 2136SOL    HW118041   1.808   4.334   3.766 -1.0703 -0.3385  0.9484
 2136SOL    HW218042   1.679   4.395   3.800 -0.2800 -0.5717  0.4825
 2137SOL     OW18043   2.790   0.319   2.400 -0.2913 -0.3168 -0.0838
 2137SOL    HW118044   2.885   0.314   2.389 -0.2070  0.4217  0.3111
 2137SOL    HW218045   2.775   0.260   2.474 -1.6031 -1.7542 -1.4870
 2138SOL     OW18046   0.701   2.388   2.392  0.1821  0.0424  0.4286
 2138SOL    HW118047   0.650   2.437   2.457 -1.6366 -1.3514  0.0546
 2138SOL    HW218048   0.632   2.350   2.338  1.9249 -2.6947  0.1129
 2139SOL     OW18049   0.952   1.453   4.803 -0.2185  0.7192 -0.8718
 2139SOL    HW118050   0.995   1.424   4.723  0.3943 -0.0313 -0.2641
 2139SOL    HW218051   0.912   1.376   4.844  3.1670 -0.6673 -0.2200
 2140SOL     OW18052   0.144   2.324  17.246 -0.5342  0.5445  0.5631
 2140SOL    HW118053   0.058   2.295  17.214 -0.3286 -0.9430  1.3647
 2140SOL    HW218054   0.189   2.356  17.168  1.0713  0.4292  1.4644
 2141SOL     OW18055   1.482   3.639   1.644  0.0182  0.4677 -0.0263
 2141SOL    HW118056   1.512   3.642   1.735  4.5731 -0.7890 -1.4594
 2141SOL    HW218057   1.427   3.561   1.642 -1.2172  1.2987  1.3072
 2142SOL     OW18058   0.981   2.822   5.211  0.5894 -0.1539 -0.6931
 2142SOL    HW118059   1.016   2.739   5.244  2.9730  1.6308  1.2483
 2142SOL    HW218060   1.023   2.882   5.272  1.0467 -2.1155  0.9532
 2143SOL     OW18061   4.707   0.567   7.562  0.2266  0.0046  0.4776
 2143SOL    HW118062   4.627   0.515   7.561  1.0455 -1.2793  1.4709
 2143SOL    HW218063   4.665   0.645   7.599 -1.2625  0.2093 -1.7008
 2144SOL     OW18064   4.283   2.569   3.542 -0.0969  0.1673  0.3345
 2144SOL    HW118065   4.371   2.535   3.556  0.4938 -0.1168 -3.8577
 2144SOL    HW218066   4.280   2.656   3.581  0.7289 -0.0344  0.8281
 2145SOL     OW18067   1.036   0.748   7.432  0.0328  0.5465  0.6070
 2145SOL    HW118068   1.015   0.745   7.339 -0.6400  1.3242  0.7256
 2145SOL    HW218069   1.111   0.689   7.436  0.0185  0.4072 -1.1515
 2146SOL     OW18070   3.752   0.700   3.321  0.2337  0.0836  0.2977
 2146SOL    HW118071   3.786   0.776   3.369 -1.0350  0.7883  0.0809
 2146SOL    HW218072   3.826   0.689   3.261  0.4112 -0.9705  0.7239
 2147SOL     OW18073   0.646   2.621   0.115 -0.5747 -0.4465 -0.5090
 2147SOL    HW118074   0.581   2.553   0.130  1.5386 -2.2821  0.2982
 2147SOL    HW218075   0.637   2.650   0.024 -1.9836 -1.9748 -0.8333
 2148SOL     OW18076   4.258   3.916   4.849  0.0763 -0.5598  0.4764
 2148SOL    HW118077   4.190   3.959   4.901  1.9598  1.1824  1.5081
 2148SOL    HW218078   4.314   3.990   4.826 -0.6505 -0.4678 -0.9443
 2149SOL     OW18079   0.132   2.298   4.439  0.6743  0.1585 -0.2201
 2149SOL    HW118080   0.210   2.283   4.492  1.1567  0.6404 -0.7897
 2149SOL    HW218081   0.077   2.230   4.477  1.2871  1.2992  2.7102
 2150SOL     OW18082   2.039   3.324   4.727 -0.0813 -0.0944  0.0732
 2150SOL    HW118083   2.078   3.336   4.813  1.6067 -2.5711 -0.3367
 2150SOL    HW218084   2.096   3.259   4.685 -0.1628 -0.7869  1.0306
 2151SOL     OW18085   1.808   0.903  10.684  0.2551 -0.3034  0.4698
 2151SOL    HW118086   1.856   0.889  10.765  1.6721  0.3891 -0.2481
 2151SOL    HW218087   1.876   0.881  10.620  3.2471  0.5386  3.3927
 2152SOL     OW18088   2.098   2.294   8.843  0.1264 -0.3274 -0.5545
 2152SOL    HW118089   2.155   2.218   8.853  2.8307  1.6503 -0.7562
 2152SOL    HW218090   2.166   2.350   8.882 -0.3121 -0.2700  0.1183
 2153SOL     OW18091   0.759   0.058  16.142  0.1718 -0.1513  0.1684
 2153SOL    HW118092   0.693   0.000  16.105  1.7434 -1.1915 -1.0364
 2153SOL    HW218093   0.836   0.003  16.126 -0.1446 -0.4577 -0.2667
 2154SOL     OW18094   0.162   4.445  16.808  0.0339 -0.3171 -0.1893
 2154SOL    HW118095   0.079   4.428  16.852  0.2948  0.7439  0.7106
 2154SOL    HW218096   0.124   4.469  16.723 -0.0925 -0.5062 -0.1858
 2155SOL     OW18097   0.389   3.315  11.605 -1.0709  0.3301  0.8254
 2155SOL    HW118098   0.306   3.330  11.651 -1.2279  0.3795  0.5250
 2155SOL    HW218099   0.373   3.357  11.521 -0.6359  0.5824  0.8704
 2156SOL     OW18100   4.249   0.828   0.490  0.3806 -0.6235 -0.5734
 2156SOL    HW118101   4.266   0.785   0.574 -1.4201  2.0007  1.1298
 2156SOL    HW218102   4.210   0.755   0.442  2.8135 -1.7117 -0.8780
 2157SOL     OW18103   2.766   1.580   5.143  0.2078 -0.2014 -0.5751
 2157SOL    HW118104   2.736   1.567   5.233 -2.6736 -0.0146 -1.5149
 2157SOL    HW218105   2.784   1.674   5.146 -0.7515  0.0320 -1.9022
 2158SOL     OW18106   3.892   3.588   5.241 -0.1485 -0.1201  0.1298
 2158SOL    HW118107   3.911   3.624   5.154 -0.4267 -1.2210 -0.3904
 2158SOL    HW218108   3.832   3.655   5.272 -0.6110 -0.1350 -0.7398
 2159SOL     OW18109   0.776   4.643  12.679 -0.0442 -0.0179 -0.0002
 2159SOL    HW118110   0.857   4.594  12.670 -0.1461 -0.0800 -0.6105
 2159SOL    HW218111   0.722   4.565  12.691 -0.6480  0.4489  0.3717
 2160SOL     OW18112   2.714   0.499  12.006  0.1275  0.6054  0.2400
 2160SOL    HW118113   2.748   0.465  12.088 -0.5649 -0.8970 -0.0962
 2160SOL    HW218114   2.641   0.551  12.042 -2.3257 -2.0745 -0.9253
 2161SOL     OW18115   4.102   1.864   5.871 -0.0449  0.7102  0.1533
 2161SOL    HW118116   4.065   1.890   5.955 -0.4037 -0.9402  0.5111
 2161SOL    HW218117   4.183   1.915   5.862  1.4964 -1.6838  0.4317
 2162SOL     OW18118   2.502   0.149   7.193 -0.5058 -0.2390 -0.5066
 2162SOL    HW118119   2.479   0.242   7.183  1.2154  0.3842  1.1798
 2162SOL    HW218120   2.441   0.123   7.263 -0.5781  1.2803  0.0089
 2163SOL     OW18121   3.435   3.600  13.044 -0.5078  0.6468  0.1805
 2163SOL    HW118122   3.496   3.670  13.022 -1.8130  2.2579  1.6858
 2163SOL    HW218123   3.448   3.603  13.139  1.1931  2.1932 -0.1015
 2164SOL     OW18124   2.408   1.469   7.981 -0.1628 -0.6668  0.0232
 2164SOL    HW118125   2.351   1.440   8.051 -2.2775  0.6656 -1.1561
 2164SOL    HW218126   2.483   1.410   7.991  0.3151 -0.1608 -0.5083
 2165SOL     OW18127   3.635   2.879  11.036  0.1222  0.0322  0.1889
 2165SOL    HW118128   3.543   2.879  11.010  0.4355 -0.0788 -0.9440
 2165SOL    HW218129   3.631   2.833  11.120 -3.1001 -0.0874 -0.0120
 2166SOL     OW18130   0.502   1.089   6.697 -0.5890 -0.3494 -0.1630
 2166SOL    HW118131   0.588   1.052   6.714  0.6131  2.1562 -0.8732
 2166SOL    HW218132   0.439   1.040   6.750 -0.8621 -0.0766 -0.2306
 2167SOL     OW18133   4.579   4.638   9.598  0.1663  0.8292 -0.2403
 2167SOL    HW118134   4.486   4.619   9.595  1.0736 -3.7190  1.8271
 2167SOL    HW218135   4.597   4.619   9.690  1.0006 -0.5548 -0.6912
 2168SOL     OW18136   0.108   0.265   3.769 -0.6003  0.1620  0.0888
 2168SOL    HW118137   0.151   0.243   3.852  1.2318 -0.3168 -1.0084
 2168SOL    HW218138   0.156   0.220   3.700  0.5677 -0.0507  1.0307
 2169SOL     OW18139   4.090   4.008   4.337 -0.0795  0.0416  0.1191
 2169SOL    HW118140   4.072   3.969   4.252 -1.3477 -1.2358  0.9822
 2169SOL    HW218141   4.176   4.050   4.332 -1.5439  3.0270 -0.1489
 2170SOL     OW18142   2.723   1.178  10.350 -0.3715  0.5497 -0.0788
 2170SOL    HW118143   2.760   1.195  10.437  2.0193 -1.8265 -0.6489
 2170SOL    HW218144   2.775   1.105  10.317  0.0824  0.4803  0.7824
 2171SOL     OW18145   2.242   0.432  17.119  0.1265  0.3096  0.0340
 2171SOL    HW118146   2.242   0.393  17.032  0.5286  1.8498 -0.6598
 2171SOL    HW218147   2.147   0.444  17.126 -0.1179 -0.8183 -1.6080
 2172SOL     OW18148   3.389   2.129   2.327  0.1265  0.3732 -0.8104
 2172SOL    HW118149   3.329   2.203   2.339 -0.7223 -0.5477  0.6045
 2172SOL    HW218150   3.448   2.160   2.258 -0.8537  1.8799 -0.9774
 2173SOL     OW18151   1.711   0.301   4.818  0.2859 -0.3353  0.1876
 2173SOL    HW118152   1.795   0.340   4.843 -0.5954  0.2083  2.2659
 2173SOL    HW218153   1.658   0.315   4.896 -0.0775 -1.2578  0.0991
 2174SOL     OW18154   2.347   3.831   6.557  0.2909  0.2141 -0.3483
 2174SOL    HW118155   2.281   3.856   6.492 -0.3841 -0.1911  0.1880
 2174SOL    HW218156   2.299   3.855   6.636  2.4916  2.2995  0.3496
 2175SOL     OW18157   0.648   2.345  15.982 -0.5036  0.1889 -0.1500
 2175SOL    HW118158   0.593   2.328  15.906  0.5693 -2.7872 -0.2508
 2175SOL    HW218159   0.628   2.276  16.045  1.2655 -0.9009 -0.7733
 2176SOL     OW18160   2.431   1.480   2.651  0.5357  0.0045  0.1822
 2176SOL    HW118161   2.455   1.552   2.709  1.2891 -0.4335  0.4050
 2176SOL    HW218162   2.336   1.490   2.657  0.5019  1.0107 -2.1388
 2177SOL     OW18163   2.584   1.370  11.155  0.4703  0.3837 -0.2487
 2177SOL    HW118164   2.675   1.388  11.130  0.3217  0.4638 -0.7436
 2177SOL    HW218165   2.571   1.279  11.130 -0.2227  0.8508 -1.6045
 2178SOL     OW18166   2.908   1.867   0.775  0.6051  0.0050  0.2713
 2178SOL    HW118167   2.911   1.835   0.865  0.9399  0.7279  0.5165
 2178SOL    HW218168   2.918   1.789   0.720 -0.9466 -1.3551  1.9057
 2179SOL     OW18169   4.721   1.645   5.710  0.1696  0.3789 -0.0388
 2179SOL    HW118170   4.645   1.668   5.762  0.1942 -1.5235  0.8379
 2179SOL    HW218171   0.054   1.688   5.752  0.3170  0.6035 -0.5289
 2180SOL     OW18172   3.109   0.298   9.667  0.0874  0.3914 -0.1330
 2180SOL    HW118173   3.077   0.386   9.685  4.0104  2.1028 -1.4790
 2180SOL    HW218174   3.146   0.309   9.580  3.0579 -0.4261  1.0082
 2181SOL     OW18175   2.514   1.116  12.530 -0.0035 -0.4304  0.8756
 2181SOL    HW118176   2.487   1.168  12.455  0.6031 -0.9802  0.2773
 2181SOL    HW218177   2.528   1.182  12.598 -0.3281  1.2622 -0.7143
 2182SOL     OW18178   3.227   1.424   1.922  0.0408  0.1985  0.5289
 2182SOL    HW118179   3.259   1.339   1.893  1.1151  0.4728  0.8866
 2182SOL    HW218180   3.303   1.481   1.907  0.4312 -0.5107 -0.1320
 2183SOL     OW18181   0.302   3.216   7.395 -0.3218  0.0986 -0.3989
 2183SOL    HW118182   0.323   3.302   7.359 -0.5635  0.7045  0.9189
 2183SOL    HW218183   0.389   3.175   7.401 -1.8302 -2.8133  1.2059
 2184SOL     OW18184   3.860   3.278   6.809 -0.3534 -0.1581 -0.0495
 2184SOL    HW118185   3.764   3.272   6.810 -0.3490 -0.0955  0.6499
 2184SOL    HW218186   3.887   3.191   6.780  0.1711 -0.3538  1.0083
 2185SOL     OW18187   4.506   1.742   5.234  0.1280  0.2366  0.5072
 2185SOL    HW118188   4.465   1.706   5.314  1.0574 -3.4987 -0.6968
 2185SOL    HW218189   4.533   1.662   5.190 -1.3026 -0.5823  1.1034
 2186SOL     OW18190   4.558   2.338  15.763 -0.0473 -0.8344  0.4921
 2186SOL    HW118191   4.530   2.354  15.853 -2.9952 -0.4809 -0.5062
 2186SOL    HW218192   4.572   2.429  15.737 -3.0579 -0.6660 -0.4779
 2187SOL     OW18193   4.213   3.765   0.503 -0.2355 -0.3666  0.1359
 2187SOL    HW118194   4.219   3.850   0.546  0.8289 -0.3966  0.0445
 2187SOL    HW218195   4.209   3.706   0.579 -0.0005  1.8060  1.8256
 2188SOL     OW18196   4.271   0.228   9.309  0.5230 -0.0826  0.1056
 2188SOL    HW118197   4.263   0.296   9.376  0.1296 -1.3113  1.2964
 2188SOL    HW218198   4.357   0.240   9.269  0.5171  0.4480  0.2454
 2189SOL     OW18199   3.271   1.168   1.846 -0.2753  0.2276  0.3713
 2189SOL    HW118200   3.201   1.104   1.857  1.5927 -2.3271 -2.5925
 2189SOL    HW218201   3.275   1.159   1.751 -1.8549 -2.1020  0.5161
 2190SOL     OW18202   2.954   4.175   6.743  0.2592  0.3858 -0.0725
 2190SOL    HW118203   2.983   4.090   6.708  1.7919  1.1024 -0.5382
 2190SOL    HW218204   2.866   4.151   6.771  0.6776 -0.2762  0.6983
 2191SOL     OW18205   1.031   0.576   2.426 -0.5418  0.3692 -0.3567
 2191SOL    HW118206   0.979   0.631   2.367  0.5027  2.8430  1.0422
 2191SOL    HW218207   1.017   0.626   2.506  3.8809  2.1453 -0.7089
 2192SOL     OW18208   0.075   4.637   1.583 -0.1407 -0.2864  0.0426
 2192SOL    HW118209   0.008   4.662   1.520  0.1730 -2.4735 -1.1441
 2192SOL    HW218210   0.034   4.657   1.667 -0.4982 -0.8041 -0.0060
 2193SOL     OW18211   1.364   2.513  12.646 -0.1083 -0.4272  0.6252
 2193SOL    HW118212   1.299   2.533  12.579  0.3762  0.8086  0.5135
 2193SOL    HW218213   1.414   2.444  12.602  1.2234  0.4916  0.6862
 2194SOL     OW18214   2.044   4.277  15.750  0.5189  0.3950  0.0975
 2194SOL    HW118215   2.017   4.223  15.675  1.8491 -1.5770  1.0242
 2194SOL    HW218216   1.962   4.325  15.759  0.8605  1.4014 -2.2931
 2195SOL     OW18217   2.901   3.034   4.600  0.2855  0.2032  0.1881
 2195SOL    HW118218   2.923   2.999   4.686  1.0644  0.7737  0.2188
 2195SOL    HW218219   2.912   3.128   4.614  2.6289 -0.3040  1.7038
 2196SOL     OW18220   2.554   3.621   7.072 -0.0530 -0.4499  0.0033
 2196SOL    HW118221   2.485   3.619   7.005  1.8962 -0.1807 -2.0051
 2196SOL    HW218222   2.594   3.535   7.069 -1.5226 -1.1745  1.3215
 2197SOL     OW18223   0.522   4.557   7.631  0.5969 -0.6265 -0.1924
 2197SOL    HW118224   0.515   4.524   7.541 -0.5353 -0.0540 -0.3133
 2197SOL    HW218225   0.467   4.495   7.678 -0.0784  0.2419  0.1664
 2198SOL     OW18226   2.630   1.900   1.820 -0.4777 -0.1307  0.3427
 2198SOL    HW118227   2.601   1.946   1.898  0.9830 -2.0015  1.9864
 2198SOL    HW218228   2.716   1.937   1.801 -1.2651  0.9996 -0.9781
 2199SOL     OW18229   1.457   3.288   3.724 -0.3938 -0.0437  0.2341
 2199SOL    HW118230   1.484   3.328   3.806  1.1892 -4.0125  1.6302
 2199SOL    HW218231   1.362   3.302   3.725 -0.4827 -0.6199 -0.0668
 2200SOL     OW18232   2.744   0.281   3.980  0.7029 -0.3794  0.2333
 2200SOL    HW118233   2.682   0.231   3.928  0.2521 -0.2733  0.6726
 2200SOL    HW218234   2.798   0.208   4.008 -0.7365 -1.1300  1.0432
 2201SOL     OW18235   4.635   1.068   4.667  0.9480 -0.9654 -0.1556
 2201SOL    HW118236   4.584   0.987   4.675 -1.7190  0.5209 -2.1693
 2201SOL    HW218237   4.621   1.114   4.750  1.6481 -1.6778  0.3599
 2202SOL     OW18238   1.865   0.624  10.255  0.3631  0.0829 -0.1657
 2202SOL    HW118239   1.843   0.637  10.162 -1.0609  2.0854  0.4465
 2202SOL    HW218240   1.960   0.619  10.253  0.5145  2.5820  0.5195
 2203SOL     OW18241   3.241   3.612   6.359  0.5243  0.4804 -0.5208
 2203SOL    HW118242   3.293   3.632   6.281 -0.0396  2.0997 -0.4779
 2203SOL    HW218243   3.305   3.552   6.397  0.1731 -0.4784 -1.4524
 2204SOL     OW18244   2.822   2.254   2.312 -0.3033  0.2191 -0.1140
 2204SOL    HW118245   2.806   2.283   2.401  2.8608  0.6710  0.3058
 2204SOL    HW218246   2.801   2.162   2.325 -0.3701  0.5932  2.4082
 2205SOL     OW18247   3.564   4.565   2.119 -0.8103  0.0176 -0.1146
 2205SOL    HW118248   3.492   4.502   2.109  0.7464 -2.1022  2.1664
 2205SOL    HW218249   3.527   4.631   2.061 -0.9930  0.1431  0.1466
 2206SOL     OW18250   0.091   2.700  11.701  0.2563  0.0586 -0.0023
 2206SOL    HW118251   0.060   2.629  11.645  1.6793  0.2668 -1.0387
 2206SOL    HW218252   0.004   2.722  11.735 -0.8881 -2.1515 -1.4816
 2207SOL     OW18253   1.121   4.638   9.030 -0.5092  0.4662 -0.0282
 2207SOL    HW118254   1.161   4.723   9.012 -2.3626  1.3332  0.0096
 2207SOL    HW218255   1.137   4.621   9.123 -1.3917 -2.0851 -0.3364
 2208SOL     OW18256   1.110   1.450   8.265 -0.1704 -0.2807 -0.7730
 2208SOL    HW118257   1.068   1.435   8.349 -1.0386 -0.8273 -1.2931
 2208SOL    HW218258   1.053   1.415   8.196 -0.3728 -0.2368 -0.6286
 2209SOL     OW18259   2.213   4.287   7.915 -0.4562  0.6978  0.3560
 2209SOL    HW118260   2.147   4.325   7.858  0.1381 -0.4434 -1.0992
 2209SOL    HW218261   2.162   4.222   7.964 -0.3426  0.4860  0.1951
 2210SOL     OW18262   2.714   3.954   3.046 -0.0080 -0.6982  0.1825
 2210SOL    HW118263   2.657   4.009   2.991  0.0927 -0.9263 -0.1503
 2210SOL    HW218264   2.716   3.876   2.989 -1.3925  0.2789 -1.2150
 2211SOL     OW18265   0.060   4.364   3.566 -0.3647  0.1994 -0.7244
 2211SOL    HW118266   0.000   4.290   3.562 -1.9018  1.5267 -2.2809
 2211SOL    HW218267   4.741   4.425   3.525 -1.3605  0.7624  1.6140
 2212SOL     OW18268   1.404   1.488   2.112  0.4256 -0.3741  0.5672
 2212SOL    HW118269   1.314   1.467   2.135  0.7147 -0.8865  1.2416
 2212SOL    HW218270   1.405   1.489   2.016 -0.6945 -0.2374  0.5636
 2213SOL     OW18271   3.373   0.703   6.299 -0.0967 -0.1946 -0.0101
 2213SOL    HW118272   3.450   0.659   6.262 -0.3048 -1.9642  1.6461
 2213SOL    HW218273   3.302   0.671   6.243 -0.7189 -0.0844  0.7293
 2214SOL     OW18274   1.403   0.949   8.517 -0.2190  0.0082  0.4300
 2214SOL    HW118275   1.340   0.990   8.576  0.4693  0.1695  1.0467
 2214SOL    HW218276   1.484   0.942   8.567  1.7042  4.5413 -2.0065
 2215SOL     OW18277   2.917   1.691   0.353 -0.1112 -0.3809  0.0360
 2215SOL    HW118278   2.982   1.732   0.296 -0.6757  0.4281 -0.0244
 2215SOL    HW218279   2.839   1.709   0.301 -0.3423  0.0937  0.5453
 2216SOL     OW18280   3.621   1.545  16.987 -0.5755 -0.3077  0.7871
 2216SOL    HW118281   3.590   1.635  16.988  0.0195 -0.0883 -0.1584
 2216SOL    HW218282   3.538   1.498  16.977 -0.5800 -0.6652  2.5704
 2217SOL     OW18283   4.303   1.835   3.226  1.0769 -0.2657 -0.1448
 2217SOL    HW118284   4.350   1.861   3.306  1.8441 -2.2006  0.0265
 2217SOL    HW218285   4.305   1.917   3.176  0.2240 -0.5070 -0.5606
 2218SOL     OW18286   4.365   2.541   5.523 -0.1675  0.4749  0.2914
 2218SOL    HW118287   4.403   2.627   5.507 -2.5373  0.9206 -2.8439
 2218SOL    HW218288   4.299   2.549   5.592  0.8649  0.2747  1.3107
 2219SOL     OW18289   0.870   2.671  14.729 -0.2502 -0.4588 -0.0605
 2219SOL    HW118290   0.897   2.634  14.813 -0.1941  0.0580  0.1486
 2219SOL    HW218291   0.877   2.765  14.745 -0.2426 -0.2754 -1.0968
 2220SOL     OW18292   3.766   2.333  13.956  0.1973 -0.2481 -0.6997
 2220SOL    HW118293   3.693   2.359  14.013  0.0831 -2.5264  0.2379
 2220SOL    HW218294   3.791   2.410  13.905 -2.0559  0.8680 -0.1131
 2221SOL     OW18295   2.559   3.648   0.620  0.3974 -0.2038 -0.5028
 2221SOL    HW118296   2.600   3.643   0.534  1.3837 -1.1604  0.0267
 2221SOL    HW218297   2.622   3.605   0.677  1.7672  2.1489 -0.2367
 2222SOL     OW18298   4.619   0.027  15.680  0.7942  0.0305  0.2024
 2222SOL    HW118299   4.556   0.036  15.751 -0.4838 -0.9569 -0.8187
 2222SOL    HW218300   4.572   0.028  15.597  1.0075  0.5334  0.0823
 2223SOL     OW18301   3.748   1.349   7.362 -0.3364 -0.3121 -0.4840
 2223SOL    HW118302   3.660   1.352   7.400 -0.2624 -1.2163 -0.2407
 2223SOL    HW218303   3.764   1.441   7.341 -0.5081 -0.6101 -1.8733
 2224SOL     OW18304   1.909   1.785   3.145 -0.4734  0.4318 -0.1724
 2224SOL    HW118305   1.865   1.731   3.210 -0.3995  1.4736  0.7500
 2224SOL    HW218306   1.914   1.857   3.208 -1.1015 -0.4241  0.8415
 2225SOL     OW18307   1.496   2.377   3.008  0.0027 -0.5619  0.1074
 2225SOL    HW118308   1.502   2.349   2.917  2.3059 -1.3668  0.5064
 2225SOL    HW218309   1.478   2.470   2.995 -2.0086 -1.2006 -1.7341
 2226SOL     OW18310   2.929   0.909   8.218 -0.3113  0.8447  0.0571
 2226SOL    HW118311   2.869   0.864   8.277 -0.3652 -0.8789 -1.3214
 2226SOL    HW218312   3.015   0.890   8.257  0.7034  5.5840  0.2467
 2227SOL     OW18313   1.748   2.111   6.171 -0.0594 -0.0033  0.1263
 2227SOL    HW118314   1.787   2.110   6.084  1.0045 -0.2926  0.6101
 2227SOL    HW218315   1.802   2.040   6.205  2.3489  1.6849 -0.1417
 2228SOL     OW18316   1.146   3.858   2.697 -0.5360 -0.0671  0.0669
 2228SOL    HW118317   1.165   3.847   2.604  2.2837 -0.8060  0.7333
 2228SOL    HW218318   1.055   3.828   2.697 -0.5971  0.1157  1.2005
 2229SOL     OW18319   4.333   0.855   6.845 -0.1879 -0.0207 -0.4062
 2229SOL    HW118320   4.342   0.846   6.750 -2.0931 -2.0997 -0.3870
 2229SOL    HW218321   4.330   0.947   6.872 -0.7136 -0.2924  0.4382
 2230SOL     OW18322   0.086   0.849   3.036  0.2943 -0.2779  0.0139
 2230SOL    HW118323   0.038   0.925   3.070 -1.1968 -1.3438  0.3139
 2230SOL    HW218324   0.018   0.809   2.982  0.8572 -1.2174  0.0094
 2231SOL     OW18325   3.845   0.498  12.226 -0.3345 -0.2318 -0.1555
 2231SOL    HW118326   3.913   0.533  12.167 -0.0804 -0.1373  0.1962
 2231SOL    HW218327   3.810   0.428  12.171 -0.4497 -1.4479  1.4987
 2232SOL     OW18328   2.351   0.561   2.162  0.4290  0.0762  0.5940
 2232SOL    HW118329   2.436   0.605   2.160  0.9943 -0.9704  1.2660
 2232SOL    HW218330   2.324   0.562   2.071 -0.3576  3.2036  0.8867
 2233SOL     OW18331   2.057   2.068  14.917 -0.2143 -0.1763 -0.0803
 2233SOL    HW118332   2.090   1.984  14.947 -1.2045 -0.3449  0.5531
 2233SOL    HW218333   2.142   2.109  14.933  0.0904 -1.5920  1.8538
 2234SOL     OW18334   2.453   2.744  12.705  0.0650  0.1847  0.2510
 2234SOL    HW118335   2.405   2.808  12.654 -1.0194  0.2590  1.3630
 2234SOL    HW218336   2.541   2.781  12.702  0.4156 -0.7373 -0.9396
 2235SOL     OW18337   2.757   2.213   1.036  0.3766 -0.4055  0.3915
 2235SOL    HW118338   2.693   2.285   1.036 -1.1069 -1.7226  2.1027
 2235SOL    HW218339   2.728   2.162   0.960 -0.4778  0.1535  0.3339
 2236SOL     OW18340   1.957   0.676  11.295 -0.0048  0.0861 -0.3994
 2236SOL    HW118341   2.020   0.643  11.359  0.9316  1.1311 -0.7723
 2236SOL    HW218342   2.010   0.684  11.216  0.9172 -3.2158 -0.1081
 2237SOL     OW18343   3.736   2.781  15.806  0.1590 -0.0356 -0.0223
 2237SOL    HW118344   3.718   2.732  15.725 -1.6865 -0.1825  0.4859
 2237SOL    HW218345   3.671   2.737  15.860 -3.2660  2.3011 -2.2609
 2238SOL     OW18346   2.198   1.953   6.729 -0.1347 -0.1195 -0.4265
 2238SOL    HW118347   2.194   1.858   6.738 -1.1000 -0.3155 -2.8394
 2238SOL    HW218348   2.110   1.984   6.749 -0.2182  1.2780 -2.9055
 2239SOL     OW18349   2.964   3.591  14.194  0.0988 -0.4609 -0.6870
 2239SOL    HW118350   2.919   3.510  14.169 -0.0902 -0.6295  0.1735
 2239SOL    HW218351   3.056   3.565  14.201  0.1002  0.3538  2.2818
 2240SOL     OW18352   2.390   2.242   5.026  0.0470 -0.1605 -0.1552
 2240SOL    HW118353   2.323   2.258   5.093 -1.0756  0.8149 -1.5081
 2240SOL    HW218354   2.349   2.164   4.987  1.4747 -0.4711 -1.0317
 2241SOL     OW18355   0.132   3.011  11.693 -1.0606 -0.1521  0.1790
 2241SOL    HW118356   0.124   2.939  11.629  2.8737  0.9075 -1.5244
 2241SOL    HW218357   0.079   3.077  11.649 -2.0201 -1.4678 -0.6248
 2242SOL     OW18358   1.263   1.083   7.823 -0.1462  0.1551 -0.4406
 2242SOL    HW118359   1.325   1.126   7.764  0.1394 -0.9245 -0.9239
 2242SOL    HW218360   1.194   1.053   7.765  0.3595  2.3428 -2.1714
 2243SOL     OW18361   1.551   4.503  14.965  0.3064  0.1786  0.2252
 2243SOL    HW118362   1.502   4.556  14.902  1.5454  0.9957 -0.0433
 2243SOL    HW218363   1.537   4.554  15.045 -1.4176 -0.4362  0.3225
 2244SOL     OW18364   1.741   0.154   3.786  0.1660  0.8368  0.1443
 2244SOL    HW118365   1.749   0.071   3.739 -0.0267  1.7476 -1.4934
 2244SOL    HW218366   1.801   0.215   3.742  0.2048  0.4370 -0.3525
 2245SOL     OW18367   4.366   3.706   6.709  0.4244 -0.0998  0.2742
 2245SOL    HW118368   4.384   3.625   6.661 -1.7930 -0.7106  0.4778
 2245SOL    HW218369   4.279   3.680   6.739  0.5951 -3.0669 -1.7841
 2246SOL     OW18370   1.845   3.866   6.391 -0.2818 -0.4368  0.8619
 2246SOL    HW118371   1.825   3.826   6.306  2.7786 -0.4748  0.1549
 2246SOL    HW218372   1.763   3.884   6.437 -1.4505  1.1289 -1.8457
 2247SOL     OW18373   3.371   3.946   2.220  0.2137  0.1033  0.0834
 2247SOL    HW118374   3.291   3.942   2.271  0.4840 -3.1794  0.2492
 2247SOL    HW218375   3.426   3.886   2.271  1.2215  0.1309 -0.9604
 2248SOL     OW18376   0.077   3.796   4.769 -0.6009  0.4446  0.3972
 2248SOL    HW118377   0.010   3.848   4.724 -0.0137  0.3930 -0.5506
 2248SOL    HW218378   0.034   3.722   4.812  0.3871  0.4881  1.4811
 2249SOL     OW18379   3.136   4.143  13.307  0.3112  0.1018 -0.1002
 2249SOL    HW118380   3.060   4.096  13.341 -0.0057 -0.4383 -1.5814
 2249SOL    HW218381   3.110   4.201  13.236 -2.1202 -1.4914 -0.5073
 2250SOL     OW18382   2.522   1.120  11.085 -0.4824 -0.8615 -0.8629
 2250SOL    HW118383   2.441   1.069  11.093  0.3424 -2.0509 -0.1551
 2250SOL    HW218384   2.587   1.050  11.093  1.3473  0.8634 -0.5252
 2251SOL     OW18385   3.913   4.555   5.709 -0.2691 -0.0440 -0.0085
 2251SOL    HW118386   3.821   4.579   5.702 -0.1403 -0.5379 -3.3082
 2251SOL    HW218387   3.925   4.484   5.646  1.6589  1.3674 -1.2505
 2252SOL     OW18388   4.414   0.580   1.826  0.0636 -0.1456  0.3861
 2252SOL    HW118389   4.405   0.663   1.779  2.3359 -0.0127  0.1690
 2252SOL    HW218390   4.327   0.556   1.857  0.6580  1.3817  3.2251
 2253SOL     OW18391   4.354   3.100   6.332  0.3420  0.5071 -0.1510
 2253SOL    HW118392   4.398   3.066   6.409 -2.3097 -3.0736 -0.2074
 2253SOL    HW218393   4.428   3.145   6.290 -0.6562  0.9700 -1.4477
 2254SOL     OW18394   3.268   3.586   4.587  0.6056  0.3706 -0.0925
 2254SOL    HW118395   3.271   3.626   4.500 -1.0369  0.4207 -0.1306
 2254SOL    HW218396   3.183   3.613   4.620  1.1792  3.5533 -1.2118
 2255SOL     OW18397   4.622   2.692   2.917  0.7862 -0.2192 -0.0281
 2255SOL    HW118398   4.589   2.726   3.000  2.4541  1.1159  0.0782
 2255SOL    HW218399   4.658   2.605   2.934  1.5306  0.4793  2.0053
 2256SOL     OW18400   2.571   0.347   4.382  0.1380  0.1305 -0.2022
 2256SOL    HW118401   2.643   0.284   4.375  0.9564  1.2197 -1.4339
 2256SOL    HW218402   2.624   0.418   4.346 -0.6211  1.3144  1.0288
 2257SOL     OW18403   1.238   4.538   9.248  0.5168  0.0473 -0.4762
 2257SOL    HW118404   1.319   4.587   9.259  0.4228  0.6218 -2.2606
 2257SOL    HW218405   1.262   4.478   9.177  3.1599  0.5831 -0.0368
 2258SOL     OW18406   2.724   1.559   1.554 -0.1577  0.2900 -0.0380
 2258SOL    HW118407   2.756   1.471   1.573  1.0774  1.4627  3.3024
 2258SOL    HW218408   2.691   1.586   1.640 -0.5388 -0.1436 -0.0517
 2259SOL     OW18409   1.782   4.444   9.254 -0.4679 -0.0287 -0.3622
 2259SOL    HW118410   1.865   4.430   9.208 -0.7394 -0.8433 -0.6055
 2259SOL    HW218411   1.724   4.393   9.198 -1.4155 -0.0171  0.6012
 2260SOL     OW18412   0.401   2.635   4.585 -1.4775  0.0017 -0.4112
 2260SOL    HW118413   0.350   2.554   4.593 -3.2581  1.4154  2.2375
 2260SOL    HW218414   0.455   2.641   4.663 -1.6169  0.1200 -0.3245
 2261SOL     OW18415   0.948   0.490   5.291 -0.0356  0.4844  0.0491
 2261SOL    HW118416   0.920   0.509   5.201 -0.6705  1.1496  0.3950
 2261SOL    HW218417   0.864   0.465   5.330 -0.3611  1.1079 -0.2579
 2262SOL     OW18418   4.239   3.266   5.606 -0.0290  0.4283 -0.0971
 2262SOL    HW118419   4.247   3.337   5.669  0.0737  0.4908 -0.1817
 2262SOL    HW218420   4.291   3.203   5.656 -1.0437  0.3448  0.8723
 2263SOL     OW18421   0.465   3.890  14.942  0.2546  0.5304 -0.3830
 2263SOL    HW118422   0.447   3.984  14.953 -0.3982  0.1592  1.8069
 2263SOL    HW218423   0.547   3.888  14.992  0.4705  0.3279 -0.7483
 2264SOL     OW18424   2.143   2.790   4.929  0.1940 -0.1051 -0.5101
 2264SOL    HW118425   2.157   2.778   5.023  2.4413  1.9516 -0.5658
 2264SOL    HW218426   2.184   2.876   4.913 -0.1367  0.0831 -0.3408
 2265SOL     OW18427   1.243   2.997   5.481  0.2422  0.4057  0.4995
 2265SOL    HW118428   1.240   3.081   5.435  2.2206 -0.1440 -0.5986
 2265SOL    HW218429   1.150   2.972   5.480  0.1404  0.8341 -0.5311
 2266SOL     OW18430   4.638   2.877   5.177 -0.2379 -0.2205 -0.0744
 2266SOL    HW118431   4.673   2.963   5.153 -0.5247  0.1446  0.8230
 2266SOL    HW218432   4.542   2.887   5.173 -0.2874  0.0018  2.0790
 2267SOL     OW18433   2.200   2.233   6.362  0.1476  0.4998  0.0567
 2267SOL    HW118434   2.109   2.262   6.358 -0.9159 -2.6531  1.3576
 2267SOL    HW218435   2.200   2.141   6.388 -1.0093  0.2492 -0.8459
 2268SOL     OW18436   4.655   1.158   7.298  0.8716 -0.3265  0.7209
 2268SOL    HW118437   4.688   1.086   7.350 -0.1132 -2.3799 -1.4973
 2268SOL    HW218438   4.670   1.116   7.213  0.6015 -0.2683  0.6434
 2269SOL     OW18439   3.365   0.882   1.766  0.4104  0.3337  0.8592
 2269SOL    HW118440   3.361   0.828   1.844 -0.5935  0.6135  1.0030
 2269SOL    HW218441   3.452   0.857   1.736  0.5802 -0.9445  2.4664
 2270SOL     OW18442   2.490   3.695   2.200 -0.4975 -0.5627 -0.0570
 2270SOL    HW118443   2.534   3.778   2.179  1.4721 -1.9528 -1.3885
 2270SOL    HW218444   2.470   3.669   2.110 -1.5705  1.3298 -0.3736
 2271SOL     OW18445   3.303   2.915   0.401  0.3372  0.0744 -0.1928
 2271SOL    HW118446   3.382   2.922   0.454 -0.1194  0.6985  0.3895
 2271SOL    HW218447   3.332   2.936   0.312 -0.6452  3.0295  0.1847
 2272SOL     OW18448   1.955   2.330   2.721 -0.2973 -0.4034  0.2478
 2272SOL    HW118449   2.037   2.374   2.699 -0.1224 -1.4178 -1.0971
 2272SOL    HW218450   1.902   2.406   2.745 -0.7483 -0.1918 -1.4515
 2273SOL     OW18451   2.574   2.220   3.158 -0.2681  0.2575  0.3072
 2273SOL    HW118452   2.499   2.195   3.104  1.3146  2.0339 -2.7162
 2273SOL    HW218453   2.547   2.209   3.249 -0.3967 -1.7314  0.0410
 2274SOL     OW18454   2.182   2.776   5.990 -0.3122  0.0066 -0.2808
 2274SOL    HW118455   2.110   2.836   6.006  0.6238  1.1723 -0.4416
 2274SOL    HW218456   2.180   2.716   6.065 -0.6881  1.1365  0.6145
 2275SOL     OW18457   1.590   1.963  15.046  0.1546  0.1197 -0.0119
 2275SOL    HW118458   1.655   1.933  15.110 -1.3959 -3.6138 -0.2014
 2275SOL    HW218459   1.641   2.042  15.027 -0.1106  0.3628  0.2853
 2276SOL     OW18460   2.244   2.597   3.605 -0.5536  0.7420 -0.3698
 2276SOL    HW118461   2.149   2.598   3.592  0.1271  1.1857 -5.3034
 2276SOL    HW218462   2.259   2.656   3.679 -0.5609  1.4724 -0.9580
 2277SOL     OW18463   3.266   4.367   1.673  0.5087  0.2118 -0.4968
 2277SOL    HW118464   3.286   4.388   1.582  0.4032  2.3025 -0.0387
 2277SOL    HW218465   3.290   4.275   1.686  3.0344  1.2166  1.9448
 2278SOL     OW18466   4.457   3.575   7.530  0.2070  0.0242  0.3612
 2278SOL    HW118467   4.522   3.621   7.583  1.6114 -0.0514 -1.3207
 2278SOL    HW218468   4.521   3.556   7.462 -0.1526  1.5289 -0.3794
 2279SOL     OW18469   2.902   4.571   2.064  0.1296 -0.3021 -0.5598
 2279SOL    HW118470   2.818   4.583   2.110 -0.3615  0.0986 -1.5669
 2279SOL    HW218471   2.926   4.662   2.048 -2.6207  0.7060  0.8696
 2280SOL     OW18472   1.858   2.310   9.351 -0.1676  0.3041  0.0062
 2280SOL    HW118473   1.952   2.326   9.359 -0.2159  0.2902  0.5841
 2280SOL    HW218474   1.823   2.398   9.362 -0.6048 -0.0149  1.1687
 2281SOL     OW18475   4.361   4.412   0.235  0.0063  0.1704 -0.6379
 2281SOL    HW118476   4.382   4.444   0.148 -1.2826  0.4911 -0.8381
 2281SOL    HW218477   4.305   4.484   0.265  0.7001  1.6906 -3.0252
 2282SOL     OW18478   3.116   0.624   8.866  0.0631  0.6308  0.0351
 2282SOL    HW118479   3.034   0.587   8.833  1.1954 -2.2265  0.5296
 2282SOL    HW218480   3.189   0.601   8.809  0.2479 -0.6001  0.7742
 2283SOL     OW18481   3.445   3.816   7.054 -0.4465  0.1096  0.1019
 2283SOL    HW118482   3.539   3.794   7.058 -0.7773 -1.1061  1.0702
 2283SOL    HW218483   3.450   3.889   6.993 -1.2661  0.4630  0.4721
 2284SOL     OW18484   2.260   3.580   5.486 -0.3111 -0.0886 -0.3990
 2284SOL    HW118485   2.207   3.523   5.542 -1.3320  2.4724  1.2546
 2284SOL    HW218486   2.343   3.565   5.531 -1.5327 -3.0935  0.8728
 2285SOL     OW18487   0.452   4.137   6.459 -0.8477  0.0721  0.5841
 2285SOL    HW118488   0.366   4.154   6.422 -0.7002  1.6418  0.9668
 2285SOL    HW218489   0.430   4.066   6.520 -0.9688  0.7350  1.3084
 2286SOL     OW18490   2.560   0.671   7.411 -0.2864  0.4152  0.0470
 2286SOL    HW118491   2.545   0.756   7.369 -1.2719  0.2916  0.1501
 2286SOL    HW218492   2.475   0.664   7.455 -0.0693 -3.4884 -0.1341
 2287SOL     OW18493   0.297   1.391   5.644 -0.1692  0.0501 -0.6288
 2287SOL    HW118494   0.367   1.454   5.660  0.7366 -0.9904 -0.5001
 2287SOL    HW218495   0.244   1.412   5.721  1.4956  0.8582  0.2782
 2288SOL     OW18496   3.554   4.290   4.053  0.1355 -0.1062 -0.2498
 2288SOL    HW118497   3.587   4.204   4.030  0.4735 -0.0651  0.0915
 2288SOL    HW218498   3.628   4.347   4.030 -1.6820  0.8961 -3.7416
 2289SOL     OW18499   3.593   0.737   1.690 -0.1073  0.0761  0.0902
 2289SOL    HW118500   3.682   0.740   1.725  0.1233 -1.9862 -0.3098
 2289SOL    HW218501   3.597   0.781   1.606 -0.2001 -1.2137 -0.5896
 2290SOL     OW18502   3.214   4.023   1.533 -0.4212  0.7770 -0.2563
 2290SOL    HW118503   3.253   3.958   1.591 -1.0014 -0.0759 -0.8190
 2290SOL    HW218504   3.196   3.964   1.460  2.0652 -0.1638 -0.0976
 2291SOL     OW18505   3.188   1.231   3.071 -0.4913  0.1367 -0.0397
 2291SOL    HW118506   3.220   1.277   2.993  0.5196 -1.2606 -0.4490
 2291SOL    HW218507   3.099   1.210   3.044 -0.6290  1.3297 -0.5262
 2292SOL     OW18508   4.700   3.440   6.494  0.0484  0.3098 -0.0066
 2292SOL    HW118509   4.620   3.388   6.480 -0.0503  0.2072  0.9110
 2292SOL    HW218510   4.703   3.484   6.410 -0.1688 -0.4893 -0.4313
 2293SOL     OW18511   0.626   4.035   8.149  0.7720  0.6409 -0.2347
 2293SOL    HW118512   0.631   4.045   8.054  1.2498  2.0787 -0.0698
 2293SOL    HW218513   0.693   4.096   8.182  0.7749  1.2323 -1.3585
 2294SOL     OW18514   1.822   2.351   7.247  0.4254 -0.1843 -0.0374
 2294SOL    HW118515   1.877   2.416   7.291 -0.0353 -0.4522  0.9325
 2294SOL    HW218516   1.758   2.408   7.204 -1.1211 -3.1040 -1.5975
 2295SOL     OW18517   4.108   0.248  12.198 -0.4051  0.0011 -0.5778
 2295SOL    HW118518   4.021   0.233  12.161  0.1126 -0.2474 -1.7259
 2295SOL    HW218519   4.172   0.231  12.128  1.1225  1.8294  0.3762
 2296SOL     OW18520   2.702   2.781   7.128  0.4723  0.0250  0.1988
 2296SOL    HW118521   2.720   2.835   7.205 -0.4303  1.0436 -0.2916
 2296SOL    HW218522   2.608   2.774   7.143  0.1590  0.8167 -1.3836
 2297SOL     OW18523   0.402   1.136   6.433  0.0378 -0.3287  0.1466
 2297SOL    HW118524   0.330   1.074   6.422  1.0864 -1.2336 -1.5547
 2297SOL    HW218525   0.401   1.142   6.529 -3.4752  0.1719  0.0766
 2298SOL     OW18526   4.361   3.901   7.602 -0.2908 -0.0585 -0.7673
 2298SOL    HW118527   4.384   3.910   7.510  2.1094  1.6730 -0.0233
 2298SOL    HW218528   4.426   3.842   7.640  0.3554  0.6962 -0.7053
 2299SOL     OW18529   3.194   0.036   8.947  0.1828  0.0429  0.3834
 2299SOL    HW118530   3.161   0.079   8.868  1.5675 -2.9942 -1.8488
 2299SOL    HW218531   3.226   4.691   8.924  1.3556  1.1550 -2.1536
 2300SOL     OW18532   0.766   3.053  11.603  0.0777 -0.2542  0.0574
 2300SOL    HW118533   0.673   3.054  11.623  0.3333  1.4180  1.0934
 2300SOL    HW218534   0.807   3.091  11.680  0.6178 -1.3431  0.3146
 2301SOL     OW18535   3.782   4.402   0.435 -0.0576  0.1378  0.2974
 2301SOL    HW118536   3.735   4.480   0.406 -1.7717 -1.1960 -0.4980
 2301SOL    HW218537   3.719   4.353   0.487  0.9036 -0.6772  0.6994
 2302SOL     OW18538   2.081   0.638   4.812  0.1253 -0.0210  0.1778
 2302SOL    HW118539   1.992   0.673   4.817 -0.3691 -1.3727  0.8176
 2302SOL    HW218540   2.066   0.580   4.738 -2.0390  1.0344 -0.2098
 2303SOL     OW18541   2.069   1.028   4.160  0.0910  0.3543  0.2573
 2303SOL    HW118542   1.994   1.054   4.107  1.1175  1.9367 -0.4001
 2303SOL    HW218543   2.028   0.960   4.213  0.4694  0.3472  0.5410
 2304SOL     OW18544   4.318   0.300  10.570  0.1877  0.0037 -0.8320
 2304SOL    HW118545   4.226   0.281  10.588  0.6319 -0.7356  0.7680
 2304SOL    HW218546   4.364   0.229  10.616 -1.2128  0.2350  0.9177
 2305SOL     OW18547   0.373   3.552   8.978  0.1165 -0.2228 -0.2133
 2305SOL    HW118548   0.457   3.575   8.939  0.1819  1.2449  0.7648
 2305SOL    HW218549   0.314   3.607   8.925  0.5956 -1.4248 -1.9841
 2306SOL     OW18550   0.368   3.009   5.609  1.0264  0.2653 -0.1298
 2306SOL    HW118551   0.353   3.103   5.594 -1.5814  0.0374  1.0196
 2306SOL    HW218552   0.326   3.003   5.695 -0.3515 -0.2777 -0.8408
 2307SOL     OW18553   3.101   1.396   5.537 -0.3683 -0.4340 -0.0305
 2307SOL    HW118554   3.014   1.371   5.506 -1.4309  0.0663  2.5437
 2307SOL    HW218555   3.152   1.316   5.524  2.4695  1.2702  0.6074
 2308SOL     OW18556   2.550   3.329   5.817  0.2295  0.0044  0.4338
 2308SOL    HW118557   2.491   3.281   5.759  1.1483  1.0893 -1.4290
 2308SOL    HW218558   2.485   3.352   5.883  0.2088 -0.5598  0.6083
 2309SOL     OW18559   2.905   3.387   8.927  0.4127  0.3872  0.0095
 2309SOL    HW118560   2.926   3.456   8.863  0.0081 -0.4993 -1.0836
 2309SOL    HW218561   2.843   3.441   8.977  4.5169  3.3206  1.9205
 2310SOL     OW18562   2.867   1.964   5.850 -0.4340 -0.0339 -0.0369
 2310SOL    HW118563   2.898   1.954   5.760 -1.1447 -0.5722 -0.2172
 2310SOL    HW218564   2.843   1.876   5.879 -3.0311  1.2352  1.5648
 2311SOL     OW18565   2.610   2.567   1.894 -0.3857 -0.5118 -0.6411
 2311SOL    HW118566   2.676   2.563   1.962  0.4751 -0.5428 -1.4771
 2311SOL    HW218567   2.557   2.489   1.914  0.2650 -0.6250  0.6022
 2312SOL     OW18568   2.659   2.654   4.512  0.2188  0.8255  0.3593
 2312SOL    HW118569   2.583   2.619   4.467  0.8502  0.4758 -0.4306
 2312SOL    HW218570   2.634   2.646   4.604  2.5954 -2.1281  0.7181
 2313SOL     OW18571   1.750   0.817   3.085  0.3710  0.2188 -0.1541
 2313SOL    HW118572   1.713   0.755   3.023  0.1230 -0.6767  0.8878
 2313SOL    HW218573   1.727   0.890   3.027 -3.4744 -0.2489  0.8297
 2314SOL     OW18574   1.429   4.321   7.559  0.1580 -0.3173  0.4113
 2314SOL    HW118575   1.495   4.262   7.523 -0.4462 -0.6916 -0.0739
 2314SOL    HW218576   1.361   4.321   7.492  0.2922  2.8256  0.2919
 2315SOL     OW18577   3.384   4.115   2.668  0.4184 -0.4755  0.5748
 2315SOL    HW118578   3.308   4.173   2.668  1.8297  1.3548 -0.7067
 2315SOL    HW218579   3.453   4.163   2.713 -1.8707  1.7356  1.6829
 2316SOL     OW18580   3.162   0.137   3.216 -0.3137 -0.5017 -0.4251
 2316SOL    HW118581   3.068   0.151   3.205 -0.6698  0.3683  3.4536
 2316SOL    HW218582   3.202   0.195   3.151 -4.0481 -0.2393 -2.4529
 2317SOL     OW18583   2.782   0.471   8.333  0.0830 -0.3242  0.0736
 2317SOL    HW118584   2.756   0.460   8.424 -0.4689  1.6905  0.1653
 2317SOL    HW218585   2.868   0.433   8.316  0.7946  0.9855  0.7228
 2318SOL     OW18586   0.148   2.231  16.368  0.5330  0.1466 -0.4484
 2318SOL    HW118587   0.169   2.267  16.281 -0.2552 -1.8766 -1.4880
 2318SOL    HW218588   0.134   2.313  16.415 -0.9058  0.8479 -2.0757
 2319SOL     OW18589   3.657   3.546   7.824  0.1227  0.3886 -0.1485
 2319SOL    HW118590   3.660   3.496   7.905  1.9296 -0.8388 -0.9666
 2319SOL    HW218591   3.720   3.615   7.844 -0.4057  1.6122 -2.6344
 2320SOL     OW18592   0.483   4.031  17.076  0.0009 -0.3012  0.2010
 2320SOL    HW118593   0.529   4.078  17.007  0.4917 -1.0676  0.0002
 2320SOL    HW218594   0.393   4.062  17.069  0.4141  0.8764  0.1207
 2321SOL     OW18595   4.096   0.829   1.916  0.0238  0.4196  0.5433
 2321SOL    HW118596   4.143   0.873   1.846 -0.2432 -0.6465 -0.3140
 2321SOL    HW218597   4.151   0.851   1.991  0.1934 -1.6469  1.0270
 2322SOL     OW18598   3.124   2.253   9.489 -0.0587  0.0531 -0.0752
 2322SOL    HW118599   3.169   2.293   9.564 -0.2535  0.7947 -0.3540
 2322SOL    HW218600   3.050   2.206   9.529  1.1150 -0.1665  1.8526
 2323SOL     OW18601   3.504   1.888   5.795  0.4745  0.3806 -0.0736
 2323SOL    HW118602   3.510   1.823   5.865  0.3379 -0.7392 -1.1063
 2323SOL    HW218603   3.426   1.934   5.825  1.1530  1.7662 -0.4519
 2324SOL     OW18604   2.853   2.859  14.555 -0.0818  0.2518  0.6459
 2324SOL    HW118605   2.909   2.796  14.509 -0.4162  0.6346 -0.2984
 2324SOL    HW218606   2.910   2.934  14.567 -1.8220  1.7151 -0.2111
 2325SOL     OW18607   1.835   4.108   5.688 -0.1263  0.3490 -1.1460
 2325SOL    HW118608   1.763   4.084   5.748  0.4271  1.3241 -0.0918
 2325SOL    HW218609   1.905   4.051   5.720  0.4696  2.3679  1.1665
 2326SOL     OW18610   1.984   2.446  11.323  0.3048 -0.1999  0.5070
 2326SOL    HW118611   2.075   2.439  11.351  0.3758  0.5088  0.4433
 2326SOL    HW218612   1.988   2.498  11.243  0.5650 -0.6154  0.2483
 2327SOL     OW18613   2.189   1.794   3.295 -0.0237  0.0107  0.0707
 2327SOL    HW118614   2.273   1.799   3.341  0.8547  0.8816 -1.5958
 2327SOL    HW218615   2.156   1.713   3.332 -0.8034  1.5966  2.7775
 2328SOL     OW18616   4.619   1.469   3.506 -0.3093 -0.4881 -0.7415
 2328SOL    HW118617   4.639   1.529   3.578  2.4729 -1.8400 -0.3865
 2328SOL    HW218618   4.629   1.389   3.558  2.3912  0.7622  0.6734
 2329SOL     OW18619   0.889   1.692   4.674  0.0408  0.2327  0.5803
 2329SOL    HW118620   0.890   1.638   4.752  0.5900 -0.8544 -0.1741
 2329SOL    HW218621   0.981   1.691   4.646 -0.2813  0.1025 -0.4811
 2330SOL     OW18622   2.422   1.296  17.113  0.1376 -0.0633 -0.1300
 2330SOL    HW118623   2.477   1.262  17.042 -0.6726  1.1874 -1.3607
 2330SOL    HW218624   2.477   1.284  17.190 -2.2549 -2.7595  1.1419
 2331SOL     OW18625   3.417   2.631  12.246 -0.3452  0.0877 -0.5847
 2331SOL    HW118626   3.349   2.668  12.303 -0.8611  0.5713 -1.5113
 2331SOL    HW218627   3.367   2.628  12.164 -0.7188  2.5257 -0.4295
 2332SOL     OW18628   1.908   1.828   5.317 -0.0822  0.5317 -0.1534
 2332SOL    HW118629   1.978   1.771   5.349  0.9459  2.5225  1.1535
 2332SOL    HW218630   1.895   1.802   5.226 -1.1721  1.1363 -0.1736
 2333SOL     OW18631   4.367   4.483   4.723 -0.3970  0.4804 -0.6264
 2333SOL    HW118632   4.394   4.541   4.795  1.0136 -0.2923 -0.5225
 2333SOL    HW218633   4.414   4.525   4.651 -1.5821 -0.1225 -1.7552
 2334SOL     OW18634   1.895   0.934  13.393  0.3708  1.0709  0.3445
 2334SOL    HW118635   1.816   0.883  13.412  0.2094  2.4040  3.2654
 2334SOL    HW218636   1.939   0.884  13.324  2.1450  2.8745  0.1769
 2335SOL     OW18637   0.781   0.923   4.465  0.3769  0.2558 -0.6414
 2335SOL    HW118638   0.833   0.998   4.436 -1.5437  1.6771 -0.3715
 2335SOL    HW218639   0.698   0.968   4.479  1.9062  3.0404 -0.4321
 2336SOL     OW18640   2.610   3.953   8.363  0.4309 -0.1326 -0.0969
 2336SOL    HW118641   2.690   3.905   8.383  1.1957  1.0156 -0.3457
 2336SOL    HW218642   2.637   4.032   8.315  0.2511  1.5526  2.5462
 2337SOL     OW18643   4.543   1.109  15.683 -0.0674 -0.2437  0.1074
 2337SOL    HW118644   4.615   1.166  15.658 -1.4944  1.0810 -0.9705
 2337SOL    HW218645   4.571   1.067  15.765  0.8310  1.4070  0.6413
 2338SOL     OW18646   1.188   0.163   9.023 -0.0307  0.1630  0.5360
 2338SOL    HW118647   1.256   0.200   9.079 -0.3453 -3.0734  3.0650
 2338SOL    HW218648   1.137   0.239   8.995 -0.8998 -1.0022 -1.0507
 2339SOL     OW18649   0.241   0.617   6.434 -0.3588 -0.7111  0.2267
 2339SOL    HW118650   0.307   0.599   6.500  0.2712  0.2410 -0.1421
 2339SOL    HW218651   0.243   0.713   6.432  2.1829 -0.7882 -0.1057
 2340SOL     OW18652   0.999   1.168   5.149  0.1719  0.2617 -0.3803
 2340SOL    HW118653   0.923   1.220   5.175 -2.8015 -2.2851 -4.0478
 2340SOL    HW218654   0.966   1.129   5.069 -1.1837  1.5585 -0.4509
 2341SOL     OW18655   0.624   2.771   4.082  0.7327 -0.2633 -0.0909
 2341SOL    HW118656   0.699   2.757   4.140  0.5519  0.1381  0.2418
 2341SOL    HW218657   0.568   2.697   4.105 -0.0703  0.5423  0.5371
 2342SOL     OW18658   0.786   4.203   0.349  0.4775 -0.3172  0.2857
 2342SOL    HW118659   0.748   4.188   0.435 -1.9678  1.6424 -0.4661
 2342SOL    HW218660   0.876   4.172   0.357 -0.1498 -2.4088 -0.8236
 2343SOL     OW18661   3.426   4.231   7.455 -0.5542  0.3578  0.3775
 2343SOL    HW118662   3.351   4.245   7.512  0.2011 -0.4112  1.5628
 2343SOL    HW218663   3.382   4.219   7.371  0.8289  2.1904 -0.5959
 2344SOL     OW18664   2.134   4.279   7.072 -0.5479  0.0004  0.4076
 2344SOL    HW118665   2.182   4.201   7.046  0.3505  0.4746  0.6429
 2344SOL    HW218666   2.165   4.331   6.998 -0.1985  3.1498  2.7599
 2345SOL     OW18667   1.468   4.382   3.910  0.2694 -0.3413  0.3617
 2345SOL    HW118668   1.494   4.442   3.980 -0.5573  1.9151 -1.2596
 2345SOL    HW218669   1.384   4.419   3.884 -0.2884 -1.2210  0.9137
 2346SOL     OW18670   0.845   3.721   1.652  0.3409  0.2728 -0.0344
 2346SOL    HW118671   0.791   3.786   1.607  0.6889  1.3493  1.0771
 2346SOL    HW218672   0.932   3.730   1.614  0.2955  1.3104  0.0821
 2347SOL     OW18673   4.590   0.794   7.644  0.0951 -0.4296 -0.2566
 2347SOL    HW118674   4.512   0.835   7.607  1.5348  1.1855 -1.5019
 2347SOL    HW218675   4.585   0.812   7.738  1.2744  1.0472 -0.4684
 2348SOL     OW18676   4.522   3.729   6.932 -0.1664  0.4045  0.7929
 2348SOL    HW118677   4.467   3.701   6.858  0.0500 -3.0560  1.9849
 2348SOL    HW218678   4.588   3.781   6.886 -1.3452 -1.0018 -2.4820
 2349SOL     OW18679   1.868   2.739   4.923  0.3578 -0.1447  0.1553
 2349SOL    HW118680   1.879   2.740   5.018 -0.9871  0.3566  0.3007
 2349SOL    HW218681   1.955   2.712   4.894  0.2647  2.3135 -2.4486
 2350SOL     OW18682   0.638   2.481   2.994 -0.5648 -0.2285 -0.0754
 2350SOL    HW118683   0.624   2.567   2.955  0.9525  1.3366  2.8503
 2350SOL    HW218684   0.727   2.470   2.963 -0.9670  0.7391 -1.5420
 2351SOL     OW18685   1.472   1.035   6.190  0.1164 -0.3240 -0.4108
 2351SOL    HW118686   1.450   0.965   6.251  1.4452 -1.0810 -0.8126
 2351SOL    HW218687   1.386   1.037   6.147 -0.8491 -0.2956  1.4885
 2352SOL     OW18688   4.018   1.278   7.365  0.3264 -0.0692 -0.0471
 2352SOL    HW118689   3.928   1.311   7.365 -0.1715 -1.4169  0.7584
 2352SOL    HW218690   4.031   1.261   7.459 -3.2984 -2.0311  0.0868
 2353SOL     OW18691   1.070   3.016   2.535  0.0175 -0.0670  0.0308
 2353SOL    HW118692   1.016   2.996   2.612  1.2028 -0.6948  0.7130
 2353SOL    HW218693   1.076   3.110   2.547  0.8044 -0.0271 -0.6663
 2354SOL     OW18694   3.568   3.619   1.224 -0.2290  0.2670  0.6268
 2354SOL    HW118695   3.518   3.700   1.215  0.6739  0.6732 -0.8419
 2354SOL    HW218696   3.620   3.627   1.143 -2.8720 -0.1854 -1.1125
 2355SOL     OW18697   3.522   4.189   8.551  0.2281 -0.3495 -0.2438
 2355SOL    HW118698   3.484   4.262   8.600 -0.5742 -0.6266 -0.4441
 2355SOL    HW218699   3.452   4.166   8.489 -1.1749  0.4135  1.0479
 2356SOL     OW18700   4.113   4.516   4.635  0.2900  0.2142 -0.7724
 2356SOL    HW118701   4.142   4.594   4.588 -2.4125  0.0106 -2.7821
 2356SOL    HW218702   4.187   4.489   4.689 -0.3253 -1.0796 -0.5788
 2357SOL     OW18703   0.316   4.033   2.854  0.4591  0.6398  0.0153
 2357SOL    HW118704   0.381   4.093   2.890  0.6731 -1.0112  2.4170
 2357SOL    HW218705   0.260   4.017   2.930 -0.3553  3.6998  0.0340
 2358SOL     OW18706   3.080   4.211   2.441  0.5477  0.1289  0.1933
 2358SOL    HW118707   3.081   4.236   2.534  0.0371 -2.4942  0.8861
 2358SOL    HW218708   3.120   4.290   2.404 -0.3217  1.0312  1.1817
 2359SOL     OW18709   3.829   1.286   5.345  0.1737 -0.1201 -0.7344
 2359SOL    HW118710   3.760   1.284   5.279 -1.9364  1.0739  1.4088
 2359SOL    HW218711   3.811   1.215   5.407 -2.2118 -1.3551 -2.8555
 2360SOL     OW18712   1.483   3.079   4.157  0.5132  0.2617  0.2097
 2360SOL    HW118713   1.563   3.084   4.211 -0.7440  0.5078  2.0693
 2360SOL    HW218714   1.421   3.136   4.201 -0.1535  0.6750 -1.2830
 2361SOL     OW18715   1.647   4.569   6.652  0.0380 -0.0645 -0.5967
 2361SOL    HW118716   1.739   4.595   6.655  1.0944 -3.6720 -1.0466
 2361SOL    HW218717   1.647   4.482   6.693  3.9373  0.5697  0.6657
 2362SOL     OW18718   4.705   1.365   6.891  0.3630 -0.0785 -0.0796
 2362SOL    HW118719   4.696   1.457   6.868 -0.3501  0.0846  0.8199
 2362SOL    HW218720   4.630   1.341   6.946  0.5400 -0.8114 -0.1622
 2363SOL     OW18721   0.420   4.552   7.335  0.5532 -0.5380  0.2732
 2363SOL    HW118722   0.335   4.595   7.321  1.2430  0.3530 -1.1546
 2363SOL    HW218723   0.480   4.621   7.308 -1.4942  2.4044  3.2348
 2364SOL     OW18724   0.564   0.168   4.787 -0.6722 -0.8203 -1.1168
 2364SOL    HW118725   0.476   0.193   4.817 -0.5759 -1.2518 -0.4724
 2364SOL    HW218726   0.591   0.252   4.752 -0.4269 -0.4310 -0.0125
 2365SOL     OW18727   0.081   3.069  12.840 -0.2883 -0.1836 -1.0611
 2365SOL    HW118728   0.148   3.008  12.809  0.4878  1.4322 -2.5601
 2365SOL    HW218729   0.017   3.069  12.768 -0.4213  3.6047 -0.9399
 2366SOL     OW18730   4.292   0.541   8.352 -0.1776 -0.1711  0.3224
 2366SOL    HW118731   4.354   0.505   8.288 -0.3928  1.9480 -1.0665
 2366SOL    HW218732   4.220   0.552   8.289  0.6581 -1.1055 -0.8022
 2367SOL     OW18733   0.200   4.706   7.283 -0.3793 -0.0589  0.1892
 2367SOL    HW118734   0.248   0.038   7.246  1.1726 -1.2587 -0.1427
 2367SOL    HW218735   0.164   4.678   7.198 -0.9834  0.5865  0.2309
 2368SOL     OW18736   2.239   3.527   5.228 -0.2721  0.1771  0.2014
 2368SOL    HW118737   2.256   3.547   5.320 -0.2329  2.5511 -0.3435
 2368SOL    HW218738   2.156   3.572   5.213  0.0555  0.8097  0.2857
 2369SOL     OW18739   0.412   2.599  12.230  0.3443 -0.2749  0.4840
 2369SOL    HW118740   0.398   2.515  12.273 -0.3765 -0.0148  0.7713
 2369SOL    HW218741   0.453   2.649  12.301 -1.5002  1.1346  0.5492
 2370SOL     OW18742   0.626   4.479   2.422 -0.2032 -0.3807  0.4343
 2370SOL    HW118743   0.602   4.513   2.336  1.2952 -0.5674 -0.0605
 2370SOL    HW218744   0.714   4.517   2.433  0.2295 -1.2605  0.0345
 2371SOL     OW18745   2.857   4.343   9.504 -0.6671  0.0214  0.3226
 2371SOL    HW118746   2.882   4.435   9.507  0.1735 -0.1127 -2.1868
 2371SOL    HW218747   2.856   4.337   9.599 -2.0931  0.9302  0.3660
 2372SOL     OW18748   4.655   2.982   2.038  0.0216 -0.8405 -0.0366
 2372SOL    HW118749   4.687   3.064   2.076 -0.0382  1.0246 -3.9893
 2372SOL    HW218750   4.718   2.924   2.080 -0.4294 -0.7838  0.7223
 2373SOL     OW18751   4.355   3.476  11.176  0.2510 -0.0163 -0.3281
 2373SOL    HW118752   4.308   3.436  11.104  0.9453  0.4931 -1.0635
 2373SOL    HW218753   4.441   3.488  11.136  0.7395  3.6099  1.7770
 2374SOL     OW18754   4.005   2.128  16.773 -0.5072 -0.3021 -0.1753
 2374SOL    HW118755   4.014   2.086  16.859 -2.3651 -0.1717  0.0936
 2374SOL    HW218756   3.913   2.109  16.752 -0.3773  1.0305 -1.8667
 2375SOL     OW18757   4.617   4.668   8.546 -0.0111  0.0173 -0.1060
 2375SOL    HW118758   4.567   4.726   8.603  0.4525 -0.2585  0.5727
 2375SOL    HW218759   4.552   4.668   8.476  1.1022  0.8458 -1.1385
 2376SOL     OW18760   1.764   3.940   6.061 -0.0984  0.4060  0.0108
 2376SOL    HW118761   1.726   3.990   6.133 -1.5103 -1.0874  0.2913
 2376SOL    HW218762   1.759   3.846   6.079  1.6803  0.2492 -0.3004
 2377SOL     OW18763   3.943   2.502   1.584 -0.2174 -0.1989 -0.2521
 2377SOL    HW118764   3.987   2.422   1.610  1.1734  0.6588  0.0300
 2377SOL    HW218765   3.997   2.536   1.512  4.0629 -2.2883  1.9867
 2378SOL     OW18766   1.824   0.805  17.125  0.4836  0.1462 -0.0871
 2378SOL    HW118767   1.854   0.762  17.044 -0.0735 -1.3572  0.5129
 2378SOL    HW218768   1.909   0.822  17.165  0.2519  0.4828  0.2581
 2379SOL     OW18769   4.139   3.484   8.432 -0.1519 -0.0198  0.2745
 2379SOL    HW118770   4.129   3.514   8.342 -1.1957  0.0870  0.4241
 2379SOL    HW218771   4.171   3.565   8.470 -0.8592  1.1668 -1.6590
 2380SOL     OW18772   3.347   3.632   4.309  0.3886  0.0201 -0.4729
 2380SOL    HW118773   3.371   3.678   4.228  1.6210  1.4212  0.6924
 2380SOL    HW218774   3.422   3.574   4.322 -1.0244 -1.2077  1.9617
 2381SOL     OW18775   2.842   4.283   3.264 -0.6784  0.3053 -0.2056
 2381SOL    HW118776   2.780   4.278   3.191  0.8501  1.2681 -1.5826
 2381SOL    HW218777   2.819   4.368   3.300 -2.3609  0.1404 -0.9212
 2382SOL     OW18778   3.121   1.112   5.470  0.2890  0.1748  0.1494
 2382SOL    HW118779   3.114   1.020   5.443 -1.4265  0.3432  0.0205
 2382SOL    HW218780   3.215   1.123   5.456  0.2928  0.5549  0.4715
 2383SOL     OW18781   1.790   0.369   4.356  0.3809 -0.3476 -0.0808
 2383SOL    HW118782   1.818   0.355   4.266  0.5811 -2.1018  0.2549
 2383SOL    HW218783   1.846   0.304   4.398  1.2971  1.2968  1.2347
 2384SOL     OW18784   1.676   1.086   9.579 -0.3617 -0.2302 -0.3399
 2384SOL    HW118785   1.605   1.141   9.543 -2.2117 -2.3712  0.0326
 2384SOL    HW218786   1.710   1.045   9.500  0.8397  0.7964 -0.3522
 2385SOL     OW18787   0.112   0.127  15.585  0.0373  0.2419  0.5149
 2385SOL    HW118788   0.023   0.095  15.597 -0.2161  1.1510  1.0351
 2385SOL    HW218789   0.168   0.053  15.608 -0.9450 -0.2628  1.2418
 2386SOL     OW18790   1.476   3.781   6.823 -0.1838 -0.2536 -0.1560
 2386SOL    HW118791   1.412   3.741   6.881  0.4433 -0.7196  0.2242
 2386SOL    HW218792   1.443   3.757   6.737 -0.8429 -1.9080  0.5730
 2387SOL     OW18793   3.147   0.166  11.030  0.8337 -0.4092 -0.4839
 2387SOL    HW118794   3.212   0.199  10.968 -0.7310  0.9826 -1.3717
 2387SOL    HW218795   3.172   0.214  11.110  2.8576 -2.1810 -0.0623
 2388SOL     OW18796   2.265   1.126  10.856 -0.1652 -0.1768 -0.2723
 2388SOL    HW118797   2.191   1.182  10.833 -0.7997 -1.2658 -0.8901
 2388SOL    HW218798   2.336   1.187  10.837  0.0513 -0.3062  0.1229
 2389SOL     OW18799   0.818   1.808   7.850  0.2469 -0.0885  0.5463
 2389SOL    HW118800   0.773   1.877   7.801 -0.1010 -0.1215  0.8173
 2389SOL    HW218801   0.908   1.818   7.821  0.0238 -0.9090 -0.4510
 2390SOL     OW18802   1.566   3.141  14.277  0.9331  0.4603  0.2322
 2390SOL    HW118803   1.585   3.234  14.293  0.1397  0.1571  2.7969
 2390SOL    HW218804   1.494   3.153  14.215  2.9601  1.8339 -1.8575
 2391SOL     OW18805   1.780   4.096   6.757 -0.4202 -0.2891  0.1852
 2391SOL    HW118806   1.723   4.060   6.825  1.4147 -1.9928  0.8158
 2391SOL    HW218807   1.838   4.023   6.738  1.6907  1.8409 -1.5679
 2392SOL     OW18808   0.532   2.660   4.994  0.3558  0.1286 -0.0729
 2392SOL    HW118809   0.584   2.677   4.915  0.3105  0.2106 -0.0856
 2392SOL    HW218810   0.486   2.743   5.008  1.8087  0.8628  0.3557
 2393SOL     OW18811   3.013   0.842  15.268  0.4530  0.3670 -0.0256
 2393SOL    HW118812   2.960   0.919  15.288 -1.8970 -1.0344 -0.8035
 2393SOL    HW218813   2.974   0.779  15.328  0.6559  0.7994  0.5532
 2394SOL     OW18814   0.079   4.379   3.190  0.6079  0.1888 -0.8127
 2394SOL    HW118815   4.735   4.398   3.228 -1.2115 -4.7979 -2.4034
 2394SOL    HW218816   0.059   4.286   3.177 -0.7437  0.0850  1.9558
 2395SOL     OW18817   0.444   2.428   4.937 -0.5663 -0.2276 -0.4881
 2395SOL    HW118818   0.524   2.383   4.966  0.0346  0.3036 -1.3436
 2395SOL    HW218819   0.471   2.517   4.960  0.0635  0.0817 -2.4363
 2396SOL     OW18820   1.403   0.859   3.587 -0.5265  0.0076  0.0159
 2396SOL    HW118821   1.360   0.828   3.667  0.1962  0.9975  0.7878
 2396SOL    HW218822   1.362   0.801   3.523  0.8259  0.7744 -1.5733
 2397SOL     OW18823   1.745   2.467   4.521 -0.0210 -0.4092 -0.0094
 2397SOL    HW118824   1.740   2.500   4.432  1.4670  1.1219  0.4755
 2397SOL    HW218825   1.820   2.409   4.511  0.5034  0.0436  1.2148
 2398SOL     OW18826   0.473   4.090   1.916 -0.7539  0.6125 -0.1433
 2398SOL    HW118827   0.437   4.133   1.838  0.7507  0.5235 -0.8958
 2398SOL    HW218828   0.437   4.003   1.899  1.5546 -0.6964  1.5873
 2399SOL     OW18829   4.695   4.409  16.968 -0.5104 -0.0843  0.5387
 2399SOL    HW118830   4.619   4.406  16.909 -0.3068  4.0860  0.0922
 2399SOL    HW218831   4.677   4.321  17.004  2.0445 -1.5521 -1.8082
 2400SOL     OW18832   2.592   4.579   7.744  0.2723 -0.6117 -0.2653
 2400SOL    HW118833   2.518   4.543   7.794 -0.5815  0.7603 -0.5564
 2400SOL    HW218834   2.659   4.515   7.767  1.2551 -0.5511 -2.8843
 2401SOL     OW18835   1.560   2.908   2.539 -0.6407  0.2647  0.8291
 2401SOL    HW118836   1.565   2.861   2.456 -2.0283 -1.1289  1.5484
 2401SOL    HW218837   1.528   2.992   2.505 -1.4055 -0.2817  0.1934
 2402SOL     OW18838   2.483   2.317  16.296  0.4786 -0.0747 -0.1576
 2402SOL    HW118839   2.494   2.235  16.346 -4.0358 -1.4823 -1.5211
 2402SOL    HW218840   2.473   2.277  16.210  0.4497 -1.9747  0.7269
 2403SOL     OW18841   3.758   1.467  11.581 -0.0055 -0.3490  0.0105
 2403SOL    HW118842   3.832   1.426  11.627  0.8774  0.4155 -0.7379
 2403SOL    HW218843   3.784   1.450  11.491 -0.1947 -1.3367  0.1392
 2404SOL     OW18844   4.359   3.481   2.523  0.8132  0.4331 -0.0241
 2404SOL    HW118845   4.346   3.415   2.455  0.8379  2.1734 -1.6926
 2404SOL    HW218846   4.434   3.441   2.566  2.3822 -1.0142 -4.1290
 2405SOL     OW18847   3.443   2.874  13.161 -0.2141  0.2578  0.1072
 2405SOL    HW118848   3.374   2.818  13.195 -0.9694  0.9735 -0.2384
 2405SOL    HW218849   3.412   2.906  13.076  1.7922  1.1271 -0.3123
 2406SOL     OW18850   2.727   0.144   2.628  0.0342  0.3864 -0.1090
 2406SOL    HW118851   2.634   0.166   2.619  0.3507  0.9830 -1.9091
 2406SOL    HW218852   2.727   0.058   2.586 -1.4568  0.6387 -0.5954
 2407SOL     OW18853   0.677   1.103   2.939 -0.1980  0.4360  0.4618
 2407SOL    HW118854   0.754   1.085   2.884 -1.3876 -2.0539 -0.4059
 2407SOL    HW218855   0.686   1.031   3.001  0.9940  0.2911  0.1233
 2408SOL     OW18856   0.905   4.259  17.517  0.0723  0.5038 -0.5322
 2408SOL    HW118857   0.910   4.348  17.481 -1.2319  0.3207 -1.1805
 2408SOL    HW218858   0.966   4.216  17.458 -0.8714 -0.7401 -0.5997
 2409SOL     OW18859   4.430   3.441  17.474  0.0346 -0.8227  0.0832
 2409SOL    HW118860   4.428   3.473  17.384  0.4576 -0.8490  0.0647
 2409SOL    HW218861   4.523   3.437  17.497  0.4322 -0.1327 -1.3769
 2410SOL     OW18862   3.804   4.424   1.186 -0.3081  0.3871  0.0858
 2410SOL    HW118863   3.847   4.386   1.109  1.7440  4.8689 -0.9938
 2410SOL    HW218864   3.815   4.518   1.173  0.4756  0.2437 -0.2683
 2411SOL     OW18865   1.918   2.728  15.611 -0.8797 -0.0755  0.6516
 2411SOL    HW118866   1.888   2.749  15.522 -0.9883  1.1631  0.9820
 2411SOL    HW218867   1.877   2.794  15.667  0.7264  0.2818  1.3769
 2412SOL     OW18868   2.840   1.299   2.563 -0.4007  0.2345  0.0747
 2412SOL    HW118869   2.853   1.370   2.501 -1.0809  0.8746  0.6681
 2412SOL    HW218870   2.757   1.319   2.605 -1.0428  0.1521 -1.1609
 2413SOL     OW18871   3.137   0.066   7.891  0.0001  0.2126 -0.2005
 2413SOL    HW118872   3.207   0.130   7.898 -0.6754  1.1282 -1.7610
 2413SOL    HW218873   3.102   0.080   7.803 -0.2340 -1.3983 -0.3569
 2414SOL     OW18874   1.152   2.265   6.151 -0.6727  0.0051  0.0111
 2414SOL    HW118875   1.232   2.307   6.118  0.0831  0.2993  2.2432
 2414SOL    HW218876   1.086   2.293   6.088  1.9798  0.1175 -2.7205
 2415SOL     OW18877   2.337   4.026   0.689 -0.1400 -0.1996  0.0690
 2415SOL    HW118878   2.385   3.944   0.700  1.7786  0.9734  0.3775
 2415SOL    HW218879   2.396   4.072   0.630 -0.2570 -2.0623 -1.5065
 2416SOL     OW18880   1.761   1.962   3.600  0.3772 -0.0339 -0.3468
 2416SOL    HW118881   1.754   2.021   3.525  1.3415  1.7441  0.9627
 2416SOL    HW218882   1.830   1.900   3.578  1.7069  0.6645  1.9541
 2417SOL     OW18883   0.636   4.648   8.073 -0.0298 -0.0754  0.1577
 2417SOL    HW118884   0.619   4.616   8.162  0.9132  0.7925  0.6563
 2417SOL    HW218885   0.608   4.739   8.084  1.2350  0.3989 -0.5562
 2418SOL     OW18886   0.521   1.469   2.995 -0.0389 -0.0224  1.1485
 2418SOL    HW118887   0.447   1.483   2.936 -0.3325 -2.2307  0.9782
 2418SOL    HW218888   0.554   1.558   3.007 -1.0022  0.5091 -0.1530
 2419SOL     OW18889   2.354   2.541  16.333  0.5933 -0.4483  0.3730
 2419SOL    HW118890   2.412   2.465  16.326  1.9589  0.7833 -1.5511
 2419SOL    HW218891   2.281   2.491  16.371  0.8590 -1.5356 -0.5318
 2420SOL     OW18892   4.450   1.869   5.006 -1.0826  0.1691 -0.4763
 2420SOL    HW118893   4.467   1.958   5.037 -1.4285 -0.2040  0.7690
 2420SOL    HW218894   4.475   1.812   5.078 -0.4372  1.3792  0.2596
 2421SOL     OW18895   3.768   3.756   1.069 -0.5937 -0.1965  0.0019
 2421SOL    HW118896   3.782   3.817   0.997  0.4422 -1.6500 -1.0057
 2421SOL    HW218897   3.775   3.819   1.141 -0.9870 -0.3555  0.1790
 2422SOL     OW18898   3.818   4.381  14.100 -0.2019 -0.4655  0.3631
 2422SOL    HW118899   3.884   4.316  14.076  1.6331  1.5909 -0.1533
 2422SOL    HW218900   3.757   4.380  14.026  0.4157  0.0403 -0.1517
 2423SOL     OW18901   2.296   3.786   5.967  0.0327  0.3001 -0.0603
 2423SOL    HW118902   2.285   3.691   5.965  0.6058  0.2080  0.8383
 2423SOL    HW218903   2.386   3.796   5.937 -0.0979 -0.0518 -0.5684
 2424SOL     OW18904   3.797   1.022   3.278 -0.1803  0.2538 -0.4951
 2424SOL    HW118905   3.859   0.990   3.213 -3.1444 -0.6157 -2.9132
 2424SOL    HW218906   3.712   1.014   3.235 -2.3129 -0.5832  3.8599
 2425SOL     OW18907   4.312   4.515   0.690 -0.4644 -0.0105 -0.0906
 2425SOL    HW118908   4.272   4.486   0.608 -1.6468  0.7718  0.2063
 2425SOL    HW218909   4.393   4.556   0.659 -0.1645  0.8317  1.7955
 2426SOL     OW18910   3.840   4.670   1.070 -0.1394  0.0484 -0.2902
 2426SOL    HW118911   3.750   4.699   1.089 -0.1344 -0.8641  1.1283
 2426SOL    HW218912   3.833   4.656   0.976  0.8967 -0.4832 -0.2828
 2427SOL     OW18913   1.973   2.930   2.672  0.2869  0.7383 -0.0663
 2427SOL    HW118914   2.028   2.974   2.607  1.2955  1.6641  1.4030
 2427SOL    HW218915   1.933   2.864   2.616 -0.3144 -0.7527  2.1304
 2428SOL     OW18916   3.957   3.239   5.548 -0.3395  0.0633  0.0323
 2428SOL    HW118917   3.941   3.145   5.555  0.0776  0.0427  0.7242
 2428SOL    HW218918   4.050   3.245   5.567  0.1075 -2.3703 -1.4071
 2429SOL     OW18919   2.716   3.446   8.575  0.4721 -0.8448  0.5887
 2429SOL    HW118920   2.680   3.531   8.548  0.3876 -1.0074  0.1946
 2429SOL    HW218921   2.677   3.387   8.510  2.4194  0.7701 -2.0286
 2430SOL     OW18922   3.865   2.048  15.876  0.1961  0.1713 -0.6344
 2430SOL    HW118923   3.942   2.086  15.834  1.2271 -2.0470 -0.7461
 2430SOL    HW218924   3.895   1.957  15.878 -0.0271  0.0942 -0.8068
 2431SOL     OW18925   0.305   2.523   5.753 -0.1048  0.4929  0.2717
 2431SOL    HW118926   0.356   2.583   5.807  0.2632  0.6733 -0.2797
 2431SOL    HW218927   0.256   2.578   5.692  3.0316  1.6648 -1.1962
 2432SOL     OW18928   2.378   4.092   9.777 -0.0866 -0.3592 -0.0711
 2432SOL    HW118929   2.301   4.098   9.720 -0.0277  0.7830 -0.0330
 2432SOL    HW218930   2.425   4.171   9.751 -1.1835 -0.3519 -2.0490
 2433SOL     OW18931   2.183   1.892  13.308 -0.2210  0.1088  1.1675
 2433SOL    HW118932   2.188   1.986  13.292 -0.6650 -0.0155  0.2828
 2433SOL    HW218933   2.269   1.868  13.342  0.4216  1.6585  0.6436
 2434SOL     OW18934   3.681   0.158   0.160  0.1468 -0.4143  0.0003
 2434SOL    HW118935   3.637   0.203   0.088  0.2488 -0.9489 -0.3886
 2434SOL    HW218936   3.671   0.227   0.226 -1.0573  0.0233 -0.6437
 2435SOL     OW18937   3.353   0.703  10.198  0.0339 -0.4169 -0.4938
 2435SOL    HW118938   3.319   0.653  10.272  1.2952 -0.5857 -0.0302
 2435SOL    HW218939   3.267   0.742  10.179  0.2788  0.4467  0.1909
 2436SOL     OW18940   4.015   3.867  11.540 -0.5743 -0.5635  0.2505
 2436SOL    HW118941   3.961   3.810  11.594  0.4249 -0.2652  1.5459
 2436SOL    HW218942   3.958   3.885  11.465 -0.0496  1.3255  0.3041
 2437SOL     OW18943   0.863   2.494   4.767  0.2346  0.4408 -0.3127
 2437SOL    HW118944   0.807   2.417   4.768  1.6729 -0.5911  1.3850
 2437SOL    HW218945   0.936   2.465   4.822  1.2785 -0.2055 -2.0603
 2438SOL     OW18946   3.976   3.447   3.617 -0.0544  0.3566  0.2254
 2438SOL    HW118947   4.068   3.445   3.640 -0.3795 -1.9735  1.2952
 2438SOL    HW218948   3.936   3.414   3.697 -1.5484 -0.9215 -1.0321
 2439SOL     OW18949   2.270   3.634  15.562  0.5449 -0.0637  0.4815
 2439SOL    HW118950   2.315   3.656  15.644 -0.2879  0.6499  0.7461
 2439SOL    HW218951   2.182   3.671  15.573  1.6009  2.2850  1.1152
 2440SOL     OW18952   1.182   4.132   4.571  0.5164 -0.3114 -1.1508
 2440SOL    HW118953   1.138   4.176   4.499  0.0798  1.4049  0.1377
 2440SOL    HW218954   1.264   4.100   4.534  1.6305  2.5456 -1.2085
 2441SOL     OW18955   4.641   3.388  11.397 -0.1218 -0.3300  0.5093
 2441SOL    HW118956   4.669   3.300  11.423 -0.8500 -0.2563  1.5439
 2441SOL    HW218957   4.661   3.396  11.303  0.0009 -0.4190  0.5282
 2442SOL     OW18958   4.629   4.339  15.464  0.2415 -0.1498 -0.1048
 2442SOL    HW118959   4.678   4.306  15.539  0.3832 -1.7363 -0.8904
 2442SOL    HW218960   4.650   4.432  15.469 -1.2976  0.3590 -2.7719
 2443SOL     OW18961   1.697   3.749   9.296 -0.4560 -0.0940 -0.0777
 2443SOL    HW118962   1.601   3.740   9.297 -0.2306 -2.8156 -1.5078
 2443SOL    HW218963   1.719   3.656   9.287 -1.9846 -0.5340  0.6451
 2444SOL     OW18964   2.012   4.721   4.316  0.7794  0.6057  0.5983
 2444SOL    HW118965   2.076   4.670   4.264  2.5096  4.5279 -1.1186
 2444SOL    HW218966   1.955   0.015   4.248  1.8519 -1.4261 -1.3780
 2445SOL     OW18967   1.094   1.468   3.628 -0.1328 -0.8571  0.1140
 2445SOL    HW118968   1.070   1.391   3.678  0.3913 -0.8918  0.3166
 2445SOL    HW218969   1.155   1.421   3.571 -2.9654 -3.4159 -0.8101
 2446SOL     OW18970   3.449   1.149   4.993  0.0896  0.5236  0.2883
 2446SOL    HW118971   3.381   1.101   5.041  0.8044 -0.2996  0.4903
 2446SOL    HW218972   3.490   1.069   4.959  1.1003 -0.0939  2.9290
 2447SOL     OW18973   2.843   1.497   2.983  0.0402  0.5378 -0.0366
 2447SOL    HW118974   2.789   1.473   3.057  2.0287 -0.6813  1.0314
 2447SOL    HW218975   2.874   1.410   2.959 -0.6972 -0.4325  2.5496
 2448SOL     OW18976   1.975   0.352   4.153 -0.1447  0.7623 -0.5541
 2448SOL    HW118977   1.988   0.428   4.096  0.6514  0.5662 -0.6288
 2448SOL    HW218978   1.939   0.288   4.092  0.5835  0.8899 -1.1166
 2449SOL     OW18979   2.786   1.810   1.222  0.1013  0.1801 -0.3168
 2449SOL    HW118980   2.739   1.788   1.302 -2.5104 -0.4100 -2.0092
 2449SOL    HW218981   2.872   1.838   1.255  0.6380 -0.5757 -1.0816
 2450SOL     OW18982   1.405   4.247  15.456 -0.1900  0.4610  0.1054
 2450SOL    HW118983   1.422   4.285  15.542  0.9763 -0.4534  0.2739
 2450SOL    HW218984   1.374   4.161  15.483 -0.5046 -0.3071 -2.7632
 2451SOL     OW18985   4.155   1.725   6.326  0.3146  0.0441  0.3188
 2451SOL    HW118986   4.147   1.782   6.250 -1.3333 -2.1884 -1.1840
 2451SOL    HW218987   4.185   1.795   6.384 -1.2765  1.5002 -0.6225
 2452SOL     OW18988   1.331   0.883   8.959  0.0544 -0.7545  0.1045
 2452SOL    HW118989   1.238   0.898   8.971 -0.4631 -2.1863 -2.1464
 2452SOL    HW218990   1.342   0.834   9.040 -0.7099 -1.1820 -0.0549
 2453SOL     OW18991   1.544   2.755   9.756  0.0831 -0.0943  0.3785
 2453SOL    HW118992   1.531   2.711   9.840  1.4366  1.6396  1.5139
 2453SOL    HW218993   1.522   2.695   9.685 -1.9572  1.0859 -0.0249
 2454SOL     OW18994   2.221   2.934   3.511 -0.7329 -0.0511  0.3362
 2454SOL    HW118995   2.181   2.955   3.596  0.7114 -1.9991  1.5144
 2454SOL    HW218996   2.281   3.008   3.506 -1.6227  0.6660  0.2436
 2455SOL     OW18997   3.215   2.638   5.398  0.0801 -0.8712  0.4971
 2455SOL    HW118998   3.226   2.579   5.473 -1.2366 -1.1692  0.4580
 2455SOL    HW218999   3.124   2.665   5.402 -0.0254 -0.8402 -2.3153
 2456SOL     OW19000   0.288   0.531   8.217  0.6657 -0.0499  0.2165
 2456SOL    HW119001   0.298   0.463   8.283  0.8969 -1.4791 -1.2836
 2456SOL    HW219002   0.196   0.523   8.188  0.4208  1.9320  0.4789
 2457SOL     OW19003   0.964   0.771   5.659 -0.3825  0.1442 -0.5571
 2457SOL    HW119004   0.928   0.685   5.680  0.0490 -0.0454 -0.5948
 2457SOL    HW219005   1.019   0.801   5.731  0.0803 -0.7984 -0.5180
 2458SOL     OW19006   0.836   2.471   8.361  0.6353  0.6348  0.1283
 2458SOL    HW119007   0.919   2.463   8.313  1.5439 -2.3167  2.1659
 2458SOL    HW219008   0.833   2.563   8.384 -1.1356  0.3448  1.0321
 2459SOL     OW19009   1.680   2.128  10.049  0.3208 -0.1125  0.6424
 2459SOL    HW119010   1.589   2.143  10.077  0.1190 -1.0010  0.4593
 2459SOL    HW219011   1.713   2.216  10.029 -0.8708  0.4805  1.2950
 2460SOL     OW19012   3.190   1.995   5.476  0.3917  0.0216 -0.2432
 2460SOL    HW119013   3.269   1.997   5.531 -1.1503  2.0945  1.9147
 2460SOL    HW219014   3.183   2.078   5.429 -2.4259  0.6218  1.1945
 2461SOL     OW19015   3.259   0.481   3.093 -0.0851 -0.3682 -0.1917
 2461SOL    HW119016   3.276   0.570   3.123  0.0742 -1.2606  2.4315
 2461SOL    HW219017   3.309   0.439   3.163  2.2828  0.6366 -1.3052
 2462SOL     OW19018   1.563   1.809   5.059  0.1062  0.3590 -0.2914
 2462SOL    HW119019   1.646   1.817   5.105  1.2517 -1.1587 -2.0876
 2462SOL    HW219020   1.604   1.805   4.973 -0.8989  0.1427 -0.7657
 2463SOL     OW19021   3.075   3.661  17.392  0.1808  0.4709  0.4976
 2463SOL    HW119022   2.996   3.705  17.359 -0.9889 -1.8311  0.2091
 2463SOL    HW219023   3.061   3.571  17.362  0.5390  0.1374  1.3281
 2464SOL     OW19024   0.583   1.536   5.000  0.1609  0.7063  0.2218
 2464SOL    HW119025   0.596   1.450   5.041  2.2299  0.3416 -1.2082
 2464SOL    HW219026   0.512   1.568   5.055 -0.0451  0.2743  0.1998
 2465SOL     OW19027   1.011   2.137   7.696  0.0019  0.1097  0.2446
 2465SOL    HW119028   1.059   2.057   7.717 -0.4001 -0.6235 -1.6205
 2465SOL    HW219029   1.065   2.192   7.640 -0.1796 -0.5605 -0.5773
 2466SOL     OW19030   0.219   0.880   5.857 -0.0987  0.3698  0.3523
 2466SOL    HW119031   0.154   0.937   5.897  0.4416  1.1597  0.1064
 2466SOL    HW219032   0.286   0.942   5.828  0.2092 -0.4196 -0.6310
 2467SOL     OW19033   0.063   1.999   0.754  0.1640 -0.5949 -0.0996
 2467SOL    HW119034   4.731   1.951   0.716 -0.8313 -1.1927  2.6013
 2467SOL    HW219035   0.116   1.930   0.794 -0.7817 -0.9730  0.4948
 2468SOL     OW19036   4.195   3.710   3.957 -0.1945 -0.0730 -0.2656
 2468SOL    HW119037   4.290   3.711   3.942 -0.0968  0.3382  0.3793
 2468SOL    HW219038   4.187   3.616   3.975 -2.5469  0.0615 -0.5987
 2469SOL     OW19039   0.892   0.771  17.620 -0.4174  0.3550  0.0357
 2469SOL    HW119040   0.823   0.728  17.570 -0.5593 -0.0991  0.6240
 2469SOL    HW219041   0.954   0.698  17.611 -0.5766 -0.0957  2.7045
 2470SOL     OW19042   4.488   3.755   5.948  0.1079  0.6262 -0.4236
 2470SOL    HW119043   4.471   3.687   5.883  5.1978  0.3511 -1.5200
 2470SOL    HW219044   4.415   3.815   5.935  0.3129  1.2149  1.1728
 2471SOL     OW19045   3.858   3.945  11.318  0.1421  0.1631 -0.1487
 2471SOL    HW119046   3.835   4.035  11.340 -0.6315 -0.3007  0.9247
 2471SOL    HW219047   3.877   3.944  11.224  2.1835  1.4568  0.2300
 2472SOL     OW19048   1.729   1.332   1.504 -0.3642 -0.0141  0.5899
 2472SOL    HW119049   1.786   1.368   1.436 -1.9590  1.1068 -0.1691
 2472SOL    HW219050   1.640   1.355   1.475 -0.2607  1.2779  1.2938
 2473SOL     OW19051   4.240   3.135   5.970 -0.0112 -0.0442 -0.0603
 2473SOL    HW119052   4.196   3.169   6.047  3.3291 -1.3549  2.4365
 2473SOL    HW219053   4.305   3.205   5.968  1.2318 -1.1800  0.7453
 2474SOL     OW19054   2.645   4.545   6.845 -0.5826  0.3573 -0.4705
 2474SOL    HW119055   2.609   4.598   6.775 -0.4099  1.2320  0.1072
 2474SOL    HW219056   2.640   4.615   6.910 -2.4333 -0.9328  0.8095
 2475SOL     OW19057   1.241   1.417   0.108 -0.2907  0.0450 -0.1322
 2475SOL    HW119058   1.186   1.496   0.101  0.2672  0.3078 -1.4838
 2475SOL    HW219059   1.166   1.359   0.093 -0.1689  0.1106 -0.9697
 2476SOL     OW19060   2.958   0.829   2.615 -0.1466 -0.0610 -0.2269
 2476SOL    HW119061   2.948   0.891   2.687  0.6027  0.5163 -0.6211
 2476SOL    HW219062   3.007   0.884   2.554 -1.0218 -0.1302 -0.9961
 2477SOL     OW19063   2.123   0.455   2.836  0.1299  0.4918  0.6759
 2477SOL    HW119064   2.110   0.479   2.744 -0.1132 -0.3932  0.4821
 2477SOL    HW219065   2.186   0.518   2.872  0.9998  0.3422 -0.5961
 2478SOL     OW19066   0.009   4.142   6.129  0.6058  0.3918  0.1693
 2478SOL    HW119067   4.685   4.212   6.127 -0.3998 -0.5996 -1.2711
 2478SOL    HW219068   0.072   4.172   6.063 -0.7115  2.0799 -0.3237
 2479SOL     OW19069   2.542   0.667  15.037  0.0988 -0.1881 -0.6116
 2479SOL    HW119070   2.538   0.707  14.950 -2.0959 -0.3777 -0.5889
 2479SOL    HW219071   2.591   0.587  15.018  1.7143  1.4532 -3.4412
 2480SOL     OW19072   1.321   0.302   2.770 -0.0770 -0.5707  0.5878
 2480SOL    HW119073   1.321   0.302   2.865  1.4384 -1.3343  0.5823
 2480SOL    HW219074   1.388   0.367   2.748 -1.3392  1.3265  2.3433
 2481SOL     OW19075   4.501   2.740   6.490  0.0035  0.0979 -0.9398
 2481SOL    HW119076   4.475   2.832   6.496 -0.4527 -0.0537 -0.6235
 2481SOL    HW219077   4.438   2.705   6.427  0.9370 -1.0668 -1.2425
 2482SOL     OW19078   3.775   1.159   7.152  0.2185 -0.0297 -0.0732
 2482SOL    HW119079   3.790   1.226   7.218 -1.8668  0.7943 -0.4425
 2482SOL    HW219080   3.753   1.217   7.079  2.3378  2.0450  0.9232
 2483SOL     OW19081   0.407   0.570  15.354  0.2581  0.2760 -0.1716
 2483SOL    HW119082   0.409   0.589  15.260 -0.4699  1.6531  0.0992
 2483SOL    HW219083   0.473   0.633  15.382  1.5534 -1.5903  0.9814
 2484SOL     OW19084   2.177   2.363   5.169  0.2296 -0.0616 -0.5363
 2484SOL    HW119085   2.104   2.422   5.188  1.1525  1.1475 -0.7218
 2484SOL    HW219086   2.132   2.296   5.118 -2.6744  0.8740  0.7880
 2485SOL     OW19087   3.845   2.921   2.674 -0.8598  0.3192 -0.5022
 2485SOL    HW119088   3.819   2.967   2.594  0.6139 -2.3536 -2.5266
 2485SOL    HW219089   3.816   2.977   2.746  0.2940  1.2359 -0.7433
 2486SOL     OW19090   1.563   0.388   8.392 -0.4166  0.3854 -0.1410
 2486SOL    HW119091   1.583   0.474   8.429 -1.6798  0.8312 -0.4786
 2486SOL    HW219092   1.577   0.335   8.470  2.3007  0.6705 -0.4414
 2487SOL     OW19093   0.679   2.449   5.999 -0.3082  0.4367 -0.7527
 2487SOL    HW119094   0.597   2.494   5.977 -0.9272 -0.5281 -0.4330
 2487SOL    HW219095   0.655   2.422   6.088 -0.7575 -1.5185 -1.4645
 2488SOL     OW19096   4.602   1.539   2.984 -0.6515  0.0492 -0.2712
 2488SOL    HW119097   4.511   1.564   2.997  0.3551  2.9839  1.0557
 2488SOL    HW219098   4.624   1.532   3.077 -0.7321  1.3690 -0.1617
 2489SOL     OW19099   3.924   1.466   6.961  0.1189 -0.1824 -0.4564
 2489SOL    HW119100   3.947   1.499   6.874  1.9899 -1.6152 -0.5035
 2489SOL    HW219101   4.013   1.478   6.993 -0.2196  0.8012  0.1271
 2490SOL     OW19102   1.453   4.010   3.904  0.2300 -0.3562  0.4845
 2490SOL    HW119103   1.448   3.941   3.970 -1.2265  0.3402  1.0967
 2490SOL    HW219104   1.469   3.952   3.830 -1.6481 -1.1807  0.7277
 2491SOL     OW19105   4.288   2.676  17.056 -0.3634 -0.6032 -0.0015
 2491SOL    HW119106   4.295   2.769  17.034 -0.1912 -0.9177 -1.2637
 2491SOL    HW219107   4.335   2.675  17.140 -0.8605  1.3824  0.3036
 2492SOL     OW19108   1.398   0.272   3.036 -0.1882 -0.4337  0.3182
 2492SOL    HW119109   1.338   0.292   3.108  0.4761  0.3991  0.6253
 2492SOL    HW219110   1.483   0.304   3.066 -0.2897  0.5173 -0.4106
 2493SOL     OW19111   2.234   3.840   2.967  0.5276  0.2506 -0.1153
 2493SOL    HW119112   2.160   3.890   2.932 -0.2564 -0.8228  0.0142
 2493SOL    HW219113   2.277   3.800   2.891  3.9452  0.9536  1.4761
 2494SOL     OW19114   0.132   0.480  11.655 -0.2583 -0.0737  0.0723
 2494SOL    HW119115   0.176   0.518  11.579 -1.3271 -0.2215 -0.6226
 2494SOL    HW219116   0.051   0.531  11.659 -0.1195  0.2447 -1.2942
 2495SOL     OW19117   0.596   1.848   8.919 -0.0102 -0.4778  0.4378
 2495SOL    HW119118   0.533   1.792   8.873  0.6450 -0.8084 -0.0445
 2495SOL    HW219119   0.675   1.799   8.900  1.7419  2.6426 -0.3345
 2496SOL     OW19120   1.312   0.683   3.791 -0.0243  0.5760 -0.4284
 2496SOL    HW119121   1.375   0.677   3.863 -1.3818  0.3095  0.7128
 2496SOL    HW219122   1.340   0.607   3.740 -2.1414 -0.3779 -0.1440
 2497SOL     OW19123   1.366   4.040   0.727 -0.4053  0.1786  0.2689
 2497SOL    HW119124   1.426   4.109   0.755  0.4991 -0.1349 -0.9136
 2497SOL    HW219125   1.420   3.962   0.744 -1.4811 -0.9276 -1.3696
 2498SOL     OW19126   1.726   0.378   5.414  0.0894  0.2948  0.0550
 2498SOL    HW119127   1.759   0.421   5.335 -1.0926 -2.5833 -1.9720
 2498SOL    HW219128   1.680   0.454   5.452 -0.0785  1.1795 -1.9118
 2499SOL     OW19129   0.579   1.988  15.808 -0.0418  0.2730 -0.1690
 2499SOL    HW119130   0.509   2.043  15.843 -1.0235 -1.1871  0.1084
 2499SOL    HW219131   0.553   1.898  15.823  1.1542 -0.5661 -3.0784
 2500SOL     OW19132   0.439   2.136   7.016  0.1843 -0.1851  0.8827
 2500SOL    HW119133   0.432   2.223   7.053 -0.8271  0.1045 -0.0042
 2500SOL    HW219134   0.431   2.084   7.096  1.3093 -0.0193  1.1044
 2501SOL     OW19135   2.894   2.893   8.618 -0.6436 -0.0808 -0.1868
 2501SOL    HW119136   2.862   2.974   8.577  2.3999 -0.9947 -4.3383
 2501SOL    HW219137   2.971   2.875   8.565 -0.0490  1.6258  0.0996
 2502SOL     OW19138   3.459   1.495   5.761 -0.0813 -0.0143  0.0668
 2502SOL    HW119139   3.517   1.559   5.802 -1.2396  1.6510 -0.9310
 2502SOL    HW219140   3.400   1.498   5.836 -0.0760 -1.3047  0.1329
 2503SOL     OW19141   0.889   3.270   3.583  0.0096  0.2554  0.4463
 2503SOL    HW119142   0.862   3.361   3.572 -0.7296 -0.1805 -1.3812
 2503SOL    HW219143   0.884   3.266   3.679 -4.9718  0.8834  0.2017
 2504SOL     OW19144   2.522   2.016   6.884 -0.0698 -0.0105 -0.7324
 2504SOL    HW119145   2.589   2.034   6.950  0.9184  2.3573 -2.4116
 2504SOL    HW219146   2.475   2.099   6.882  0.7828  0.4480 -1.7444
 2505SOL     OW19147   2.185   4.555   1.875 -0.1530  0.1096 -0.5288
 2505SOL    HW119148   2.211   4.504   1.798  0.4099  1.1967 -1.0536
 2505SOL    HW219149   2.212   4.642   1.848 -2.9294  0.8149 -1.0716
 2506SOL     OW19150   3.746   2.040   5.452 -0.3852  0.1267  0.1983
 2506SOL    HW119151   3.836   2.008   5.460 -1.2148 -2.5225 -1.4604
 2506SOL    HW219152   3.764   2.133   5.468  1.0773 -0.0237 -0.6301
 2507SOL     OW19153   1.715   0.118  11.458  0.0382  0.8164 -0.4149
 2507SOL    HW119154   1.662   0.101  11.536  2.2035  0.1604  0.9320
 2507SOL    HW219155   1.652   0.102  11.388  2.0582 -1.1339 -1.7793
 2508SOL     OW19156   1.981   2.100  12.274 -0.0068 -0.1609 -0.3753
 2508SOL    HW119157   1.994   2.183  12.320  0.5997 -2.3988  3.5116
 2508SOL    HW219158   1.916   2.053  12.326  1.2701 -2.1650 -0.5911
 2509SOL     OW19159   1.799   1.694   1.786  0.7888 -0.2154  0.3537
 2509SOL    HW119160   1.835   1.783   1.790  0.2952 -0.0875  1.6122
 2509SOL    HW219161   1.709   1.688   1.816  0.0310  2.1416 -1.4376
 2510SOL     OW19162   3.780   2.548  13.800  0.4927 -0.3647 -0.0658
 2510SOL    HW119163   3.851   2.529  13.739  0.7766 -1.1359  0.5037
 2510SOL    HW219164   3.700   2.553  13.748  0.3407 -0.4900  0.1587
 2511SOL     OW19165   0.624   3.340   7.975  0.0988  0.1192 -0.3828
 2511SOL    HW119166   0.539   3.385   7.970 -0.0490 -0.1199 -0.0148
 2511SOL    HW219167   0.592   3.250   7.970  1.5366 -0.3410 -1.3598
 2512SOL     OW19168   3.110   1.422   3.219  0.1451 -0.3058 -0.5786
 2512SOL    HW119169   3.152   1.405   3.303  0.5524 -0.8975 -0.9035
 2512SOL    HW219170   3.164   1.362   3.168  0.6551  0.2418 -0.6843
 2513SOL     OW19171   4.661   4.261   4.529  0.1629  0.6334 -0.4627
 2513SOL    HW119172   4.710   4.318   4.588 -0.3343 -0.1769  0.7446
 2513SOL    HW219173   4.730   4.194   4.529 -1.0333 -0.5801 -2.3710
 2514SOL     OW19174   1.601   2.516   7.175 -0.6104  0.7562 -0.4076
 2514SOL    HW119175   1.623   2.598   7.220 -2.1717  1.1669 -0.3957
 2514SOL    HW219176   1.506   2.526   7.166 -0.4941 -0.6198 -2.9522
 2515SOL     OW19177   2.843   0.382   5.402 -0.4414 -0.1969 -0.3034
 2515SOL    HW119178   2.864   0.358   5.492 -0.5696  1.1602  0.0959
 2515SOL    HW219179   2.793   0.464   5.407  3.5662  2.4375 -2.6437
 2516SOL     OW19180   1.904   3.116   5.975 -0.3174  0.2186 -0.4627
 2516SOL    HW119181   1.990   3.130   6.015  0.2075  0.1537 -1.5912
 2516SOL    HW219182   1.856   3.092   6.055  0.0502  3.4878  0.7387
 2517SOL     OW19183   4.232   1.132  14.165  0.2045  0.1830  0.1470
 2517SOL    HW119184   4.196   1.150  14.078  0.8503  0.1273 -0.1344
 2517SOL    HW219185   4.189   1.052  14.196  1.0256 -0.9153 -1.5448
 2518SOL     OW19186   2.205   3.908   7.258  0.1372  0.0969  0.2929
 2518SOL    HW119187   2.264   3.927   7.331  0.5996  0.4149 -0.1643
 2518SOL    HW219188   2.120   3.893   7.299  0.2892  0.7099  0.8238
 2519SOL     OW19189   3.372   3.811   5.926 -0.2403 -0.2447 -0.3762
 2519SOL    HW119190   3.449   3.850   5.966 -0.2369 -2.3178  1.6023
 2519SOL    HW219191   3.330   3.891   5.894  0.9225  0.6372  0.3317
 2520SOL     OW19192   2.292   4.064   5.589  0.2720 -0.0031  0.4703
 2520SOL    HW119193   2.241   4.129   5.638  1.4869 -0.0311  1.7814
 2520SOL    HW219194   2.225   4.029   5.532  3.0837 -1.2888 -2.0465
 2521SOL     OW19195   0.493   2.852   3.377 -0.0709 -0.0091  0.3307
 2521SOL    HW119196   0.475   2.788   3.446  2.1642  1.3847  2.2317
 2521SOL    HW219197   0.579   2.833   3.341 -0.5186  0.6013 -1.0752
 2522SOL     OW19198   0.189   0.250   6.448  0.3240  0.4042  0.2891
 2522SOL    HW119199   0.103   0.252   6.490  0.1243 -0.6010 -0.0843
 2522SOL    HW219200   0.190   0.337   6.408  0.6100  0.4309  0.3499
 2523SOL     OW19201   4.143   0.563   2.017 -0.0129 -0.0673 -0.2727
 2523SOL    HW119202   4.146   0.585   2.110  0.3061 -0.4546 -0.1924
 2523SOL    HW219203   4.111   0.646   1.980  0.6949  0.5295  0.4698
 2524SOL     OW19204   2.914   3.545   9.684  0.5153 -0.2091  0.1860
 2524SOL    HW119205   2.874   3.483   9.623 -0.1573  0.3623  0.0362
 2524SOL    HW219206   2.979   3.575   9.620  0.6859  1.2363  1.0192
 2525SOL     OW19207   1.282   1.201   8.062 -0.3744  0.2288  0.0200
 2525SOL    HW119208   1.375   1.223   8.054 -0.2834 -0.3032 -0.4206
 2525SOL    HW219209   1.284   1.156   7.977 -2.2768 -1.9527  1.1333
 2526SOL     OW19210   1.582   4.100   7.501 -0.1392 -0.5221 -0.1827
 2526SOL    HW119211   1.605   4.063   7.416 -0.9136 -0.2157 -0.5301
 2526SOL    HW219212   1.522   4.033   7.535 -0.0432 -0.4344  0.1618
 2527SOL     OW19213   4.654   3.807  10.666 -0.1692 -0.0664  0.0814
 2527SOL    HW119214   4.628   3.897  10.646 -0.8765 -0.8343 -2.5081
 2527SOL    HW219215   4.623   3.758  10.589  1.9997  0.7117 -1.3137
 2528SOL     OW19216   1.901   4.197   0.665  0.3151  0.3257  0.0714
 2528SOL    HW119217   1.830   4.166   0.609  1.7417 -1.4104 -0.8105
 2528SOL    HW219218   1.850   4.220   0.743  2.5174  0.3841  1.4927
 2529SOL     OW19219   2.225   1.860  15.809  0.5533 -0.2596 -0.4195
 2529SOL    HW119220   2.210   1.948  15.775  0.3865  0.6877  2.1087
 2529SOL    HW219221   2.157   1.853  15.876  0.5221  1.3075 -0.2893
 2530SOL     OW19222   2.057   2.839   6.468 -0.0737 -0.2336  0.1791
 2530SOL    HW119223   2.109   2.767   6.432 -1.3600 -0.7833 -0.5727
 2530SOL    HW219224   1.972   2.807   6.498  0.3869 -0.9190  0.7456
 2531SOL     OW19225   2.657   3.038   0.921 -0.0529  0.8473  0.5532
 2531SOL    HW119226   2.588   2.975   0.902  1.1728 -0.4001  0.2808
 2531SOL    HW219227   2.741   2.992   0.928  0.0483  0.7619 -1.1956
 2532SOL     OW19228   1.420   3.541   5.981  0.2447 -0.1103  0.5117
 2532SOL    HW119229   1.492   3.485   5.952 -0.3110 -0.4916 -0.1274
 2532SOL    HW219230   1.367   3.474   6.025 -0.3370  1.2502  1.9081
 2533SOL     OW19231   1.202   0.368   3.730  0.5778  0.2102  0.4729
 2533SOL    HW119232   1.279   0.381   3.675  1.2069 -0.5077  1.1844
 2533SOL    HW219233   1.238   0.404   3.811 -0.9527  0.6940  0.9259
 2534SOL     OW19234   4.159   2.601  16.819 -0.4142  0.1628 -0.0537
 2534SOL    HW119235   4.102   2.527  16.838 -1.1004  0.6771 -0.0888
 2534SOL    HW219236   4.209   2.618  16.898  0.3610 -0.2251 -0.4584
 2535SOL     OW19237   1.072   2.507   8.222 -0.4088  0.0015 -0.1569
 2535SOL    HW119238   1.126   2.535   8.296  3.2175 -1.1148 -2.4014
 2535SOL    HW219239   1.095   2.576   8.159  0.6170 -1.4359 -1.3454
 2536SOL     OW19240   0.168   1.296   0.219 -0.1343 -0.1493  0.5347
 2536SOL    HW119241   0.147   1.206   0.195  0.4132  0.0096 -0.5068
 2536SOL    HW219242   0.142   1.297   0.312 -0.7315  2.6379  0.3324
 2537SOL     OW19243   4.336   1.140   6.939  0.1296  0.2056  0.3121
 2537SOL    HW119244   4.395   1.213   6.956  1.1898 -0.4540 -0.5769
 2537SOL    HW219245   4.249   1.180   6.931 -1.2437 -2.6947  0.5419
 2538SOL     OW19246   0.176   2.024   4.992  0.0920  0.0770 -0.2797
 2538SOL    HW119247   0.272   2.014   4.993  0.1853  0.9096 -0.4599
 2538SOL    HW219248   0.160   2.015   5.086  1.3683  0.6721 -0.0029
 2539SOL     OW19249   4.445   4.318   7.005  0.0894 -0.2315  0.0008
 2539SOL    HW119250   4.458   4.406   7.042 -0.4663 -0.2543  0.2495
 2539SOL    HW219251   4.536   4.302   6.980 -0.1444 -0.7836 -0.5049
 2540SOL     OW19252   0.863   0.841   3.767 -0.2379 -0.3513  0.2535
 2540SOL    HW119253   0.926   0.796   3.711 -1.1151 -2.2911  0.8393
 2540SOL    HW219254   0.833   0.771   3.825  2.8951 -0.6390  1.5734
 2541SOL     OW19255   2.939   2.078  14.787  0.2616 -0.0389 -0.2966
 2541SOL    HW119256   2.938   1.995  14.835 -0.8394  1.1306  1.7387
 2541SOL    HW219257   2.873   2.060  14.720 -1.1326  0.1793  1.0034
 2542SOL     OW19258   0.552   1.882   2.715 -0.9545  0.3114 -0.4587
 2542SOL    HW119259   0.606   1.939   2.661  2.0957 -1.0989  1.1442
 2542SOL    HW219260   0.623   1.853   2.772 -0.7872  2.3506  0.3725
 2543SOL     OW19261   4.103   0.115  17.011 -0.2150  0.7353 -0.0472
 2543SOL    HW119262   4.173   0.055  16.987 -2.3553 -1.3853 -1.0780
 2543SOL    HW219263   4.128   0.198  16.971  2.5516 -0.8317 -1.5490
 2544SOL     OW19264   4.099   1.612   5.419 -0.1299 -0.5895 -0.1892
 2544SOL    HW119265   4.052   1.600   5.337 -0.3683 -0.1088 -0.1272
 2544SOL    HW219266   4.027   1.604   5.482  0.6291  0.3029  0.8086
 2545SOL     OW19267   2.451   3.855   5.714  0.1084  0.1763  0.7313
 2545SOL    HW119268   2.372   3.878   5.665  1.0219 -0.6876 -1.1597
 2545SOL    HW219269   2.513   3.905   5.661 -0.7685  3.1319  2.5436
 2546SOL     OW19270   3.547   1.944   9.376  0.4371 -0.2850 -0.0274
 2546SOL    HW119271   3.467   1.896   9.398  0.0167  1.1985  1.6754
 2546SOL    HW219272   3.505   2.010   9.321  0.0357 -0.1789  0.4055
 2547SOL     OW19273   2.050   3.569   3.270 -0.5015 -0.3973  0.5383
 2547SOL    HW119274   1.986   3.498   3.276 -0.9828  0.0738  0.9584
 2547SOL    HW219275   2.127   3.530   3.229 -0.6975  0.5485 -0.7407
 2548SOL     OW19276   3.980   4.640   4.027  0.0515  0.4016 -0.0316
 2548SOL    HW119277   4.021   4.722   4.000  0.2753 -0.3276 -1.9386
 2548SOL    HW219278   3.897   4.644   3.980 -0.5725  1.4010  1.1626
 2549SOL     OW19279   4.723   0.859   5.110  0.4469 -0.3940 -0.6838
 2549SOL    HW119280   0.006   0.842   5.020  2.7386  1.6177 -0.4443
 2549SOL    HW219281   4.650   0.920   5.101 -0.1570 -0.8653  1.0614
 2550SOL     OW19282   3.415   1.296   3.612  0.2612  0.1269  0.1078
 2550SOL    HW119283   3.509   1.305   3.597 -0.0622  0.3800 -1.7811
 2550SOL    HW219284   3.390   1.288   3.520  0.5864 -0.7697  0.0944
 2551SOL     OW19285   3.232   3.798   3.435 -0.1750  0.3028 -0.0351
 2551SOL    HW119286   3.295   3.870   3.450 -1.2815  1.3189 -0.2642
 2551SOL    HW219287   3.249   3.774   3.344 -2.9242 -3.3246  0.4357
 2552SOL     OW19288   3.293   3.897  12.039 -0.1483  0.2730  0.2721
 2552SOL    HW119289   3.311   3.831  12.106  0.8515  0.0167 -0.2377
 2552SOL    HW219290   3.378   3.941  12.047 -1.4537  2.5844  1.5549
 2553SOL     OW19291   1.427   3.905   4.708 -0.2928  0.0819  0.5139
 2553SOL    HW119292   1.433   3.810   4.697  0.7921  0.3631 -1.2866
 2553SOL    HW219293   1.429   3.926   4.615 -1.0827  0.5216  0.6015
 2554SOL     OW19294   4.340   3.720  14.709 -0.2374  0.1884  0.6351
 2554SOL    HW119295   4.303   3.800  14.746 -2.5937 -0.7397  0.2719
 2554SOL    HW219296   4.386   3.747  14.629  0.1262 -0.2316  0.7008
 2555SOL     OW19297   2.920   3.182   5.401  0.1459 -0.7263  0.0885
 2555SOL    HW119298   2.903   3.220   5.315  3.3094 -0.1756 -0.2905
 2555SOL    HW219299   2.828   3.180   5.428 -0.0995  1.7449 -0.5678
 2556SOL     OW19300   4.466   0.953   5.087 -0.0206 -0.0465 -0.3119
 2556SOL    HW119301   4.441   1.014   5.017 -2.1084  0.3367  0.7632
 2556SOL    HW219302   4.400   0.887   5.066  0.9277 -1.1848  0.3264
 2557SOL     OW19303   3.435   2.327   3.752  0.1226 -0.2320 -0.4777
 2557SOL    HW119304   3.379   2.294   3.682 -4.3268  0.0691  2.9320
 2557SOL    HW219305   3.478   2.253   3.794 -0.3737 -0.8611 -1.0967
 2558SOL     OW19306   0.846   0.004   8.316  0.6579 -0.1144 -0.1040
 2558SOL    HW119307   0.878   4.703   8.237 -0.0419  0.6875 -0.8275
 2558SOL    HW219308   0.768   0.053   8.289  0.6278 -0.3583 -0.4528
 2559SOL     OW19309   0.232   2.834  12.170  0.2934  0.3739  0.0115
 2559SOL    HW119310   0.242   2.853  12.077  0.0439 -3.2061 -0.7630
 2559SOL    HW219311   0.263   2.744  12.177  0.0221  0.0702 -2.7861
 2560SOL     OW19312   3.399   1.549   3.710 -0.2194 -0.1256 -0.5124
 2560SOL    HW119313   3.381   1.455   3.709 -2.0891  0.2031  1.0967
 2560SOL    HW219314   3.407   1.567   3.616  1.3839  3.0527  0.2512
 2561SOL     OW19315   4.419   3.855   2.401 -0.6250 -0.4213  0.1892
 2561SOL    HW119316   4.364   3.933   2.410  2.2339  1.5981 -0.0555
 2561SOL    HW219317   4.497   3.904   2.377 -1.6836  1.4294  0.4740
 2562SOL     OW19318   3.487   1.348   7.966 -0.5258 -0.4136  0.1211
 2562SOL    HW119319   3.562   1.388   7.923  0.6528 -1.3450  1.3343
 2562SOL    HW219320   3.415   1.388   7.917 -1.7719 -1.4109  1.1493
 2563SOL     OW19321   2.878   3.521   6.402  0.2898  0.7327  0.7797
 2563SOL    HW119322   2.860   3.458   6.473 -1.9341 -0.6495 -0.9997
 2563SOL    HW219323   2.875   3.603   6.450  2.0834  0.9644  0.4667
 2564SOL     OW19324   1.591   3.524  17.404  0.2904  0.6570 -0.0800
 2564SOL    HW119325   1.607   3.591  17.470 -1.6425 -0.0905  1.1325
 2564SOL    HW219326   1.583   3.574  17.323  3.2709  0.7208 -0.3349
 2565SOL     OW19327   0.419   1.506   3.288  0.3725 -0.4858  0.4019
 2565SOL    HW119328   0.435   1.444   3.360  2.6223 -0.4168 -0.0366
 2565SOL    HW219329   0.466   1.474   3.211  0.4844  1.6998 -0.4325
 2566SOL     OW19330   2.611   3.158  11.041  0.5462 -0.9458  0.1203
 2566SOL    HW119331   2.594   3.078  11.090  1.2129 -1.4729 -0.5028
 2566SOL    HW219332   2.640   3.225  11.103  2.0793 -1.2316 -0.2850
 2567SOL     OW19333   4.514   4.113   7.397  0.3593  0.2313  0.2765
 2567SOL    HW119334   4.435   4.060   7.403 -0.0396  0.8107  0.0959
 2567SOL    HW219335   4.474   4.199   7.391  0.0036 -0.1083 -2.3156
 2568SOL     OW19336   2.289   3.056   4.386  0.3216  0.1397  0.0274
 2568SOL    HW119337   2.379   3.024   4.401  0.5584  0.2443 -1.1966
 2568SOL    HW219338   2.285   3.040   4.292  0.4750  0.4667 -0.0343
 2569SOL     OW19339   3.729   0.783   6.326  0.1381  0.4649  0.5649
 2569SOL    HW119340   3.806   0.745   6.284  0.9720  1.6539  1.0103
 2569SOL    HW219341   3.731   0.728   6.405  0.8557 -0.8156 -0.3534
 2570SOL     OW19342   2.807   1.935   6.225  0.3157 -0.1760  0.5204
 2570SOL    HW119343   2.746   1.953   6.296  0.5215  0.6519  0.4865
 2570SOL    HW219344   2.784   2.009   6.169 -1.1615  0.9381  2.6328
 2571SOL     OW19345   1.949   3.352   2.921  0.0128  0.0599 -0.0181
 2571SOL    HW119346   1.867   3.339   2.874 -0.1248  1.8010 -0.2721
 2571SOL    HW219347   1.995   3.270   2.904 -1.4718 -0.6933 -0.4399
 2572SOL     OW19348   1.314   1.379   3.520 -0.1192  0.3426 -0.3488
 2572SOL    HW119349   1.334   1.290   3.547  1.1085  0.5436 -0.5861
 2572SOL    HW219350   1.296   1.368   3.427 -0.4654  0.2186 -0.2662
 2573SOL     OW19351   0.228   3.441   4.106 -0.6647 -0.2227  0.0872
 2573SOL    HW119352   0.303   3.464   4.161  1.2510 -0.2226 -2.5357
 2573SOL    HW219353   0.250   3.490   4.028 -0.6422 -0.0349  0.2113
 2574SOL     OW19354   2.490   0.235   3.743 -0.0403  0.3770 -0.4791
 2574SOL    HW119355   2.547   0.178   3.795  0.5696  2.1077  0.7498
 2574SOL    HW219356   2.430   0.264   3.813  0.2106  2.0082 -0.9539
 2575SOL     OW19357   0.184   2.940   5.809  0.7189  0.3369  0.4281
 2575SOL    HW119358   0.093   2.911   5.809  0.4060  1.3329 -0.1961
 2575SOL    HW219359   0.212   2.862   5.857 -1.8641  0.2167  1.7231
 2576SOL     OW19360   2.802   0.401   5.953 -0.1108  0.0031 -0.7719
 2576SOL    HW119361   2.746   0.347   5.898 -0.9525 -2.7913  2.8148
 2576SOL    HW219362   2.792   0.349   6.033 -0.8785  1.1984 -0.1049
 2577SOL     OW19363   1.879   2.758   2.469  0.4511 -0.0726  0.2936
 2577SOL    HW119364   1.968   2.725   2.454 -0.0683 -0.7951 -1.2148
 2577SOL    HW219365   1.853   2.768   2.377  0.9645 -0.7667  0.0727
 2578SOL     OW19366   1.636   3.164   7.770 -0.8278  0.2220 -0.6495
 2578SOL    HW119367   1.613   3.113   7.847 -0.7316  0.4018 -0.4990
 2578SOL    HW219368   1.720   3.207   7.787  0.2045 -1.7788 -0.6890
 2579SOL     OW19369   3.585   4.307   1.943 -0.0445  0.3531  0.3219
 2579SOL    HW119370   3.610   4.389   1.901 -0.5202 -0.3774 -1.3796
 2579SOL    HW219371   3.552   4.254   1.870  0.3183  0.4161  0.1156
 2580SOL     OW19372   3.100   0.420   4.326  0.1131 -0.2475  0.1955
 2580SOL    HW119373   3.109   0.326   4.336 -3.1510 -0.4956  0.9831
 2580SOL    HW219374   3.024   0.422   4.267  0.7667  2.3961 -0.5493
 2581SOL     OW19375   3.565   2.321   3.029  0.0634  0.2052 -0.0787
 2581SOL    HW119376   3.568   2.230   3.058  0.4481  1.3174  3.3228
 2581SOL    HW219377   3.649   2.357   3.055 -0.3768 -0.2001  1.8667
 2582SOL     OW19378   3.611   4.431   1.492 -0.0623 -0.2067 -0.9847
 2582SOL    HW119379   3.565   4.349   1.477 -0.2799 -0.2604 -0.0481
 2582SOL    HW219380   3.600   4.444   1.587 -3.3047 -0.1179 -1.3520
 2583SOL     OW19381   2.442   0.128  16.169 -0.0138 -0.8021 -0.5972
 2583SOL    HW119382   2.359   0.082  16.173  0.7042 -2.1428 -1.0305
 2583SOL    HW219383   2.422   0.206  16.221  2.1315 -0.8377  0.2995
 2584SOL     OW19384   0.195   4.092   2.369  0.4049  0.7351 -0.2006
 2584SOL    HW119385   0.286   4.090   2.339 -0.3043 -0.2861 -2.3026
 2584SOL    HW219386   0.201   4.126   2.458  2.6515  1.0777 -0.4841
 2585SOL     OW19387   3.580   0.228   9.452 -0.1187 -0.2130 -0.0225
 2585SOL    HW119388   3.495   0.210   9.412  1.0103 -0.6147 -2.2627
 2585SOL    HW219389   3.592   0.146   9.499  2.0135  0.0096 -0.1882
 2586SOL     OW19390   1.958   1.127   5.242  0.4286  0.0425  0.1789
 2586SOL    HW119391   1.985   1.211   5.278  1.6247  0.8311 -2.5733
 2586SOL    HW219392   1.990   1.065   5.308 -1.3242 -0.8161  0.2395
 2587SOL     OW19393   1.608   4.026   5.858 -0.3182 -0.2902  0.2503
 2587SOL    HW119394   1.683   4.006   5.915  0.7254 -0.3803 -1.1431
 2587SOL    HW219395   1.555   3.955   5.895  0.4828 -2.3487 -2.5637
 2588SOL     OW19396   0.112   0.878  15.082  0.6018 -0.9365 -0.0526
 2588SOL    HW119397   0.138   0.952  15.026 -3.1564  0.2005 -0.3316
 2588SOL    HW219398   0.160   0.892  15.163  0.1838  1.8290 -0.2800
 2589SOL     OW19399   4.636   0.748  10.499  0.2222  0.2902  0.0126
 2589SOL    HW119400   4.626   0.838  10.530  0.6404 -0.1107  1.2955
 2589SOL    HW219401   4.675   0.715  10.580 -2.7197 -0.0921  1.2883
 2590SOL     OW19402   2.861   2.523   3.725 -0.6118 -0.2237  0.7633
 2590SOL    HW119403   2.787   2.463   3.733  0.2975 -1.2915  1.2147
 2590SOL    HW219404   2.821   2.606   3.698 -1.8098 -1.3018 -0.7385
 2591SOL     OW19405   1.529   3.731   0.110  0.1962 -0.0833 -0.4475
 2591SOL    HW119406   1.566   3.711   0.197 -2.8126  0.4435  0.9456
 2591SOL    HW219407   1.473   3.657   0.087  0.9538 -0.1907 -1.9417
 2592SOL     OW19408   1.117   2.715   6.939 -0.7029 -1.2011 -0.7724
 2592SOL    HW119409   1.092   2.785   7.000  0.3980 -1.0819 -0.4627
 2592SOL    HW219410   1.043   2.654   6.941 -1.4918 -0.2330 -0.5985
 2593SOL     OW19411   4.370   2.849   5.139 -0.2257 -0.1375  1.0455
 2593SOL    HW119412   4.348   2.760   5.166  0.2118 -0.3148  0.8128
 2593SOL    HW219413   4.293   2.868   5.085  1.5129  1.4415 -0.8567
 2594SOL     OW19414   4.504   4.575  16.413 -0.5068  0.5004 -0.1023
 2594SOL    HW119415   4.469   4.564  16.324  0.2465 -0.0169 -0.3349
 2594SOL    HW219416   4.449   4.523  16.471  0.0302  0.7936  0.6635
 2595SOL     OW19417   0.441   1.750   8.434  0.2615  0.2856  0.1629
 2595SOL    HW119418   0.363   1.788   8.473 -0.7113 -0.7785 -0.7411
 2595SOL    HW219419   0.507   1.758   8.503  1.3955  1.6198 -1.0538
 2596SOL     OW19420   3.383   3.845   2.637  0.0499  0.2949 -0.4892
 2596SOL    HW119421   3.385   3.941   2.639 -2.3270  0.4114 -3.4457
 2596SOL    HW219422   3.439   3.842   2.559 -0.1786  2.0232 -0.7170
 2597SOL     OW19423   2.629   2.487  15.611 -0.0039  0.1525 -0.0681
 2597SOL    HW119424   2.580   2.568  15.596 -0.4553 -0.1386 -0.1533
 2597SOL    HW219425   2.558   2.432  15.646 -1.2621  0.5787 -1.9819
 2598SOL     OW19426   2.423   3.598   0.291 -0.4018 -0.2737  0.1685
 2598SOL    HW119427   2.456   3.548   0.216 -1.5769 -0.4598 -0.2130
 2598SOL    HW219428   2.332   3.574   0.275 -0.2808 -1.5979  1.5304
 2599SOL     OW19429   4.469   1.383  14.304 -0.2343 -0.4573 -0.6814
 2599SOL    HW119430   4.456   1.313  14.368 -2.0244  1.1941  0.7654
 2599SOL    HW219431   4.527   1.343  14.239 -0.7054 -0.1580 -1.2809
 2600SOL     OW19432   1.904   1.373  11.643 -0.0903 -0.1275  0.1940
 2600SOL    HW119433   1.812   1.399  11.638  0.3249  1.1292 -0.9960
 2600SOL    HW219434   1.928   1.384  11.551 -0.9046 -0.7721 -0.0890
 2601SOL     OW19435   4.419   3.468   1.333 -0.1658 -0.3266  0.0476
 2601SOL    HW119436   4.366   3.519   1.272  0.8338 -0.6551 -1.0925
 2601SOL    HW219437   4.478   3.439   1.264 -1.2749 -1.9879 -0.2019
 2602SOL     OW19438   3.976   2.367   2.949 -0.7767  0.5646 -0.0622
 2602SOL    HW119439   3.905   2.426   2.974 -1.2538  0.2883 -0.7766
 2602SOL    HW219440   4.007   2.426   2.880 -0.0785  0.1717 -0.0878
 2603SOL     OW19441   0.471   1.843  12.974 -0.1916  0.5500  0.0887
 2603SOL    HW119442   0.488   1.937  12.977 -0.0951  0.5793 -1.0242
 2603SOL    HW219443   0.473   1.829  13.068  1.6312  2.2227  0.3197
 2604SOL     OW19444   1.122   1.558   4.086 -0.0486  0.2910  0.1303
 2604SOL    HW119445   1.076   1.475   4.099  1.4266 -0.3117  1.5452
 2604SOL    HW219446   1.066   1.622   4.129  1.9223  0.8144  1.9323
 2605SOL     OW19447   0.761   1.169   6.233  0.5763  0.4586 -0.1831
 2605SOL    HW119448   0.741   1.168   6.140  0.1795 -0.6542 -0.0810
 2605SOL    HW219449   0.848   1.210   6.232  1.4439 -1.3639  0.1849
 2606SOL     OW19450   0.747   3.402   6.379  0.0111 -0.2084  0.0363
 2606SOL    HW119451   0.683   3.419   6.309 -0.2329 -0.2711  0.2435
 2606SOL    HW219452   0.719   3.479   6.429  0.5995 -0.6262  0.9924
 2607SOL     OW19453   2.001   4.678  11.936 -0.1597 -0.2293  0.0788
 2607SOL    HW119454   2.062   4.670  12.009 -1.3913  0.6350  1.2046
 2607SOL    HW219455   2.066   4.649  11.872 -1.0103  0.4878 -1.1030
 2608SOL     OW19456   1.530   0.840   7.538  0.3296  0.4680  0.1791
 2608SOL    HW119457   1.487   0.898   7.475  2.3510  0.4331 -1.2129
 2608SOL    HW219458   1.562   0.898   7.606 -1.5840 -0.2018  1.6665
 2609SOL     OW19459   0.252   2.068   5.741 -0.0953  0.5096 -0.2017
 2609SOL    HW119460   0.329   2.029   5.701  0.2284 -0.0193  0.9283
 2609SOL    HW219461   0.237   2.137   5.676 -0.8288 -0.8390 -1.4548
 2610SOL     OW19462   2.923   1.326   0.648  0.3780 -0.5138  0.1707
 2610SOL    HW119463   2.880   1.400   0.691 -0.3240 -0.3834 -0.7678
 2610SOL    HW219464   2.984   1.371   0.589 -0.3070  0.7027  0.4022
 2611SOL     OW19465   3.247   3.042   4.682  0.1847 -0.0870 -0.6139
 2611SOL    HW119466   3.268   3.129   4.649 -3.6526  1.0501 -0.0834
 2611SOL    HW219467   3.154   3.057   4.665 -0.2199 -0.0645  1.5084
 2612SOL     OW19468   3.016   1.303   0.989 -0.4333  0.1345  0.0004
 2612SOL    HW119469   2.948   1.367   0.965  0.4014  1.1678  0.4346
 2612SOL    HW219470   3.073   1.370   1.026 -1.2083  0.1051  1.2402
 2613SOL     OW19471   2.553   1.411  15.451 -0.1237  0.3502 -0.1919
 2613SOL    HW119472   2.495   1.474  15.406  0.4305  0.1817 -1.1315
 2613SOL    HW219473   2.555   1.337  15.392 -1.9662 -0.2402  0.4772
 2614SOL     OW19474   1.262   1.899   2.463 -0.1356 -0.0071  0.1510
 2614SOL    HW119475   1.220   1.891   2.548 -0.5939  1.1086  0.0376
 2614SOL    HW219476   1.185   1.899   2.405 -1.7190 -3.0242  2.2638
 2615SOL     OW19477   0.881   4.514   4.297  0.5046  0.7526  0.2144
 2615SOL    HW119478   0.832   4.582   4.251 -2.3455 -1.6429 -0.2506
 2615SOL    HW219479   0.814   4.476   4.354 -0.0088  0.0482 -0.8690
 2616SOL     OW19480   3.081   0.796  10.145  0.0795 -0.1606  0.5403
 2616SOL    HW119481   3.012   0.862  10.151  1.0235  0.7262  1.4269
 2616SOL    HW219482   3.044   0.742  10.075 -0.1326  1.2540 -0.4378
 2617SOL     OW19483   2.943   4.306   1.675  0.0753 -0.1513 -1.1124
 2617SOL    HW119484   3.033   4.319   1.645  1.0979  0.1154  2.0789
 2617SOL    HW219485   2.917   4.397   1.678  2.0575  0.3597  0.6098
 2618SOL     OW19486   0.909   4.671  14.534  0.3748 -0.2459  0.1984
 2618SOL    HW119487   1.001   4.646  14.537  0.2259 -0.6967  0.9411
 2618SOL    HW219488   0.889   4.633  14.448  0.9946  1.0955 -0.5487
 2619SOL     OW19489   2.279   0.818   5.365 -0.5025  0.6497 -0.0733
 2619SOL    HW119490   2.199   0.866   5.387  0.2926  0.8805  2.2738
 2619SOL    HW219491   2.304   0.851   5.279 -2.1648 -0.1924 -0.8653
 2620SOL     OW19492   4.341   1.210   5.253  0.3259  0.6463  0.7729
 2620SOL    HW119493   4.247   1.211   5.235  0.1919 -0.0605  1.4150
 2620SOL    HW219494   4.380   1.209   5.166  1.2197 -1.1781  1.1921
 2621SOL     OW19495   1.420   3.129   6.505  0.0311  0.6158 -0.2111
 2621SOL    HW119496   1.379   3.093   6.427  0.5887 -0.6240  0.0614
 2621SOL    HW219497   1.509   3.095   6.496  0.1068  1.1535 -1.4229
 2622SOL     OW19498   3.589   2.778   3.258 -0.2195 -0.0389  0.4228
 2622SOL    HW119499   3.526   2.708   3.241 -2.3007  1.7192  0.8765
 2622SOL    HW219500   3.530   2.845   3.292 -1.5877 -1.2397  0.4409
 2623SOL     OW19501   0.675   2.941   4.625  0.1118 -0.1219 -0.2859
 2623SOL    HW119502   0.734   2.993   4.679 -0.2172  0.3658 -0.3972
 2623SOL    HW219503   0.635   3.003   4.564 -0.8326 -0.2808  0.1703
 2624SOL     OW19504   1.505   1.933  15.862  0.4971 -0.1851 -0.7583
 2624SOL    HW119505   1.442   1.863  15.880  0.2619  0.0083 -0.8232
 2624SOL    HW219506   1.579   1.925  15.922  0.2518  0.7858 -0.3362
 2625SOL     OW19507   0.390   2.521   3.854 -0.2952  0.4595 -0.4858
 2625SOL    HW119508   0.330   2.559   3.789 -0.9603  0.5833  0.1992
 2625SOL    HW219509   0.366   2.549   3.942  1.7725  0.4805  0.0653
 2626SOL     OW19510   2.669   3.222   7.558  0.3701  0.0310  0.4604
 2626SOL    HW119511   2.646   3.302   7.511  0.0479 -0.1526  0.2990
 2626SOL    HW219512   2.764   3.227   7.564  0.2556  1.9620  0.7620
 2627SOL     OW19513   1.676   2.149   9.487 -0.1718  0.2216 -0.1116
 2627SOL    HW119514   1.735   2.210   9.444 -0.5186  1.4933  1.2119
 2627SOL    HW219515   1.696   2.163   9.580  3.9114 -0.6636 -0.8557
 2628SOL     OW19516   0.760   1.290  17.321 -0.4380  0.4365 -0.1746
 2628SOL    HW119517   0.741   1.217  17.379  0.0332 -0.0205 -0.5946
 2628SOL    HW219518   0.790   1.353  17.386  1.5385 -1.4945  0.7964
 2629SOL     OW19519   0.919   3.828  16.273 -0.3819 -0.2334  0.4648
 2629SOL    HW119520   0.923   3.733  16.275 -2.1221 -0.2969  0.8317
 2629SOL    HW219521   0.879   3.843  16.359 -0.5076  2.1198  0.0081
 2630SOL     OW19522   0.498   3.130  10.487 -0.1308 -0.2318  0.4318
 2630SOL    HW119523   0.581   3.111  10.530  0.2167 -0.7363 -0.4578
 2630SOL    HW219524   0.518   3.083  10.406 -0.8627 -1.1948  0.8032
 2631SOL     OW19525   2.587   0.856   4.248  0.1470 -0.7462  0.1905
 2631SOL    HW119526   2.534   0.857   4.169 -0.4180  0.5276  0.5723
 2631SOL    HW219527   2.552   0.925   4.305 -0.5181  0.1645 -1.3244
 2632SOL     OW19528   2.849   0.697  12.292 -0.6252 -0.7070  0.2711
 2632SOL    HW119529   2.884   0.615  12.256 -1.0927 -0.0432 -1.6917
 2632SOL    HW219530   2.852   0.741  12.207 -1.0143 -1.6949 -0.2607
 2633SOL     OW19531   3.480   1.566   6.901 -0.1894  0.2218  0.1789
 2633SOL    HW119532   3.534   1.488   6.917 -2.1859 -1.2173 -0.0317
 2633SOL    HW219533   3.524   1.625   6.962 -0.0947  0.0405  0.2875
 2634SOL     OW19534   3.815   3.803   8.331  0.3150 -0.8966  0.2572
 2634SOL    HW119535   3.749   3.870   8.346  1.1629  0.3124 -1.5315
 2634SOL    HW219536   3.871   3.859   8.278  0.9682  0.5673  2.5040
 2635SOL     OW19537   2.278   1.611   4.498 -0.0029  0.0765  0.1252
 2635SOL    HW119538   2.272   1.527   4.453  0.6641  0.3462 -0.4650
 2635SOL    HW219539   2.361   1.651   4.473  1.3769 -2.1810  1.2020
 2636SOL     OW19540   3.346   1.338   6.051 -0.2108  0.4229  0.1215
 2636SOL    HW119541   3.329   1.430   6.032 -0.2267  0.1836 -0.9847
 2636SOL    HW219542   3.442   1.338   6.056 -0.1482 -0.2854 -1.2647
 2637SOL     OW19543   4.219   2.865   7.958  0.6255 -0.1090 -0.3571
 2637SOL    HW119544   4.292   2.913   7.919  1.1244 -0.3352  0.2942
 2637SOL    HW219545   4.144   2.890   7.905  0.4371 -1.7879 -0.8820
 2638SOL     OW19546   1.155   1.761   5.313 -0.3610 -0.5672 -0.1376
 2638SOL    HW119547   1.246   1.741   5.290 -0.5323  0.5837 -1.8577
 2638SOL    HW219548   1.124   1.822   5.246 -0.6158  0.4979  0.9479
 2639SOL     OW19549   3.327   0.914   8.951 -0.2491  0.2191 -0.1262
 2639SOL    HW119550   3.291   0.900   9.039 -1.7912  2.4200 -0.3855
 2639SOL    HW219551   3.415   0.943   8.976  1.2000 -2.5528 -2.0793
 2640SOL     OW19552   0.891   2.896  10.284 -0.3536  0.4445  0.2285
 2640SOL    HW119553   0.850   2.833  10.225 -0.1426  0.3148  0.2216
 2640SOL    HW219554   0.890   2.835  10.358  0.1219 -0.8341 -0.8316
 2641SOL     OW19555   1.772   1.204   2.009 -0.3477  0.1778  0.0367
 2641SOL    HW119556   1.809   1.279   1.962 -0.7939  0.6523  0.4348
 2641SOL    HW219557   1.735   1.253   2.083 -1.5873  0.9241 -1.0581
 2642SOL     OW19558   0.960   4.379   4.011  0.0057 -0.1633 -0.0621
 2642SOL    HW119559   0.991   4.383   4.102 -0.1973 -2.6111  0.1249
 2642SOL    HW219560   0.934   4.470   4.001  0.4926  0.5647  5.2892
 2643SOL     OW19561   0.316   0.658   5.684  0.3315 -0.1745 -0.2520
 2643SOL    HW119562   0.294   0.749   5.705  0.8461 -0.3888  1.2200
 2643SOL    HW219563   0.306   0.666   5.589 -0.5126 -1.6940 -0.2836
 2644SOL     OW19564   1.460   0.656   7.720  0.4208 -0.2932 -0.2953
 2644SOL    HW119565   1.455   0.729   7.658  1.4279 -0.2724 -0.3584
 2644SOL    HW219566   1.412   0.686   7.797  3.7228  0.4028  1.4614
 2645SOL     OW19567   0.374   0.614  12.372 -0.4928 -0.0652 -0.1533
 2645SOL    HW119568   0.440   0.667  12.329 -0.2885  0.6938  1.0939
 2645SOL    HW219569   0.418   0.581  12.450  1.9362  1.9936 -0.6559
 2646SOL     OW19570   0.687   3.774  12.210  0.0839 -0.0913  0.1986
 2646SOL    HW119571   0.709   3.777  12.303 -1.3965 -0.7219  0.5710
 2646SOL    HW219572   0.669   3.681  12.217  0.7545 -0.2922 -0.7193
 2647SOL     OW19573   2.823   4.144   2.345 -0.3946  0.5818 -0.6956
 2647SOL    HW119574   2.905   4.182   2.376 -0.3212 -0.9495  1.0130
 2647SOL    HW219575   2.842   4.052   2.365 -1.9301  0.1287 -1.3555
 2648SOL     OW19576   4.187   4.641   5.709 -0.4235 -0.0156 -0.4686
 2648SOL    HW119577   4.190   4.691   5.628 -1.6565  1.4396  0.3878
 2648SOL    HW219578   4.096   4.614   5.720 -1.2628  2.0026 -2.5842
 2649SOL     OW19579   1.388   0.836  11.635  0.4052  1.0070 -0.8638
 2649SOL    HW119580   1.427   0.865  11.553  0.4905 -2.6131 -2.1071
 2649SOL    HW219581   1.401   0.907  11.698  1.2326 -0.7529  0.9351
 2650SOL     OW19582   4.282   0.425  12.777  0.1723 -0.7824 -0.0817
 2650SOL    HW119583   4.187   0.420  12.771  0.1683 -0.0778 -0.6631
 2650SOL    HW219584   4.295   0.481  12.701  1.2509 -0.9185  0.0036
 2651SOL     OW19585   0.491   2.937   1.945 -0.1821  0.6756  0.1460
 2651SOL    HW119586   0.421   2.894   1.895  1.0023 -0.7025 -0.3436
 2651SOL    HW219587   0.564   2.905   1.892 -0.6623 -0.6562  0.3016
 2652SOL     OW19588   2.198   1.609  17.176 -0.3795  0.3024 -0.8597
 2652SOL    HW119589   2.210   1.590  17.269 -1.1995 -1.8342 -1.2050
 2652SOL    HW219590   2.152   1.530  17.149 -0.5169  0.4028 -0.9175
 2653SOL     OW19591   4.061   1.052   1.358 -0.2492  0.2162  0.3812
 2653SOL    HW119592   4.096   1.141   1.360 -1.5743  0.7589 -0.7184
 2653SOL    HW219593   4.039   1.031   1.448  0.0092 -0.3770  0.3102
 2654SOL     OW19594   2.321   2.617  11.269 -0.2518 -0.0840 -0.8595
 2654SOL    HW119595   2.286   2.607  11.357 -0.3316 -2.1544 -1.1256
 2654SOL    HW219596   2.312   2.525  11.247 -0.4273 -0.6862  1.7704
 2655SOL     OW19597   2.815   2.590   8.116 -0.5169 -0.0146 -0.0194
 2655SOL    HW119598   2.862   2.596   8.033  0.4434 -1.5861  0.4266
 2655SOL    HW219599   2.782   2.501   8.123 -2.3275  0.8024  1.8480
 2656SOL     OW19600   2.515   0.838   3.444  0.1752  0.2061  0.7267
 2656SOL    HW119601   2.494   0.930   3.459 -0.9405 -0.1569  1.4323
 2656SOL    HW219602   2.548   0.811   3.530  2.4885 -1.0517 -0.5762
 2657SOL     OW19603   3.938   2.265   5.481 -0.3667 -0.0002  0.1135
 2657SOL    HW119604   3.906   2.352   5.505  0.5687  0.1824  0.7103
 2657SOL    HW219605   3.905   2.259   5.391  1.4079  0.0167 -0.5413
 2658SOL     OW19606   1.613   4.562   3.539  0.6267  0.4649 -0.0603
 2658SOL    HW119607   1.624   4.508   3.617  0.2978  0.2677 -0.1517
 2658SOL    HW219608   1.701   4.599   3.534  0.6182  0.4628 -0.2373
 2659SOL     OW19609   3.934   3.293   1.081 -0.4563 -0.1544  0.4181
 2659SOL    HW119610   4.022   3.310   1.048 -1.2059  1.0916 -0.9497
 2659SOL    HW219611   3.949   3.212   1.130  1.7104  0.7207  1.1639
 2660SOL     OW19612   1.664   2.586   7.568  0.3538 -0.3657 -0.7838
 2660SOL    HW119613   1.629   2.609   7.654  1.1912 -0.0724 -0.5207
 2660SOL    HW219614   1.675   2.492   7.587  0.0252 -0.2542 -0.0464
 2661SOL     OW19615   0.220   2.614  17.404 -0.1323 -0.1122 -0.5986
 2661SOL    HW119616   0.284   2.551  17.369 -1.9079 -2.7804  0.9412
 2661SOL    HW219617   0.278   2.679  17.444 -2.9470  1.6943  0.5667
 2662SOL     OW19618   2.877   2.555   3.357 -0.6439  0.5236 -0.0047
 2662SOL    HW119619   2.786   2.574   3.380 -1.6014 -1.7142 -1.9394
 2662SOL    HW219620   2.924   2.635   3.380 -0.8818  0.4104  0.8812
 2663SOL     OW19621   0.443   0.963  17.682 -0.5149  0.0726 -0.0438
 2663SOL    HW119622   0.427   0.995   0.006  1.8225  3.0443 -0.6856
 2663SOL    HW219623   0.354   0.964  17.647 -0.4959  0.1956 -0.0864
 2664SOL     OW19624   0.323   2.468   6.106  0.2806 -1.0834 -0.6556
 2664SOL    HW119625   0.259   2.411   6.064 -1.2928  0.0188  0.2321
 2664SOL    HW219626   0.399   2.411   6.116  1.2881  0.2859 -0.5932
 2665SOL     OW19627   3.966   3.672  13.392 -0.2685  0.3024 -0.1326
 2665SOL    HW119628   4.014   3.720  13.325  1.4102  1.0908  1.6453
 2665SOL    HW219629   3.975   3.738  13.461  2.9611 -1.3840  1.0470
 2666SOL     OW19630   3.676   0.487  17.544 -0.5400  0.7319  0.3673
 2666SOL    HW119631   3.674   0.518  17.453  0.1789 -3.9453 -1.2063
 2666SOL    HW219632   3.740   0.419  17.523 -0.1175  1.5585 -1.0278
 2667SOL     OW19633   0.469   0.916   3.032  0.0036 -0.8822 -0.1420
 2667SOL    HW119634   0.414   0.843   3.059  0.5967 -0.9266  0.9552
 2667SOL    HW219635   0.558   0.888   3.050 -0.5351 -3.0195 -0.8153
 2668SOL     OW19636   3.899   2.436   8.940  0.5616 -0.3106 -0.4943
 2668SOL    HW119637   3.847   2.409   9.015  1.0427 -0.8024 -0.3440
 2668SOL    HW219638   3.834   2.448   8.870 -0.7205 -1.1374  0.5451
 2669SOL     OW19639   1.903   2.690   7.830  0.1210  0.1519 -0.2589
 2669SOL    HW119640   1.911   2.645   7.915  2.3269 -0.6997 -0.9166
 2669SOL    HW219641   1.973   2.645   7.782  1.1272  2.2956 -0.8081
 2670SOL     OW19642   3.599   4.170  15.220  0.1353  0.5679  0.0097
 2670SOL    HW119643   3.674   4.229  15.220  0.6392 -0.0730 -0.0560
 2670SOL    HW219644   3.604   4.138  15.130 -1.0458 -0.2370  0.2275
 2671SOL     OW19645   4.385   4.317  15.330 -0.2220 -0.1700  0.2091
 2671SOL    HW119646   4.461   4.333  15.385  0.5674  0.9501 -1.1902
 2671SOL    HW219647   4.382   4.223  15.344 -3.2141  0.1222  1.4867
 2672SOL     OW19648   2.819   3.008   3.551  0.0456 -0.4066  0.6762
 2672SOL    HW119649   2.902   3.004   3.600  0.0223 -1.5887  0.6139
 2672SOL    HW219650   2.852   2.991   3.463  0.0973  0.6534  0.4869
 2673SOL     OW19651   2.604   1.468   7.273  0.0189 -0.0336  0.3311
 2673SOL    HW119652   2.572   1.451   7.362  0.0103 -0.4356  0.2482
 2673SOL    HW219653   2.678   1.526   7.292  0.4025 -0.5702  0.4687
 2674SOL     OW19654   0.109   0.220   8.841 -0.1964  0.1575 -0.7296
 2674SOL    HW119655   0.126   0.229   8.934 -0.7403  0.3490 -0.6482
 2674SOL    HW219656   0.168   0.288   8.809 -1.4037  0.7358 -1.7673
 2675SOL     OW19657   0.339   0.629   3.781 -0.3619 -0.1375  0.7210
 2675SOL    HW119658   0.333   0.618   3.686  0.5081  2.4707  0.3845
 2675SOL    HW219659   0.406   0.697   3.785 -0.4830 -0.0094  0.5976
 2676SOL     OW19660   4.111   1.958   8.351 -0.8072  0.3008 -0.2725
 2676SOL    HW119661   4.100   2.052   8.345 -0.5854  0.3031 -0.6050
 2676SOL    HW219662   4.059   1.940   8.430  0.0701 -1.3616 -0.0549
 2677SOL     OW19663   0.280   1.031   4.768  0.4330  0.6070  0.3044
 2677SOL    HW119664   0.193   1.036   4.727  1.0177  1.4606 -0.8086
 2677SOL    HW219665   0.268   0.947   4.814 -1.9044  0.8932  0.2424
 2678SOL     OW19666   0.574   3.640   7.251  0.5181  0.1639 -0.1758
 2678SOL    HW119667   0.599   3.716   7.198  1.5059  0.8013  1.2270
 2678SOL    HW219668   0.635   3.649   7.323 -0.0304  1.7823  0.0811
 2679SOL     OW19669   3.245   2.877   7.620 -0.5424 -0.2528  0.0110
 2679SOL    HW119670   3.189   2.953   7.605  0.3017  0.2739 -0.4475
 2679SOL    HW219671   3.224   2.834   7.537  2.7851  0.0959 -1.0093
 2680SOL     OW19672   1.054   4.185  16.291  0.0463  0.1620 -0.6191
 2680SOL    HW119673   1.142   4.181  16.253  0.8488 -0.2297  1.2658
 2680SOL    HW219674   1.053   4.098  16.330 -3.2137  0.6394  0.3137
 2681SOL     OW19675   3.568   3.493   4.475  0.0020 -0.1801  0.2122
 2681SOL    HW119676   3.642   3.438   4.500  0.7194 -0.6601 -2.9187
 2681SOL    HW219677   3.564   3.545   4.555 -1.0776 -0.3385  0.2636
 2682SOL     OW19678   1.282   1.009  17.100  0.3259  0.0853 -0.3201
 2682SOL    HW119679   1.303   0.916  17.085  1.0048 -0.1797  2.3130
 2682SOL    HW219680   1.300   1.054  17.017 -1.8690  0.6951 -0.4500
 2683SOL     OW19681   2.899   3.321   6.595  0.0963  0.3565 -0.2798
 2683SOL    HW119682   2.891   3.314   6.690 -0.6111 -3.2012 -0.5692
 2683SOL    HW219683   2.901   3.226   6.580  0.8210  0.2354  0.5926
 2684SOL     OW19684   2.699   2.843   0.143 -0.1883  0.0357  0.8569
 2684SOL    HW119685   2.688   2.870   0.235 -3.8973  2.0312 -0.1497
 2684SOL    HW219686   2.617   2.795   0.130  0.4238 -1.1933  1.5995
 2685SOL     OW19687   2.454   0.042   2.401  0.0699  0.1490  0.1660
 2685SOL    HW119688   2.399   0.077   2.471 -1.3689  0.2493 -1.0049
 2685SOL    HW219689   2.403   0.052   2.321 -0.8781  2.8227  1.1060
 2686SOL     OW19690   4.602   0.675   2.885 -0.4002 -0.0308 -0.2225
 2686SOL    HW119691   4.658   0.608   2.846  1.5765  2.0740 -0.9796
 2686SOL    HW219692   4.514   0.640   2.874 -0.8772  1.2631 -0.4102
 2687SOL     OW19693   0.443   4.536   4.817 -0.1276  0.5954 -0.4707
 2687SOL    HW119694   0.485   4.520   4.733  0.0072 -1.8353  0.0654
 2687SOL    HW219695   0.477   4.617   4.853 -2.3720  2.1180 -1.7583
 2688SOL     OW19696   2.152   0.955   8.577 -0.4609  0.0806 -0.0244
 2688SOL    HW119697   2.189   1.035   8.614  2.2285 -1.5134  0.6798
 2688SOL    HW219698   2.197   0.888   8.629 -1.4288 -0.0295  0.6692
 2689SOL     OW19699   3.688   0.113  10.508  0.0272 -0.0339 -0.4235
 2689SOL    HW119700   3.675   0.121  10.413 -0.7143  1.5566 -0.1801
 2689SOL    HW219701   3.724   0.199  10.528  0.6715 -0.3301 -0.3014
 2690SOL     OW19702   2.430   1.983  13.589 -0.1522  0.4181 -0.0688
 2690SOL    HW119703   2.422   1.899  13.544  0.8263  1.8478 -2.9298
 2690SOL    HW219704   2.372   1.972  13.665 -1.3004  0.0594 -0.9935
 2691SOL     OW19705   0.758   0.247   6.160 -0.6162  0.1597  0.3527
 2691SOL    HW119706   0.778   0.230   6.252  0.4329 -1.6145 -0.1940
 2691SOL    HW219707   0.671   0.215   6.137  0.2254 -1.5216 -0.5097
 2692SOL     OW19708   2.984   3.040   7.914 -0.0666  0.0014 -0.0080
 2692SOL    HW119709   3.014   2.949   7.922  5.2436  1.8017  0.3426
 2692SOL    HW219710   2.923   3.047   7.988 -1.6214  1.6875 -1.4582
 2693SOL     OW19711   1.237   2.917   7.722 -0.7968 -0.2104 -0.2966
 2693SOL    HW119712   1.156   2.866   7.729 -0.3447 -0.9965 -0.8711
 2693SOL    HW219713   1.291   2.838   7.716 -0.9832 -0.2529 -1.3233
 2694SOL     OW19714   0.130   2.170   2.297  0.8668  0.3523  0.2365
 2694SOL    HW119715   0.115   2.076   2.306  2.6072 -0.0481 -1.1098
 2694SOL    HW219716   0.128   2.174   2.202 -0.5576 -0.4289  0.2379
 2695SOL     OW19717   4.627   2.943  15.781  0.1275 -0.8441 -0.6060
 2695SOL    HW119718   4.534   2.923  15.773 -0.5686  2.2358 -0.1871
 2695SOL    HW219719   4.673   2.863  15.806 -1.2210 -0.9357  1.5881
 2696SOL     OW19720   2.330   2.785   7.012  0.1823  0.7463  0.7039
 2696SOL    HW119721   2.271   2.713   7.032  1.0645 -0.0864  0.2701
 2696SOL    HW219722   2.403   2.749   7.061  1.0234  0.5290 -0.7061
 2697SOL     OW19723   0.090   0.211  11.734  0.1246  0.0681 -0.0825
 2697SOL    HW119724   0.105   0.297  11.695 -2.1030  0.8988  0.9338
 2697SOL    HW219725   0.051   0.229  11.819 -0.3103 -0.2662 -0.2127
 2698SOL     OW19726   3.037   3.294   0.557 -0.1063  0.1828 -0.3033
 2698SOL    HW119727   3.048   3.367   0.619 -1.9046 -1.0231  1.4266
 2698SOL    HW219728   2.992   3.327   0.479 -1.6298 -0.8926  0.1274
 2699SOL     OW19729   0.448   0.795  12.026  0.4620 -0.7888  0.4102
 2699SOL    HW119730   0.498   0.854  11.970 -0.5916  0.9878  1.3468
 2699SOL    HW219731   0.515   0.764  12.087 -0.4381 -2.5231  0.4960
 2700SOL     OW19732   1.384   3.402   8.385 -0.0057 -0.4558  0.2470
 2700SOL    HW119733   1.367   3.346   8.309 -2.4785  0.2212  0.3042
 2700SOL    HW219734   1.389   3.337   8.455 -0.2471 -0.4461  0.2724
 2701SOL     OW19735   3.485   1.595   9.506 -0.4575  0.1030 -0.1937
 2701SOL    HW119736   3.393   1.621   9.506 -0.5664 -0.2767 -0.2394
 2701SOL    HW219737   3.489   1.614   9.412  0.1472 -0.4543 -0.2847
 2702SOL     OW19738   0.637   4.726   4.958 -0.3109  0.0207  0.2190
 2702SOL    HW119739   0.593   0.029   4.886 -0.1869 -2.7657 -1.6186
 2702SOL    HW219740   0.667   0.060   5.008 -0.7779  1.2877 -1.3949
 2703SOL     OW19741   3.087   3.697   5.275 -0.0557 -0.4659 -0.0399
 2703SOL    HW119742   3.130   3.619   5.310 -2.1455 -1.0908  1.1627
 2703SOL    HW219743   3.017   3.720   5.336  0.2273  0.4243 -0.0404
 2704SOL     OW19744   4.338   4.440  16.600 -0.7398 -0.1644  0.5064
 2704SOL    HW119745   4.353   4.350  16.569 -1.3542  0.3480 -1.2861
 2704SOL    HW219746   4.266   4.411  16.655  0.1415 -0.0270  1.7230
 2705SOL     OW19747   0.493   3.066   4.017  0.1495  0.3629  0.2038
 2705SOL    HW119748   0.454   2.999   3.960  1.0897  0.1697 -0.2205
 2705SOL    HW219749   0.587   3.048   4.005  0.2394  0.3540  0.9510
 2706SOL     OW19750   1.895   4.515   6.331 -0.4154  0.1666 -0.0032
 2706SOL    HW119751   1.953   4.554   6.266  1.3910 -0.9298  0.9525
 2706SOL    HW219752   1.851   4.596   6.356  1.2846  0.7535  1.0520
 2707SOL     OW19753   2.529   2.826   8.785 -0.0728 -0.3531 -0.4366
 2707SOL    HW119754   2.595   2.881   8.828 -0.7827 -1.6498  2.2670
 2707SOL    HW219755   2.473   2.790   8.853  0.8798 -1.9873 -0.5157
 2708SOL     OW19756   4.195   0.907  12.180 -0.0771  0.2738 -0.1204
 2708SOL    HW119757   4.193   1.002  12.182 -0.5372  0.2357  1.8432
 2708SOL    HW219758   4.122   0.891  12.120 -1.0091  1.5572  0.6793
 2709SOL     OW19759   3.095   1.111  17.732  0.1121 -0.1939 -0.5774
 2709SOL    HW119760   3.080   1.154   0.052  0.3259 -1.4104  0.0879
 2709SOL    HW219761   3.088   1.018  17.755  0.2392 -0.2507 -0.7658
 2710SOL     OW19762   0.134   0.401  15.679 -0.3192 -0.6602 -0.0237
 2710SOL    HW119763   0.123   0.308  15.660 -2.3108 -0.1745 -1.2583
 2710SOL    HW219764   0.153   0.429  15.589 -0.7414  0.1939  0.1544
 2711SOL     OW19765   3.567   3.066   4.676  0.6600  0.2526 -0.7014
 2711SOL    HW119766   3.580   3.015   4.596  0.4008  0.1979 -0.7080
 2711SOL    HW219767   3.476   3.084   4.651  0.8239  2.5898  0.3298
 2712SOL     OW19768   1.193   2.908   2.774  0.1565 -0.2213 -0.0690
 2712SOL    HW119769   1.270   2.965   2.771 -0.2333  0.3115  0.0630
 2712SOL    HW219770   1.184   2.878   2.684 -0.5016 -0.3742  0.0504
 2713SOL     OW19771   3.482   0.341   4.597 -0.3425 -0.2861 -0.9150
 2713SOL    HW119772   3.548   0.302   4.655 -1.3073 -0.4036  0.1033
 2713SOL    HW219773   3.472   0.269   4.535  1.0008 -1.7518  0.5649
 2714SOL     OW19774   4.566   2.148   2.631  0.2168 -0.0474 -0.0585
 2714SOL    HW119775   4.629   2.215   2.604 -0.6749 -0.2514 -2.6207
 2714SOL    HW219776   4.590   2.079   2.569  0.3630 -0.5965  0.6125
 2715SOL     OW19777   2.054   4.540  10.606  0.5537  0.7371  0.0408
 2715SOL    HW119778   1.989   4.520  10.539 -0.1043  0.3501  0.7982
 2715SOL    HW219779   2.133   4.521  10.554 -0.4637 -0.8146 -0.9502
 2716SOL     OW19780   3.893   0.999  14.730 -0.0507 -0.6780  0.3456
 2716SOL    HW119781   3.798   1.005  14.718 -0.3156  0.0481  2.8425
 2716SOL    HW219782   3.929   1.087  14.715 -0.7536 -0.4991 -0.3046
 2717SOL     OW19783   0.100   3.785  12.844 -0.3323  0.1353  0.2323
 2717SOL    HW119784   0.049   3.704  12.848  1.1057 -0.7124  1.4544
 2717SOL    HW219785   0.157   3.771  12.920  0.0556 -0.0466 -0.0858
 2718SOL     OW19786   3.359   4.386   2.135 -0.4472 -0.3271 -0.0894
 2718SOL    HW119787   3.264   4.394   2.143 -0.3084 -0.5907  1.6931
 2718SOL    HW219788   3.352   4.297   2.100  0.1148 -1.3466  2.4187
 2719SOL     OW19789   2.646   0.282   9.600  0.1088 -0.0849 -0.3472
 2719SOL    HW119790   2.566   0.329   9.624 -0.1187 -0.4302 -0.4286
 2719SOL    HW219791   2.647   0.279   9.505  1.7478  1.9930 -0.3984
 2720SOL     OW19792   0.334   1.411   7.735 -0.4973 -0.4262 -0.5134
 2720SOL    HW119793   0.376   1.475   7.792  0.3566 -0.1394 -1.4799
 2720SOL    HW219794   0.394   1.375   7.670 -1.3010 -0.4338 -1.2608
 2721SOL     OW19795   3.184   0.513  15.230  0.0909  0.2811 -0.3973
 2721SOL    HW119796   3.252   0.452  15.259  1.1221  0.4043 -2.5763
 2721SOL    HW219797   3.122   0.506  15.303  0.6226 -2.2313 -0.1952
 2722SOL     OW19798   3.609   2.303   5.447  0.4609 -0.4485  0.3901
 2722SOL    HW119799   3.670   2.298   5.374 -2.8155 -1.3998 -2.2778
 2722SOL    HW219800   3.558   2.380   5.421  2.7899  2.0347  3.1043
 2723SOL     OW19801   3.962   4.262   6.943 -0.2143 -0.2982  0.2462
 2723SOL    HW119802   4.027   4.332   6.949  0.0904 -0.6181  0.7491
 2723SOL    HW219803   3.999   4.221   6.865 -0.9774 -2.4618  1.0122
 2724SOL     OW19804   2.477   2.322   9.232 -1.2176 -0.5688 -0.1290
 2724SOL    HW119805   2.480   2.281   9.319 -0.8258  1.5094  0.8455
 2724SOL    HW219806   2.570   2.341   9.216 -1.5797 -0.5300 -2.1349
 2725SOL     OW19807   3.551   1.477   2.231  0.4455  0.1959  0.4611
 2725SOL    HW119808   3.492   1.418   2.184 -0.1509  1.3565 -0.2538
 2725SOL    HW219809   3.637   1.438   2.218 -1.7990 -3.9760 -1.7096
 2726SOL     OW19810   1.447   0.211   8.758 -0.2677 -0.1261 -0.4449
 2726SOL    HW119811   1.351   0.212   8.755 -0.3564 -1.9978  1.6223
 2726SOL    HW219812   1.456   0.306   8.750 -1.8835  0.0978  0.3439
 2727SOL     OW19813   0.772   4.590   7.843 -0.3662 -0.2037  0.1758
 2727SOL    HW119814   0.714   4.556   7.775  0.8329  1.1784 -1.5591
 2727SOL    HW219815   0.722   4.594   7.924 -0.3761  0.7210  0.1231
 2728SOL     OW19816   2.611   0.217  11.964  0.2622  0.5442  0.1694
 2728SOL    HW119817   2.703   0.211  11.991  0.6267  0.5157 -1.0648
 2728SOL    HW219818   2.627   0.254  11.877  1.1880 -1.1848 -0.3915
 2729SOL     OW19819   4.530   4.607   0.529  0.6948  0.1119 -0.3998
 2729SOL    HW119820   4.513   4.658   0.450  0.3032 -0.3998 -0.6450
 2729SOL    HW219821   4.608   4.656   0.555  0.7961 -0.0697 -0.3660
 2730SOL     OW19822   0.997   3.426   7.488 -0.4577 -0.0731  0.4305
 2730SOL    HW119823   1.019   3.368   7.416 -0.9740  0.6523 -0.3159
 2730SOL    HW219824   1.049   3.398   7.563 -1.7786 -0.6359  1.1491
 2731SOL     OW19825   2.818   2.322   8.095 -0.0936 -0.1836 -0.0463
 2731SOL    HW119826   2.846   2.258   8.029 -1.4420  0.4980 -1.2704
 2731SOL    HW219827   2.895   2.316   8.152  0.3794  2.0920 -0.4277
 2732SOL     OW19828   2.107   2.207   8.029 -0.0543 -0.4965  0.0193
 2732SOL    HW119829   2.187   2.255   8.052 -2.0489  1.9754  1.8291
 2732SOL    HW219830   2.133   2.123   8.067 -0.5455 -1.0728 -0.9359
 2733SOL     OW19831   2.430   3.792  15.747 -0.0386  0.5807  0.1657
 2733SOL    HW119832   2.372   3.868  15.739 -2.0369 -1.0982 -1.4089
 2733SOL    HW219833   2.423   3.784  15.842 -1.2323  0.0398  0.0431
 2734SOL     OW19834   1.177   0.365   4.697  0.0752 -0.1375  0.3398
 2734SOL    HW119835   1.272   0.380   4.694  0.1330 -0.1027  2.4029
 2734SOL    HW219836   1.159   0.354   4.790 -1.6337 -0.3569 -0.0118
 2735SOL     OW19837   0.996   0.091   2.155 -0.0460 -0.2926 -0.5639
 2735SOL    HW119838   0.932   0.029   2.121  0.3183 -1.6834  1.3302
 2735SOL    HW219839   1.057   0.037   2.205 -0.4617 -0.1323  0.1137
 2736SOL     OW19840   3.683   1.692   7.034 -0.7249 -0.3290 -0.2636
 2736SOL    HW119841   3.711   1.645   7.112 -2.2965 -0.0320  0.4763
 2736SOL    HW219842   3.770   1.702   6.997 -0.7760  3.6331  0.7276
 2737SOL     OW19843   2.876   0.683   2.272  0.1670  0.0235  0.0910
 2737SOL    HW119844   2.871   0.769   2.232 -0.4075 -1.5796 -3.2839
 2737SOL    HW219845   2.970   0.664   2.262  0.0761  0.8524 -2.2340
 2738SOL     OW19846   3.161   1.880   4.264 -0.1761 -0.0564  0.8838
 2738SOL    HW119847   3.139   1.955   4.319  3.1815  1.5853 -0.0159
 2738SOL    HW219848   3.149   1.811   4.330 -0.6148 -0.7995  0.0226
 2739SOL     OW19849   2.196   0.212  16.758 -0.1256  0.4778 -0.1924
 2739SOL    HW119850   2.192   0.120  16.785 -2.9903  0.7539  0.3966
 2739SOL    HW219851   2.119   0.248  16.803  1.1390  2.7069  0.1803
 2740SOL     OW19852   3.947   3.518   5.518  0.2095 -0.0884 -0.2736
 2740SOL    HW119853   3.920   3.538   5.429  0.0402  1.4987  0.1285
 2740SOL    HW219854   3.930   3.424   5.513 -1.1573  0.1457  0.0159
 2741SOL     OW19855   4.077   1.203   7.610 -0.4497  0.1022  0.0877
 2741SOL    HW119856   4.051   1.175   7.698 -2.2099  2.0791  0.2249
 2741SOL    HW219857   4.165   1.167   7.611  0.3927  2.1230 -0.2680
 2742SOL     OW19858   3.173   1.740   4.756 -0.0276  0.1580  0.2092
 2742SOL    HW119859   3.194   1.646   4.755  3.0272  0.8517 -0.2486
 2742SOL    HW219860   3.205   1.758   4.844 -0.0777  3.1642 -0.3997
 2743SOL     OW19861   2.757   3.214   0.749  0.2058  0.3720  0.1877
 2743SOL    HW119862   2.834   3.226   0.804 -0.6124 -4.7805  2.4189
 2743SOL    HW219863   2.711   3.146   0.798 -0.1295  0.3525 -0.1534
 2744SOL     OW19864   0.345   2.092   4.179  0.6192 -0.1299  0.3998
 2744SOL    HW119865   0.439   2.087   4.161  0.2982  2.3139 -1.9044
 2744SOL    HW219866   0.341   2.185   4.160 -2.3971  0.0337  1.8534
 2745SOL     OW19867   0.646   1.132  17.531  0.3014  0.1435 -0.6364
 2745SOL    HW119868   0.604   1.052  17.562  1.3780 -0.0770  0.2781
 2745SOL    HW219869   0.723   1.142  17.588 -0.1492  2.4509 -0.4415
 2746SOL     OW19870   3.977   0.702   7.061  0.0515 -0.3320  0.2515
 2746SOL    HW119871   3.929   0.784   7.045 -0.9844 -0.7530  1.1723
 2746SOL    HW219872   3.901   0.644   7.055 -0.0005 -0.1419 -0.8454
 2747SOL     OW19873   0.915   0.714   4.544 -0.0335  0.3756  0.3849
 2747SOL    HW119874   0.921   0.645   4.477 -2.9071 -1.0888  1.6618
 2747SOL    HW219875   0.877   0.791   4.502 -0.5886 -0.4384 -0.6069
 2748SOL     OW19876   0.101   4.210   8.638  0.4436 -0.4760  0.0514
 2748SOL    HW119877   0.122   4.173   8.552 -0.8243  1.7651 -1.2255
 2748SOL    HW219878   0.170   4.187   8.700  1.1508  0.7564 -0.2967
 2749SOL     OW19879   1.569   3.445   3.074 -0.5473  0.2561  0.0470
 2749SOL    HW119880   1.509   3.466   3.146  0.2782 -1.0417  1.1154
 2749SOL    HW219881   1.537   3.361   3.041 -0.5649 -0.2525  1.3755
 2750SOL     OW19882   0.192   2.167  15.460 -0.0093  0.4101 -0.0926
 2750SOL    HW119883   0.181   2.236  15.395  0.9909  1.2248  0.6107
 2750SOL    HW219884   0.115   2.194  15.510  0.8195  0.5548  1.1312
 2751SOL     OW19885   2.778   3.778   3.752 -0.4271 -0.9982  0.4807
 2751SOL    HW119886   2.839   3.785   3.825 -1.3798  0.7455  1.0982
 2751SOL    HW219887   2.840   3.778   3.678 -1.4052 -0.3785 -0.3374
 2752SOL     OW19888   2.796   3.783  15.350  0.6381  0.0074 -0.9381
 2752SOL    HW119889   2.730   3.771  15.419  2.9039  1.5490  1.4956
 2752SOL    HW219890   2.836   3.697  15.357 -0.0343 -0.2829 -0.5767
 2753SOL     OW19891   3.514   3.569  11.469 -0.5666  0.4436 -1.2308
 2753SOL    HW119892   3.447   3.618  11.517  0.4351  1.9780 -1.4145
 2753SOL    HW219893   3.561   3.642  11.429  2.2875 -0.1951  1.0333
 2754SOL     OW19894   4.333   1.762  16.163 -0.0398  0.1489 -0.3827
 2754SOL    HW119895   4.250   1.789  16.123  0.5254  0.7442 -1.1570
 2754SOL    HW219896   4.322   1.668  16.146  0.3672  0.1203 -0.4899
 2755SOL     OW19897   0.625   4.180  10.753  0.9234  0.2463  0.2245
 2755SOL    HW119898   0.639   4.155  10.844  0.9276  0.8201  0.3767
 2755SOL    HW219899   0.657   4.096  10.718  0.5471  0.9089 -1.7266
 2756SOL     OW19900   3.526   0.465   5.772 -0.6152 -0.6142 -0.1035
 2756SOL    HW119901   3.444   0.499   5.810  0.1448 -0.7136  1.6246
 2756SOL    HW219902   3.579   0.544   5.782 -3.7769  1.5616 -0.3694
 2757SOL     OW19903   0.160   1.031   0.197 -0.2415  0.0254  0.2978
 2757SOL    HW119904   0.214   0.953   0.187  1.4622  1.0986  1.0333
 2757SOL    HW219905   0.093   0.996   0.255 -0.2322  0.4914  0.5974
 2758SOL     OW19906   3.320   0.226  10.816  0.0561  0.1301  0.1990
 2758SOL    HW119907   3.367   0.277  10.882 -2.0552  0.8749  1.1248
 2758SOL    HW219908   3.390   0.172  10.777 -1.2572 -1.1703 -0.3543
 2759SOL     OW19909   2.598   1.159   5.982  0.1172 -0.1328 -0.2752
 2759SOL    HW119910   2.588   1.064   5.970  0.2462 -0.3243  1.2097
 2759SOL    HW219911   2.640   1.187   5.900  0.2424  0.6101  0.0435
 2760SOL     OW19912   3.844   2.015  16.384  1.0684  0.0048 -0.2643
 2760SOL    HW119913   3.939   2.020  16.395  0.9611  1.6859 -0.1187
 2760SOL    HW219914   3.815   2.093  16.336  2.5652  1.2637  0.8635
 2761SOL     OW19915   2.891   3.126  10.200  0.2153 -0.5180 -0.0639
 2761SOL    HW119916   2.872   3.084  10.284  0.9802  0.5637  0.6516
 2761SOL    HW219917   2.929   3.050  10.156  1.2373 -0.9720  1.5884
 2762SOL     OW19918   2.979   2.144   7.147  0.5055  0.3511 -0.7949
 2762SOL    HW119919   2.967   2.205   7.220  0.3853  0.4686 -0.9134
 2762SOL    HW219920   2.961   2.058   7.186 -1.7059  1.9901  1.8284
 2763SOL     OW19921   3.614   3.829   0.039 -0.1468 -0.0161 -0.2672
 2763SOL    HW119922   3.697   3.870   0.062  1.2688 -1.8089 -2.2107
 2763SOL    HW219923   3.641   3.772  17.731  0.8513  0.2697 -0.1100
 2764SOL     OW19924   1.924   2.104   1.464  0.3870 -0.3162 -0.1174
 2764SOL    HW119925   2.008   2.102   1.418  0.7691  1.6996  0.5250
 2764SOL    HW219926   1.968   2.107   1.548  0.1655  2.0300 -0.1037
 2765SOL     OW19927   3.754   4.686   8.535  0.0859  0.4657 -0.0370
 2765SOL    HW119928   3.675   4.723   8.497  0.8993  2.6255  0.3558
 2765SOL    HW219929   3.735   4.592   8.525 -1.0685  0.6512  0.4076
 2766SOL     OW19930   3.008   3.300   2.431  0.2117  0.0011 -0.7524
 2766SOL    HW119931   2.948   3.248   2.484  1.0498  1.2583  1.4871
 2766SOL    HW219932   3.017   3.244   2.354  0.6546 -2.0118  0.7572
 2767SOL     OW19933   3.734   2.330   6.963 -0.4572 -0.3776  0.0908
 2767SOL    HW119934   3.644   2.302   6.980 -0.6319 -1.3170 -2.3551
 2767SOL    HW219935   3.749   2.391   7.035 -3.3039 -1.5817  1.7232
 2768SOL     OW19936   0.040   0.857   4.246 -0.3799  0.0289  0.0564
 2768SOL    HW119937   4.722   0.862   4.172 -0.9525  4.1270  0.8054
 2768SOL    HW219938   0.098   0.932   4.234  2.4124 -2.4744 -2.1043
 2769SOL     OW19939   4.317   4.406   6.090 -0.2688 -0.0895 -0.0088
 2769SOL    HW119940   4.263   4.364   6.022  0.3554  1.6184 -1.5585
 2769SOL    HW219941   4.288   4.494   6.068  2.8726  0.9009 -0.1936
 2770SOL     OW19942   2.523   1.258  16.614  0.7182 -0.6528 -0.6714
 2770SOL    HW119943   2.605   1.294  16.649  0.2064  1.0334 -1.2197
 2770SOL    HW219944   2.555   1.169  16.600  0.6154 -0.5418 -1.6338
 2771SOL     OW19945   0.906   0.776   0.163  0.2985  0.2073  0.0444
 2771SOL    HW119946   0.877   0.764   0.073 -1.4637 -0.3821  0.6834
 2771SOL    HW219947   0.948   0.691   0.176 -0.2090 -0.1158 -0.4317
 2772SOL     OW19948   1.244   0.652   1.396  0.7146  0.4456 -0.1141
 2772SOL    HW119949   1.149   0.656   1.413  0.4163  0.8322 -1.8851
 2772SOL    HW219950   1.247   0.635   1.302 -0.1863  1.8349 -0.4021
 2773SOL     OW19951   0.672   1.361  17.053  0.5041  0.1429  0.0006
 2773SOL    HW119952   0.586   1.323  17.071  1.4785 -1.3836  1.4506
 2773SOL    HW219953   0.717   1.354  17.137 -1.0660 -1.0616  0.7326
 2774SOL     OW19954   4.154   2.242   8.759  0.1183  0.4647 -0.4583
 2774SOL    HW119955   4.157   2.163   8.813  1.2152 -0.2359 -1.5604
 2774SOL    HW219956   4.087   2.295   8.802  2.2558  2.1025  0.8607
 2775SOL     OW19957   3.338   4.703   3.325  0.0916 -0.1309  0.0106
 2775SOL    HW119958   3.396   4.676   3.255  0.5211 -2.3240  1.2126
 2775SOL    HW219959   3.275   0.016   3.278  0.6441  0.5420  0.0572
 2776SOL     OW19960   0.141   1.884  10.253  0.2856  0.3657 -0.1811
 2776SOL    HW119961   0.203   1.819  10.288 -0.7815 -0.8704 -0.5818
 2776SOL    HW219962   0.107   1.920  10.335 -0.0956  1.0061 -0.6300
 2777SOL     OW19963   2.050   0.814   2.468 -0.0046  0.2101  0.1026
 2777SOL    HW119964   2.019   0.848   2.552  1.0374  0.4512  0.3911
 2777SOL    HW219965   2.140   0.847   2.471  0.1187  0.0964 -2.0927
 2778SOL     OW19966   3.465   0.665   3.283  0.6370 -0.2711  0.1347
 2778SOL    HW119967   3.454   0.572   3.301 -0.9221  0.3283  2.2972
 2778SOL    HW219968   3.556   0.675   3.313  0.8743  2.2973 -1.4626
 2779SOL     OW19969   3.795   0.345   4.152 -0.0217  0.7146  0.4369
 2779SOL    HW119970   3.706   0.343   4.187 -0.0025 -1.2699  0.3370
 2779SOL    HW219971   3.776   0.395   4.072  1.1145  2.2067  1.0864
 2780SOL     OW19972   3.706   1.295   8.649 -0.0660 -0.4173  0.2175
 2780SOL    HW119973   3.718   1.211   8.693  1.0351  0.1118  0.9252
 2780SOL    HW219974   3.764   1.295   8.574  0.5371  3.1689  0.6571
 2781SOL     OW19975   4.073   2.752   1.741 -0.1436  0.0962  0.4055
 2781SOL    HW119976   3.981   2.732   1.759 -0.7671  2.3142 -0.3054
 2781SOL    HW219977   4.060   2.822   1.677  0.2671  0.7003  0.9884
 2782SOL     OW19978   0.642   1.743  17.058  0.4575 -0.0149 -0.8446
 2782SOL    HW119979   0.719   1.799  17.065  0.3737  0.0912 -0.7868
 2782SOL    HW219980   0.610   1.767  16.971 -1.4722 -0.2393 -0.2039
 2783SOL     OW19981   3.521   0.833   5.270 -0.1850 -0.1920 -0.4493
 2783SOL    HW119982   3.438   0.857   5.230 -0.5329 -0.0410  0.3776
 2783SOL    HW219983   3.554   0.764   5.211  1.2612 -1.2898  1.6176
 2784SOL     OW19984   3.343   1.424   8.256  0.3963 -0.1202  0.4311
 2784SOL    HW119985   3.422   1.381   8.226  0.0535 -1.0451  0.8334
 2784SOL    HW219986   3.342   1.498   8.195  1.9943 -1.0165 -0.6735
 2785SOL     OW19987   0.043   0.523   6.637 -0.5294 -0.0006  0.4787
 2785SOL    HW119988   0.102   0.565   6.575  1.3450 -0.4605  1.9716
 2785SOL    HW219989   0.089   0.517   6.720  0.2961  0.8312  0.0840
 2786SOL     OW19990   2.272   2.877   1.559 -0.0000 -0.3213  0.5133
 2786SOL    HW119991   2.346   2.874   1.619  0.8037  2.3646 -0.3535
 2786SOL    HW219992   2.216   2.815   1.606 -0.0198 -1.6202 -1.2413
 2787SOL     OW19993   4.328   0.647   2.829  0.0351  0.6214 -0.5679
 2787SOL    HW119994   4.271   0.708   2.782  0.0410 -0.0973 -1.5177
 2787SOL    HW219995   4.259   0.591   2.864 -0.7875  1.2281 -1.1891
 2788SOL     OW19996   0.019   1.985   4.075  0.3823  0.3041  0.3582
 2788SOL    HW119997   4.702   2.053   4.109 -3.0541 -3.0482  1.1263
 2788SOL    HW219998   0.081   1.992   4.148 -0.8938 -0.9607  1.5629
 2789SOL     OW19999   2.717   3.421   6.845 -0.2557  0.1576  0.3268
 2789SOL    HW120000   2.724   3.331   6.878 -0.6568  0.6814  1.8428
 2789SOL    HW220001   2.641   3.410   6.788 -1.6853 -0.6769  2.3877
 2790SOL     OW20002   2.745   4.278  11.234 -0.5911 -0.0174  0.4236
 2790SOL    HW120003   2.798   4.356  11.254  2.4277 -2.4136  1.8032
 2790SOL    HW220004   2.667   4.298  11.285 -0.2923  1.4281  0.3209
 2791SOL     OW20005   2.341   4.646   3.419  0.0981 -0.0047 -1.1052
 2791SOL    HW120006   2.278   4.695   3.471  1.1703  1.2104 -0.9752
 2791SOL    HW220007   2.285   4.588   3.367  0.7384 -0.2764 -1.5030
 2792SOL     OW20008   2.196   4.310   5.715  0.2591 -0.4918 -0.1401
 2792SOL    HW120009   2.262   4.262   5.765  0.9589 -0.3358 -0.9225
 2792SOL    HW220010   2.161   4.376   5.775 -1.3983 -0.5860 -1.0230
 2793SOL     OW20011   2.876   1.723   6.928  0.4040  0.4636  0.0893
 2793SOL    HW120012   2.938   1.733   6.857 -2.0777  1.1798 -1.9780
 2793SOL    HW220013   2.830   1.645   6.896 -2.8317  1.0954  3.1514
 2794SOL     OW20014   4.265   4.147   6.673 -0.0675 -0.6154 -0.1737
 2794SOL    HW120015   4.305   4.102   6.599  1.6000 -0.6222  0.7289
 2794SOL    HW220016   4.287   4.239   6.658 -0.2920 -0.4095  0.7035
 2795SOL     OW20017   4.131   0.678  10.594 -0.0996  0.3096  0.1036
 2795SOL    HW120018   4.057   0.704  10.649 -0.5372  0.0013 -0.3403
 2795SOL    HW220019   4.100   0.601  10.546  1.3572 -0.1090 -0.1658
 2796SOL     OW20020   2.227   0.191   4.701 -0.0779 -0.0770  0.1524
 2796SOL    HW120021   2.265   0.253   4.638 -0.5703  0.6626  0.5811
 2796SOL    HW220022   2.138   0.223   4.693  0.0925 -0.3938 -3.0777
 2797SOL     OW20023   2.795   0.437  17.518  0.5765  0.9808 -0.0139
 2797SOL    HW120024   2.703   0.446  17.544  0.1904 -1.9847 -0.2954
 2797SOL    HW220025   2.816   0.344  17.521 -1.9932  0.3502 -1.4923
 2798SOL     OW20026   0.690   1.720   6.174  0.1927 -0.6363 -0.0687
 2798SOL    HW120027   0.740   1.667   6.235 -1.5902 -1.1892  0.9346
 2798SOL    HW220028   0.730   1.806   6.181 -1.6463  0.0712  1.7886
 2799SOL     OW20029   3.395   3.833   3.977 -0.1956  0.1386  0.0114
 2799SOL    HW120030   3.453   3.782   3.919 -1.0633 -0.0452 -0.7060
 2799SOL    HW220031   3.454   3.834   4.052 -0.0942  1.3224 -0.0849
 2800SOL     OW20032   3.867   1.859   9.812 -0.0567 -0.2857 -0.1245
 2800SOL    HW120033   3.795   1.797   9.826 -0.7850  0.2331 -1.5640
 2800SOL    HW220034   3.877   1.902   9.897 -2.9355  0.1528  0.0126
 2801SOL     OW20035   4.038   0.272   7.238  0.7148  0.2262  0.4267
 2801SOL    HW120036   4.077   0.357   7.261  2.9435 -0.9468  0.9739
 2801SOL    HW220037   4.067   0.264   7.146 -2.0687  3.3679 -0.7108
 2802SOL     OW20038   3.590   3.997   7.722 -0.2085  0.2465 -0.1973
 2802SOL    HW120039   3.609   4.090   7.714 -0.5144  0.2695 -0.6616
 2802SOL    HW220040   3.672   3.959   7.689 -0.5774 -0.9418  0.2322
 2803SOL     OW20041   4.726   0.646   6.132  0.0750  0.1992  0.6874
 2803SOL    HW120042   0.025   0.649   6.045 -1.5959  1.5506 -0.0420
 2803SOL    HW220043   4.637   0.649   6.097  1.0162 -1.2355 -1.8852
 2804SOL     OW20044   3.609   2.773  13.990  0.3146  1.0181 -0.5500
 2804SOL    HW120045   3.564   2.815  13.917 -1.8943  0.3919  0.4384
 2804SOL    HW220046   3.551   2.817  14.053 -1.1348 -0.6213 -0.7339
 2805SOL     OW20047   2.243   4.240   1.196  0.2574  0.1630  0.6154
 2805SOL    HW120048   2.283   4.323   1.170 -0.2260  0.9036  2.1911
 2805SOL    HW220049   2.275   4.241   1.287  0.6769  2.3746  0.4621
 2806SOL     OW20050   0.962   1.532  16.464 -0.2704 -0.4148 -0.3816
 2806SOL    HW120051   1.042   1.497  16.504 -0.9241 -0.8529  0.5454
 2806SOL    HW220052   0.979   1.522  16.371 -0.2921 -1.6857 -0.2451
 2807SOL     OW20053   0.773   4.601   6.153  0.3081  0.3959 -0.1341
 2807SOL    HW120054   0.857   4.607   6.199  1.5161 -0.2124 -2.2644
 2807SOL    HW220055   0.718   4.551   6.213  0.1300 -1.2408 -1.6914
 2808SOL     OW20056   2.009   0.309  11.729  0.3628 -0.2155 -0.2124
 2808SOL    HW120057   1.942   0.252  11.764  0.3570  0.3874  0.7548
 2808SOL    HW220058   1.990   0.298  11.636 -2.3611  0.1708  0.2969
 2809SOL     OW20059   2.797   2.144  10.503 -0.3407  0.7255  0.2198
 2809SOL    HW120060   2.877   2.104  10.537 -0.2931  1.1048  0.5482
 2809SOL    HW220061   2.793   2.230  10.546 -1.4702 -0.4205  2.3901
 2810SOL     OW20062   2.608   4.448   6.342 -0.4930  0.4872 -0.3480
 2810SOL    HW120063   2.552   4.395   6.400  1.2167 -0.4053  0.4706
 2810SOL    HW220064   2.595   4.396   6.262 -0.2933  0.3348 -0.2816
 2811SOL     OW20065   0.242   3.577   1.679  0.1948 -0.4659 -0.0771
 2811SOL    HW120066   0.309   3.641   1.703 -0.2127 -0.2434  0.4608
 2811SOL    HW220067   0.253   3.559   1.585 -0.8526  1.9402 -0.6612
 2812SOL     OW20068   3.130   3.368   9.543  0.6860 -0.1769  1.0643
 2812SOL    HW120069   3.191   3.295   9.541  2.9092  1.7220  0.5608
 2812SOL    HW220070   3.194   3.437   9.558  0.4711  0.2291  0.1167
 2813SOL     OW20071   0.507   3.936   8.360  0.2104 -0.3795  0.0240
 2813SOL    HW120072   0.545   3.945   8.272  0.0953 -0.0893  0.0061
 2813SOL    HW220073   0.427   3.986   8.346  1.5192  1.1033 -2.2109
 2814SOL     OW20074   2.628   1.091   1.882  0.4861 -0.1350 -0.0289
 2814SOL    HW120075   2.577   1.147   1.824 -0.1624  2.6468  3.2474
 2814SOL    HW220076   2.715   1.112   1.850  0.8122  1.8578  2.1413
 2815SOL     OW20077   3.185   1.790   1.918  0.4529  0.0608  0.4767
 2815SOL    HW120078   3.258   1.785   1.856  0.0720 -0.1801  0.0545
 2815SOL    HW220079   3.224   1.835   1.993 -0.0583  0.2966  0.5974
 2816SOL     OW20080   4.632   3.225  11.163 -0.0671  0.0097 -0.2002
 2816SOL    HW120081   4.549   3.176  11.157  1.0042 -1.8622  0.1245
 2816SOL    HW220082   4.608   3.303  11.113  1.4882 -0.1865 -1.2580
 2817SOL     OW20083   3.231   2.020   2.111  0.1867  0.0339 -0.1289
 2817SOL    HW120084   3.159   2.057   2.060  1.4168  1.1492 -1.0773
 2817SOL    HW220085   3.203   2.051   2.197  0.0926 -1.4721  0.3713
 2818SOL     OW20086   1.623   1.032   7.771 -0.0398 -0.0587  0.6820
 2818SOL    HW120087   1.567   1.005   7.844 -0.6203  1.9724  0.9785
 2818SOL    HW220088   1.558   1.080   7.719 -0.5647  1.0948  2.3915
 2819SOL     OW20089   1.965   0.140   9.503  0.3363  0.1682 -0.1681
 2819SOL    HW120090   2.013   0.069   9.460  1.1805 -1.5593  3.6425
 2819SOL    HW220091   2.028   0.186   9.558  0.2226 -1.5023  1.3381
 2820SOL     OW20092   3.826   4.379  11.290  0.1170  0.0578 -0.4973
 2820SOL    HW120093   3.764   4.371  11.218 -1.4088 -0.7752  0.9133
 2820SOL    HW220094   3.828   4.297  11.339  3.3836 -0.2535 -1.1092
 2821SOL     OW20095   0.759   1.175   5.957 -0.6538  0.2962  0.6359
 2821SOL    HW120096   0.674   1.217   5.942 -0.8453 -0.1102  0.5846
 2821SOL    HW220097   0.815   1.252   5.971  0.5691 -0.5426  0.2839
 2822SOL     OW20098   2.349   4.733   4.548 -0.2728 -0.0400  0.5553
 2822SOL    HW120099   2.308   0.049   4.612 -2.7814  0.8858 -1.8937
 2822SOL    HW220100   2.355   0.046   4.470  1.3270 -1.6012 -0.4358
 2823SOL     OW20101   0.831   1.364   2.968 -0.2452  0.0535 -0.3479
 2823SOL    HW120102   0.856   1.307   3.041 -1.6715 -1.3960 -0.9963
 2823SOL    HW220103   0.761   1.303   2.944 -1.0625  0.8291  0.0592
 2824SOL     OW20104   4.310   4.582   2.824 -0.2402  0.7772 -0.5701
 2824SOL    HW120105   4.369   4.531   2.768 -1.3555 -0.6012 -0.4975
 2824SOL    HW220106   4.235   4.522   2.823 -0.2473  0.7571  1.5589
 2825SOL     OW20107   1.428   2.546   1.959 -0.4449 -0.4154  0.5626
 2825SOL    HW120108   1.485   2.619   1.933  0.1132 -1.0185  0.1024
 2825SOL    HW220109   1.488   2.488   2.004 -0.5599 -0.9863 -0.0236
 2826SOL     OW20110   3.239   0.407   6.411  0.3249 -1.0818  0.2431
 2826SOL    HW120111   3.207   0.494   6.432  0.5268 -0.6878 -1.0723
 2826SOL    HW220112   3.245   0.402   6.315  1.0918  0.4243  0.2294
 2827SOL     OW20113   1.992   2.982  11.600 -0.3187 -0.0911 -0.0498
 2827SOL    HW120114   2.072   3.002  11.649 -0.3955  1.7897 -0.6957
 2827SOL    HW220115   2.012   2.928  11.523  0.9723  0.9763 -0.4779
 2828SOL     OW20116   1.323   0.095   7.933 -0.4574  0.6965  0.0174
 2828SOL    HW120117   1.402   0.091   7.986  0.0700 -0.3355 -0.8632
 2828SOL    HW220118   1.349   0.130   7.847  2.9390  0.9145  1.1374
 2829SOL     OW20119   4.713   4.304   5.203 -0.0542 -0.2486  0.1908
 2829SOL    HW120120   0.065   4.317   5.188 -0.2560 -0.1432 -0.9605
 2829SOL    HW220121   4.713   4.342   5.291  1.9938 -1.5010  0.7052
 2830SOL     OW20122   1.598   4.181  14.566  0.1947  0.3890 -0.0808
 2830SOL    HW120123   1.530   4.218  14.622 -1.7764 -0.0513 -2.1601
 2830SOL    HW220124   1.669   4.202  14.626  0.4793 -1.9262  0.4048
 2831SOL     OW20125   1.725   0.421   2.562 -0.4203  0.2915  0.0550
 2831SOL    HW120126   1.815   0.408   2.594 -1.2572 -0.7078  2.0411
 2831SOL    HW220127   1.719   0.372   2.480 -3.3297 -0.7129  0.9004
 2832SOL     OW20128   3.970   2.837  16.391 -0.5948  0.3535 -0.5047
 2832SOL    HW120129   4.006   2.903  16.450  0.8883 -0.6720 -0.2940
 2832SOL    HW220130   3.955   2.898  16.318 -1.5633 -0.4577 -0.9807
 2833SOL     OW20131   0.613   0.608   1.805  0.3309  0.3093  0.0935
 2833SOL    HW120132   0.624   0.668   1.879  1.5453  2.5630 -1.9108
 2833SOL    HW220133   0.517   0.605   1.811  0.2905  0.8635 -0.3139
 2834SOL     OW20134   0.206   0.468   4.804 -0.0978 -0.5980  0.5311
 2834SOL    HW120135   0.225   0.387   4.852 -0.1733  0.7307  2.7661
 2834SOL    HW220136   0.273   0.532   4.826 -0.4177 -0.4164  0.9705
 2835SOL     OW20137   1.853   3.178   4.601  0.4533 -0.1606 -0.3737
 2835SOL    HW120138   1.910   3.225   4.661  0.6232 -1.8071  0.7506
 2835SOL    HW220139   1.784   3.245   4.595  1.2620  0.8448  1.6039
 2836SOL     OW20140   1.875   0.908   2.713 -0.4638  0.5788  0.4089
 2836SOL    HW120141   1.790   0.930   2.675  0.0594  2.6289  0.4726
 2836SOL    HW220142   1.917   0.991   2.735 -1.5889  1.6528 -1.5344
 2837SOL     OW20143   0.699   3.217  15.337 -0.0204 -0.8022 -0.0230
 2837SOL    HW120144   0.629   3.218  15.271 -0.2780  0.3424  0.2725
 2837SOL    HW220145   0.637   3.217  15.409 -1.1006 -1.6603 -0.9503
 2838SOL     OW20146   2.752   2.053   7.761  0.3696  0.2111 -0.7240
 2838SOL    HW120147   2.726   1.993   7.690 -1.1955 -0.9227  0.8243
 2838SOL    HW220148   2.846   2.033   7.760  0.3696  0.2330 -2.0090
 2839SOL     OW20149   3.564   0.365   8.756  0.3646 -0.3129 -0.1529
 2839SOL    HW120150   3.607   0.382   8.672 -1.0333  0.4359 -0.7163
 2839SOL    HW220151   3.606   0.428   8.814  1.8365 -1.4801  0.0497
 2840SOL     OW20152   1.814   2.119   9.141  0.0794  0.0342  0.1953
 2840SOL    HW120153   1.751   2.184   9.111  1.8007  0.8617 -1.6157
 2840SOL    HW220154   1.851   2.165   9.217  1.5262  0.8177 -0.9916
 2841SOL     OW20155   3.187   0.515   8.116  0.1407 -0.1647 -0.5234
 2841SOL    HW120156   3.165   0.504   8.024  1.3925  1.3770 -1.0023
 2841SOL    HW220157   3.172   0.609   8.126 -0.6295 -0.0653 -2.7449
 2842SOL     OW20158   3.617   3.304   0.717 -0.3171 -0.3143  0.5409
 2842SOL    HW120159   3.659   3.327   0.634  1.5377 -0.1127  1.5415
 2842SOL    HW220160   3.681   3.345   0.775  1.0914  0.7277 -1.7344
 2843SOL     OW20161   0.656   4.675  17.367 -0.2273 -0.4261 -0.2765
 2843SOL    HW120162   0.714   4.605  17.398 -0.7407  0.2835  2.2873
 2843SOL    HW220163   0.695   4.701  17.283  0.0315 -1.0215 -0.3392
 2844SOL     OW20164   1.076   0.209   5.291  0.2714  0.4519  0.3924
 2844SOL    HW120165   1.009   0.206   5.359 -0.4578  0.3832 -0.3432
 2844SOL    HW220166   1.109   0.299   5.300  0.6929  0.3124  0.2349
 2845SOL     OW20167   1.903   3.547   2.164  0.3534 -0.2525  0.2272
 2845SOL    HW120168   1.862   3.630   2.142 -0.5057 -0.6158  0.4447
 2845SOL    HW220169   1.821   3.497   2.160  0.6704 -0.6232 -1.7548
 2846SOL     OW20170   0.791   4.027   7.907  0.1617 -0.6291 -0.6633
 2846SOL    HW120171   0.754   4.044   7.820 -1.3603 -1.4556 -0.1893
 2846SOL    HW220172   0.810   3.934   7.901  2.7005 -0.2571  1.8882
 2847SOL     OW20173   2.917   1.783   3.392  0.1490  0.6465 -0.4817
 2847SOL    HW120174   2.896   1.868   3.431 -0.0625 -0.3845  1.6245
 2847SOL    HW220175   2.989   1.810   3.334  2.5252 -1.6882  1.3855
 2848SOL     OW20176   0.880   4.474  16.700  0.1131 -0.5051 -0.1193
 2848SOL    HW120177   0.976   4.471  16.699  0.1888  1.8181  0.3024
 2848SOL    HW220178   0.858   4.383  16.678 -0.0232 -0.6445  0.5769
 2849SOL     OW20179   2.336   4.719   3.003 -0.0671 -0.6749  0.2530
 2849SOL    HW120180   2.278   4.685   3.070  0.2024 -1.6960 -0.0332
 2849SOL    HW220181   2.412   0.014   3.049 -1.0738  2.4218 -0.5252
 2850SOL     OW20182   1.274   1.279   4.567 -0.0850  0.8815 -0.5062
 2850SOL    HW120183   1.184   1.273   4.598 -0.2686  1.4302 -0.9217
 2850SOL    HW220184   1.326   1.262   4.645 -2.9621 -2.2764  0.7077
 2851SOL     OW20185   1.743   0.257  16.723  0.2405  0.6361 -0.0381
 2851SOL    HW120186   1.688   0.335  16.729 -1.0885 -0.4043  1.3893
 2851SOL    HW220187   1.711   0.203  16.795 -0.1691  0.7046 -0.1683
 2852SOL     OW20188   4.321   1.492   8.840  0.2794 -0.0439 -0.2340
 2852SOL    HW120189   4.367   1.546   8.775 -0.5762 -0.8452 -1.5131
 2852SOL    HW220190   4.299   1.406   8.803 -0.7555  0.7543 -1.4575
 2853SOL     OW20191   1.927   0.184   9.127 -0.1346  0.2034 -0.5516
 2853SOL    HW120192   1.881   0.102   9.144  4.0071 -1.9353  0.3876
 2853SOL    HW220193   1.952   0.209   9.216  0.4979  1.8533 -1.1879
 2854SOL     OW20194   3.293   2.421  11.549 -0.3451 -0.0226  0.2635
 2854SOL    HW120195   3.208   2.391  11.515 -0.1503 -0.2707 -0.0023
 2854SOL    HW220196   3.298   2.503  11.499  0.8630  0.4593  1.1730
 2855SOL     OW20197   1.931   2.473   5.201  0.1729 -0.1768 -0.4512
 2855SOL    HW120198   1.917   2.568   5.212 -1.0379 -0.6359  2.1291
 2855SOL    HW220199   1.846   2.438   5.229  1.6149 -1.3752  2.4264
 2856SOL     OW20200   2.810   1.707   7.995  0.2617  0.2354  0.3301
 2856SOL    HW120201   2.816   1.613   8.009  0.7859  0.4316  1.4105
 2856SOL    HW220202   2.771   1.736   8.078 -0.4305  0.8644 -0.2051
 2857SOL     OW20203   1.193   3.273   8.712 -0.2126  0.3442 -0.9375
 2857SOL    HW120204   1.166   3.204   8.772 -0.1935 -0.5805 -1.9856
 2857SOL    HW220205   1.135   3.256   8.638  0.6825  0.1279 -1.5840
 2858SOL     OW20206   4.600   4.472  10.905  0.2242  0.0790 -0.2551
 2858SOL    HW120207   4.637   4.466  10.817 -0.3598 -0.6224 -0.4555
 2858SOL    HW220208   4.679   4.497  10.952  1.7104 -0.2235 -2.5743
 2859SOL     OW20209   0.038   0.934   7.407 -0.5307 -0.1813 -0.1566
 2859SOL    HW120210   0.032   0.855   7.462  0.3520  1.9907  3.0469
 2859SOL    HW220211   0.071   0.989   7.479 -1.6882 -0.3775  0.5337
 2860SOL     OW20212   1.618   3.415  14.227 -0.3737 -0.3263  0.1809
 2860SOL    HW120213   1.711   3.440  14.221  0.0213 -1.3762  1.7809
 2860SOL    HW220214   1.587   3.424  14.137  0.5722 -0.4552 -0.1609
 2861SOL     OW20215   2.118   1.829  15.472  0.6778  0.3214  0.2310
 2861SOL    HW120216   2.107   1.900  15.408  2.6878  0.6454  0.2246
 2861SOL    HW220217   2.213   1.821  15.476  0.6785 -0.8120 -2.3317
 2862SOL     OW20218   0.469   1.521   8.248 -0.2576 -0.0274 -0.1360
 2862SOL    HW120219   0.511   1.564   8.174  1.5270 -3.6760 -1.2321
 2862SOL    HW220220   0.492   1.586   8.315  0.4155  2.1166 -2.4557
 2863SOL     OW20221   2.368   0.683   7.813 -0.2653  0.1827 -0.3162
 2863SOL    HW120222   2.376   0.703   7.906 -0.7687  4.5939 -1.2211
 2863SOL    HW220223   2.403   0.764   7.776  0.4589  0.4399  0.9503
 2864SOL     OW20224   0.652   1.760   4.163  0.6787  0.1247  0.2125
 2864SOL    HW120225   0.654   1.832   4.226 -3.4500 -0.8060  1.3795
 2864SOL    HW220226   0.587   1.700   4.199  0.9593  0.1285  0.7206
 2865SOL     OW20227   2.551   3.316   7.788 -0.1627  0.8194 -0.1471
 2865SOL    HW120228   2.588   3.266   7.716  0.6311  2.1067 -0.6302
 2865SOL    HW220229   2.635   3.354   7.812  0.9671 -0.6480 -1.8550
 2866SOL     OW20230   0.204   0.302  14.161 -0.3565  0.9402 -0.0031
 2866SOL    HW120231   0.133   0.350  14.119 -0.4533  1.3796  0.6648
 2866SOL    HW220232   0.286   0.349  14.146  0.7623 -1.6001 -1.8212
 2867SOL     OW20233   0.154   0.637   6.865  0.4488  0.2595 -0.1305
 2867SOL    HW120234   0.135   0.709   6.924 -0.0638  0.6296 -0.7530
 2867SOL    HW220235   0.192   0.578   6.930 -1.9940 -1.4023 -0.1808
 2868SOL     OW20236   2.929   2.272   2.738 -0.4214  0.2765  0.5221
 2868SOL    HW120237   2.849   2.248   2.692 -0.4004 -0.1032  0.6797
 2868SOL    HW220238   2.889   2.299   2.821  2.5646  2.9237  1.0864
 2869SOL     OW20239   3.237   4.183   6.540  0.6069 -0.0853 -0.1202
 2869SOL    HW120240   3.263   4.263   6.495  0.8221  0.0797  0.2970
 2869SOL    HW220241   3.153   4.166   6.498  0.5984 -0.8132  0.1869
 2870SOL     OW20242   1.389   3.956   1.616 -0.7670 -0.4168 -0.0709
 2870SOL    HW120243   1.476   3.988   1.595 -0.5406 -0.2970  1.0564
 2870SOL    HW220244   1.394   3.886   1.550  1.6034  0.4740 -0.8220
 2871SOL     OW20245   0.276   1.924   2.473  0.5459  0.5046  0.1422
 2871SOL    HW120246   0.343   1.979   2.515 -0.8814  1.4122  1.2313
 2871SOL    HW220247   0.204   1.930   2.536  1.0072 -0.8718  0.8041
 2872SOL     OW20248   4.401   4.738   1.736 -0.1316 -0.1204  0.3657
 2872SOL    HW120249   4.336   0.066   1.728  0.8929  1.2616  4.0529
 2872SOL    HW220250   4.435   0.011   1.824 -0.8894  0.7059  0.5201
 2873SOL     OW20251   1.655   4.105   4.574 -0.1492  0.1911  0.2669
 2873SOL    HW120252   1.663   4.044   4.648 -1.7656 -0.3150  0.0412
 2873SOL    HW220253   1.672   4.187   4.619  0.1986  0.2055  0.1119
 2874SOL     OW20254   4.398   4.069   0.185  0.1932 -0.4044  0.0447
 2874SOL    HW120255   4.357   4.043   0.268  0.4396  0.5537  0.4706
 2874SOL    HW220256   4.326   4.103   0.132 -0.5874 -0.4237  1.0883
 2875SOL     OW20257   0.350   4.392   7.781 -0.2746 -0.3589  0.1683
 2875SOL    HW120258   0.260   4.391   7.749  0.0030 -1.6195 -0.5670
 2875SOL    HW220259   0.335   4.450   7.855 -1.2058 -0.8554  0.3721
 2876SOL     OW20260   0.049   1.637   2.818  0.1503 -0.0854  0.4933
 2876SOL    HW120261   4.737   1.595   2.885 -0.2446 -0.3637 -0.0066
 2876SOL    HW220262   0.053   1.726   2.854  0.7945 -0.4750  1.3980
 2877SOL     OW20263   3.117   0.221   0.309  0.4314 -0.4260 -0.5197
 2877SOL    HW120264   3.123   0.316   0.313  0.4158 -0.4073 -0.9928
 2877SOL    HW220265   3.159   0.210   0.224  0.1863  2.1249 -0.9601
 2878SOL     OW20266   2.487   2.867   8.098  0.2169  0.2752  0.5477
 2878SOL    HW120267   2.549   2.851   8.169  0.2238 -2.0881  0.0155
 2878SOL    HW220268   2.530   2.938   8.050  0.2632  1.1905  1.9477
 2879SOL     OW20269   2.796   0.440   9.911  0.4008  0.3005  0.2920
 2879SOL    HW120270   2.810   0.345   9.901 -1.5112 -0.0070  0.4626
 2879SOL    HW220271   2.740   0.434   9.989  0.0221 -0.0379 -0.0036
 2880SOL     OW20272   3.382   4.366  11.218  0.2457  0.3003 -0.7434
 2880SOL    HW120273   3.311   4.429  11.202 -0.5856 -0.2637  0.7273
 2880SOL    HW220274   3.320   4.316  11.271 -1.0464  0.8182 -1.7626
 2881SOL     OW20275   3.005   2.072   1.596  0.3782  0.6687  0.1839
 2881SOL    HW120276   2.950   1.993   1.594  0.3471  0.5699  4.3592
 2881SOL    HW220277   2.939   2.140   1.583 -0.9673 -0.5887  0.4834
 2882SOL     OW20278   2.586   2.445   3.659  0.2642 -0.0553  0.4513
 2882SOL    HW120279   2.500   2.405   3.649  0.1958  0.3218 -0.4820
 2882SOL    HW220280   2.570   2.523   3.606  0.1565 -0.2718  0.1634
 2883SOL     OW20281   4.536   4.638   2.970  0.9841 -0.0794 -0.3743
 2883SOL    HW120282   4.468   4.643   2.903  1.1189  1.0501 -0.4266
 2883SOL    HW220283   4.533   4.543   2.970  0.6139 -0.0690  0.5394
 2884SOL     OW20284   4.317   1.469   7.223  0.1509 -0.0415 -0.6306
 2884SOL    HW120285   4.297   1.563   7.217 -0.3650 -0.0690  0.5628
 2884SOL    HW220286   4.259   1.425   7.161 -0.9975  1.3709 -0.5731
 2885SOL     OW20287   0.962   0.327   8.481 -0.0264  0.0086  0.1600
 2885SOL    HW120288   1.030   0.377   8.525 -0.2507  1.1661 -0.7975
 2885SOL    HW220289   0.946   0.245   8.527 -2.2363  1.5186  2.0521
 2886SOL     OW20290   0.778   4.016   6.924 -0.3435 -0.7550  0.2562
 2886SOL    HW120291   0.856   4.056   6.962 -0.4162 -0.9322  0.5927
 2886SOL    HW220292   0.713   4.086   6.937 -1.2220 -1.5503  0.1106
 2887SOL     OW20293   0.921   2.073   9.480 -0.3690  0.1958  0.3697
 2887SOL    HW120294   0.855   2.004   9.487 -0.3978  0.3165  1.2430
 2887SOL    HW220295   0.888   2.138   9.543 -1.6932  0.8067 -0.9370
 2888SOL     OW20296   4.094   4.472   9.260  0.1920  0.1566  0.2929
 2888SOL    HW120297   4.057   4.431   9.339 -0.8156  1.1076  0.3188
 2888SOL    HW220298   4.147   4.542   9.298 -0.4804  0.4421  0.7230
 2889SOL     OW20299   1.486   4.199   1.365  0.0284  0.1112  0.0668
 2889SOL    HW120300   1.451   4.140   1.298  2.1009  1.1853 -1.9628
 2889SOL    HW220301   1.567   4.231   1.325  1.6986 -1.3327  2.3265
 2890SOL     OW20302   2.035   4.286   4.147 -0.3550 -0.1362 -0.1186
 2890SOL    HW120303   2.001   4.198   4.167 -0.3697 -0.2609 -0.7041
 2890SOL    HW220304   1.963   4.348   4.158 -0.4220 -0.0455 -1.0926
 2891SOL     OW20305   2.356   4.457   5.931  0.5282  0.2135  0.2588
 2891SOL    HW120306   2.345   4.380   5.988  2.3326  0.6540  1.2015
 2891SOL    HW220307   2.420   4.506   5.983  1.7650  0.2008 -1.2620
 2892SOL     OW20308   0.001   2.592   9.669 -0.6672  0.1481  0.2581
 2892SOL    HW120309   0.095   2.592   9.683 -0.5575 -0.0312 -0.4556
 2892SOL    HW220310   4.731   2.498   9.683  0.1400 -0.2261 -1.5340
 2893SOL     OW20311   4.196   3.578  14.420 -0.4538  0.3895 -0.1574
 2893SOL    HW120312   4.172   3.666  14.449 -2.6020  0.1612 -1.2244
 2893SOL    HW220313   4.135   3.522  14.469  1.0139 -1.3901 -0.3916
 2894SOL     OW20314   2.522   2.677  16.878  0.7072  0.3136 -0.0005
 2894SOL    HW120315   2.436   2.635  16.871  0.4087  0.9531 -0.1420
 2894SOL    HW220316   2.487   2.766  16.876  1.8386  0.7413 -0.2847
 2895SOL     OW20317   4.366   3.910   1.730  0.1998  0.3886 -0.0050
 2895SOL    HW120318   4.328   3.824   1.712  0.5220  0.1004  0.6893
 2895SOL    HW220319   4.357   3.958   1.647  0.8417  2.1715  0.9431
 2896SOL     OW20320   3.160   4.279   8.901 -0.0496  0.0972  0.0016
 2896SOL    HW120321   3.146   4.322   8.817 -2.7875 -0.7792  0.0163
 2896SOL    HW220322   3.203   4.201   8.867  0.1476  0.1264  0.1842
 2897SOL     OW20323   3.933   3.380   3.879  0.1130 -0.3059  0.3039
 2897SOL    HW120324   4.017   3.393   3.922  0.8857  0.9929 -1.6204
 2897SOL    HW220325   3.875   3.399   3.952 -0.6676  1.2636 -0.7277
 2898SOL     OW20326   2.559   2.438  11.126  0.6226  0.0258  0.4643
 2898SOL    HW120327   2.504   2.499  11.075  1.3575 -0.1378 -0.5146
 2898SOL    HW220328   2.489   2.386  11.166 -1.1440  1.4113 -0.7703
 2899SOL     OW20329   3.384   0.949   2.622  0.0007  0.3328  0.5297
 2899SOL    HW120330   3.340   0.967   2.705 -1.3967  1.2638 -0.4083
 2899SOL    HW220331   3.315   0.991   2.570 -0.0829 -1.0918 -0.5187
 2900SOL     OW20332   2.814   1.038  15.268  0.2286 -0.4747 -0.1986
 2900SOL    HW120333   2.739   1.088  15.300  1.5722  0.9091  0.7668
 2900SOL    HW220334   2.763   0.987  15.205 -1.5677  0.2504  0.6587
 2901SOL     OW20335   2.141   3.390   1.137  0.8615  0.3215 -0.1443
 2901SOL    HW120336   2.167   3.393   1.229  1.9176 -1.1194 -0.4054
 2901SOL    HW220337   2.177   3.474   1.110  0.1343  0.3460 -1.0412
 2902SOL     OW20338   0.485   0.478  12.595 -0.1258 -0.5606  0.1731
 2902SOL    HW120339   0.536   0.397  12.600 -0.1878 -0.4849  1.9577
 2902SOL    HW220340   0.445   0.472  12.682 -2.3374  0.5185 -0.7631
 2903SOL     OW20341   3.035   3.456   3.452  0.2996  0.6883 -0.6588
 2903SOL    HW120342   3.115   3.488   3.409 -0.1025  3.7441  0.8403
 2903SOL    HW220343   3.066   3.371   3.482 -0.4805  0.8420  0.5884
 2904SOL     OW20344   1.542   1.872   1.889  0.3668  0.2175  0.4948
 2904SOL    HW120345   1.515   1.845   1.801  0.4523  0.3620  0.4242
 2904SOL    HW220346   1.488   1.814   1.943  0.7730  0.0648  0.7442
 2905SOL     OW20347   3.067   2.352   3.806 -0.2857 -0.5365 -0.0506
 2905SOL    HW120348   3.017   2.400   3.740  2.0900 -0.5514 -1.8664
 2905SOL    HW220349   3.108   2.425   3.853 -0.6944  0.0881 -0.6567
 2906SOL     OW20350   2.527   2.380   8.819  0.2031  0.7056 -0.2459
 2906SOL    HW120351   2.538   2.287   8.839  2.4240  1.0859  0.3143
 2906SOL    HW220352   2.454   2.407   8.874  2.1660  3.2640  1.1333
 2907SOL     OW20353   2.254   1.109   8.786 -0.3060  0.2291  0.0585
 2907SOL    HW120354   2.237   1.195   8.748  0.7703 -0.2970 -1.5931
 2907SOL    HW220355   2.206   1.122   8.868  0.8015  3.4029  0.2141
 2908SOL     OW20356   0.957   1.351   8.056  0.3354  0.9863 -0.6834
 2908SOL    HW120357   0.866   1.356   8.026 -0.6849 -0.5825  2.0826
 2908SOL    HW220358   0.961   1.258   8.078 -0.7122  1.5472  1.8890
 2909SOL     OW20359   2.788   0.039   5.864  0.5626 -0.1159 -0.1667
 2909SOL    HW120360   2.826   0.009   5.781  0.7050 -1.2406  0.3065
 2909SOL    HW220361   2.790   4.708   5.926  0.3871 -0.0623 -0.0980
 2910SOL     OW20362   3.913   0.025  17.470 -0.1170  0.5512  0.1711
 2910SOL    HW120363   3.902   0.065  17.556  1.6956  1.2924  0.0677
 2910SOL    HW220364   3.874   4.679  17.473  0.0187  0.5671  2.8486
 2911SOL     OW20365   3.754   4.070   8.031  0.1073  0.3454  0.2250
 2911SOL    HW120366   3.788   3.980   8.036  2.3746  1.2164  0.5336
 2911SOL    HW220367   3.821   4.116   8.080  1.1738 -1.6540  0.6533
 2912SOL     OW20368   0.202   2.171   6.320 -0.3634 -0.1525  0.5759
 2912SOL    HW120369   0.195   2.266   6.328 -1.0062 -0.2837  1.6104
 2912SOL    HW220370   0.214   2.148   6.412 -1.5046 -2.8042  0.0590
 2913SOL     OW20371   4.377   2.653   6.760  0.1040 -0.1817  0.1558
 2913SOL    HW120372   4.305   2.666   6.699  0.0892 -0.5271  0.1006
 2913SOL    HW220373   4.429   2.732   6.744  1.5089 -1.2155 -0.4486
 2914SOL     OW20374   3.100   3.988   1.010  0.0280 -0.0775  0.8140
 2914SOL    HW120375   3.183   4.023   1.041  0.7286 -2.3416  1.5095
 2914SOL    HW220376   3.093   4.029   0.924  1.4628 -0.6022  0.4503
 2915SOL     OW20377   3.946   2.541   9.534 -0.4483 -0.1594  0.0505
 2915SOL    HW120378   3.872   2.598   9.555 -1.2539 -0.9797 -0.5422
 2915SOL    HW220379   3.909   2.489   9.463 -1.6684  1.0690 -0.2204
 2916SOL     OW20380   1.084   0.804   2.597  0.0847 -0.3241 -0.2686
 2916SOL    HW120381   1.134   0.734   2.640  1.3956 -0.0979 -1.4096
 2916SOL    HW220382   1.150   0.855   2.549 -0.3033  1.8265  1.5264
 2917SOL     OW20383   0.711   3.747   3.915 -0.4948 -0.4809  0.0879
 2917SOL    HW120384   0.693   3.760   4.009  2.2232 -0.1215  0.5655
 2917SOL    HW220385   0.795   3.793   3.913  0.0886 -1.6146 -1.0502
 2918SOL     OW20386   2.360   0.392   7.224  0.3946 -0.2205 -0.2157
 2918SOL    HW120387   2.280   0.346   7.247  0.3549 -0.6217 -1.1921
 2918SOL    HW220388   2.326   0.482   7.227 -1.7770 -1.1153  2.5134
 2919SOL     OW20389   4.719   3.263   3.951  0.3907 -0.3077  0.2197
 2919SOL    HW120390   0.056   3.293   3.996  1.4004  0.1960 -1.8757
 2919SOL    HW220391   4.689   3.350   3.922  0.0642 -0.1517  1.0318
 2920SOL     OW20392   0.678   0.998   7.330  0.0182  0.2950 -0.0169
 2920SOL    HW120393   0.635   0.927   7.282 -0.6821  1.2112 -0.7427
 2920SOL    HW220394   0.647   1.075   7.282  0.9238  0.2578 -0.6692
 2921SOL     OW20395   2.160   4.574   0.489 -0.1262 -0.2517 -0.2288
 2921SOL    HW120396   2.142   4.484   0.518  0.6835 -0.5504 -0.6731
 2921SOL    HW220397   2.253   4.574   0.513 -0.3580 -0.6840  0.6955
 2922SOL     OW20398   0.043   1.114  10.363  0.4664  0.2495  0.2414
 2922SOL    HW120399   0.056   1.188  10.421 -0.2010  0.8114 -0.3268
 2922SOL    HW220400   4.689   1.107  10.367  0.4882  0.2176  0.7343
 2923SOL     OW20401   0.663   3.981   3.316  0.5847 -0.1320  0.2639
 2923SOL    HW120402   0.729   4.033   3.362  0.4552  0.7011 -0.5028
 2923SOL    HW220403   0.600   4.050   3.295  1.3112  0.0841 -1.1995
 2924SOL     OW20404   2.288   2.634   0.495  0.9153  0.1566 -0.4501
 2924SOL    HW120405   2.230   2.580   0.441  2.0280 -1.1550 -0.3553
 2924SOL    HW220406   2.232   2.709   0.510 -0.3335 -0.6109 -1.2705
 2925SOL     OW20407   4.066   1.882  17.595 -0.0532 -0.1614 -0.7655
 2925SOL    HW120408   4.049   1.912  17.506 -2.2830 -1.9457 -0.9531
 2925SOL    HW220409   4.161   1.894  17.593  0.1497 -1.3935  0.8159
 2926SOL     OW20410   3.799   3.552   6.859  0.0377 -0.9049  0.5486
 2926SOL    HW120411   3.798   3.514   6.947 -0.8351  3.2094  2.3185
 2926SOL    HW220412   3.843   3.480   6.814 -2.7658 -1.7141 -0.8527
 2927SOL     OW20413   1.463   1.875  11.248  0.2609 -0.1230  0.0854
 2927SOL    HW120414   1.520   1.950  11.265 -0.2064  0.1195  0.5789
 2927SOL    HW220415   1.430   1.879  11.338  0.9626 -0.0877  0.3384
 2928SOL     OW20416   3.855   4.036   3.729 -0.1595  0.0072  0.3499
 2928SOL    HW120417   3.910   4.107   3.695 -0.6060  0.0595 -0.2685
 2928SOL    HW220418   3.925   3.971   3.732 -0.6889 -0.7331 -3.2936
 2929SOL     OW20419   0.050   3.750   8.198  0.0347  0.0980  0.0114
 2929SOL    HW120420   0.141   3.732   8.220  0.1422  1.7717  0.8733
 2929SOL    HW220421   0.036   3.834   8.241  2.2089  0.4353  0.0305
 2930SOL     OW20422   0.568   0.753   6.443  0.0315 -0.0372  0.2663
 2930SOL    HW120423   0.611   0.825   6.490 -1.4283  0.7148  0.4866
 2930SOL    HW220424   0.513   0.726   6.517 -0.1320  0.5968  0.3815
 2931SOL     OW20425   1.361   2.675   2.348  0.6574 -0.0484 -0.0726
 2931SOL    HW120426   1.386   2.590   2.385 -2.9793 -1.3030 -0.5200
 2931SOL    HW220427   1.450   2.705   2.327  1.8808 -2.0462  2.2171
 2932SOL     OW20428   4.243   2.913  12.920  0.6567 -0.0190 -0.4934
 2932SOL    HW120429   4.211   2.994  12.880  0.8041 -0.4773 -1.5543
 2932SOL    HW220430   4.337   2.921  12.903  0.5741  1.2838 -0.3705
 2933SOL     OW20431   1.137   2.724   8.098 -0.2822  0.2443  0.3752
 2933SOL    HW120432   1.198   2.671   8.047  1.2678  1.8363  0.5747
 2933SOL    HW220433   1.197   2.788   8.136 -2.3512  2.1261  0.4550
 2934SOL     OW20434   3.941   0.871   3.096  0.7074  0.5976 -0.0958
 2934SOL    HW120435   3.887   0.893   3.021  0.9094  1.9954  0.1609
 2934SOL    HW220436   4.021   0.841   3.053  0.6296  2.1843 -1.3134
 2935SOL     OW20437   4.422   4.319   9.348 -0.2696 -0.1134  0.0108
 2935SOL    HW120438   4.448   4.372   9.273  0.5783 -1.8286 -0.9171
 2935SOL    HW220439   4.414   4.386   9.415  1.2507 -0.3256  0.4094
 2936SOL     OW20440   1.357   1.268  10.818 -0.0705  0.0268 -0.2618
 2936SOL    HW120441   1.397   1.183  10.835 -0.5917 -0.1369  0.1061
 2936SOL    HW220442   1.368   1.320  10.898 -1.9633 -2.6556  1.7086
 2937SOL     OW20443   3.349   2.351   6.591 -0.0937 -0.5908 -0.0978
 2937SOL    HW120444   3.257   2.339   6.569  0.3701 -0.8736 -1.8940
 2937SOL    HW220445   3.354   2.299   6.671 -0.8045 -1.3210 -0.5232
 2938SOL     OW20446   1.285   0.212   2.515  0.3147  0.1555 -0.2044
 2938SOL    HW120447   1.289   0.257   2.600 -0.8250  0.4672 -0.3220
 2938SOL    HW220448   1.268   0.289   2.461  1.6797 -0.2279 -1.1753
 2939SOL     OW20449   2.840   1.619   0.599  0.8064  0.6697 -0.2716
 2939SOL    HW120450   2.838   1.651   0.509  1.3737 -1.4384 -1.0214
 2939SOL    HW220451   2.780   1.545   0.588 -0.8377  1.7152  1.5250
 2940SOL     OW20452   3.502   1.268   5.598 -0.3016  0.5988  0.1271
 2940SOL    HW120453   3.475   1.191   5.648 -0.2256  0.1988 -0.4472
 2940SOL    HW220454   3.475   1.338   5.657 -2.1490  1.7197 -2.0743
 2941SOL     OW20455   0.414   1.750   3.022 -0.0257  0.0237  0.2803
 2941SOL    HW120456   0.332   1.732   3.068 -0.3486 -0.4789 -0.4721
 2941SOL    HW220457   0.397   1.696   2.944 -1.5688  0.8368  0.0433
 2942SOL     OW20458   4.644   2.578  10.428  0.0054 -0.1364  0.1748
 2942SOL    HW120459   4.642   2.618  10.515 -0.7019 -0.4993  0.3288
 2942SOL    HW220460   4.592   2.645  10.384  1.2361 -0.5170 -1.8808
 2943SOL     OW20461   4.516   4.456   2.710  0.3185 -0.1432 -0.1338
 2943SOL    HW120462   4.608   4.459   2.736  0.2318 -0.2949  0.2006
 2943SOL    HW220463   4.506   4.361   2.698  1.2977 -0.3476  0.6192
 2944SOL     OW20464   0.897   4.417   6.504 -0.0581 -0.0018 -0.3649
 2944SOL    HW120465   0.867   4.371   6.583 -0.7873  0.2180 -0.5105
 2944SOL    HW220466   0.980   4.371   6.489  0.3058  0.4738  0.1841
 2945SOL     OW20467   2.666   3.217   4.525 -0.7234  0.0132 -0.2146
 2945SOL    HW120468   2.683   3.137   4.476  0.7365 -0.6975  1.4658
 2945SOL    HW220469   2.576   3.244   4.505 -1.4075 -1.4285  0.9097
 2946SOL     OW20470   2.340   0.110   7.407 -0.0693  0.1076 -0.2055
 2946SOL    HW120471   2.309   0.154   7.485  0.9011  1.3948 -0.5423
 2946SOL    HW220472   2.304   0.021   7.404 -1.6481  0.7729 -0.9553
 2947SOL     OW20473   1.310   0.573  16.196  0.4267  0.6025 -0.5070
 2947SOL    HW120474   1.225   0.530  16.202  1.2761 -1.1360 -0.8055
 2947SOL    HW220475   1.285   0.656  16.157 -0.2949  1.3051  1.4675
 2948SOL     OW20476   0.386   1.905   7.521  0.4005 -0.8021  0.5418
 2948SOL    HW120477   0.374   1.815   7.552  0.9742 -0.2204  2.4383
 2948SOL    HW220478   0.473   1.923   7.556 -0.2480  4.8474 -0.6921
 2949SOL     OW20479   4.575   0.070  14.999  0.1750 -0.0196 -0.1501
 2949SOL    HW120480   4.615   0.096  14.916  0.4270  1.1028  0.3225
 2949SOL    HW220481   4.508   0.009  14.969  2.0718 -1.6384 -1.1588
 2950SOL     OW20482   2.392   4.540   3.889  0.1240  0.2816  0.2478
 2950SOL    HW120483   2.318   4.487   3.860  0.1699 -0.4448  1.4341
 2950SOL    HW220484   2.441   4.552   3.808  0.9303 -0.8256  0.5765
 2951SOL     OW20485   4.462   3.890  16.059 -0.3570 -0.3316  0.1041
 2951SOL    HW120486   4.400   3.835  16.012 -0.8903  0.4299 -0.0725
 2951SOL    HW220487   4.549   3.891  16.018 -0.3854  2.3613  0.0939
 2952SOL     OW20488   1.589   0.741  14.330 -0.1001 -0.3778  0.0134
 2952SOL    HW120489   1.614   0.773  14.417  0.8648 -1.7303  0.2266
 2952SOL    HW220490   1.509   0.697  14.360 -0.8275  0.8952 -0.0560
 2953SOL     OW20491   2.544   4.657   4.876  0.2177 -0.0174  0.1935
 2953SOL    HW120492   2.566   0.007   4.858  0.3923 -0.2790 -0.9086
 2953SOL    HW220493   2.451   4.665   4.854  0.0332 -2.6773  0.0299
 2954SOL     OW20494   3.606   1.242   4.556  0.1099  0.0930  0.3444
 2954SOL    HW120495   3.593   1.173   4.621 -1.1767  0.1616  0.1639
 2954SOL    HW220496   3.638   1.192   4.481 -0.4637  2.1602 -1.2727
 2955SOL     OW20497   1.385   3.547   3.312 -0.1114  0.3050 -0.0424
 2955SOL    HW120498   1.314   3.563   3.250 -1.0649 -1.4383  0.6063
 2955SOL    HW220499   1.345   3.476   3.362  0.0182  0.4853  0.3199
 2956SOL     OW20500   0.208   0.539   0.101  0.5738  0.0871 -0.5093
 2956SOL    HW120501   0.143   0.602   0.070 -0.2659 -1.2827 -1.5427
 2956SOL    HW220502   0.154   0.467   0.131 -1.0182  1.6083  0.2602
 2957SOL     OW20503   0.985   1.915   1.874 -0.0362 -0.1832  0.6521
 2957SOL    HW120504   1.056   1.946   1.931 -0.8709 -0.9796  2.1398
 2957SOL    HW220505   0.914   1.962   1.918  0.6690  1.2528  0.2719
 2958SOL     OW20506   4.367   3.507  10.669 -0.1155 -0.0963  0.5227
 2958SOL    HW120507   4.319   3.579  10.710  0.5029  0.6534 -0.0695
 2958SOL    HW220508   4.415   3.556  10.602  0.4844 -0.8678  0.3870
 2959SOL     OW20509   4.451   0.583   7.328  0.1920 -0.5866 -0.5698
 2959SOL    HW120510   4.446   0.678   7.329 -1.2704 -0.6770  0.2898
 2959SOL    HW220511   4.452   0.565   7.422  0.9553 -0.3161 -0.5294
 2960SOL     OW20512   3.068   0.441   1.282  0.3608 -0.3618 -0.3505
 2960SOL    HW120513   3.026   0.470   1.362  0.6389 -0.0550 -0.3174
 2960SOL    HW220514   3.012   0.464   1.208 -0.5403  1.1542  0.8127
 2961SOL     OW20515   0.162   3.737   1.164  0.0497 -0.6136  0.1741
 2961SOL    HW120516   0.151   3.730   1.259  0.6795  0.3823  0.3196
 2961SOL    HW220517   0.239   3.683   1.150 -0.0033 -0.1185 -2.1038
 2962SOL     OW20518   1.781   1.516   2.061 -0.8854 -0.3718  0.2515
 2962SOL    HW120519   1.763   1.609   2.071 -2.4120 -0.7509  0.9538
 2962SOL    HW220520   1.814   1.513   1.970 -1.5056  0.3948  0.0114
 2963SOL     OW20521   3.689   3.449   2.964 -0.2147 -0.6017 -0.4613
 2963SOL    HW120522   3.649   3.363   2.975  2.7322 -1.9441 -0.1035
 2963SOL    HW220523   3.774   3.411   2.943 -0.4000 -0.4633 -1.4725
 2964SOL     OW20524   1.568   1.379   5.267  0.6549  0.1358  0.2231
 2964SOL    HW120525   1.576   1.301   5.321 -0.3076 -0.1716 -0.0790
 2964SOL    HW220526   1.651   1.367   5.221 -0.2331  3.4464 -2.2837
 2965SOL     OW20527   2.191   1.994  16.152  0.2836  0.5462  0.1487
 2965SOL    HW120528   2.236   2.041  16.223 -0.7725 -1.4376  2.1147
 2965SOL    HW220529   2.116   1.958  16.200  0.6520 -0.3358  0.0608
 2966SOL     OW20530   3.014   1.261   7.859 -0.6127 -0.0206 -0.2390
 2966SOL    HW120531   3.108   1.248   7.846 -0.6921 -1.5107  0.5637
 2966SOL    HW220532   2.982   1.271   7.769 -0.4869  0.6682 -0.2027
 2967SOL     OW20533   4.334   1.094  15.338  0.1518 -0.7125  0.0876
 2967SOL    HW120534   4.283   1.171  15.311  0.2514 -0.8555 -0.5109
 2967SOL    HW220535   4.383   1.082  15.256  1.2595 -1.5063  0.8622
 2968SOL     OW20536   0.888   4.299   5.948  0.2235  0.1628 -0.3548
 2968SOL    HW120537   0.932   4.359   6.008  0.7029 -1.8780  1.3360
 2968SOL    HW220538   0.954   4.284   5.880  0.0421  1.0148 -0.7088
 2969SOL     OW20539   2.890   1.944   3.958 -0.3246 -0.5951  0.1814
 2969SOL    HW120540   2.899   2.034   3.990 -2.5573  0.1948 -1.3842
 2969SOL    HW220541   2.838   1.894   4.021 -1.2101 -1.0002 -0.8714
 2970SOL     OW20542   4.358   0.011  14.602 -0.1389  0.3230  0.6551
 2970SOL    HW120543   4.297   0.083  14.586 -2.3355 -1.0860  2.8118
 2970SOL    HW220544   4.328   4.692  14.534 -1.9752  2.4728 -0.4694
 2971SOL     OW20545   3.473   2.144   4.327  0.4440  0.1226 -0.0860
 2971SOL    HW120546   3.509   2.189   4.404  1.1552  0.7691 -0.8002
 2971SOL    HW220547   3.476   2.055   4.362 -2.9637 -0.0213 -0.1700
 2972SOL     OW20548   3.293   3.749   3.173 -0.4432 -0.0235 -0.0431
 2972SOL    HW120549   3.352   3.698   3.119  1.0380 -1.3301  2.7889
 2972SOL    HW220550   3.242   3.791   3.104 -0.3835  0.4826  0.2177
 2973SOL     OW20551   4.460   1.168   9.412 -0.0880 -0.0397  0.3643
 2973SOL    HW120552   4.386   1.116   9.382 -0.7099 -0.1495  2.0913
 2973SOL    HW220553   4.499   1.119   9.484 -0.0544 -0.6127 -0.0462
 2974SOL     OW20554   0.383   4.661   2.605  0.1499  0.2120  0.0802
 2974SOL    HW120555   0.465   4.689   2.564  1.2494  0.5400  2.5353
 2974SOL    HW220556   0.350   0.001   2.642  2.3020  0.5820  1.1961
 2975SOL     OW20557   3.006   1.533   1.833 -0.1163 -0.1822 -0.2773
 2975SOL    HW120558   2.987   1.605   1.894  1.5820 -0.6780  0.8298
 2975SOL    HW220559   3.088   1.494   1.863  0.5302  0.3928 -1.2953
 2976SOL     OW20560   2.713   2.401   8.405 -0.2491 -0.1184 -0.4909
 2976SOL    HW120561   2.629   2.440   8.430  0.1964  0.3386  0.2856
 2976SOL    HW220562   2.683   2.327   8.353  1.9396 -0.8750 -0.6448
 2977SOL     OW20563   1.049   3.815   1.498  0.1501  0.2750  0.5030
 2977SOL    HW120564   1.099   3.790   1.420  2.5939 -1.0852  2.4943
 2977SOL    HW220565   1.016   3.899   1.465  1.1100  0.4592  0.0011
 2978SOL     OW20566   1.934   2.564   3.844 -0.2631 -0.8557  0.1493
 2978SOL    HW120567   1.949   2.476   3.811 -0.4984 -0.3322 -1.3648
 2978SOL    HW220568   1.934   2.613   3.761  0.2075  0.2369  0.7878
 2979SOL     OW20569   0.144   4.330   7.154 -0.7827  0.3140  0.1586
 2979SOL    HW120570   0.238   4.323   7.168 -0.6352  3.0496  0.6068
 2979SOL    HW220571   0.108   4.252   7.195 -2.3934  0.4919 -0.9166
 2980SOL     OW20572   3.375   0.716   4.636  0.1096 -0.8699 -0.6288
 2980SOL    HW120573   3.462   0.722   4.597  0.6768 -2.2174  0.4225
 2980SOL    HW220574   3.336   0.668   4.563 -1.1911 -0.8373  0.0466
 2981SOL     OW20575   0.883   4.467   1.583  0.2132  0.3671 -0.4793
 2981SOL    HW120576   0.956   4.419   1.622 -0.1378  0.6335  0.4939
 2981SOL    HW220577   0.905   4.556   1.612 -0.5955  0.2812  0.4046
 2982SOL     OW20578   4.620   2.805  12.912 -0.1624 -0.0160 -0.2313
 2982SOL    HW120579   4.555   2.852  12.860 -2.7945 -2.9452  0.3388
 2982SOL    HW220580   4.637   2.872  12.978 -5.6331  1.3366 -0.1739
 2983SOL     OW20581   2.870   3.243   4.294 -0.0361  0.4398 -0.3773
 2983SOL    HW120582   2.953   3.279   4.325  0.1616 -0.5539  0.2373
 2983SOL    HW220583   2.812   3.281   4.360  1.4249 -0.7958  1.5938
 2984SOL     OW20584   4.675   3.889  10.345 -0.1946 -0.4688 -0.7630
 2984SOL    HW120585   4.705   3.942  10.270  2.4158 -2.0032 -0.8079
 2984SOL    HW220586   4.661   3.956  10.412 -1.3105 -0.6476 -0.8273
 2985SOL     OW20587   1.590   2.182   4.572  0.3242 -0.0091  0.5155
 2985SOL    HW120588   1.681   2.166   4.545 -0.1777  0.3647 -1.3813
 2985SOL    HW220589   1.588   2.131   4.653  1.8398 -1.0346 -0.0932
 2986SOL     OW20590   4.358   1.731   3.672 -0.2177 -0.2613  0.1435
 2986SOL    HW120591   4.331   1.815   3.708 -1.4754 -1.2018  1.4188
 2986SOL    HW220592   4.363   1.677   3.751 -2.0606 -1.1412 -0.3207
 2987SOL     OW20593   3.885   3.795   4.719 -0.0831  0.6403 -0.5971
 2987SOL    HW120594   3.919   3.873   4.676  0.5471  0.0129 -1.2397
 2987SOL    HW220595   3.793   3.821   4.711 -0.7686 -1.2824  0.8740
 2988SOL     OW20596   2.105   3.602   6.675 -0.4298 -0.0951 -0.2065
 2988SOL    HW120597   2.136   3.624   6.587 -0.5952 -2.2562 -0.8265
 2988SOL    HW220598   2.139   3.513   6.679  1.3611  0.3656 -5.1930
 2989SOL     OW20599   1.470   0.920  15.451 -0.4977 -0.5046 -0.0206
 2989SOL    HW120600   1.396   0.916  15.391 -1.3046 -1.1354  1.0101
 2989SOL    HW220601   1.532   0.967  15.397 -1.4757  1.1780  0.3177
 2990SOL     OW20602   3.481   2.575   7.639  0.3857  0.0475 -0.6117
 2990SOL    HW120603   3.562   2.609   7.601 -0.9458  1.9975 -1.7210
 2990SOL    HW220604   3.429   2.655   7.648 -1.2918 -1.1139 -0.0215
 2991SOL     OW20605   4.712   2.190   8.945  0.3346  0.5330 -0.3623
 2991SOL    HW120606   4.654   2.123   8.981  1.8759 -0.7713 -0.2718
 2991SOL    HW220607   4.671   2.272   8.970 -3.7381 -2.0680  1.4136
 2992SOL     OW20608   3.327   4.076   2.989 -0.3957  0.1287  0.3826
 2992SOL    HW120609   3.306   4.154   2.937 -0.4048  0.3607  0.7319
 2992SOL    HW220610   3.359   4.114   3.071  0.7518  0.6050 -0.2870
 2993SOL     OW20611   1.506   1.763   2.742  0.1983 -0.5926  0.0810
 2993SOL    HW120612   1.533   1.849   2.776 -2.5250  0.5438 -0.6949
 2993SOL    HW220613   1.558   1.766   2.661  1.8914  0.0065  1.1751
 2994SOL     OW20614   2.175   4.481   2.633 -0.2383  0.4944  0.3070
 2994SOL    HW120615   2.266   4.505   2.649  0.0922 -0.4030 -0.2674
 2994SOL    HW220616   2.125   4.563   2.631  0.0422  0.6126 -1.2318
 2995SOL     OW20617   3.396   1.294   4.742 -0.9264 -0.4164 -1.0491
 2995SOL    HW120618   3.397   1.233   4.816 -0.0438  0.2375 -0.5236
 2995SOL    HW220619   3.450   1.249   4.677 -0.9737 -0.0463 -1.3432
 2996SOL     OW20620   0.362   0.659   2.757  0.2694  0.1778 -0.2823
 2996SOL    HW120621   0.419   0.709   2.699 -0.9332  3.8754  1.7480
 2996SOL    HW220622   0.412   0.589   2.799 -0.7948  0.3447  1.2389
 2997SOL     OW20623   1.976   1.611   2.501 -0.5755  0.7787 -0.1393
 2997SOL    HW120624   1.881   1.622   2.508 -0.5770  1.5752 -1.3892
 2997SOL    HW220625   1.992   1.672   2.429  0.6331  2.2067  1.3313
 2998SOL     OW20626   2.428   0.134   6.194  0.0544  0.0784 -0.1347
 2998SOL    HW120627   2.486   0.165   6.124  0.8643 -0.8369  0.1279
 2998SOL    HW220628   2.458   0.044   6.205  0.4048  0.0867 -1.0380
 2999SOL     OW20629   1.562   2.668  13.671 -0.2900  0.1627  0.3678
 2999SOL    HW120630   1.642   2.720  13.667 -0.9410  1.1956  1.0539
 2999SOL    HW220631   1.559   2.657  13.766  2.7730 -0.4660  0.3773
 3000SOL     OW20632   3.768   1.308   4.930 -0.3856 -0.2895 -0.2962
 3000SOL    HW120633   3.812   1.223   4.924  0.2202 -0.0663  1.1127
 3000SOL    HW220634   3.790   1.353   4.848  0.7164  2.0963  1.3422
 3001SOL     OW20635   1.283   0.047   6.922  0.4989 -0.4377 -0.0129
 3001SOL    HW120636   1.355   0.002   6.879  0.0056 -2.7956  1.6746
 3001SOL    HW220637   1.233   0.074   6.846  2.1602  2.5722 -0.0649
 3002SOL     OW20638   0.765   4.484   5.204 -0.4683 -0.2250 -0.1729
 3002SOL    HW120639   0.739   4.563   5.156  0.0577 -0.0945 -0.2389
 3002SOL    HW220640   0.828   4.456   5.138  2.1201  0.4940  2.0341
 3003SOL     OW20641   0.543   2.468   5.607  0.0848 -0.2692 -0.2372
 3003SOL    HW120642   0.473   2.454   5.670 -1.2917  0.2733 -1.6454
 3003SOL    HW220643   0.518   2.404   5.541 -0.1494 -2.1406  1.6547
 3004SOL     OW20644   3.730   0.336   2.066 -0.5073 -0.0017 -0.4297
 3004SOL    HW120645   3.705   0.314   2.156  1.3400  1.7062  0.4910
 3004SOL    HW220646   3.710   0.252   2.023  1.0059 -0.8380  0.5167
 3005SOL     OW20647   4.584   1.558   7.514  1.0055 -0.0526 -0.0327
 3005SOL    HW120648   4.561   1.609   7.592 -0.3988 -0.5499 -0.1265
 3005SOL    HW220649   4.628   1.482   7.552  2.7824  0.3419 -1.3061
 3006SOL     OW20650   4.359   1.704  11.339  0.4455  0.0513 -0.3064
 3006SOL    HW120651   4.317   1.735  11.259  1.6798 -1.7388 -1.6665
 3006SOL    HW220652   4.286   1.700  11.401  1.4738  0.8224  0.9525
 3007SOL     OW20653   0.156   0.117  16.634 -0.4933 -0.4176 -0.5046
 3007SOL    HW120654   0.111   0.136  16.551 -0.5340  1.3337 -0.0939
 3007SOL    HW220655   0.206   0.042  16.603 -0.1305 -0.5355  0.3760
 3008SOL     OW20656   0.654   2.683   4.758  0.4541  0.0741  0.4388
 3008SOL    HW120657   0.731   2.630   4.736 -1.2638 -2.1844 -0.1092
 3008SOL    HW220658   0.670   2.761   4.704 -1.1268 -0.0086 -0.1499
 3009SOL     OW20659   3.574   3.144   4.941 -0.1630 -0.2893  0.3149
 3009SOL    HW120660   3.619   3.139   4.856 -0.0459  2.4472  0.2304
 3009SOL    HW220661   3.536   3.231   4.930  0.3750 -0.2002 -0.8826
 3010SOL     OW20662   2.886   3.892   5.004  0.0911  0.3889 -0.4599
 3010SOL    HW120663   2.798   3.858   5.023  0.8887 -0.9053  0.9224
 3010SOL    HW220664   2.937   3.812   4.990 -0.7318  0.1852 -2.3214
 3011SOL     OW20665   1.248   3.949   5.748  0.0963 -0.0044 -0.3900
 3011SOL    HW120666   1.206   3.970   5.831  0.1087 -1.6354  0.0356
 3011SOL    HW220667   1.295   3.869   5.773  0.2500  0.6982  1.5540
 3012SOL     OW20668   2.151   2.721   2.501 -0.0830  0.2129  0.3138
 3012SOL    HW120669   2.204   2.734   2.423 -1.1995  2.2312 -0.1176
 3012SOL    HW220670   2.214   2.677   2.558 -0.8687 -2.8945 -1.2312
 3013SOL     OW20671   2.687   2.039   0.790 -0.3604  0.4079 -0.0285
 3013SOL    HW120672   2.767   1.987   0.787 -0.6009  0.0737 -0.6865
 3013SOL    HW220673   2.621   1.973   0.811 -0.9598  0.8206 -0.6181
 3014SOL     OW20674   2.114   1.166   9.808  0.1768  0.0265 -0.0210
 3014SOL    HW120675   2.028   1.199   9.780  0.6425  1.5082  0.3354
 3014SOL    HW220676   2.111   1.185   9.902 -1.5760  2.0290 -0.4703
 3015SOL     OW20677   2.507   1.747   8.640 -0.0114  0.3578 -0.7388
 3015SOL    HW120678   2.582   1.716   8.588 -0.0465  0.3051 -0.7586
 3015SOL    HW220679   2.512   1.840   8.617  2.1923  0.2916 -0.5546
 3016SOL     OW20680   0.612   1.746   5.532  0.1403 -0.5444  0.0293
 3016SOL    HW120681   0.689   1.784   5.492  0.2875  1.5563  2.2934
 3016SOL    HW220682   0.617   1.659   5.492 -0.1138 -0.2868 -0.5558
 3017SOL     OW20683   3.996   2.608   7.182 -0.3620  0.0434 -0.0849
 3017SOL    HW120684   3.961   2.682   7.232 -2.6546  0.2719 -2.0454
 3017SOL    HW220685   4.008   2.548   7.255 -0.3546  0.7081  0.4646
 3018SOL     OW20686   0.166   2.184   8.297 -0.0032 -0.1573  0.3166
 3018SOL    HW120687   0.153   2.102   8.249 -0.0578  0.2759 -0.3987
 3018SOL    HW220688   0.076   2.216   8.299  0.5863  1.6004 -1.1854
 3019SOL     OW20689   1.690   2.449  10.031  0.5288  0.3429 -0.0551
 3019SOL    HW120690   1.665   2.416  10.117  0.2164 -0.9940 -0.6609
 3019SOL    HW220691   1.609   2.494  10.011 -0.1437  0.3898  2.8380
 3020SOL     OW20692   4.490   0.370  15.605 -0.7770  0.0405 -0.0781
 3020SOL    HW120693   4.498   0.463  15.581 -2.4813  0.2506  0.2141
 3020SOL    HW220694   4.568   0.334  15.562 -0.1007  2.4081 -0.8560
 3021SOL     OW20695   0.678   1.605  17.296 -0.4022 -0.0946 -0.0872
 3021SOL    HW120696   0.692   1.625  17.204 -2.5862 -2.8929 -1.0104
 3021SOL    HW220697   0.746   1.538  17.309  1.1854  1.9048  2.0347
 3022SOL     OW20698   0.349   2.093   6.103  0.3245  0.3369 -0.5578
 3022SOL    HW120699   0.305   2.009   6.090  0.8467 -0.0223  0.0077
 3022SOL    HW220700   0.301   2.127   6.179 -1.0980 -2.1428 -0.3309
 3023SOL     OW20701   2.354   1.841   1.790 -0.2948 -0.1646 -0.0774
 3023SOL    HW120702   2.381   1.810   1.704  0.4002 -0.2430  0.1624
 3023SOL    HW220703   2.441   1.828   1.829  0.4074  1.9777 -0.9293
 3024SOL     OW20704   0.708   2.380  16.300  0.2075 -0.3884 -0.1003
 3024SOL    HW120705   0.654   2.307  16.332 -0.6640  0.6623  0.8425
 3024SOL    HW220706   0.757   2.390  16.382 -0.0613 -0.7263  0.1075
 3025SOL     OW20707   3.779   3.887  11.054  0.2093  0.3699 -0.1340
 3025SOL    HW120708   3.731   3.894  10.972  1.0725  1.9369 -0.4995
 3025SOL    HW220709   3.869   3.901  11.025  0.3277  1.2863  0.6892
 3026SOL     OW20710   1.726   2.354   4.981 -0.1263  0.1070 -0.2974
 3026SOL    HW120711   1.646   2.389   4.943 -0.5344 -0.4079  0.0849
 3026SOL    HW220712   1.731   2.416   5.054 -0.0841 -0.2806  0.0289
 3027SOL     OW20713   3.900   3.223   5.131 -0.5709  0.1760  0.0282
 3027SOL    HW120714   3.905   3.305   5.082  1.3311  1.3045  2.1322
 3027SOL    HW220715   3.816   3.188   5.100 -1.0952  1.2096  0.3163
 3028SOL     OW20716   1.623   3.953   3.103 -0.0829 -0.5167 -0.2600
 3028SOL    HW120717   1.530   3.936   3.090 -0.6264  0.7304  1.9154
 3028SOL    HW220718   1.626   4.010   3.026  2.1942 -1.3098 -0.7570
 3029SOL     OW20719   3.365   1.340  17.170  0.0638  0.1886  0.2259
 3029SOL    HW120720   3.400   1.272  17.111 -1.1074 -2.5807  2.7376
 3029SOL    HW220721   3.401   1.305  17.251  0.9698  1.3661  0.3295
 3030SOL     OW20722   1.092   2.202  10.957 -0.5708 -0.1693 -0.8114
 3030SOL    HW120723   1.045   2.125  10.926 -2.3922 -0.2654  2.2587
 3030SOL    HW220724   1.027   2.263  10.921 -0.7110  0.7545  0.9748
 3031SOL     OW20725   4.502   1.294   7.106  0.3355 -0.6718  0.2909
 3031SOL    HW120726   4.553   1.245   7.171 -1.8951  0.2781  2.7638
 3031SOL    HW220727   4.471   1.372   7.153 -0.4618 -0.7226 -0.1522
 3032SOL     OW20728   2.597   0.371   6.536 -0.3681 -0.4436 -0.3157
 3032SOL    HW120729   2.602   0.334   6.624  1.7176  0.4881 -0.0514
 3032SOL    HW220730   2.679   0.335   6.503 -0.1753 -1.8255  1.6860
 3033SOL     OW20731   0.197   2.440   6.337  0.1403 -0.0017 -0.8065
 3033SOL    HW120732   0.249   2.479   6.267  0.8112 -1.2307 -0.9917
 3033SOL    HW220733   0.129   2.508   6.335  0.8798  0.7766  0.6085
 3034SOL     OW20734   2.957   2.767  12.708  0.1752 -0.1104 -0.5648
 3034SOL    HW120735   3.012   2.689  12.714 -1.9985 -1.5357  0.7594
 3034SOL    HW220736   3.020   2.836  12.728 -0.5144 -0.5844  3.1605
 3035SOL     OW20737   4.467   4.573   5.544  0.1826 -0.2809  0.2571
 3035SOL    HW120738   4.505   4.622   5.617  0.9830 -1.1697  0.4471
 3035SOL    HW220739   4.442   4.499   5.599 -0.8791  1.0238  1.4954
 3036SOL     OW20740   0.214   2.624   7.661  0.1137 -0.2663 -0.0632
 3036SOL    HW120741   0.147   2.657   7.720 -0.2785 -1.1918 -0.0019
 3036SOL    HW220742   0.204   2.529   7.657  0.9313 -0.3343 -0.6314
 3037SOL     OW20743   0.148   4.266   1.096  0.3306 -0.3443 -0.9468
 3037SOL    HW120744   0.129   4.192   1.154  0.9495 -1.2463 -1.8990
 3037SOL    HW220745   0.062   4.271   1.056 -0.3560 -3.7610  0.0823
 3038SOL     OW20746   1.893   1.194   2.688  0.4845 -0.1502  0.2216
 3038SOL    HW120747   1.900   1.268   2.749 -1.5476 -0.4146  0.7402
 3038SOL    HW220748   1.813   1.216   2.642  0.4845 -2.2502 -0.7640
 3039SOL     OW20749   3.017   4.738  11.227 -0.3953 -0.0713  0.3745
 3039SOL    HW120750   3.095   0.006  11.281  1.3267 -0.4076 -2.0380
 3039SOL    HW220751   3.041   0.032  11.141 -0.3467  0.3950  0.5819
 3040SOL     OW20752   1.107   2.338   3.121  0.0923  0.0065 -0.1899
 3040SOL    HW120753   1.090   2.339   3.027  1.2652  1.3159 -0.3930
 3040SOL    HW220754   1.028   2.301   3.159  1.0399 -0.9140  0.8677
 3041SOL     OW20755   2.335   0.361   7.818 -0.3468 -0.4308  0.2705
 3041SOL    HW120756   2.357   0.454   7.815 -0.3668 -0.4103  0.7056
 3041SOL    HW220757   2.406   0.329   7.764 -2.3334  0.7819 -3.0285
 3042SOL     OW20758   2.253   4.061   4.334  0.2567  0.1080  0.2713
 3042SOL    HW120759   2.315   4.133   4.345  0.5605 -0.2302  0.7938
 3042SOL    HW220760   2.174   4.115   4.343 -0.7592 -1.0099 -1.9433
 3043SOL     OW20761   0.718   4.593   3.657  0.0021  0.0675  0.1582
 3043SOL    HW120762   0.671   4.510   3.658 -0.6989  0.4508 -0.6751
 3043SOL    HW220763   0.674   4.651   3.719  0.0660 -1.7888  1.9493
 3044SOL     OW20764   1.576   4.440   8.176  0.2404  0.3256  0.0129
 3044SOL    HW120765   1.518   4.446   8.252 -2.1087 -1.1101 -1.6515
 3044SOL    HW220766   1.619   4.358   8.201 -2.5580 -0.5726  1.9233
 3045SOL     OW20767   4.419   2.417  13.134 -0.2474  0.4013  0.2157
 3045SOL    HW120768   4.340   2.443  13.182  1.2420  1.0140  2.3495
 3045SOL    HW220769   4.460   2.504  13.127  0.2578  0.3159  2.1928
 3046SOL     OW20770   0.212   4.178   6.353  0.1562 -0.1097 -0.1805
 3046SOL    HW120771   0.167   4.137   6.427  0.6096 -2.8747 -1.4188
 3046SOL    HW220772   0.153   4.157   6.281  1.2596 -1.0870 -0.8013
 3047SOL     OW20773   1.058   3.528   4.006  0.4225 -0.2847 -0.3007
 3047SOL    HW120774   0.988   3.534   3.941  0.7761  0.5015 -0.5970
 3047SOL    HW220775   1.119   3.464   3.969 -0.2940 -0.7479 -0.6821
 3048SOL     OW20776   3.411   0.068   5.109 -0.1894 -0.8830  0.1455
 3048SOL    HW120777   3.411   0.108   5.196 -0.2469  1.5577 -0.9773
 3048SOL    HW220778   3.388   4.718   5.126  1.9095 -1.5042 -0.2839
 3049SOL     OW20779   4.657   0.331   4.545 -0.1798 -0.4531  0.1441
 3049SOL    HW120780   4.562   0.330   4.534 -0.1813  2.4713 -0.2560
 3049SOL    HW220781   4.669   0.352   4.638  2.0832  2.4285 -0.7911
 3050SOL     OW20782   4.347   1.042  11.022  0.0404 -0.0179  1.2763
 3050SOL    HW120783   4.355   0.996  11.105  3.1283 -0.6087  0.6403
 3050SOL    HW220784   4.309   0.982  10.957 -0.8373 -0.3106  2.0624
 3051SOL     OW20785   0.597   1.544   1.436 -0.2627  0.3806 -0.3811
 3051SOL    HW120786   0.634   1.527   1.349  1.6338 -0.4494  0.5946
 3051SOL    HW220787   0.515   1.496   1.426  0.1364 -0.7444  1.8026
 3052SOL     OW20788   1.328   3.708  15.248 -0.1542 -0.1131  0.2514
 3052SOL    HW120789   1.318   3.635  15.186  1.7436  0.5249 -0.8241
 3052SOL    HW220790   1.238   3.722  15.275 -0.2806 -1.0867  0.3515
 3053SOL     OW20791   3.350   3.723  12.214  0.4572  0.1389  0.3224
 3053SOL    HW120792   3.421   3.715  12.277  0.0005 -1.6189  0.6134
 3053SOL    HW220793   3.294   3.651  12.244 -0.0600  0.0097 -0.9613
 3054SOL     OW20794   0.537   0.238  13.660 -0.2838 -0.1022  0.6703
 3054SOL    HW120795   0.621   0.192  13.652  0.2240  0.7184  1.2309
 3054SOL    HW220796   0.516   0.241  13.754 -1.8785 -0.2882  0.3183
 3055SOL     OW20797   4.202   3.904   5.568 -0.4436 -0.1520  1.1828
 3055SOL    HW120798   4.115   3.928   5.602 -0.0369  0.2154  1.9662
 3055SOL    HW220799   4.248   3.985   5.592 -2.0426  1.5812 -1.5565
 3056SOL     OW20800   1.049   0.819   8.013 -0.0539  0.7631 -0.1444
 3056SOL    HW120801   0.981   0.754   7.997  2.3009 -0.7818 -3.5689
 3056SOL    HW220802   1.087   0.791   8.096 -0.8958  1.5648  0.5233
 3057SOL     OW20803   0.637   2.027   3.779  0.3648 -0.1479 -0.1878
 3057SOL    HW120804   0.573   1.958   3.795 -1.4606  1.5974 -0.0183
 3057SOL    HW220805   0.689   2.003   3.703 -2.1403  0.1320 -1.9745
 3058SOL     OW20806   1.230   4.554   7.818 -0.2861  0.2933 -0.1788
 3058SOL    HW120807   1.190   4.491   7.879  0.5703  0.3956  0.4876
 3058SOL    HW220808   1.273   4.613   7.879 -2.0065  0.2327  1.1138
 3059SOL     OW20809   1.746   0.304   9.588  0.3324  0.5254 -0.0323
 3059SOL    HW120810   1.777   0.282   9.676  1.3844 -0.5587 -0.6668
 3059SOL    HW220811   1.785   0.229   9.544 -1.3025 -2.1133  2.9813
 3060SOL     OW20812   4.725   3.276   2.058  0.6336  0.0621  0.0330
 3060SOL    HW120813   0.021   3.307   2.141 -0.5668 -0.8082  0.9040
 3060SOL    HW220814   0.048   3.320   2.004  2.5543 -2.9550 -0.1559
 3061SOL     OW20815   3.913   0.176   5.487  0.0744 -0.1377 -0.1744
 3061SOL    HW120816   3.855   0.149   5.559 -0.2235  4.0050  1.1423
 3061SOL    HW220817   3.909   0.269   5.508 -2.5590 -0.2518 -0.1516
 3062SOL     OW20818   1.116   0.523  14.898  0.0135 -0.3620 -0.1076
 3062SOL    HW120819   1.026   0.491  14.906 -0.3084  0.4941 -0.3290
 3062SOL    HW220820   1.165   0.445  14.870 -2.8773 -2.7160  1.3650
 3063SOL     OW20821   3.140   0.498   0.447 -0.0688  0.5032 -0.3239
 3063SOL    HW120822   3.194   0.517   0.524 -1.2716  0.9364  0.4191
 3063SOL    HW220823   3.104   0.585   0.432 -0.8501  0.2839  0.2766
 3064SOL     OW20824   3.913   2.744   8.169  0.1810  0.0689  0.0095
 3064SOL    HW120825   3.999   2.743   8.128 -1.1161  0.1615 -2.7009
 3064SOL    HW220826   3.858   2.781   8.101  1.5446  0.0334 -1.1064
 3065SOL     OW20827   2.383   3.326   0.677 -0.9367 -0.1782 -0.6089
 3065SOL    HW120828   2.457   3.312   0.618  0.2150  2.2250  0.2599
 3065SOL    HW220829   2.412   3.297   0.763  1.0001  1.8684 -0.5682
 3066SOL     OW20830   3.607   3.284   1.558 -0.0094  0.0813 -0.2157
 3066SOL    HW120831   3.667   3.345   1.515 -1.5317  0.8424 -1.2651
 3066SOL    HW220832   3.534   3.285   1.497 -0.5155 -0.1230  0.3906
 3067SOL     OW20833   2.965   1.624  10.658 -0.0932 -0.0663  0.5012
 3067SOL    HW120834   2.936   1.534  10.642  0.9757 -0.4732  0.8213
 3067SOL    HW220835   2.965   1.626  10.754  0.1776 -0.3713  0.5089
 3068SOL     OW20836   2.361   1.819   4.251  0.0112  0.1682 -0.0432
 3068SOL    HW120837   2.328   1.891   4.305 -0.0650 -0.0739  0.2314
 3068SOL    HW220838   2.440   1.791   4.297 -0.2888 -2.3161 -1.0754
 3069SOL     OW20839   0.327   0.182   3.632 -0.4851 -0.6331  0.1857
 3069SOL    HW120840   0.378   0.260   3.655  0.6107 -0.9142 -1.3086
 3069SOL    HW220841   0.303   0.195   3.540  0.3020  0.8081  0.1926
 3070SOL     OW20842   1.333   0.493  13.481  0.2943  0.6589  0.6268
 3070SOL    HW120843   1.333   0.588  13.478 -0.2495  0.7255  2.8038
 3070SOL    HW220844   1.286   0.474  13.563  1.8492 -0.8549  1.1732
 3071SOL     OW20845   4.507   2.115   1.459 -0.4907  0.5784  0.1472
 3071SOL    HW120846   4.440   2.179   1.483  0.6246  2.1210 -0.8301
 3071SOL    HW220847   4.529   2.157   1.376 -0.5218 -1.2880 -0.7851
 3072SOL     OW20848   0.042   0.835   6.625 -0.0316  0.2624  0.1750
 3072SOL    HW120849   0.056   0.743   6.646 -2.1430 -0.3436 -1.1580
 3072SOL    HW220850   4.719   0.862   6.690  2.0487  0.7070  2.0567
 3073SOL     OW20851   3.636   4.616   0.592 -0.1035 -0.2889 -0.5344
 3073SOL    HW120852   3.550   4.601   0.629 -0.2446  3.0223  0.4938
 3073SOL    HW220853   3.603   4.673   0.523  0.6436 -1.2123 -1.6564
 3074SOL     OW20854   2.789   2.372  13.486  0.5323 -0.2319 -0.0242
 3074SOL    HW120855   2.840   2.374  13.567 -0.6378 -0.6696  0.7340
 3074SOL    HW220856   2.731   2.445  13.508  1.5532  0.4482  0.3948
 3075SOL     OW20857   4.551   4.357   4.964  0.2702 -0.0062  0.3590
 3075SOL    HW120858   4.577   4.321   5.048 -0.3721  0.0242  0.5731
 3075SOL    HW220859   4.617   4.316   4.908  0.9866  0.5317  0.8129
 3076SOL     OW20860   1.027   0.991   6.568  0.0698 -0.0707  0.1380
 3076SOL    HW120861   1.071   0.909   6.590  0.6852  0.3701  0.5849
 3076SOL    HW220862   1.044   0.989   6.474  0.5660  0.2593  0.2192
 3077SOL     OW20863   3.177   2.372   1.991  0.0879 -0.6907  0.1752
 3077SOL    HW120864   3.172   2.283   1.957  1.6256 -0.2995 -1.0739
 3077SOL    HW220865   3.151   2.354   2.081  0.4058  0.8318  0.5784
 3078SOL     OW20866   2.201   4.390   3.328  0.2711 -0.3731  0.5347
 3078SOL    HW120867   2.127   4.372   3.386 -0.4008  0.7261  0.0265
 3078SOL    HW220868   2.247   4.308   3.343 -0.8892 -1.2349 -0.6933
 3079SOL     OW20869   0.861   0.068   8.602 -0.0297  0.2716 -0.4019
 3079SOL    HW120870   0.874   0.006   8.530  1.5231 -0.1989  0.2916
 3079SOL    HW220871   0.769   0.054   8.626  0.3146 -3.6812 -1.3590
 3080SOL     OW20872   1.924   4.738  12.281  0.4732 -0.0769 -0.1804
 3080SOL    HW120873   1.892   0.084  12.261 -0.2234 -0.7828 -2.1318
 3080SOL    HW220874   1.862   4.680  12.236  2.6864 -0.7459 -2.3336
 3081SOL     OW20875   3.132   4.001   3.713 -0.8472 -0.2148  0.2971
 3081SOL    HW120876   3.114   3.907   3.716 -1.0446 -0.2173 -1.1382
 3081SOL    HW220877   3.098   4.032   3.629  0.9530 -0.3944 -0.5092
 3082SOL     OW20878   4.053   4.393  15.697  0.6023 -0.2131  0.2923
 3082SOL    HW120879   4.104   4.464  15.657 -3.0863  1.6959 -0.9956
 3082SOL    HW220880   4.095   4.315  15.661 -1.6555  0.5959 -4.0642
 3083SOL     OW20881   4.033   1.303   9.024  0.0402  0.2346  0.4954
 3083SOL    HW120882   4.096   1.360   9.069  0.1614  2.5506 -2.5938
 3083SOL    HW220883   4.011   1.355   8.947  0.4875  0.0753  0.2650
 3084SOL     OW20884   1.491   4.572   7.160  0.1247 -0.1367 -0.1583
 3084SOL    HW120885   1.489   4.588   7.065 -2.7171  0.3818 -0.0145
 3084SOL    HW220886   1.420   4.624   7.198 -0.8324 -1.6241  0.1050
 3085SOL     OW20887   0.146   2.764   6.901  0.0868 -0.2576  0.1588
 3085SOL    HW120888   0.216   2.828   6.913 -0.9930  0.1447  4.3025
 3085SOL    HW220889   0.172   2.710   6.827  0.2110 -0.6182  0.4644
 3086SOL     OW20890   1.335   3.549  12.038 -0.2449  0.1980  0.2857
 3086SOL    HW120891   1.326   3.484  11.968  0.3542 -0.5539  0.9196
 3086SOL    HW220892   1.328   3.488  12.111 -1.1334  1.2230  1.0594
 3087SOL     OW20893   3.028   4.199   7.029  0.1584  0.1351 -0.0373
 3087SOL    HW120894   3.099   4.190   7.093 -0.0686 -0.5240  0.1219
 3087SOL    HW220895   3.053   4.144   6.955 -1.3809 -1.3287  0.5345
 3088SOL     OW20896   3.368   4.375   3.314  0.2595 -0.6889 -0.3500
 3088SOL    HW120897   3.367   4.279   3.311  0.8965 -0.6774 -0.8543
 3088SOL    HW220898   3.399   4.392   3.225  1.0257  0.0362  0.0616
 3089SOL     OW20899   2.345   4.308   2.805  0.6823  0.5469  0.1597
 3089SOL    HW120900   2.398   4.281   2.730 -3.9299 -1.6117 -2.3181
 3089SOL    HW220901   2.262   4.327   2.763  0.1471 -1.2796  0.3777
 3090SOL     OW20902   0.234   2.856  11.891  0.3565 -0.4281 -0.3779
 3090SOL    HW120903   0.196   2.772  11.865 -0.2307 -0.6273  1.1442
 3090SOL    HW220904   0.196   2.917  11.826 -0.5554 -0.0999  0.4631
 3091SOL     OW20905   2.208   1.360   0.363 -0.1061 -0.0849  0.2206
 3091SOL    HW120906   2.223   1.363   0.457 -0.5846 -1.7076  0.3526
 3091SOL    HW220907   2.252   1.276   0.349  0.0429 -0.2942  1.8927
 3092SOL     OW20908   1.508   3.212  11.699  0.5359  0.5893  0.2788
 3092SOL    HW120909   1.582   3.155  11.719 -1.2670 -0.5629  3.6358
 3092SOL    HW220910   1.544   3.225  11.611 -1.1824  2.7306 -0.1016
 3093SOL     OW20911   0.994   0.529   3.289  0.3432 -0.0890 -0.1822
 3093SOL    HW120912   0.993   0.474   3.367  2.3110  0.2795  0.1013
 3093SOL    HW220913   0.911   0.573   3.308 -0.0160 -1.3200  1.1584
 3094SOL     OW20914   0.117   4.036   7.085 -0.5055 -0.5519  0.1151
 3094SOL    HW120915   0.069   4.058   7.165  1.0524 -0.2108  0.9444
 3094SOL    HW220916   0.181   3.972   7.116  1.3505  0.2765 -2.0074
 3095SOL     OW20917   4.087   3.115  10.182  0.2473  0.1252 -0.6875
 3095SOL    HW120918   4.131   3.065  10.114 -0.6875 -0.1193 -1.1094
 3095SOL    HW220919   4.029   3.045  10.212  0.7472  0.6874  1.6033
 3096SOL     OW20920   3.326   3.583   0.073 -0.4146 -0.2872  0.2132
 3096SOL    HW120921   3.297   3.663   0.117 -2.4184 -0.8257 -0.1437
 3096SOL    HW220922   3.285   3.519   0.131 -0.6667  0.3382  0.7193
 3097SOL     OW20923   1.794   0.198   2.803 -0.0090 -0.7541 -0.2789
 3097SOL    HW120924   1.886   0.205   2.777  0.2487  0.2574  0.9142
 3097SOL    HW220925   1.773   0.277   2.852 -0.7265 -0.6813 -0.6992
 3098SOL     OW20926   0.567   1.069  13.608  0.1852  0.1246  0.0219
 3098SOL    HW120927   0.647   1.088  13.559  1.3646  0.3587  2.0200
 3098SOL    HW220928   0.512   1.017  13.549 -1.5010 -1.5440  3.0715
 3099SOL     OW20929   2.334   1.263   6.810  0.2323 -0.2229 -0.1056
 3099SOL    HW120930   2.296   1.238   6.726  0.9581  0.0947 -0.5206
 3099SOL    HW220931   2.289   1.200   6.865  0.9462 -0.6781 -0.0448
 3100SOL     OW20932   4.520   1.724   5.874  0.2664 -0.0979  0.0665
 3100SOL    HW120933   4.471   1.679   5.943 -3.1018  1.1160 -1.5419
 3100SOL    HW220934   4.526   1.810   5.916  1.4414 -0.1718  0.0517
 3101SOL     OW20935   3.500   3.618   5.776 -0.0110 -0.2849  0.0111
 3101SOL    HW120936   3.487   3.697   5.828 -3.4831 -1.5420  1.0556
 3101SOL    HW220937   3.440   3.558   5.820  1.6698 -0.9481  1.3614
 3102SOL     OW20938   4.571   4.353   0.404  0.6586 -0.2131 -0.4906
 3102SOL    HW120939   4.575   4.415   0.477  0.0149 -1.9698  1.0166
 3102SOL    HW220940   4.506   4.391   0.345 -0.5266  1.4053  1.8510
 3103SOL     OW20941   1.026   1.745   1.650  0.1867 -0.4148  0.4747
 3103SOL    HW120942   0.943   1.703   1.628 -0.6713  2.3991 -1.5380
 3103SOL    HW220943   0.997   1.816   1.708  1.0983 -0.8350  1.4605
 3104SOL     OW20944   4.640   4.645   6.594  0.4087 -0.4440  0.3787
 3104SOL    HW120945   4.638   4.636   6.690 -0.5417  0.2452  0.4227
 3104SOL    HW220946   4.730   4.677   6.585 -0.3597  0.9636 -2.0091
 3105SOL     OW20947   2.701   3.686   3.228 -0.3418  0.1744  0.8460
 3105SOL    HW120948   2.710   3.767   3.279 -1.0686  0.7885  0.0025
 3105SOL    HW220949   2.791   3.692   3.194 -0.8812 -1.4072 -0.8365
 3106SOL     OW20950   2.924   1.616   8.988 -0.1955  0.4019 -0.5055
 3106SOL    HW120951   3.008   1.569   8.986  0.9595  2.5353 -2.1755
 3106SOL    HW220952   2.959   1.703   8.968  1.2711 -0.2864 -0.9707
 3107SOL     OW20953   2.384   3.664   3.859 -0.1896 -0.4842 -0.1716
 3107SOL    HW120954   2.410   3.615   3.937 -0.5861  0.6358  0.6676
 3107SOL    HW220955   2.373   3.754   3.889  2.6821 -0.7995  1.8318
 3108SOL     OW20956   2.214   1.920  13.797  0.7469  0.3403  0.3807
 3108SOL    HW120957   2.153   1.941  13.868 -1.6807  1.1191 -1.9360
 3108SOL    HW220958   2.180   1.832  13.779 -0.6793  1.0477 -0.3669
 3109SOL     OW20959   1.914   4.083   3.930 -0.6962  0.1548 -0.4263
 3109SOL    HW120960   1.928   4.132   3.849 -2.2881  1.1894 -0.0660
 3109SOL    HW220961   1.830   4.123   3.954 -0.0061  1.9772 -1.0567
 3110SOL     OW20962   1.605   1.387   4.969 -0.4031 -0.2667 -0.2911
 3110SOL    HW120963   1.611   1.454   5.037 -1.5259  1.7631 -2.1691
 3110SOL    HW220964   1.687   1.343   4.989  1.1869  1.6059 -2.7315
 3111SOL     OW20965   4.696   3.007  16.582  0.0319 -0.0358  0.7963
 3111SOL    HW120966   4.667   3.065  16.512 -0.6130 -0.4864  0.6898
 3111SOL    HW220967   0.049   3.011  16.571 -0.0961  2.1442  0.4704
 3112SOL     OW20968   1.462   2.211   5.610 -0.2235 -0.6594 -0.2546
 3112SOL    HW120969   1.503   2.276   5.552 -0.7715 -0.7632 -0.7583
 3112SOL    HW220970   1.400   2.169   5.550 -1.7008  1.3374 -0.1348
 3113SOL     OW20971   3.827   4.462   6.641 -0.2379 -0.2046  0.0050
 3113SOL    HW120972   3.830   4.384   6.697 -1.8026  1.0238  1.8031
 3113SOL    HW220973   3.898   4.520   6.670  0.1621 -0.0458 -1.3207
 3114SOL     OW20974   1.439   0.492   3.637  0.1690  0.1542 -0.5388
 3114SOL    HW120975   1.454   0.455   3.550 -0.6755  1.0468 -1.0654
 3114SOL    HW220976   1.519   0.477   3.687 -0.0549  1.2483  0.1590
 3115SOL     OW20977   2.279   0.184   8.016 -0.1490  0.1487  0.4689
 3115SOL    HW120978   2.305   0.247   7.949  1.2403  0.2214  1.0882
 3115SOL    HW220979   2.238   0.231   8.088 -1.0868 -1.0016  0.6974
 3116SOL     OW20980   1.230   1.613   6.199 -0.0687  0.0439 -0.3640
 3116SOL    HW120981   1.185   1.531   6.219 -0.8914  0.9146  1.3151
 3116SOL    HW220982   1.190   1.645   6.118 -1.6199 -0.7763  0.0795
 3117SOL     OW20983   2.836   1.787  16.707  0.6128 -0.3988 -0.1514
 3117SOL    HW120984   2.806   1.861  16.655  0.9957 -0.2678 -0.1910
 3117SOL    HW220985   2.756   1.736  16.713  1.3289 -1.5606 -0.5214
 3118SOL     OW20986   3.410   0.994   5.662  0.1895 -0.2641 -0.2057
 3118SOL    HW120987   3.366   0.917   5.627  0.1844 -0.3461 -0.0188
 3118SOL    HW220988   3.501   0.963   5.664 -0.1447 -1.3322 -1.3046
 3119SOL     OW20989   2.697   0.487   8.628 -0.4863 -0.0455  0.0052
 3119SOL    HW120990   2.769   0.459   8.684 -0.2187 -1.9714 -1.3206
 3119SOL    HW220991   2.674   0.403   8.588  2.1237 -1.9448  2.4227
 3120SOL     OW20992   4.569   0.165   3.074  0.0442 -0.0884 -0.4967
 3120SOL    HW120993   4.531   0.077   3.066  2.3262 -1.0017 -1.3220
 3120SOL    HW220994   4.535   0.197   3.157 -0.6989  2.1106 -1.6250
 3121SOL     OW20995   0.035   4.528   5.660 -0.0280  0.0976  0.8166
 3121SOL    HW120996   4.713   4.507   5.728  0.6485  0.4532  1.5621
 3121SOL    HW220997   0.031   4.623   5.651 -1.0958 -0.0934 -0.6951
 3122SOL     OW20998   4.167   1.153   6.653 -0.2199  0.1085  0.1906
 3122SOL    HW120999   4.259   1.153   6.677 -0.0726  2.4133 -0.4269
 3122SOL    HW221000   4.159   1.220   6.585  2.0539  1.2250  1.0537
 3123SOL     OW21001   4.401   4.524  15.621  0.2519 -0.0736  0.2652
 3123SOL    HW121002   4.319   4.492  15.582  1.1930 -0.6841 -1.2275
 3123SOL    HW221003   4.429   4.597  15.565 -0.2202  0.6416  0.9474
 3124SOL     OW21004   2.991   1.412  11.581 -0.3740  0.3023  0.2143
 3124SOL    HW121005   3.082   1.399  11.554  0.6764  2.0647  2.9578
 3124SOL    HW221006   2.946   1.341  11.535 -0.0804  0.7521 -0.7582
 3125SOL     OW21007   4.181   1.071   9.725  0.6833 -0.5801 -0.2064
 3125SOL    HW121008   4.201   0.987   9.768 -1.4881 -1.3152 -0.6600
 3125SOL    HW221009   4.251   1.068   9.660  0.0964  0.6319 -0.8715
 3126SOL     OW21010   0.575   1.853   0.410  0.0495  0.0932 -0.0643
 3126SOL    HW121011   0.567   1.764   0.377 -1.2157  0.3001 -0.3145
 3126SOL    HW221012   0.484   1.879   0.423  0.3412  1.2823 -0.3966
 3127SOL     OW21013   2.003   1.598   8.721  0.1955  0.1230  0.8926
 3127SOL    HW121014   1.984   1.692   8.716 -2.1459 -0.4196 -0.4432
 3127SOL    HW221015   2.049   1.591   8.804  0.9236 -1.7546  0.3179
 3128SOL     OW21016   1.093   4.287   5.760  0.2605 -0.0552  0.0125
 3128SOL    HW121017   1.160   4.238   5.805  0.8653  1.4603  0.7659
 3128SOL    HW221018   1.144   4.351   5.710  0.2760  0.3287  0.5231
 3129SOL     OW21019   2.424   4.282   8.327 -0.4212 -0.2743 -0.2172
 3129SOL    HW121020   2.357   4.314   8.266 -0.1907 -1.4419 -1.0973
 3129SOL    HW221021   2.472   4.216   8.276 -1.8362 -0.5822 -1.1535
 3130SOL     OW21022   2.417   1.072   3.652 -0.2101  0.1977 -0.0397
 3130SOL    HW121023   2.418   1.167   3.643  0.3587  0.0935 -1.1157
 3130SOL    HW221024   2.509   1.060   3.674  0.2955 -3.1575 -3.9528
 3131SOL     OW21025   4.360   2.899  13.197 -0.2806  0.0143 -0.2953
 3131SOL    HW121026   4.313   2.903  13.281 -0.3565  1.1393 -0.4018
 3131SOL    HW221027   4.418   2.975  13.204 -2.2309  1.2816  2.2348
 3132SOL     OW21028   1.428   3.186  15.399 -0.1666  0.2103  0.3578
 3132SOL    HW121029   1.408   3.229  15.316 -0.9295 -0.7226  0.0585
 3132SOL    HW221030   1.464   3.105  15.362  0.2396 -0.0053  1.2320
 3133SOL     OW21031   3.930   4.571   3.627  0.5084 -0.2504  0.0302
 3133SOL    HW121032   3.919   4.520   3.547  1.4033 -0.3470 -0.0372
 3133SOL    HW221033   3.895   4.656   3.599  2.1892 -0.1626 -1.8415
 3134SOL     OW21034   0.147   4.627   2.435  0.0514 -0.6292 -0.2499
 3134SOL    HW121035   0.118   4.550   2.485 -0.2299 -1.8328 -2.2805
 3134SOL    HW221036   0.218   4.659   2.491  0.5085 -1.2604 -0.4741
 3135SOL     OW21037   4.073   2.533   7.613  0.0720  0.3708  0.0687
 3135SOL    HW121038   4.042   2.499   7.696  2.1817  1.4745  1.3062
 3135SOL    HW221039   4.091   2.624   7.637 -1.1402  1.1510 -2.0093
 3136SOL     OW21040   4.032   1.644   4.976 -0.3855 -0.3005  0.0177
 3136SOL    HW121041   4.110   1.603   4.940  0.3914  0.0350  1.3273
 3136SOL    HW221042   4.026   1.600   5.061 -0.6229  1.8362  1.1166
 3137SOL     OW21043   3.170   1.987   7.882 -0.0500  0.5985  0.1460
 3137SOL    HW121044   3.114   2.044   7.935 -1.6412  0.0201 -0.9334
 3137SOL    HW221045   3.244   2.000   7.942  0.0956 -1.4855  0.4196
 3138SOL     OW21046   1.624   0.074  14.976 -0.1346  0.3045  0.5934
 3138SOL    HW121047   1.562   0.141  15.002 -1.1468 -0.1043 -0.7491
 3138SOL    HW221048   1.711   0.099  15.008 -0.5518  0.8895  1.2551
 3139SOL     OW21049   2.878   1.290   7.623 -0.1836  0.7793 -0.2135
 3139SOL    HW121050   2.934   1.361   7.592 -2.7547  2.2424 -1.5042
 3139SOL    HW221051   2.792   1.333   7.627 -0.2079  0.8020 -0.9780
 3140SOL     OW21052   0.970   1.185   5.541  0.3338 -0.1079 -0.2021
 3140SOL    HW121053   0.945   1.168   5.632 -0.1827  0.0420 -0.3206
 3140SOL    HW221054   0.917   1.121   5.495  0.5476  0.7295 -1.5957
 3141SOL     OW21055   0.278   4.588  16.996 -0.2380 -0.2684 -0.1631
 3141SOL    HW121056   0.225   4.562  16.920  3.2837 -1.9792 -2.0366
 3141SOL    HW221057   0.208   4.641  17.035  0.2554  1.6434 -1.8873
 3142SOL     OW21058   2.422   3.812   8.587  0.3049  0.2791  0.1541
 3142SOL    HW121059   2.502   3.777   8.624  0.9896 -0.0116 -1.5726
 3142SOL    HW221060   2.453   3.868   8.516  0.7123  2.2086  1.8553
 3143SOL     OW21061   4.200   4.090  13.599 -0.6547 -0.7169  0.3701
 3143SOL    HW121062   4.145   4.141  13.658  0.6246 -0.7179  1.5615
 3143SOL    HW221063   4.283   4.088  13.646 -0.8908 -0.6518  0.7934
 3144SOL     OW21064   2.293   3.288   6.866  0.5533 -0.1454 -0.3265
 3144SOL    HW121065   2.268   3.335   6.945  1.2043 -0.9247  0.3336
 3144SOL    HW221066   2.282   3.197   6.894 -1.6706  0.0297 -0.5833
 3145SOL     OW21067   4.341   4.428   5.274 -0.3777 -0.3324  0.2918
 3145SOL    HW121068   4.281   4.444   5.347 -0.8518 -2.4409  0.3727
 3145SOL    HW221069   4.290   4.459   5.200 -0.9842 -1.1503  0.3718
 3146SOL     OW21070   2.870   3.690   5.467  0.3952  0.1535 -0.1155
 3146SOL    HW121071   2.925   3.627   5.513  3.3077  1.7101 -1.4433
 3146SOL    HW221072   2.788   3.643   5.452  2.1928 -2.2749 -2.4375
 3147SOL     OW21073   1.896   4.288   9.445  0.2623 -0.1029  0.4805
 3147SOL    HW121074   1.825   4.347   9.418  0.8856 -1.2849 -3.7262
 3147SOL    HW221075   1.854   4.203   9.434  0.5807 -0.0785 -1.0141
 3148SOL     OW21076   1.557   3.839   4.088 -0.7278 -0.2569 -0.2983
 3148SOL    HW121077   1.613   3.910   4.055 -0.2553 -0.0716  0.8880
 3148SOL    HW221078   1.619   3.794   4.145 -0.2057  1.9123  0.8481
 3149SOL     OW21079   2.479   3.414   6.693  0.4361 -0.4526 -0.2960
 3149SOL    HW121080   2.435   3.418   6.608 -0.0259 -1.1014 -0.0947
 3149SOL    HW221081   2.408   3.371   6.742  0.4069  1.8038  1.6211
 3150SOL     OW21082   0.049   4.607  14.277  0.6807 -0.1057 -0.2523
 3150SOL    HW121083   4.712   4.657  14.258  1.0290  0.6643  0.3222
 3150SOL    HW221084   0.076   4.572  14.192 -2.9161  1.9850 -2.2272
 3151SOL     OW21085   0.231   2.911  14.526  0.3868 -0.1297  0.1497
 3151SOL    HW121086   0.301   2.945  14.581 -0.1377  0.4960  0.4401
 3151SOL    HW221087   0.281   2.919  14.445 -2.3270 -1.4933 -1.6736
 3152SOL     OW21088   4.335   4.482   9.583 -0.0787 -0.3363  0.7223
 3152SOL    HW121089   4.247   4.467   9.549  1.0326 -0.5552 -2.1034
 3152SOL    HW221090   4.316   4.449   9.670 -1.5872 -3.6371 -0.8553
 3153SOL     OW21091   3.574   2.388   5.715  0.4819 -0.1237  0.5358
 3153SOL    HW121092   3.594   2.368   5.624 -0.9126  1.3372 -0.0792
 3153SOL    HW221093   3.627   2.324   5.764  1.2876  0.3879  0.3383
 3154SOL     OW21094   3.190   4.251   1.369 -0.0526  0.1378  0.1708
 3154SOL    HW121095   3.249   4.188   1.327 -0.4799 -1.5494  2.1316
 3154SOL    HW221096   3.148   4.192   1.431  1.4415  0.1222  1.1629
 3155SOL     OW21097   4.362   3.415   4.604  0.1653  0.0492  0.4013
 3155SOL    HW121098   4.299   3.439   4.536 -0.0612 -0.7433  0.3296
 3155SOL    HW221099   4.367   3.320   4.612 -0.5766  0.1586  2.1478
 3156SOL     OW21100   0.258   0.311  13.039  0.1084  0.0974  0.5543
 3156SOL    HW121101   0.171   0.319  13.000  0.0274 -2.0187  0.3312
 3156SOL    HW221102   0.246   0.321  13.133 -1.7978  3.5065 -0.0367
 3157SOL     OW21103   2.381   2.593   3.943  0.2171 -0.1557  0.3238
 3157SOL    HW121104   2.339   2.674   3.912  1.2854  0.4915  0.5683
 3157SOL    HW221105   2.472   2.606   3.917  0.3376 -1.4667  0.0775
 3158SOL     OW21106   4.677   0.369  14.955  0.6709 -0.4079 -0.0478
 3158SOL    HW121107   0.009   0.312  14.975 -0.2364 -1.6166 -0.1839
 3158SOL    HW221108   4.712   0.444  15.004 -3.0067  0.8546  0.7235
 3159SOL     OW21109   3.575   2.755   0.516 -0.2796  0.1619 -0.4899
 3159SOL    HW121110   3.491   2.719   0.547  0.5101 -1.6585 -0.4674
 3159SOL    HW221111   3.635   2.702   0.569  1.2724  1.0470 -1.3569
 3160SOL     OW21112   3.663   0.329  16.680  0.0991  0.0130 -0.2167
 3160SOL    HW121113   3.694   0.419  16.670  0.9013 -0.4506 -1.8559
 3160SOL    HW221114   3.748   0.301  16.714  0.3211  0.1127 -0.6876
 3161SOL     OW21115   4.500   0.787  13.867 -0.0989 -0.0388  0.0390
 3161SOL    HW121116   4.454   0.829  13.795 -1.4723 -0.1558  0.8383
 3161SOL    HW221117   4.468   0.848  13.934 -0.6604 -0.6806  0.3642
 3162SOL     OW21118   1.694   2.878   9.582  0.8913 -0.4470  0.0758
 3162SOL    HW121119   1.631   2.848   9.647  0.2311  0.3393 -0.1950
 3162SOL    HW221120   1.763   2.920   9.633  0.2095 -0.0991  0.6941
 3163SOL     OW21121   3.774   0.904   5.182  0.2200  0.3465  0.0524
 3163SOL    HW121122   3.832   0.869   5.249 -0.8211 -1.0379  0.2327
 3163SOL    HW221123   3.691   0.896   5.229  0.1751  0.8264  0.0499
 3164SOL     OW21124   2.708   2.306  11.831  0.4499  0.1610 -0.1240
 3164SOL    HW121125   2.792   2.348  11.813  1.0822 -1.6047 -1.3344
 3164SOL    HW221126   2.661   2.340  11.755  0.6739 -1.0487 -0.8167
 3165SOL     OW21127   3.050   3.389  17.697 -0.2008 -0.0392 -0.8829
 3165SOL    HW121128   3.127   3.390  17.754 -0.7329  1.8512 -0.1869
 3165SOL    HW221129   3.001   3.464  17.733  2.3151  1.6515 -0.9984
 3166SOL     OW21130   1.100   4.636  11.437 -0.7170  0.2407 -0.1478
 3166SOL    HW121131   1.132   4.677  11.357 -1.2873 -2.9122 -1.9961
 3166SOL    HW221132   1.006   4.636  11.424 -0.7446  0.3582  0.0404
 3167SOL     OW21133   0.257   0.630  12.011  1.2517 -0.2302 -0.2471
 3167SOL    HW121134   0.322   0.700  12.017  1.3777 -0.4692  1.1768
 3167SOL    HW221135   0.290   0.569  12.077 -3.3830 -1.2046  1.1521
 3168SOL     OW21136   1.185   0.690   0.853  0.4079 -0.0731 -0.3852
 3168SOL    HW121137   1.234   0.743   0.790 -1.2191  1.6373 -0.2307
 3168SOL    HW221138   1.101   0.736   0.848  1.2256  1.4569 -0.2315
 3169SOL     OW21139   3.040   1.875   8.715  0.3894 -0.2800  0.4113
 3169SOL    HW121140   3.048   1.781   8.698 -0.8160 -0.3652  0.2864
 3169SOL    HW221141   3.040   1.869   8.810 -0.9258  0.3330  0.4497
 3170SOL     OW21142   0.854   4.576   2.857  0.0968 -0.4142 -1.1715
 3170SOL    HW121143   0.944   4.547   2.850 -0.4313 -2.0752 -1.1174
 3170SOL    HW221144   0.808   4.543   2.780 -0.9991 -0.9930 -0.2769
 3171SOL     OW21145   1.271   2.382   9.420 -0.1509 -0.0141 -0.8375
 3171SOL    HW121146   1.275   2.286   9.423  0.8044  0.0446 -0.4762
 3171SOL    HW221147   1.203   2.401   9.354  0.0312  1.3621 -0.6177
 3172SOL     OW21148   2.988   2.649   0.683 -0.4066 -0.4185  0.3957
 3172SOL    HW121149   2.921   2.623   0.620 -0.7838  0.6502  0.3438
 3172SOL    HW221150   2.995   2.561   0.720  1.9533 -0.4619 -0.1442
 3173SOL     OW21151   2.389   1.650   1.172  0.2510  0.1806 -1.1986
 3173SOL    HW121152   2.451   1.622   1.106 -0.5323 -3.8311 -0.2181
 3173SOL    HW221153   2.397   1.743   1.152  1.4651  0.6331  1.3767
 3174SOL     OW21154   1.880   4.358  14.691 -0.3333 -0.6491  0.5076
 3174SOL    HW121155   1.898   4.422  14.760  1.1313 -0.0067 -0.4641
 3174SOL    HW221156   1.924   4.401  14.618 -0.8331 -1.0868 -0.0543
 3175SOL     OW21157   0.442   3.155   6.196  0.1626  0.1775  0.6243
 3175SOL    HW121158   0.417   3.183   6.108 -3.2277 -0.1815  1.4510
 3175SOL    HW221159   0.454   3.242   6.234  0.7137  0.0863  0.6490
 3176SOL     OW21160   2.237   0.057   2.560  0.3858 -0.4367  0.2912
 3176SOL    HW121161   2.214   0.149   2.548  1.2645 -0.0943  1.2168
 3176SOL    HW221162   2.198   0.017   2.482 -1.6460  0.1432  1.0304
 3177SOL     OW21163   1.756   3.225  17.468 -0.2386 -0.0562  0.1027
 3177SOL    HW121164   1.737   3.306  17.422 -0.0808  0.8983  1.7181
 3177SOL    HW221165   1.675   3.177  17.449  0.7765 -1.0397 -1.8145
 3178SOL     OW21166   1.008   3.457   8.442  0.1234  0.3746 -0.0059
 3178SOL    HW121167   0.926   3.409   8.433  0.3276 -0.2292  1.2994
 3178SOL    HW221168   1.076   3.391   8.457  0.2997  0.1672 -1.7236
 3179SOL     OW21169   2.939   1.251   6.698  0.3047  0.0859 -0.4323
 3179SOL    HW121170   2.844   1.250   6.691  0.2408  0.7510  0.2852
 3179SOL    HW221171   2.965   1.228   6.609 -0.2756 -1.2959 -0.2362
 3180SOL     OW21172   0.863   2.867  15.434 -0.4856 -0.1245  0.3543
 3180SOL    HW121173   0.771   2.852  15.411 -0.9092  1.1130  1.2658
 3180SOL    HW221174   0.896   2.783  15.403 -0.6452 -0.7560  1.9228
 3181SOL     OW21175   0.107   1.764   1.004  0.1189 -0.2455  0.5982
 3181SOL    HW121176   0.022   1.772   0.961  0.9136 -1.3825 -1.1955
 3181SOL    HW221177   0.164   1.711   0.948  1.9442  1.4741  0.8043
 3182SOL     OW21178   1.395   3.282   4.317  0.1979  0.0781  0.4171
 3182SOL    HW121179   1.412   3.376   4.320  0.7410 -0.0009 -0.2313
 3182SOL    HW221180   1.299   3.286   4.325  0.1118 -1.5786  0.2715
 3183SOL     OW21181   0.905   1.030  17.391  0.5587  0.2715 -0.1177
 3183SOL    HW121182   0.897   0.996  17.480 -2.0110 -1.0194 -0.8152
 3183SOL    HW221183   0.988   1.074  17.409 -0.9870  3.0688  0.1807
 3184SOL     OW21184   3.899   0.865   9.093  0.0134 -0.1565  0.4611
 3184SOL    HW121185   3.922   0.899   9.179 -2.8422  0.2005  1.0854
 3184SOL    HW221186   3.894   0.944   9.040 -0.0302 -0.9376 -0.7078
 3185SOL     OW21187   4.007   2.682   4.978  0.7864  0.1545  0.9144
 3185SOL    HW121188   3.929   2.683   4.922  0.3362  4.2057  1.6032
 3185SOL    HW221189   4.053   2.751   4.929  1.5201  0.1233  1.5664
 3186SOL     OW21190   1.567   3.975   8.178  0.3465 -0.4347  0.3441
 3186SOL    HW121191   1.588   4.047   8.118 -0.0797 -0.3730  0.2755
 3186SOL    HW221192   1.484   4.011   8.209 -0.1726  0.2597 -1.9187
 3187SOL     OW21193   3.473   1.003   4.324 -1.1891 -0.7791  0.3109
 3187SOL    HW121194   3.463   0.909   4.307 -0.6167 -1.2614  2.6842
 3187SOL    HW221195   3.564   1.008   4.352 -1.4607  0.0284  1.0497
 3188SOL     OW21196   0.617   1.092   5.267  0.2945  0.1015  0.0407
 3188SOL    HW121197   0.591   1.088   5.359  0.7072 -0.0772  0.1513
 3188SOL    HW221198   0.690   1.031   5.283 -2.3079 -2.8473  0.6756
 3189SOL     OW21199   2.039   0.328   5.188  0.3165  0.3579  0.5946
 3189SOL    HW121200   2.073   0.417   5.200  0.9204  0.0430  1.2480
 3189SOL    HW221201   2.013   0.305   5.277  2.4535 -1.7925  0.6724
 3190SOL     OW21202   2.800   0.995   8.811  0.3498 -0.3562 -0.1180
 3190SOL    HW121203   2.812   0.921   8.751 -1.4695 -2.5077  2.2100
 3190SOL    HW221204   2.794   0.951   8.895 -1.6093 -0.9226 -0.5441
 3191SOL     OW21205   4.733   2.465   9.988 -0.0460  0.0182 -0.1999
 3191SOL    HW121206   4.727   2.380   9.944 -1.3229 -0.3385  0.6555
 3191SOL    HW221207   0.084   2.467  10.008  0.0116  1.3310 -0.5534
 3192SOL     OW21208   2.927   0.363   8.719 -0.1587 -0.3623 -0.3383
 3192SOL    HW121209   2.993   0.300   8.692  0.6923  0.7620 -0.9152
 3192SOL    HW221210   2.945   0.356   8.813  0.8815  1.9398 -0.3670
 3193SOL     OW21211   0.489   2.147  13.551  0.2842  0.2302  0.1387
 3193SOL    HW121212   0.485   2.236  13.587 -0.7912 -0.1712  0.9911
 3193SOL    HW221213   0.490   2.164  13.456  2.5676  0.2872  0.1730
 3194SOL     OW21214   0.324   4.270   9.448 -0.4998  0.0487 -0.4354
 3194SOL    HW121215   0.361   4.241   9.365 -0.6716 -0.0443 -0.4782
 3194SOL    HW221216   0.233   4.273   9.418 -0.9299  0.5240  0.9040
 3195SOL     OW21217   1.636   0.032   7.978  0.3568  0.0452 -0.5233
 3195SOL    HW121218   1.598   4.692   7.946 -0.0573 -0.1795  0.5598
 3195SOL    HW221219   1.721   0.029   7.934  0.6908 -0.3890  0.1408
 3196SOL     OW21220   1.191   3.555   2.240  0.5463  0.1458 -0.2024
 3196SOL    HW121221   1.102   3.525   2.256  0.9365  0.0171  1.7351
 3196SOL    HW221222   1.205   3.524   2.150  1.8287 -0.3001  0.1501
 3197SOL     OW21223   4.548   2.982  12.352 -0.4843  0.5240  0.2141
 3197SOL    HW121224   4.571   2.894  12.383  1.4104  1.9367  2.8732
 3197SOL    HW221225   4.632   3.024  12.374  1.0228 -1.1344 -2.3956
 3198SOL     OW21226   3.360   4.509   8.659  0.0704  0.1010  0.1264
 3198SOL    HW121227   3.274   4.467   8.661  0.1325 -0.0858 -1.0060
 3198SOL    HW221228   3.363   4.540   8.568  1.3499  0.8908  0.4388
 3199SOL     OW21229   3.812   2.776   4.761  0.7873  0.2410 -0.3529
 3199SOL    HW121230   3.740   2.714   4.775  1.6082 -0.5142  0.5195
 3199SOL    HW221231   3.819   2.797   4.668 -0.3439  1.6024 -0.1208
 3200SOL     OW21232   3.555   0.950  10.629  0.1696  0.5398  0.2721
 3200SOL    HW121233   3.620   0.966  10.698 -0.3680  2.4678  0.3293
 3200SOL    HW221234   3.476   0.954  10.682 -1.9076 -0.8144 -2.7547
 3201SOL     OW21235   3.544   2.997  13.542 -0.3466  0.6715 -0.0047
 3201SOL    HW121236   3.503   3.062  13.485  0.5442  0.0585 -1.3495
 3201SOL    HW221237   3.638   3.006  13.526 -0.0264 -1.1331  0.8630
 3202SOL     OW21238   3.566   4.553   2.732 -0.0530  0.1240 -0.1282
 3202SOL    HW121239   3.586   4.547   2.638 -0.6448 -1.2063 -0.1714
 3202SOL    HW221240   3.520   4.636   2.743 -0.6965 -0.3797  0.9647
 3203SOL     OW21241   1.867   4.443   8.237 -0.3326  0.1854 -0.2975
 3203SOL    HW121242   1.881   4.360   8.283  1.2586 -0.1984 -1.4651
 3203SOL    HW221243   1.786   4.479   8.272  0.1826  1.9727 -0.9400
 3204SOL     OW21244   4.591   2.650  10.678 -0.3054 -0.2825 -0.3007
 3204SOL    HW121245   4.496   2.649  10.678 -0.3127 -0.5591  1.8646
 3204SOL    HW221246   4.613   2.738  10.710  0.2245 -0.2863 -0.6602
 3205SOL     OW21247   2.268   3.225   4.595  0.3724 -0.2088  0.0189
 3205SOL    HW121248   2.310   3.308   4.571 -0.0466 -0.2164 -0.7649
 3205SOL    HW221249   2.258   3.173   4.515  1.0900  0.9111 -0.7979
 3206SOL     OW21250   4.327   1.909  16.414 -0.7423 -0.5243 -0.1747
 3206SOL    HW121251   4.253   1.860  16.449 -0.1450  1.3438  3.6424
 3206SOL    HW221252   4.335   1.877  16.324  3.0401  1.0214 -0.3781
 3207SOL     OW21253   0.537   0.570   3.181 -0.6346  0.6047  0.1805
 3207SOL    HW121254   0.513   0.478   3.178  0.1055  0.4003  0.3758
 3207SOL    HW221255   0.453   0.608   3.157 -0.2336  1.8961  0.7889
 3208SOL     OW21256   4.454   0.524   2.586  0.3106  0.6488  0.3974
 3208SOL    HW121257   4.418   0.524   2.675 -0.0200  3.3895  0.2591
 3208SOL    HW221258   4.512   0.448   2.584 -0.1744  0.3305 -2.2709
 3209SOL     OW21259   1.249   4.168   2.543 -0.9340  0.4314 -0.4598
 3209SOL    HW121260   1.165   4.170   2.497 -1.7044 -1.6707  0.8632
 3209SOL    HW221261   1.241   4.222   2.622  1.3049  0.3895 -0.2023
 3210SOL     OW21262   2.239   4.090   5.899 -0.1098 -0.4234  0.1536
 3210SOL    HW121263   2.274   4.003   5.884  0.2265 -0.1596 -0.5860
 3210SOL    HW221264   2.159   4.083   5.847  0.0185 -0.7106 -0.0018
 3211SOL     OW21265   2.192   4.118   0.383 -0.0280 -0.1206 -0.1868
 3211SOL    HW121266   2.192   4.025   0.405 -2.6395 -0.2312 -0.6376
 3211SOL    HW221267   2.187   4.114   0.288  1.5186  1.4928 -0.3327
 3212SOL     OW21268   3.168   1.028   3.556  0.4686 -0.1159  0.5492
 3212SOL    HW121269   3.231   1.066   3.496  0.0841  1.6822  1.2870
 3212SOL    HW221270   3.111   0.982   3.494  0.8345  2.4654 -1.6467
 3213SOL     OW21271   3.756   3.632  13.545 -0.3413 -0.6283  0.4367
 3213SOL    HW121272   3.708   3.558  13.507 -0.4553  0.2179 -1.0929
 3213SOL    HW221273   3.831   3.641  13.486  0.1508  0.1819  1.1972
 3214SOL     OW21274   4.254   1.851   6.748  0.3249 -0.1997  0.2989
 3214SOL    HW121275   4.182   1.863   6.810  3.0407  0.0157  3.4373
 3214SOL    HW221276   4.311   1.917   6.786 -0.6165  1.8597 -1.8580
 3215SOL     OW21277   0.760   2.283   1.193 -0.6602  0.1362  0.4258
 3215SOL    HW121278   0.741   2.347   1.262  0.2524  0.2820  0.5437
 3215SOL    HW221279   0.822   2.335   1.141 -1.0272 -0.9920 -1.1307
 3216SOL     OW21280   1.739   0.813   5.008 -0.0001 -0.3403 -0.1678
 3216SOL    HW121281   1.751   0.870   4.932  1.5000  0.6461  0.7903
 3216SOL    HW221282   1.828   0.812   5.043  0.0917  0.4339 -0.3618
 3217SOL     OW21283   0.125   2.337  15.278  0.5528 -0.0654  0.6579
 3217SOL    HW121284   0.170   2.332  15.194 -0.2151 -1.3554  0.3202
 3217SOL    HW221285   0.038   2.373  15.259  1.6119  2.9669  1.6067
 3218SOL     OW21286   0.538   1.542   4.302 -0.3711 -0.2860 -0.3217
 3218SOL    HW121287   0.486   1.467   4.331  2.0652 -2.5640 -1.8771
 3218SOL    HW221288   0.597   1.566   4.374  0.0684  2.5713 -1.6050
 3219SOL     OW21289   1.405   2.388   3.767  0.0564  0.1405 -0.4432
 3219SOL    HW121290   1.337   2.435   3.816 -0.1168  0.6531 -1.1715
 3219SOL    HW221291   1.465   2.462   3.780 -0.5746  0.8229 -1.4086
 3220SOL     OW21292   3.047   1.370   3.796  0.5248  0.2749  0.0781
 3220SOL    HW121293   3.059   1.349   3.889 -0.8721 -1.4516 -0.1389
 3220SOL    HW221294   3.007   1.457   3.797  3.0657  1.4715 -2.5173
 3221SOL     OW21295   3.369   4.609   8.381 -0.0159  0.6434 -0.4888
 3221SOL    HW121296   3.414   4.692   8.366  1.1802 -0.0433 -0.6408
 3221SOL    HW221297   3.438   4.554   8.345  2.5666  1.9820  2.4242
 3222SOL     OW21298   4.093   4.361   0.803  0.1867  0.1867 -0.1922
 3222SOL    HW121299   4.180   4.393   0.779  0.3599  0.2824  0.5849
 3222SOL    HW221300   4.089   4.426   0.873  1.6441  0.5805 -0.4809
 3223SOL     OW21301   3.550   0.703  11.021 -0.0885  0.1448  0.0881
 3223SOL    HW121302   3.533   0.787  11.064  1.4020  0.2298  0.5099
 3223SOL    HW221303   3.460   0.677  10.996 -0.0877  2.5123 -2.3961
 3224SOL     OW21304   4.267   2.925   3.305  0.5123  0.7811  0.2292
 3224SOL    HW121305   4.307   2.962   3.226  1.7337  0.0025  0.4949
 3224SOL    HW221306   4.185   2.920   3.255 -0.1591  0.2361  1.3912
 3225SOL     OW21307   1.305   3.333   7.113  0.5440  0.0630  0.7487
 3225SOL    HW121308   1.375   3.399   7.111 -0.6479  1.3629  1.5593
 3225SOL    HW221309   1.306   3.315   7.207 -0.6271  0.2648  0.7981
 3226SOL     OW21310   3.614   0.964   6.138 -0.2039  0.0112 -0.8033
 3226SOL    HW121311   3.659   0.902   6.196  2.1256  1.5653 -0.9249
 3226SOL    HW221312   3.529   0.962   6.182  0.6068 -1.3783  0.6869
 3227SOL     OW21313   3.186   0.291   0.941 -0.3711 -0.1758  0.4397
 3227SOL    HW121314   3.224   0.258   1.022  0.0844  3.0006  1.5446
 3227SOL    HW221315   3.200   0.205   0.903 -1.3524  0.1921 -0.7430
 3228SOL     OW21316   4.060   2.249  17.314  0.1785 -0.7640 -0.0606
 3228SOL    HW121317   3.965   2.243  17.305 -0.0062 -0.8161  1.8699
 3228SOL    HW221318   4.086   2.337  17.287  1.5622 -0.9097  0.8001
 3229SOL     OW21319   3.137   2.917   9.469 -0.1189  0.3814  0.3609
 3229SOL    HW121320   3.172   2.881   9.550  2.1079  1.3832 -0.1516
 3229SOL    HW221321   3.208   2.975   9.441 -1.0791  2.0905  1.4483
 3230SOL     OW21322   1.834   2.122  13.883  0.0785  0.2062 -0.2668
 3230SOL    HW121323   1.844   2.203  13.833  2.0399 -0.4339 -0.9439
 3230SOL    HW221324   1.852   2.054  13.817  0.3676 -1.9138  1.9850
 3231SOL     OW21325   0.059   3.933   3.955  0.2258 -0.1845  0.0122
 3231SOL    HW121326   0.134   3.908   4.008 -0.3704  0.6900  1.2780
 3231SOL    HW221327   4.738   3.952   4.025  0.2683 -0.9617  0.2566
 3232SOL     OW21328   4.369   2.122  15.761  0.1296 -0.2365  0.1931
 3232SOL    HW121329   4.437   2.189  15.764  1.4565 -1.5432 -0.6799
 3232SOL    HW221330   4.423   2.044  15.746 -0.4874 -0.5296 -0.5012
 3233SOL     OW21331   2.748   0.208   7.996  0.4647  0.1247  0.2940
 3233SOL    HW121332   2.711   0.287   8.033  0.8081  0.6853 -0.5641
 3233SOL    HW221333   2.679   0.180   7.936  0.5970 -0.8840  0.6098
 3234SOL     OW21334   4.350   2.354   6.519  0.1797  0.6007 -0.2792
 3234SOL    HW121335   4.417   2.341   6.451 -0.2532  1.1095 -0.8039
 3234SOL    HW221336   4.298   2.273   6.508  1.3165 -0.1099 -0.4067
 3235SOL     OW21337   0.617   0.177   3.362 -0.0120  0.1850 -0.1834
 3235SOL    HW121338   0.668   0.233   3.303  2.5791  0.3940  2.2794
 3235SOL    HW221339   0.674   0.174   3.439  0.4687  3.6980 -0.4069
 3236SOL     OW21340   4.494   3.282   8.869  0.3949 -0.3725  0.1123
 3236SOL    HW121341   4.544   3.263   8.948  2.0252 -0.1729 -0.8651
 3236SOL    HW221342   4.450   3.199   8.851  0.6189 -0.3306 -0.6641
 3237SOL     OW21343   4.166   3.112   1.888 -0.0533 -0.1992  0.1209
 3237SOL    HW121344   4.145   3.203   1.866  0.5606 -0.0207  0.2731
 3237SOL    HW221345   4.154   3.108   1.983  0.5400  2.1975  0.3047
 3238SOL     OW21346   4.334   2.502   7.525  0.9825 -0.0935 -0.4255
 3238SOL    HW121347   4.296   2.416   7.544 -0.5787  1.4300  3.2770
 3238SOL    HW221348   4.253   2.551   7.536  0.4014 -1.7533  2.6246
 3239SOL     OW21349   0.168   1.266  17.417  0.2946  0.0179 -0.0871
 3239SOL    HW121350   0.161   1.223  17.502  1.2994  1.5487  0.7812
 3239SOL    HW221351   0.197   1.351  17.451 -0.9610  0.3533  0.1393
 3240SOL     OW21352   0.160   4.088  12.780  0.1489  0.4796  0.4521
 3240SOL    HW121353   0.231   4.066  12.840  0.9739 -0.6952 -0.9593
 3240SOL    HW221354   0.122   4.001  12.784 -0.8006  0.8665 -0.1476
 3241SOL     OW21355   3.267   0.730   8.404  0.6235  0.4108 -0.1321
 3241SOL    HW121356   3.251   0.778   8.322 -1.9701 -0.7826 -0.3226
 3241SOL    HW221357   3.192   0.761   8.454  1.1876  0.8197  0.4617
 3242SOL     OW21358   4.450   0.411   8.190  0.4808  0.3578 -0.3167
 3242SOL    HW121359   4.527   0.369   8.230 -1.0157  0.1829  2.4112
 3242SOL    HW221360   4.496   0.440   8.111  0.2912  1.2134 -0.1199
 3243SOL     OW21361   2.504   2.804   2.006  0.0537 -0.4087  0.0715
 3243SOL    HW121362   2.507   2.711   1.985  1.1800 -0.2357 -0.5368
 3243SOL    HW221363   2.411   2.820   1.992 -0.5393 -0.1294  4.1334
 3244SOL     OW21364   3.559   3.167   9.470 -0.2862 -0.0220 -0.0994
 3244SOL    HW121365   3.598   3.100   9.414  1.3495  1.2204 -0.4417
 3244SOL    HW221366   3.624   3.166   9.540 -2.8431  1.4252  2.2743
 3245SOL     OW21367   1.046   1.463  10.797 -0.2811  0.5074  0.6092
 3245SOL    HW121368   1.102   1.418  10.734 -1.8289  1.6790 -1.6013
 3245SOL    HW221369   1.036   1.407  10.874 -1.6653 -0.5973 -0.3811
 3246SOL     OW21370   1.890   0.230  16.500  0.0025  0.3417 -0.2420
 3246SOL    HW121371   1.839   0.245  16.579  3.4541  5.2915  1.0008
 3246SOL    HW221372   1.826   0.167  16.467 -0.5670  1.0051 -0.3950
 3247SOL     OW21373   3.720   0.167   5.117  0.1305 -0.4061 -0.1597
 3247SOL    HW121374   3.662   0.165   5.193 -0.8765  1.1052 -0.8826
 3247SOL    HW221375   3.701   0.077   5.090  0.5112 -1.2309  2.3276
 3248SOL     OW21376   2.886   4.342   4.400  0.6151 -0.0935 -0.3014
 3248SOL    HW121377   2.974   4.349   4.362 -0.6971 -1.0054 -3.5606
 3248SOL    HW221378   2.882   4.249   4.420  1.1920  0.3222  1.6824
 3249SOL     OW21379   1.689   1.794   4.819 -0.1294 -0.4396  0.4178
 3249SOL    HW121380   1.704   1.838   4.735  0.3300 -1.4591 -0.0235
 3249SOL    HW221381   1.748   1.720   4.811  0.9085  0.4876 -0.4779
 3250SOL     OW21382   0.969   1.482  14.363 -0.2029 -0.6749  0.1365
 3250SOL    HW121383   1.049   1.429  14.364 -0.7140 -1.4667 -1.4293
 3250SOL    HW221384   0.993   1.546  14.297  3.0826 -1.9915  0.0425
 3251SOL     OW21385   2.125   3.561   2.862 -0.2382  0.9290 -0.6980
 3251SOL    HW121386   2.168   3.595   2.940 -2.1332  1.0316  0.2956
 3251SOL    HW221387   2.072   3.485   2.886  1.3807  0.2460  0.7991
 3252SOL     OW21388   3.277   0.767  13.913  0.0522 -0.4877 -0.6727
 3252SOL    HW121389   3.367   0.744  13.939 -0.0697  1.5020  1.4142
 3252SOL    HW221390   3.275   0.843  13.971 -1.3073 -1.3340  0.3734
 3253SOL     OW21391   2.882   2.233   9.059  0.2129 -0.1799  0.2623
 3253SOL    HW121392   2.956   2.286   9.091 -0.0592  0.1398  0.3644
 3253SOL    HW221393   2.917   2.182   8.986  1.4812  0.7769  0.2050
 3254SOL     OW21394   4.181   2.553  13.743 -0.1394 -0.5264 -0.0236
 3254SOL    HW121395   4.267   2.594  13.749 -0.2935 -0.5598  2.6913
 3254SOL    HW221396   4.127   2.625  13.775 -1.6484 -1.1199 -1.2731
 3255SOL     OW21397   4.282   4.195   1.363  0.1230  0.4599 -0.1593
 3255SOL    HW121398   4.270   4.236   1.278 -2.0456 -0.8898 -0.5116
 3255SOL    HW221399   4.213   4.251   1.399 -1.7179 -2.1643  0.3446
 3256SOL     OW21400   4.044   1.986  17.352 -0.6371  0.1885  0.6109
 3256SOL    HW121401   4.065   2.078  17.335 -2.9161  0.3954 -1.0298
 3256SOL    HW221402   4.125   1.949  17.316 -1.8301 -1.3378 -0.5127
 3257SOL     OW21403   1.348   3.243   4.683  0.1510  0.6690 -0.1641
 3257SOL    HW121404   1.369   3.178   4.751  2.9217  0.0424 -1.6047
 3257SOL    HW221405   1.304   3.182   4.623 -2.4810  0.4033  2.0489
 3258SOL     OW21406   0.559   2.197  12.498 -0.0447  0.0781  0.0000
 3258SOL    HW121407   0.568   2.161  12.586 -1.9073  1.1246  0.6273
 3258SOL    HW221408   0.536   2.117  12.449 -1.5009  1.0063 -0.8332
 3259SOL     OW21409   3.887   1.682   6.373 -0.9675  0.8907 -0.2944
 3259SOL    HW121410   3.858   1.747   6.437  1.0203  0.0948  1.4204
 3259SOL    HW221411   3.980   1.704   6.364 -0.8498  0.7226  0.5049
 3260SOL     OW21412   3.308   4.179  12.867 -0.0527 -0.5400 -0.4787
 3260SOL    HW121413   3.236   4.234  12.837 -0.1014  1.0266  2.5594
 3260SOL    HW221414   3.348   4.153  12.784 -1.9166 -1.4101 -1.1087
 3261SOL     OW21415   0.897   4.008   1.742 -0.2466  0.3242  0.1998
 3261SOL    HW121416   0.857   3.929   1.779 -0.7071 -0.3661 -1.7622
 3261SOL    HW221417   0.979   4.004   1.790  1.1742  2.0194 -2.0728
 3262SOL     OW21418   0.324   3.556   2.659  0.0719 -0.3564 -0.0147
 3262SOL    HW121419   0.349   3.502   2.734  1.0928 -0.0997 -0.1622
 3262SOL    HW221420   0.332   3.646   2.689 -1.9233 -0.8189  1.8367
 3263SOL     OW21421   3.005   1.533  11.819  0.2137 -0.5340 -0.0185
 3263SOL    HW121422   2.962   1.616  11.800  1.9760  0.5052  0.6098
 3263SOL    HW221423   3.008   1.484  11.736  0.4691 -1.8041  0.7367
 3264SOL     OW21424   2.290   4.575  10.442  0.5613 -0.3490 -0.1817
 3264SOL    HW121425   2.288   4.628  10.522 -2.1175  1.8674 -1.7150
 3264SOL    HW221426   2.362   4.514  10.459  0.9216  0.1932  0.2405
 3265SOL     OW21427   4.618   3.957   5.533  0.4721  0.4749 -0.2140
 3265SOL    HW121428   4.682   4.024   5.510  0.5811 -0.0968 -1.5372
 3265SOL    HW221429   4.543   4.014   5.519  0.0940 -0.3023 -1.3482
 3266SOL     OW21430   3.400   2.470   3.990 -0.1409 -0.2864 -0.0023
 3266SOL    HW121431   3.422   2.439   3.903 -0.4223  2.4208 -1.0551
 3266SOL    HW221432   3.393   2.390   4.042  1.2286 -1.6328 -1.8964
 3267SOL     OW21433   1.231   0.045   3.219  0.5635 -0.1349 -0.1424
 3267SOL    HW121434   1.260   0.081   3.303  0.2378  0.2695 -0.2040
 3267SOL    HW221435   1.162   4.726   3.245 -0.5058  0.7322 -0.9646
 3268SOL     OW21436   1.671   2.580   7.854 -0.0006 -0.1832 -0.1255
 3268SOL    HW121437   1.764   2.597   7.839 -0.2242 -2.0063 -3.6201
 3268SOL    HW221438   1.660   2.640   7.927  1.1398  0.2883 -0.3507
 3269SOL     OW21439   0.389   2.902  15.311  0.3522 -0.6966  0.5840
 3269SOL    HW121440   0.352   2.873  15.395  1.0105 -0.6310  0.8995
 3269SOL    HW221441   0.312   2.943  15.270  0.3726  1.5443  2.7066
 3270SOL     OW21442   3.185   3.710   3.848 -0.3013  0.0075  0.0793
 3270SOL    HW121443   3.188   3.626   3.895  0.3229  1.3977  2.5045
 3270SOL    HW221444   3.251   3.763   3.892  1.1088  0.3032 -2.3609
 3271SOL     OW21445   1.110   1.504  17.330 -0.0931  0.2370 -0.1287
 3271SOL    HW121446   1.199   1.539  17.322 -0.7795  1.9079 -0.3956
 3271SOL    HW221447   1.087   1.506  17.238  0.7005  0.1339 -0.3342
 3272SOL     OW21448   0.356   3.308   8.907 -0.1536  0.1417  0.5479
 3272SOL    HW121449   0.437   3.329   8.862  0.2083 -0.5218  0.8801
 3272SOL    HW221450   0.342   3.393   8.948  1.8127  0.8989 -0.3432
 3273SOL     OW21451   4.398   4.150  16.144  0.0898  0.1718  0.3005
 3273SOL    HW121452   4.341   4.172  16.070  0.8812  2.0709  0.2732
 3273SOL    HW221453   4.429   4.063  16.118  0.5887  0.7660 -1.1259
 3274SOL     OW21454   0.727   1.251   2.450 -0.2309  0.3471 -0.3905
 3274SOL    HW121455   0.706   1.318   2.514  2.3898  1.7676 -1.0258
 3274SOL    HW221456   0.681   1.294   2.378  0.1556  1.0524 -0.2148
 3275SOL     OW21457   1.232   2.445   3.341 -0.4152 -0.1002  0.0259
 3275SOL    HW121458   1.193   2.373   3.390 -1.7531 -0.0890 -1.0198
 3275SOL    HW221459   1.198   2.426   3.253 -0.1652 -1.0510  0.1441
 3276SOL     OW21460   3.249   1.435  15.774 -0.4317  0.2850 -0.1720
 3276SOL    HW121461   3.248   1.465  15.865  0.3385  1.3002 -0.4937
 3276SOL    HW221462   3.198   1.510  15.743  0.0291  0.2710 -0.9455
 3277SOL     OW21463   4.506   0.040   8.115  0.2642 -0.3628  0.3313
 3277SOL    HW121464   4.449   0.099   8.067  0.6231  1.0410  1.6037
 3277SOL    HW221465   4.594   0.070   8.090 -0.2419 -1.0023 -2.1212
 3278SOL     OW21466   4.166   2.546   3.286 -0.1952  0.0657 -0.1409
 3278SOL    HW121467   4.078   2.575   3.310 -0.2929  0.9850 -1.6261
 3278SOL    HW221468   4.214   2.558   3.368  1.8605 -1.1111 -1.1768
 3279SOL     OW21469   4.550   0.244   9.146  0.7558  1.0014  0.5707
 3279SOL    HW121470   4.629   0.298   9.146  1.3965  0.0666 -1.5089
 3279SOL    HW221471   4.591   0.180   9.203 -0.2553 -0.1782 -0.0403
 3280SOL     OW21472   1.391   2.328   8.626  0.1405 -0.0960  0.5712
 3280SOL    HW121473   1.320   2.274   8.591 -1.1386 -0.2355  3.3154
 3280SOL    HW221474   1.441   2.341   8.546  0.7673 -1.4937  0.7349
 3281SOL     OW21475   3.529   1.610   7.435 -0.4213  0.0103 -0.5108
 3281SOL    HW121476   3.609   1.660   7.418  0.0803 -0.0892  1.4814
 3281SOL    HW221477   3.531   1.613   7.531 -0.9664 -1.4497 -0.4517
 3282SOL     OW21478   1.901   3.993  15.924 -0.1761  0.5609 -0.0149
 3282SOL    HW121479   1.835   3.931  15.954 -0.1665  0.0963 -0.9544
 3282SOL    HW221480   1.845   4.050  15.870 -1.2673  0.0153  0.5531
 3283SOL     OW21481   2.011   4.485   5.897 -0.3485 -0.3246 -0.0212
 3283SOL    HW121482   1.939   4.548   5.895 -0.3085 -0.2574  0.5736
 3283SOL    HW221483   2.064   4.520   5.969 -1.5758  1.1107  0.1871
 3284SOL     OW21484   4.074   1.702   7.387 -0.1459 -0.3338  0.1981
 3284SOL    HW121485   4.143   1.730   7.447 -2.8045  2.3162  2.0099
 3284SOL    HW221486   4.126   1.722   7.310 -3.7731  0.6920 -1.9657
 3285SOL     OW21487   0.732   2.479  13.822 -0.0029 -0.5824 -0.3635
 3285SOL    HW121488   0.673   2.487  13.747  0.7429 -1.4265 -1.0465
 3285SOL    HW221489   0.688   2.541  13.879 -1.4528 -0.8209 -1.2282
 3286SOL     OW21490   3.843   0.932   7.008 -0.0225 -0.0645  0.0173
 3286SOL    HW121491   3.779   0.989   7.052  3.4972  2.7894  1.4283
 3286SOL    HW221492   3.888   1.003   6.964 -0.4613  0.8528  1.0326
 3287SOL     OW21493   4.071   1.247  13.482 -0.0022 -0.1579  0.3099
 3287SOL    HW121494   4.159   1.225  13.449  1.1953  1.7500  2.2882
 3287SOL    HW221495   4.061   1.341  13.471  0.0981 -0.2424 -0.5539
 3288SOL     OW21496   0.760   0.490  12.864 -0.0141 -0.1833 -0.4557
 3288SOL    HW121497   0.694   0.430  12.896 -0.6157  0.1848 -1.0165
 3288SOL    HW221498   0.768   0.472  12.770  0.0076 -1.1168 -0.2676
 3289SOL     OW21499   3.584   3.188   8.223  0.0587  0.5648 -0.3092
 3289SOL    HW121500   3.578   3.240   8.303  3.8370 -0.8443  0.9063
 3289SOL    HW221501   3.533   3.111   8.249  0.4528 -0.3560 -2.2553
 3290SOL     OW21502   0.368   4.298   1.738  0.1406 -0.2862  0.2239
 3290SOL    HW121503   0.416   4.356   1.679  0.3876 -0.5906  0.1230
 3290SOL    HW221504   0.284   4.283   1.695  1.1470 -2.0249 -1.2044
 3291SOL     OW21505   2.131   0.653   5.148  0.1378  0.1523  0.2258
 3291SOL    HW121506   2.179   0.679   5.226  1.0540 -2.3999  0.5118
 3291SOL    HW221507   2.116   0.733   5.098 -1.0290  0.6582  1.3796
 3292SOL     OW21508   4.346   1.677   5.483 -0.1905  0.0895 -0.6712
 3292SOL    HW121509   4.262   1.645   5.450 -0.3081 -3.9067  3.4466
 3292SOL    HW221510   4.359   1.609   5.550 -0.7348  1.5928  0.9369
 3293SOL     OW21511   4.354   2.637  11.028 -0.0271 -0.2544 -0.0474
 3293SOL    HW121512   4.443   2.647  10.994  0.7571 -3.5456  1.0006
 3293SOL    HW221513   4.336   2.721  11.070  2.0084 -0.8221  1.9344
 3294SOL     OW21514   1.862   3.559   7.608 -0.1392 -0.0841  0.2303
 3294SOL    HW121515   1.822   3.532   7.690 -0.1604 -1.3988 -0.2235
 3294SOL    HW221516   1.791   3.533   7.548  0.1517 -0.3607  0.0076
 3295SOL     OW21517   1.780   2.802  11.660 -0.4597 -0.0977  0.3633
 3295SOL    HW121518   1.859   2.844  11.625 -0.5008 -0.2585  0.0809
 3295SOL    HW221519   1.764   2.749  11.583  1.6493 -1.2466  0.7218
 3296SOL     OW21520   3.122   4.407   8.664 -0.6263  0.2685 -0.1862
 3296SOL    HW121521   3.084   4.495   8.664 -0.5774  0.2893 -1.2187
 3296SOL    HW221522   3.077   4.372   8.588 -0.4497 -0.4152  0.0249
 3297SOL     OW21523   2.403   3.734   2.779 -0.5131 -0.5227  0.2866
 3297SOL    HW121524   2.477   3.742   2.718  0.4315  0.7152  1.5830
 3297SOL    HW221525   2.331   3.713   2.721  0.5410 -2.0506 -0.4723
 3298SOL     OW21526   0.350   4.056   5.014 -0.0654 -0.2094  0.1151
 3298SOL    HW121527   0.367   3.974   5.059  0.7312 -0.6386 -0.9879
 3298SOL    HW221528   0.299   4.025   4.939  0.9330 -1.0842 -0.1948
 3299SOL     OW21529   2.956   0.997   7.944 -0.4738  0.3947 -0.2762
 3299SOL    HW121530   2.908   0.995   8.027  0.5255  0.0821  0.2987
 3299SOL    HW221531   2.981   1.089   7.932 -3.0289  1.4442  2.4673
 3300SOL     OW21532   1.903   2.792  17.242 -0.6580  0.5198  0.1237
 3300SOL    HW121533   1.994   2.816  17.227 -0.1129 -1.4580  0.2625
 3300SOL    HW221534   1.858   2.822  17.163 -1.0914  1.5956  0.7798
 3301SOL     OW21535   0.247   0.940   7.201 -0.3084 -0.5161 -0.2416
 3301SOL    HW121536   0.326   0.994   7.201  0.1860 -1.2479 -2.0228
 3301SOL    HW221537   0.218   0.949   7.292 -3.1164 -0.1304 -1.1689
 3302SOL     OW21538   3.313   3.700   9.130  0.3111 -0.3412  0.3391
 3302SOL    HW121539   3.266   3.696   9.047  1.4525 -1.1928 -0.2677
 3302SOL    HW221540   3.354   3.786   9.129  0.6862 -0.5356 -0.6940
 3303SOL     OW21541   3.479   0.565   3.847  0.0830 -0.0826  0.2057
 3303SOL    HW121542   3.484   0.641   3.789  0.1430  0.7012  1.2366
 3303SOL    HW221543   3.399   0.521   3.817  0.0467 -1.4889  2.3319
 3304SOL     OW21544   3.564   3.410   3.748  0.4474  0.0998 -0.5497
 3304SOL    HW121545   3.636   3.439   3.691  3.1160 -0.6922  2.4185
 3304SOL    HW221546   3.542   3.487   3.800  0.0303  0.3613 -1.1111
 3305SOL     OW21547   3.624   0.994   7.680 -0.0207 -0.0831 -0.4283
 3305SOL    HW121548   3.681   0.953   7.745 -0.8772  2.1664  1.7522
 3305SOL    HW221549   3.574   0.921   7.643  0.6136 -0.7339 -0.0007
 3306SOL     OW21550   0.038   3.564   2.448  0.3946 -0.6669  0.0596
 3306SOL    HW121551   0.031   3.515   2.529 -0.9332 -0.6265 -0.0320
 3306SOL    HW221552   0.123   3.605   2.460 -0.0539  0.3343 -0.1547
 3307SOL     OW21553   4.429   2.042  16.071 -0.4854  0.0677 -0.4185
 3307SOL    HW121554   4.429   1.972  16.137 -3.2377 -0.5032 -1.0149
 3307SOL    HW221555   4.334   2.049  16.060 -0.6976 -1.0001  0.6597
 3308SOL     OW21556   1.851   0.391   6.105  0.4354  0.0824 -0.4329
 3308SOL    HW121557   1.906   0.318   6.133  0.7209 -0.7228 -3.0661
 3308SOL    HW221558   1.770   0.347   6.130  1.8885 -1.4426  1.5915
 3309SOL     OW21559   4.374   2.001   6.934 -0.4768  0.4001  0.3022
 3309SOL    HW121560   4.422   1.921   6.953 -0.3291 -0.4387 -3.7128
 3309SOL    HW221561   4.377   2.051   7.016 -1.2446  1.1309 -0.1167
 3310SOL     OW21562   4.479   0.219   5.269  0.3910 -0.2935 -0.4298
 3310SOL    HW121563   4.511   0.204   5.358  1.5494  0.9793 -0.6423
 3310SOL    HW221564   4.480   0.128   5.239 -0.2142 -0.5777  0.4017
 3311SOL     OW21565   0.787   4.040  11.719 -0.1180 -0.6099 -0.3253
 3311SOL    HW121566   0.731   3.967  11.693 -1.2711  0.1010  0.1604
 3311SOL    HW221567   0.793   4.021  11.813  1.1068 -0.3452 -0.3426
 3312SOL     OW21568   2.136   0.597  10.191 -0.1553 -0.2907 -0.1546
 3312SOL    HW121569   2.171   0.678  10.154  0.2796 -0.6992 -0.6370
 3312SOL    HW221570   2.133   0.548  10.109  0.0159  1.1567 -1.0275
 3313SOL     OW21571   0.270   2.155   7.630 -0.1943  0.1730  0.2175
 3313SOL    HW121572   0.363   2.181   7.631  0.0790 -0.8121  0.0381
 3313SOL    HW221573   0.279   2.067   7.595 -2.2924  1.1990 -2.8679
 3314SOL     OW21574   1.081   0.584   9.386  0.3455 -0.0627 -0.4539
 3314SOL    HW121575   1.114   0.672   9.374 -0.8950  0.3678 -0.7369
 3314SOL    HW221576   1.122   0.558   9.468 -0.7035 -3.1684 -0.8858
 3315SOL     OW21577   1.953   3.581   5.178 -0.2088 -0.4728  0.2637
 3315SOL    HW121578   1.903   3.615   5.103 -2.0180 -1.9858  0.8009
 3315SOL    HW221579   1.903   3.507   5.212  1.0849 -1.8821 -0.9257
 3316SOL     OW21580   4.443   0.469   7.570  0.3506  0.1367  0.8106
 3316SOL    HW121581   4.407   0.385   7.539  0.8769  0.2734 -0.1828
 3316SOL    HW221582   4.389   0.501   7.642  0.0828 -0.3165  0.8127
 3317SOL     OW21583   4.633   2.913  10.696 -0.4130  0.3930  0.2380
 3317SOL    HW121584   4.643   2.991  10.642  0.9582 -0.1950 -0.3747
 3317SOL    HW221585   4.586   2.943  10.774 -0.1460  0.6689  0.2924
 3318SOL     OW21586   2.550   0.456   2.485  0.0337 -0.5052 -0.0494
 3318SOL    HW121587   2.597   0.534   2.513 -0.7875 -0.7005  1.8193
 3318SOL    HW221588   2.624   0.431   2.429  1.0075  2.3065  0.0034
 3319SOL     OW21589   3.626   0.999   3.697 -0.3111  0.3171 -0.2938
 3319SOL    HW121590   3.612   0.950   3.616  0.6193  0.3879 -0.4922
 3319SOL    HW221591   3.537   1.021   3.725 -0.8270 -1.6175 -0.4575
 3320SOL     OW21592   3.348   2.941   6.189 -0.1531  0.3551  0.1129
 3320SOL    HW121593   3.263   2.969   6.152 -0.2076 -0.5111 -0.4057
 3320SOL    HW221594   3.326   2.850   6.170 -1.5110  0.5018  0.9784
 3321SOL     OW21595   4.206   4.701   2.196 -0.1577  0.1901 -0.2650
 3321SOL    HW121596   4.279   4.739   2.246 -0.7318  1.0632 -0.0964
 3321SOL    HW221597   4.239   4.697   2.106 -1.5249  0.5172 -0.7824
 3322SOL     OW21598   4.659   1.902   7.369 -0.2886  0.6396  0.0752
 3322SOL    HW121599   4.671   1.985   7.414  1.9570  1.1990 -1.5370
 3322SOL    HW221600   4.630   1.843   7.438  1.1742 -0.6320 -0.3862
 3323SOL     OW21601   3.356   1.653   8.097 -0.4671 -0.1870 -0.5078
 3323SOL    HW121602   3.334   1.611   8.013 -2.1822 -1.3058  0.5034
 3323SOL    HW221603   3.424   1.716   8.072 -0.3542 -0.0036  0.2879
 3324SOL     OW21604   4.230   3.394   3.705 -0.0427  0.1467  0.0688
 3324SOL    HW121605   4.280   3.354   3.776  2.0457  0.7852 -1.0523
 3324SOL    HW221606   4.255   3.352   3.623 -0.7223 -0.9424  0.4303
 3325SOL     OW21607   0.213   2.117   9.597 -0.7366  0.1338 -0.6543
 3325SOL    HW121608   0.142   2.176   9.571 -0.7962  0.0051 -0.7802
 3325SOL    HW221609   0.221   2.055   9.525 -2.2641 -0.1100 -0.6283
 3326SOL     OW21610   2.556   2.944   7.668  0.0928 -0.2268 -0.4794
 3326SOL    HW121611   2.637   2.951   7.718 -1.4593  2.8734  1.5996
 3326SOL    HW221612   2.600   2.946   7.583 -0.3525  0.2592 -0.6937
 3327SOL     OW21613   2.334   0.838   3.793 -0.1112  0.0086  0.4729
 3327SOL    HW121614   2.368   0.908   3.736  2.5634 -0.9294  0.9202
 3327SOL    HW221615   2.414   0.822   3.843 -0.5525 -0.7158  0.9269
 3328SOL     OW21616   2.080   4.699  10.340 -0.1041  0.1287  0.4858
 3328SOL    HW121617   2.012   4.632  10.343 -1.3316  1.4752  2.0984
 3328SOL    HW221618   2.155   4.646  10.367  0.7207  0.6312 -0.7935
 3329SOL     OW21619   3.407   0.352   6.945 -0.2291 -0.3305  0.2945
 3329SOL    HW121620   3.407   0.327   7.038 -1.4772  0.6084  0.5414
 3329SOL    HW221621   3.328   0.312   6.910 -2.1506 -0.5887  4.8840
 3330SOL     OW21622   0.996   2.866   9.828 -0.2734 -0.8553 -0.2180
 3330SOL    HW121623   1.000   2.955   9.863 -0.4761 -0.9772  0.1123
 3330SOL    HW221624   0.901   2.857   9.835 -0.6629  2.7372 -1.0364
 3331SOL     OW21625   0.470   1.370   3.793 -0.4816  0.5181  0.2326
 3331SOL    HW121626   0.494   1.391   3.883 -1.2088  1.0615  0.3031
 3331SOL    HW221627   0.555   1.368   3.749 -0.3802  1.2758  0.3950
 3332SOL     OW21628   0.105   1.452   5.833  0.1782  0.0177 -0.5238
 3332SOL    HW121629   0.046   1.515   5.793 -1.1540 -0.0613  1.3475
 3332SOL    HW221630   0.033   1.392   5.855  0.3728 -0.4636 -1.1745
 3333SOL     OW21631   2.933   1.399   7.211  0.2116 -0.0422  0.1098
 3333SOL    HW121632   2.908   1.309   7.231  0.2195 -0.3098 -1.1171
 3333SOL    HW221633   2.926   1.383   7.117  0.4513 -0.2619  0.1298
 3334SOL     OW21634   3.265   2.366  14.189 -0.2209 -0.0418  0.3592
 3334SOL    HW121635   3.358   2.376  14.170 -0.3654 -0.0101 -0.3357
 3334SOL    HW221636   3.245   2.443  14.243 -1.4452 -1.0389  1.3126
 3335SOL     OW21637   4.197   4.350   9.026 -0.6145 -0.1507 -0.0637
 3335SOL    HW121638   4.253   4.423   8.999  0.8909 -1.2504  0.0513
 3335SOL    HW221639   4.154   4.380   9.105 -3.4780  0.4243 -1.8552
 3336SOL     OW21640   2.819   3.379   1.017 -0.0241 -0.3432  0.3792
 3336SOL    HW121641   2.766   3.329   1.079  1.0245  0.3555  1.8341
 3336SOL    HW221642   2.867   3.433   1.080  1.5961  0.3364 -1.4215
 3337SOL     OW21643   0.519   3.452   4.839  0.6508  0.0419  0.3395
 3337SOL    HW121644   0.573   3.373   4.846  0.4813 -0.1737 -0.7521
 3337SOL    HW221645   0.568   3.519   4.793  1.4859 -1.2211 -0.6018
 3338SOL     OW21646   1.394   1.743   5.879 -0.0189  0.3429 -0.2819
 3338SOL    HW121647   1.420   1.726   5.788 -2.1153 -0.8992 -0.6498
 3338SOL    HW221648   1.314   1.793   5.864 -0.3951 -1.0591 -2.8681
 3339SOL     OW21649   4.570   2.292   7.682  0.7564 -0.0965 -0.1287
 3339SOL    HW121650   4.511   2.349   7.731  0.2665 -0.8496  0.1711
 3339SOL    HW221651   4.643   2.352   7.669  1.0246 -0.1081  1.2381
 3340SOL     OW21652   3.445   1.247   6.884  0.3813  0.7877 -0.1210
 3340SOL    HW121653   3.538   1.266   6.894  0.6895 -2.1716  2.2750
 3340SOL    HW221654   3.435   1.170   6.939  1.6628 -1.3508 -2.8395
 3341SOL     OW21655   2.427   1.164   3.379  0.3617  0.5586 -0.2687
 3341SOL    HW121656   2.518   1.191   3.372  0.9727 -1.2199  0.8824
 3341SOL    HW221657   2.415   1.199   3.467 -1.9493 -0.5932 -0.1072
 3342SOL     OW21658   3.412   3.889   6.265 -0.1730  0.0255  0.3179
 3342SOL    HW121659   3.318   3.891   6.250  0.0253  1.8757 -0.6845
 3342SOL    HW221660   3.422   3.864   6.357  2.4475  1.2290  0.3820
 3343SOL     OW21661   0.627   1.268   5.070 -0.5247  0.4691 -0.1287
 3343SOL    HW121662   0.580   1.211   5.010 -1.7473 -1.2439  2.4283
 3343SOL    HW221663   0.621   1.200   5.138 -0.8288  0.1603 -0.4651
 3344SOL     OW21664   2.091   1.364   3.158 -0.5221 -0.3641 -0.0943
 3344SOL    HW121665   2.040   1.414   3.221 -2.4473 -0.7775 -1.3253
 3344SOL    HW221666   2.107   1.278   3.197 -1.0015 -1.0675 -1.4086
 3345SOL     OW21667   2.033   1.009   0.831 -0.2761 -0.6698 -0.6538
 3345SOL    HW121668   2.010   0.940   0.894 -0.3339  0.1447  0.2194
 3345SOL    HW221669   1.963   0.994   0.768  0.0041  0.5462 -1.2519
 3346SOL     OW21670   4.565   2.679   7.775  0.0681  0.1926  0.4743
 3346SOL    HW121671   4.495   2.626   7.736 -2.3582  2.9387  1.1127
 3346SOL    HW221672   4.625   2.690   7.701 -1.2718  0.8610 -0.5209
 3347SOL     OW21673   2.377   0.559   3.608  0.3709  0.0613  0.0646
 3347SOL    HW121674   2.294   0.591   3.643  0.4667  0.1068  0.2507
 3347SOL    HW221675   2.349   0.469   3.592  2.1169 -0.2810 -1.1346
 3348SOL     OW21676   0.880   2.128   8.018  0.5504  0.1943  0.2224
 3348SOL    HW121677   0.964   2.083   8.026  0.1267 -0.5540  0.5361
 3348SOL    HW221678   0.831   2.076   8.083  1.4458  1.6097  2.0146
 3349SOL     OW21679   1.481   2.817   5.394  0.2760 -0.3902 -0.0096
 3349SOL    HW121680   1.484   2.787   5.303  3.7650 -0.9471  0.2548
 3349SOL    HW221681   1.406   2.876   5.393  1.3321  1.0284  3.5508
 3350SOL     OW21682   3.231   2.356   2.482 -0.0818  0.1014  0.1874
 3350SOL    HW121683   3.319   2.389   2.501  0.8485 -1.8908 -0.6341
 3350SOL    HW221684   3.222   2.298   2.559 -0.5457  0.4573  0.3970
 3351SOL     OW21685   3.501   0.695   2.709  0.6050 -0.1117 -0.3689
 3351SOL    HW121686   3.470   0.778   2.673 -1.6010 -0.1573  1.4317
 3351SOL    HW221687   3.425   0.639   2.695  0.2319  0.4575 -0.5815
 3352SOL     OW21688   2.991   4.618   9.219 -0.3657  0.2411  0.1031
 3352SOL    HW121689   2.951   4.693   9.174 -1.3580  0.5134  1.4423
 3352SOL    HW221690   2.966   4.545   9.163  0.3826 -0.1930  0.3416
 3353SOL     OW21691   4.318   2.313   1.628  0.1510 -0.0372 -0.1170
 3353SOL    HW121692   4.342   2.351   1.713 -2.9472  1.4571  0.1095
 3353SOL    HW221693   4.227   2.284   1.632  0.0153  0.5559  1.0574
 3354SOL     OW21694   3.543   0.727   3.598  0.0786 -0.0965  0.0239
 3354SOL    HW121695   3.508   0.793   3.538  0.7192 -1.1265 -1.4647
 3354SOL    HW221696   3.605   0.680   3.543  0.6559  0.0157  0.5767
 3355SOL     OW21697   2.866   2.912   9.492  0.1442  0.2869  0.5736
 3355SOL    HW121698   2.959   2.932   9.479 -0.3218  0.8256 -1.9208
 3355SOL    HW221699   2.867   2.817   9.506 -0.7811  0.0421 -1.0442
 3356SOL     OW21700   3.222   3.070   8.764 -0.2938  0.5720  0.2247
 3356SOL    HW121701   3.265   3.077   8.849  1.2667  0.8897 -0.5933
 3356SOL    HW221702   3.132   3.070   8.797  0.2079  0.1115  1.5711
 3357SOL     OW21703   1.339   3.596  17.202  0.3612  0.5646  0.3968
 3357SOL    HW121704   1.403   3.549  17.256 -1.6373 -1.5809  0.8663
 3357SOL    HW221705   1.282   3.627  17.272 -1.0118 -0.2298 -0.3662
 3358SOL     OW21706   2.834   3.199  12.169 -0.2311  0.2857 -0.3062
 3358SOL    HW121707   2.927   3.203  12.191 -0.3070  0.9182 -0.0849
 3358SOL    HW221708   2.801   3.135  12.233  2.2839 -0.2917  0.3951
 3359SOL     OW21709   3.967   2.882   7.828  0.2063  0.1063 -0.3562
 3359SOL    HW121710   4.008   2.841   7.751 -1.7928 -0.7724 -0.9505
 3359SOL    HW221711   3.901   2.816   7.849  0.8701 -0.4499 -0.0157
 3360SOL     OW21712   0.767   4.211   1.176 -0.4598  0.9016 -0.2861
 3360SOL    HW121713   0.832   4.278   1.156  0.2357  0.0943 -0.7654
 3360SOL    HW221714   0.753   4.229   1.269 -2.7067 -0.7270 -0.3035
 3361SOL     OW21715   3.781   1.287   2.909  0.0863 -0.2281  0.7799
 3361SOL    HW121716   3.841   1.276   2.835 -1.9859 -2.9968 -0.5252
 3361SOL    HW221717   3.839   1.270   2.983 -0.6398  2.1540  1.9075
 3362SOL     OW21718   1.204   0.602   1.110 -0.4341  0.0504  0.8334
 3362SOL    HW121719   1.209   0.511   1.138  1.3372  0.6117  2.3445
 3362SOL    HW221720   1.183   0.586   1.018  0.5107 -0.1505  0.6486
 3363SOL     OW21721   0.811   1.848   3.954  0.5587 -0.5251 -0.4475
 3363SOL    HW121722   0.761   1.830   3.875  1.6060 -0.0829 -1.2040
 3363SOL    HW221723   0.753   1.823   4.026  2.2930 -2.0742  0.3916
 3364SOL     OW21724   3.593   0.478   2.480  0.2591  0.1152  0.2584
 3364SOL    HW121725   3.686   0.456   2.479  0.7396  2.3447 -1.4854
 3364SOL    HW221726   3.594   0.550   2.543  2.2546 -0.8739  1.3449
 3365SOL     OW21727   2.321   2.840  12.406 -0.4587  0.4161 -0.4802
 3365SOL    HW121728   2.346   2.894  12.480 -2.2652  2.2416 -1.1945
 3365SOL    HW221729   2.371   2.884  12.337  1.8992 -1.4026  0.0488
 3366SOL     OW21730   3.310   4.266  10.877  0.4068  0.4136 -0.0494
 3366SOL    HW121731   3.328   4.298  10.965 -0.4867 -0.4373  0.4479
 3366SOL    HW221732   3.316   4.346  10.824 -2.0807  0.9832  0.5571
 3367SOL     OW21733   4.330   3.754   3.601  0.8366  0.0367 -0.4336
 3367SOL    HW121734   4.340   3.666   3.564  0.8571  0.0278 -0.4068
 3367SOL    HW221735   4.370   3.752   3.688 -1.2878  2.2442  0.5910
 3368SOL     OW21736   3.723   3.764   7.061 -0.3382  0.3691 -0.3989
 3368SOL    HW121737   3.805   3.755   7.111 -1.3078  1.2348  1.3443
 3368SOL    HW221738   3.739   3.716   6.980  3.2897  0.0190  0.4807
 3369SOL     OW21739   1.168   3.592   9.130 -0.2917 -0.1143  0.3092
 3369SOL    HW121740   1.217   3.555   9.057 -0.2665  1.9006 -0.7033
 3369SOL    HW221741   1.226   3.567   9.202 -1.3809 -0.8128  0.9561
 3370SOL     OW21742   3.978   2.356   3.897  0.2399  0.7604  0.5973
 3370SOL    HW121743   4.039   2.370   3.824 -1.0494 -1.3536 -0.8821
 3370SOL    HW221744   3.900   2.383   3.849 -0.0758  1.1011  1.3017
 3371SOL     OW21745   0.939   2.869  11.235 -0.2057 -0.2200  0.9825
 3371SOL    HW121746   0.989   2.899  11.311  0.5123  1.7266 -0.2411
 3371SOL    HW221747   0.930   2.776  11.256 -1.1684 -0.2062  0.6237
 3372SOL     OW21748   0.740   4.186  10.501  0.0493  0.0286 -0.2607
 3372SOL    HW121749   0.681   4.220  10.568  0.8116  2.7023 -0.9192
 3372SOL    HW221750   0.778   4.109  10.542 -0.6748  0.4236  1.1497
 3373SOL     OW21751   1.886   1.243   9.655 -0.2983  0.0329  0.2948
 3373SOL    HW121752   1.808   1.189   9.642 -0.2882  1.2112 -4.3350
 3373SOL    HW221753   1.898   1.271   9.565  1.3476 -0.7741  0.2636
 3374SOL     OW21754   0.372   1.628   9.676  0.1638 -0.4499 -0.6210
 3374SOL    HW121755   0.369   1.687   9.601 -0.6622  1.0758  0.6126
 3374SOL    HW221756   0.280   1.611   9.697 -0.1358  0.5546 -1.1465
 3375SOL     OW21757   0.712   4.585  16.504  0.0089  0.1623 -0.3015
 3375SOL    HW121758   0.773   4.597  16.576  0.5141 -1.3174 -0.4805
 3375SOL    HW221759   0.680   4.673  16.485 -1.7260 -0.0157  1.7781
 3376SOL     OW21760   4.459   4.518   1.551  0.4962 -0.6895 -0.1828
 3376SOL    HW121761   4.499   4.481   1.630 -0.7350 -1.2822  0.1506
 3376SOL    HW221762   4.412   4.591   1.590  0.0903 -0.9956 -0.0953
 3377SOL     OW21763   1.110   3.933   5.248  0.6606 -0.9898  0.0378
 3377SOL    HW121764   1.162   3.913   5.326 -0.0580 -0.6822  0.5987
 3377SOL    HW221765   1.094   3.845   5.214  0.9476 -0.5512 -1.2492
 3378SOL     OW21766   1.174   1.219   7.596  0.7065  0.3216  0.2813
 3378SOL    HW121767   1.091   1.249   7.558  0.2055  0.1751  1.2528
 3378SOL    HW221768   1.172   1.125   7.578  0.5672  0.3929 -0.0720
 3379SOL     OW21769   2.037   2.040   4.714  0.0180  0.5021  0.2848
 3379SOL    HW121770   2.055   1.947   4.701  0.0876  0.5668 -0.0816
 3379SOL    HW221771   1.966   2.055   4.651 -1.2233 -2.3533  1.0101
 3380SOL     OW21772   1.552   3.047  14.563 -0.2271  0.3854 -0.0169
 3380SOL    HW121773   1.501   3.125  14.585  0.0925  0.3633  0.7822
 3380SOL    HW221774   1.581   3.072  14.475 -1.0891 -1.6968 -0.8953
 3381SOL     OW21775   0.298   2.928  15.549 -0.2483  0.3785 -0.1660
 3381SOL    HW121776   0.266   3.013  15.579  1.1946 -0.0365  2.4882
 3381SOL    HW221777   0.319   2.886  15.632 -0.6485 -0.3383 -0.4260
 3382SOL     OW21778   2.993   4.264   5.471 -0.0601 -0.4550 -0.7315
 3382SOL    HW121779   2.991   4.284   5.377  0.4028  1.5397 -0.3354
 3382SOL    HW221780   2.992   4.169   5.474  0.5693 -0.3928  1.3313
 3383SOL     OW21781   2.931   2.854   4.351 -0.4796 -0.1151  0.4208
 3383SOL    HW121782   2.939   2.762   4.374 -1.1904 -0.2847 -0.0138
 3383SOL    HW221783   2.920   2.892   4.438 -1.7668  0.6953 -0.0995
 3384SOL     OW21784   3.134   1.676   1.591  0.1197 -0.5931 -0.1529
 3384SOL    HW121785   3.206   1.716   1.640  0.4649 -0.0078 -1.1498
 3384SOL    HW221786   3.097   1.617   1.657 -0.0024  0.3481  0.6205
 3385SOL     OW21787   4.250   4.723   2.516 -0.3103  0.1269 -0.7605
 3385SOL    HW121788   4.276   0.011   2.604  0.2217 -0.4334 -0.7271
 3385SOL    HW221789   4.250   4.629   2.535 -2.7568  0.1424 -0.6960
 3386SOL     OW21790   3.600   0.295   3.709 -0.6007 -0.5326 -0.2044
 3386SOL    HW121791   3.559   0.279   3.624 -0.7218 -1.6623  0.0726
 3386SOL    HW221792   3.526   0.288   3.768 -0.2137 -0.3811  0.2973
 3387SOL     OW21793   0.311   4.633   5.957 -0.3399 -0.1609  0.4016
 3387SOL    HW121794   0.375   4.687   5.911  0.3063 -2.5254 -1.4813
 3387SOL    HW221795   0.320   4.561   5.895 -1.3184 -1.0319  1.2771
 3388SOL     OW21796   2.219   0.888   8.308  0.5803 -0.0960  0.7393
 3388SOL    HW121797   2.141   0.931   8.273  1.1607  0.0741 -0.3260
 3388SOL    HW221798   2.216   0.898   8.403 -1.9928  2.2465  0.4068
 3389SOL     OW21799   3.136   2.793   7.864 -0.0702 -0.3478 -0.0866
 3389SOL    HW121800   3.205   2.794   7.931 -1.6392 -0.0510  1.5200
 3389SOL    HW221801   3.181   2.796   7.780 -0.1634 -0.5285 -0.1432
 3390SOL     OW21802   0.852   4.284  15.393 -0.2907  0.3565 -0.1121
 3390SOL    HW121803   0.840   4.375  15.366  0.5136  1.0386  1.7931
 3390SOL    HW221804   0.769   4.270  15.438 -0.9799 -0.8496 -1.7874
 3391SOL     OW21805   2.076   0.377   9.642  0.5154 -0.2067 -0.0406
 3391SOL    HW121806   2.076   0.444   9.574 -0.7350  0.7716  0.9215
 3391SOL    HW221807   2.148   0.396   9.702  1.7734  1.5796 -2.1307
 3392SOL     OW21808   3.325   4.187  12.086 -0.1642  0.4929 -0.6147
 3392SOL    HW121809   3.398   4.249  12.085 -0.7808  1.2282 -0.0334
 3392SOL    HW221810   3.377   4.109  12.067  0.0437  0.4015  0.3558
 3393SOL     OW21811   4.231   4.641  11.107  0.1096  0.5335 -0.3068
 3393SOL    HW121812   4.296   4.703  11.140 -1.1631  0.6245  1.9789
 3393SOL    HW221813   4.273   4.597  11.033  0.2213 -0.2345  0.2185
 3394SOL     OW21814   3.842   3.950   1.286  0.1386  0.1411 -0.1791
 3394SOL    HW121815   3.826   4.041   1.307 -0.7235  0.3086 -1.5616
 3394SOL    HW221816   3.773   3.906   1.335 -0.3593  0.6560 -0.4274
 3395SOL     OW21817   2.675   3.679   4.174  0.2725  0.7371 -0.3401
 3395SOL    HW121818   2.595   3.720   4.208 -0.6154 -0.8448 -0.5323
 3395SOL    HW221819   2.663   3.668   4.080 -0.7883 -0.0473 -0.1085
 3396SOL     OW21820   2.501   1.279   7.565 -0.5504 -0.3678  0.1537
 3396SOL    HW121821   2.526   1.371   7.559 -0.1641 -0.5867 -1.5910
 3396SOL    HW221822   2.567   1.248   7.627  1.2154  1.0721 -0.9923
 3397SOL     OW21823   0.839   4.546   9.235 -0.4479  0.0722  0.3109
 3397SOL    HW121824   0.779   4.600   9.184  1.1125  0.1131 -1.4886
 3397SOL    HW221825   0.923   4.579   9.203  0.2042 -0.0606  1.8969
 3398SOL     OW21826   2.780   2.135   6.054 -0.4501 -0.0885 -0.1916
 3398SOL    HW121827   2.769   2.208   5.994  1.0830  1.4151  1.3462
 3398SOL    HW221828   2.796   2.068   5.988  0.7673 -0.1951  0.2046
 3399SOL     OW21829   3.451   1.816  15.690 -0.6950  0.1546  0.4467
 3399SOL    HW121830   3.474   1.755  15.760 -1.0612 -2.0309 -1.3706
 3399SOL    HW221831   3.356   1.804  15.691 -0.7654  1.0486  4.0225
 3400SOL     OW21832   4.550   2.096   1.941  0.0583  0.6734 -0.3259
 3400SOL    HW121833   4.498   2.174   1.956  1.0382  0.9047  1.8826
 3400SOL    HW221834   4.621   2.138   1.891  1.0916  0.9784  1.4228
 3401SOL     OW21835   0.027   2.228   5.137  0.6366 -0.2841 -0.5180
 3401SOL    HW121836   4.699   2.163   5.127 -0.0217  0.1551  1.3782
 3401SOL    HW221837   4.716   2.308   5.140 -1.5722 -1.7154 -1.3524
 3402SOL     OW21838   0.038   2.269   7.941 -0.5341 -0.3045  0.3797
 3402SOL    HW121839   4.737   2.270   8.027 -1.4639  1.4046 -0.0940
 3402SOL    HW221840   0.019   2.181   7.910  0.0302 -0.1568 -0.3776
 3403SOL     OW21841   2.515   0.388  14.220  0.2581 -0.4620 -0.4391
 3403SOL    HW121842   2.523   0.479  14.191 -1.4175 -0.3058 -0.4390
 3403SOL    HW221843   2.441   0.358  14.166  0.7826 -1.7480 -0.4508
 3404SOL     OW21844   0.831   2.112   2.034 -0.1500  0.2302 -0.2550
 3404SOL    HW121845   0.816   2.162   1.953 -1.1376 -1.5541 -1.1791
 3404SOL    HW221846   0.772   2.156   2.095  0.1919 -1.6270  1.3834
 3405SOL     OW21847   1.495   2.374   8.338 -0.2592 -0.4061  0.7015
 3405SOL    HW121848   1.577   2.328   8.355  0.6976  1.2711  0.6732
 3405SOL    HW221849   1.531   2.431   8.270  1.6582 -1.2267  1.0378
 3406SOL     OW21850   1.296   1.646   6.716  0.2934  0.4573  0.6363
 3406SOL    HW121851   1.382   1.635   6.676 -1.4216  0.8075 -3.1514
 3406SOL    HW221852   1.274   1.734   6.684 -1.5233  0.3795  1.6335
 3407SOL     OW21853   3.028   3.115   6.753  0.4133  0.5231  0.0395
 3407SOL    HW121854   3.022   3.021   6.735 -1.3956  1.0107 -1.8703
 3407SOL    HW221855   3.053   3.105   6.845 -2.8296 -1.3574  0.7456
 3408SOL     OW21856   3.978   0.477   5.169  0.1239 -0.1316 -0.3246
 3408SOL    HW121857   3.921   0.514   5.236 -0.1430  2.3671 -1.9051
 3408SOL    HW221858   4.060   0.479   5.217 -0.2679 -1.8554  0.4159
 3409SOL     OW21859   3.410   0.713   7.389  0.3507  0.4492  0.0619
 3409SOL    HW121860   3.336   0.688   7.444 -0.6143  0.6094 -1.1399
 3409SOL    HW221861   3.361   0.691   7.310 -0.8006  2.8698  0.0991
 3410SOL     OW21862   4.526   4.740   1.988  0.3697 -0.0185  0.6271
 3410SOL    HW121863   4.499   4.650   1.968 -2.4947  1.6228 -2.9188
 3410SOL    HW221864   4.493   0.010   2.077 -2.8721  0.1608 -0.5735
 3411SOL     OW21865   2.128   4.469   6.812  0.1073  0.0533  0.2857
 3411SOL    HW121866   2.180   4.394   6.783 -0.8139 -0.0278 -1.2018
 3411SOL    HW221867   2.185   4.529   6.859 -1.9392  0.9736  1.5907
 3412SOL     OW21868   1.470   3.768   5.621 -0.5189 -0.2269  0.0974
 3412SOL    HW121869   1.452   3.860   5.600  0.7087  0.0254  0.1766
 3412SOL    HW221870   1.564   3.764   5.606 -0.7886  0.9752 -1.8878
 3413SOL     OW21871   0.216   1.672   4.062 -0.1778 -0.2575  0.4653
 3413SOL    HW121872   0.128   1.641   4.081  0.3792 -0.7838  2.2110
 3413SOL    HW221873   0.253   1.598   4.014  0.1513  0.8922 -1.0494
 3414SOL     OW21874   0.763   0.953   6.674  0.4926  0.3256  0.1853
 3414SOL    HW121875   0.840   0.942   6.729  1.0427  1.4126 -0.3698
 3414SOL    HW221876   0.798   0.961   6.585  0.3116  0.3697  0.1167
 3415SOL     OW21877   1.334   2.074  15.135 -0.2892 -0.1228  0.1351
 3415SOL    HW121878   1.412   2.024  15.113 -0.3662  0.1979 -0.8613
 3415SOL    HW221879   1.297   2.096  15.050 -3.5139 -1.8253  1.0977
 3416SOL     OW21880   3.806   2.140   2.869 -0.6061 -0.1334  0.3932
 3416SOL    HW121881   3.837   2.231   2.865  2.8532 -1.3392  0.6148
 3416SOL    HW221882   3.848   2.108   2.948  0.3713 -0.4191 -0.2511
 3417SOL     OW21883   4.075   0.487   4.415  0.6786  0.1652 -0.6121
 3417SOL    HW121884   4.072   0.572   4.372  2.0507  0.6774  0.2669
 3417SOL    HW221885   4.106   0.520   4.500 -0.8536  2.3042 -0.8844
 3418SOL     OW21886   1.501   4.349   5.661  0.1935  0.0185 -0.4935
 3418SOL    HW121887   1.578   4.371   5.713  0.2211 -1.1359 -0.0252
 3418SOL    HW221888   1.426   4.332   5.718 -0.3465  0.7644 -0.9896
 3419SOL     OW21889   1.804   0.008   6.267  0.0196  0.0129  0.2376
 3419SOL    HW121890   1.858   0.086   6.253 -0.1418 -0.0898 -0.9818
 3419SOL    HW221891   1.712   0.035   6.267  0.2768  0.8574 -2.3430
 3420SOL     OW21892   3.565   3.331   7.213 -0.4176 -0.3018 -0.4854
 3420SOL    HW121893   3.478   3.315   7.249 -0.6864 -2.1276 -1.9885
 3420SOL    HW221894   3.619   3.272   7.266 -0.4085 -0.7927 -1.0394
 3421SOL     OW21895   4.133   2.829  16.644  0.5475  0.0777 -0.6030
 3421SOL    HW121896   4.140   2.760  16.709  0.9494  0.3824 -0.3179
 3421SOL    HW221897   4.178   2.795  16.567  0.0634  1.2559 -1.4138
 3422SOL     OW21898   1.229   2.847   9.138 -0.1434  0.3834  0.7080
 3422SOL    HW121899   1.270   2.762   9.124 -0.5119 -0.2040  3.1906
 3422SOL    HW221900   1.138   2.823   9.121 -0.2600  0.6547  0.9434
 3423SOL     OW21901   2.323   4.356   9.292 -0.6758 -0.3539 -0.1386
 3423SOL    HW121902   2.325   4.450   9.312  0.4471 -0.4826  0.3558
 3423SOL    HW221903   2.230   4.342   9.275 -1.1224  0.6273  1.3951
 3424SOL     OW21904   4.608   1.235  16.334  0.2505 -0.0758 -0.3066
 3424SOL    HW121905   4.526   1.215  16.289  2.0144  0.3913 -3.7181
 3424SOL    HW221906   4.567   1.299  16.393 -1.4174 -0.6924 -0.7913
 3425SOL     OW21907   0.144   3.302   2.777  0.3747  0.3436  0.0434
 3425SOL    HW121908   0.067   3.244   2.779 -1.3108  2.5332 -0.9059
 3425SOL    HW221909   0.168   3.296   2.869  3.9384 -2.1658 -1.0720
 3426SOL     OW21910   3.089   4.370   4.222 -0.2268  0.5853  0.1189
 3426SOL    HW121911   3.076   4.279   4.195 -0.2797  0.7251 -0.3351
 3426SOL    HW221912   3.155   4.399   4.158  0.6812 -0.4569  0.5808
 3427SOL     OW21913   0.669   4.212   2.380 -0.0696  0.2221  0.4017
 3427SOL    HW121914   0.653   4.304   2.405  0.0309 -0.0066  1.3336
 3427SOL    HW221915   0.613   4.202   2.304  1.4064 -3.2645 -0.1983
 3428SOL     OW21916   4.147   2.318   8.011 -0.2684 -0.1540 -0.1414
 3428SOL    HW121917   4.083   2.249   7.995  1.8232 -2.1488 -0.1008
 3428SOL    HW221918   4.164   2.306   8.104  0.7157 -1.2173 -0.4487
 3429SOL     OW21919   3.970   3.811   5.854  0.1240 -0.0121 -0.7235
 3429SOL    HW121920   3.961   3.785   5.762 -0.1536  0.2142 -0.7617
 3429SOL    HW221921   3.892   3.776   5.896 -1.2609  3.0217 -0.7421
 3430SOL     OW21922   1.648   1.695   3.267  0.0604  0.1285  0.0478
 3430SOL    HW121923   1.629   1.779   3.224 -0.1947  0.7315  1.3306
 3430SOL    HW221924   1.585   1.708   3.337 -0.4006 -1.2148 -0.1190
 3431SOL     OW21925   1.295   4.433   9.719 -0.4558 -0.6799 -0.0745
 3431SOL    HW121926   1.380   4.412   9.758  0.6870 -0.1982 -2.3104
 3431SOL    HW221927   1.242   4.486   9.778  0.9774  1.1756 -0.4754
 3432SOL     OW21928   4.497   3.289   0.939 -0.1575  0.7035 -0.1597
 3432SOL    HW121929   4.509   3.246   0.854  2.4153 -0.6926  0.8956
 3432SOL    HW221930   4.457   3.220   0.992  0.6255  2.5703  2.8265
 3433SOL     OW21931   4.248   1.583  17.756 -0.1208  0.2713 -0.1332
 3433SOL    HW121932   4.209   1.621   0.071  0.1588 -1.0239  0.6255
 3433SOL    HW221933   4.338   1.574   0.023 -0.5782 -2.0755  0.4518
 3434SOL     OW21934   0.854   4.583  15.140 -0.0342 -0.4161 -0.1023
 3434SOL    HW121935   0.801   4.603  15.063 -0.5038  0.2477  0.3906
 3434SOL    HW221936   0.802   4.623  15.210 -0.5629  0.8669 -1.2291
 3435SOL     OW21937   2.995   1.022   5.114 -0.1869 -0.5579  0.5938
 3435SOL    HW121938   2.992   1.117   5.115 -0.1263 -0.5725  2.9009
 3435SOL    HW221939   2.981   1.002   5.207 -1.1391  0.5017  0.6805
 3436SOL     OW21940   0.319   1.147   5.470  0.4069 -0.1835  0.0123
 3436SOL    HW121941   0.307   1.233   5.511 -0.4970  0.4474 -1.5283
 3436SOL    HW221942   0.266   1.143   5.390  0.4478  1.1310 -0.0837
 3437SOL     OW21943   2.607   3.342   7.128  0.2994  0.0760  0.2110
 3437SOL    HW121944   2.547   3.275   7.163  0.0155  0.7454  1.0045
 3437SOL    HW221945   2.635   3.296   7.049 -0.7282  1.1532 -0.7737
 3438SOL     OW21946   2.648   1.579   8.948 -0.0491 -0.2873  0.1256
 3438SOL    HW121947   2.744   1.580   8.949 -0.0489 -1.0227  0.6977
 3438SOL    HW221948   2.626   1.666   8.913 -2.1497 -0.9530 -0.1711
 3439SOL     OW21949   0.778   4.338   5.612 -0.5944  0.5629 -0.4628
 3439SOL    HW121950   0.821   4.253   5.622  2.6247  2.0987 -1.2397
 3439SOL    HW221951   0.851   4.396   5.591 -1.3460  0.7599 -2.5096
 3440SOL     OW21952   0.923   1.649   3.695 -0.1592 -0.7024 -0.5899
 3440SOL    HW121953   0.950   1.701   3.619  1.5175 -0.7505 -0.0232
 3440SOL    HW221954   0.982   1.576   3.674 -0.5043 -1.2937  0.4967
 3441SOL     OW21955   2.621   0.270  12.733 -0.5897  0.5899 -0.0520
 3441SOL    HW121956   2.662   0.316  12.660 -1.3429  0.8633 -0.3044
 3441SOL    HW221957   2.654   0.184  12.707 -2.3896  0.1911 -1.0127
 3442SOL     OW21958   2.673   0.049   8.308 -0.5349  0.6440  0.0109
 3442SOL    HW121959   2.664   4.697   8.326 -3.0972  1.4657  2.7756
 3442SOL    HW221960   2.617   0.068   8.233  0.4343  0.4451 -0.7666
 3443SOL     OW21961   3.988   1.531   8.409 -0.9506 -0.1161 -0.1286
 3443SOL    HW121962   3.923   1.601   8.408 -0.3928  0.4199  1.2888
 3443SOL    HW221963   4.069   1.579   8.423 -0.2383 -1.6253  0.9759
 3444SOL     OW21964   1.887   0.403  10.622 -0.4737  0.0739  0.0192
 3444SOL    HW121965   1.941   0.332  10.588  0.1679  1.0976 -1.0655
 3444SOL    HW221966   1.879   0.381  10.715 -0.4550  3.5317  0.8450
 3445SOL     OW21967   0.865   1.399  14.857 -0.0878 -0.8303 -0.1654
 3445SOL    HW121968   0.772   1.378  14.861 -0.4595  1.1370  1.4324
 3445SOL    HW221969   0.869   1.445  14.773 -2.2280  1.1627  0.8111
 3446SOL     OW21970   1.730   1.148   5.070  0.0985  0.1221 -0.4550
 3446SOL    HW121971   1.811   1.152   5.121  1.6912  3.0594 -3.2558
 3446SOL    HW221972   1.672   1.093   5.124 -1.5720  2.7738  0.4387
 3447SOL     OW21973   4.427   3.117   5.111  0.6579 -0.3651  0.4262
 3447SOL    HW121974   4.384   3.031   5.111 -1.9497  0.9529 -0.3472
 3447SOL    HW221975   4.399   3.148   5.197 -0.0135  2.0179 -0.6585
 3448SOL     OW21976   1.169   3.223   5.327  0.7299 -0.4630  0.0753
 3448SOL    HW121977   1.142   3.217   5.235 -0.4163 -0.2895  0.3997
 3448SOL    HW221978   1.200   3.313   5.329  1.7037 -0.7835 -0.1850
 3449SOL     OW21979   4.075   1.987  17.011  0.4048  0.0366 -0.5657
 3449SOL    HW121980   4.147   2.002  17.074  0.5234 -0.0214 -0.6875
 3449SOL    HW221981   4.004   1.941  17.054  0.9667  1.5433  2.0104
 3450SOL     OW21982   3.117   2.678   5.141 -0.1738 -0.3624  0.7801
 3450SOL    HW121983   3.183   2.652   5.206 -1.9714  1.7926  3.4520
 3450SOL    HW221984   3.074   2.746   5.192 -0.3073 -0.0525  0.2556
 3451SOL     OW21985   1.726   2.077   5.698  0.1692  0.2608 -0.4097
 3451SOL    HW121986   1.732   2.047   5.607 -1.5498 -0.1520 -0.3730
 3451SOL    HW221987   1.632   2.084   5.711 -0.0463 -1.8149 -0.8658
 3452SOL     OW21988   1.355   3.945   7.607  0.3356 -1.3095 -0.3039
 3452SOL    HW121989   1.353   3.906   7.694  0.0250 -0.4946  0.0550
 3452SOL    HW221990   1.270   3.988   7.608  1.1220  0.2871 -1.4273
 3453SOL     OW21991   4.303   4.129   2.343 -0.3811 -0.3878 -0.4089
 3453SOL    HW121992   4.214   4.117   2.376 -0.0085 -0.0750  0.7423
 3453SOL    HW221993   4.276   4.154   2.255  0.8717 -0.3065 -0.7636
 3454SOL     OW21994   3.559   0.953   3.140  0.4370 -0.3288  0.4654
 3454SOL    HW121995   3.498   0.997   3.081 -0.1734 -1.6052  0.1362
 3454SOL    HW221996   3.510   0.872   3.154 -1.1317  0.4558 -0.4479
 3455SOL     OW21997   2.888   4.531   5.166 -0.0682 -0.0412  0.2653
 3455SOL    HW121998   2.808   4.506   5.119  0.6272 -1.9947  0.1120
 3455SOL    HW221999   2.915   4.448   5.206  0.7664 -0.1149 -0.4579
 3456SOL     OW22000   2.558   3.209  13.286 -0.2780  0.1067  0.2402
 3456SOL    HW122001   2.569   3.187  13.193  2.5583  2.4514  0.0184
 3456SOL    HW222002   2.602   3.294  13.284  2.2060 -1.1993 -1.4336
 3457SOL     OW22003   4.476   4.224   4.093  0.5891 -0.7113  0.7093
 3457SOL    HW122004   4.469   4.308   4.048 -0.4924  0.1659  2.4854
 3457SOL    HW222005   4.491   4.264   4.179  0.2041 -1.7259  1.2500
 3458SOL     OW22006   0.396   1.907   5.600 -0.0976 -0.2617  0.6266
 3458SOL    HW122007   0.479   1.863   5.585  0.8896  1.5016  0.8451
 3458SOL    HW222008   0.351   1.885   5.518 -0.9946  1.0764  0.7574
 3459SOL     OW22009   4.258   1.937   5.633  1.0742  0.7063  0.2264
 3459SOL    HW122010   4.210   1.949   5.551 -3.0518  2.3489  2.8561
 3459SOL    HW222011   4.324   1.873   5.607 -0.9649 -0.6805 -1.5261
 3460SOL     OW22012   3.420   2.360   7.800 -0.3619 -0.3309  0.4312
 3460SOL    HW122013   3.482   2.298   7.761  0.5658 -0.2278  1.7449
 3460SOL    HW222014   3.439   2.438   7.748  1.0433 -1.9529 -1.4992
 3461SOL     OW22015   1.426   2.098   9.447  0.1835  0.0891 -0.1156
 3461SOL    HW122016   1.516   2.130   9.441  0.2509  0.0714  0.7670
 3461SOL    HW222017   1.434   2.058   9.534  4.2281 -2.0851 -1.4691
 3462SOL     OW22018   2.399   1.932   0.608  0.1699  0.1754 -0.3488
 3462SOL    HW122019   2.307   1.949   0.630  0.2349  1.3871 -1.0250
 3462SOL    HW222020   2.432   1.903   0.693  1.3774  0.1779 -0.8245
 3463SOL     OW22021   4.619   1.766   0.818  0.3220 -0.0225  0.0595
 3463SOL    HW122022   4.557   1.694   0.806  3.1047 -2.6401  1.1512
 3463SOL    HW222023   4.562   1.836   0.848 -0.2030 -0.3705 -0.1394
 3464SOL     OW22024   1.178   0.735   5.131 -0.2956 -0.3166 -0.7191
 3464SOL    HW122025   1.121   0.739   5.208  2.7849 -1.7739  1.6297
 3464SOL    HW222026   1.240   0.669   5.161  0.3960  0.6906  0.0486
 3465SOL     OW22027   1.025   0.969   4.936 -0.7066  0.1026 -0.5748
 3465SOL    HW122028   0.971   0.917   4.997  0.1380 -1.7268 -1.3767
 3465SOL    HW222029   1.066   0.899   4.885  1.5510  1.8697 -1.1659
 3466SOL     OW22030   2.708   0.025   7.015  0.0045  0.1300 -0.1600
 3466SOL    HW122031   2.782   0.045   7.073 -1.1739  0.6305  1.1948
 3466SOL    HW222032   2.645   0.066   7.075 -1.6293 -1.8307 -0.5562
 3467SOL     OW22033   3.172   2.050   9.275  0.3094  0.5748 -0.7779
 3467SOL    HW122034   3.157   2.125   9.332 -0.7863 -0.5642  0.4249
 3467SOL    HW222035   3.182   1.976   9.334 -1.5913 -0.0293 -1.2104
 3468SOL     OW22036   2.476   0.757   6.416  0.0359 -0.1003 -0.3622
 3468SOL    HW122037   2.477   0.851   6.396  1.0449 -0.2570 -0.9938
 3468SOL    HW222038   2.560   0.728   6.383  1.1728  2.1172  0.5541
 3469SOL     OW22039   1.308   0.259  11.673 -0.7414  0.1339 -0.6265
 3469SOL    HW122040   1.295   0.166  11.688  0.1957  0.1026 -0.0366
 3469SOL    HW222041   1.232   0.298  11.717 -1.3892 -2.8324  0.8933
 3470SOL     OW22042   1.703   3.716  17.579  0.0258 -0.1125 -0.6493
 3470SOL    HW122043   1.679   3.684  17.667 -1.6415 -0.0910 -1.1014
 3470SOL    HW222044   1.791   3.679  17.577  0.4485  1.0845 -2.8545
 3471SOL     OW22045   1.493   4.227   9.834  0.6053 -0.5432 -0.3214
 3471SOL    HW122046   1.482   4.179   9.916 -0.1953  1.0813  0.5388
 3471SOL    HW222047   1.503   4.161   9.766 -1.0887 -1.0451 -0.0859
 3472SOL     OW22048   1.434   4.123   0.265  0.3382 -0.1255 -0.0118
 3472SOL    HW122049   1.438   4.174   0.184 -1.4872 -1.1923 -0.7833
 3472SOL    HW222050   1.387   4.180   0.327  0.9220  1.0763 -0.6804
 3473SOL     OW22051   3.946   3.459   0.268  0.1451  0.5956 -0.4849
 3473SOL    HW122052   3.880   3.523   0.244 -0.9747 -0.1848  0.5166
 3473SOL    HW222053   3.976   3.422   0.185 -1.7170  0.7838 -1.2362
 3474SOL     OW22054   2.644   0.413  11.769 -0.0994  0.5392 -0.1598
 3474SOL    HW122055   2.573   0.476  11.761  1.0854  1.9209  0.2067
 3474SOL    HW222056   2.695   0.436  11.847 -3.0621 -1.3900  2.3358
 3475SOL     OW22057   2.449   0.274   2.672  0.5330  0.7421 -1.0826
 3475SOL    HW122058   2.467   0.342   2.607  1.9654  0.6974 -0.7445
 3475SOL    HW222059   2.355   0.288   2.675  0.5797  0.3109  2.2226
 3476SOL     OW22060   2.336   3.218   5.647 -0.2029 -0.3849  0.0910
 3476SOL    HW122061   2.357   3.223   5.554 -2.9551  2.2265 -0.3960
 3476SOL    HW222062   2.296   3.132   5.659 -0.4432 -0.3322 -0.3429
 3477SOL     OW22063   2.604   2.277   2.154  0.3925 -0.2846  0.4446
 3477SOL    HW122064   2.680   2.302   2.206  0.7157  0.8423 -0.5637
 3477SOL    HW222065   2.542   2.350   2.150  1.2552  0.2716 -2.8874
 3478SOL     OW22066   1.555   3.280   5.264 -0.7084  0.0789  0.0285
 3478SOL    HW122067   1.461   3.293   5.265 -0.7707 -0.4365  1.2650
 3478SOL    HW222068   1.564   3.185   5.269  0.4472  0.1002 -1.5487
 3479SOL     OW22069   0.582   1.425   2.603 -0.6251 -0.0448  0.1149
 3479SOL    HW122070   0.646   1.489   2.633 -2.1936  1.2027  0.8128
 3479SOL    HW222071   0.509   1.482   2.579 -0.0179  0.5975 -0.2169
 3480SOL     OW22072   1.713   2.146   3.386  0.4371  0.2149 -0.0525
 3480SOL    HW122073   1.640   2.162   3.326  0.8150 -0.3849 -0.6728
 3480SOL    HW222074   1.691   2.206   3.458 -0.7944 -0.1786 -0.1061
 3481SOL     OW22075   0.949   3.883   3.953  0.2192 -0.6180 -0.1049
 3481SOL    HW122076   1.011   3.820   3.915  1.6126  2.0053 -2.1805
 3481SOL    HW222077   0.959   3.958   3.895  0.4402 -1.8375 -1.6665
 3482SOL     OW22078   2.942   4.571   0.905 -0.0784  0.3996 -0.0636
 3482SOL    HW122079   2.885   4.495   0.916  0.4292  0.3002  1.7292
 3482SOL    HW222080   2.879   4.644   0.903  1.0639  1.4310  2.0708
 3483SOL     OW22081   2.046   1.968   8.484  0.0396 -0.2546  0.7458
 3483SOL    HW122082   2.035   1.927   8.570  2.6600  1.3915  1.8825
 3483SOL    HW222083   2.123   1.924   8.447  1.0323  1.4653  0.7615
 3484SOL     OW22084   3.204   4.394   9.539 -0.1589  0.7902  0.1968
 3484SOL    HW122085   3.148   4.402   9.617  1.1916 -0.4860  1.3054
 3484SOL    HW222086   3.291   4.425   9.565  0.2822  0.3692 -0.7935
 3485SOL     OW22087   1.654   2.497   5.203 -0.7378  0.2470 -0.1035
 3485SOL    HW122088   1.583   2.557   5.179 -1.4879 -0.1423  1.1631
 3485SOL    HW222089   1.697   2.563   5.258 -0.5557 -1.0378  1.2795
 3486SOL     OW22090   0.947   2.797   2.408 -0.0291 -0.0834  0.0417
 3486SOL    HW122091   0.990   2.879   2.435 -0.6135  0.1170  0.3654
 3486SOL    HW222092   1.009   2.762   2.345  0.6651  0.7449  0.2611
 3487SOL     OW22093   1.126   1.396  16.688 -0.5045  0.5645 -0.4382
 3487SOL    HW122094   1.137   1.310  16.648  2.0717  0.5332  0.3333
 3487SOL    HW222095   1.177   1.388  16.769 -1.6951 -0.5136  0.2083
 3488SOL     OW22096   0.442   3.847   5.135  0.4209  0.1512 -0.1097
 3488SOL    HW122097   0.518   3.822   5.081  0.4979  1.1264 -0.4392
 3488SOL    HW222098   0.376   3.790   5.094  1.3692 -0.0445 -1.3998
 3489SOL     OW22099   4.103   3.817   1.517  0.0273 -0.2422  0.3564
 3489SOL    HW122100   4.067   3.905   1.509 -0.2922 -0.6310 -2.5017
 3489SOL    HW222101   4.125   3.800   1.425  1.1974 -0.6843  0.7112
 3490SOL     OW22102   0.424   3.869   6.947  0.3545 -0.5894  0.5811
 3490SOL    HW122103   0.431   3.919   7.029  1.9853  3.8901 -2.2842
 3490SOL    HW222104   0.496   3.807   6.959  0.0793 -1.0590 -0.1840
 3491SOL     OW22105   1.440   3.788  12.127 -0.1703  0.3545 -0.6011
 3491SOL    HW122106   1.521   3.753  12.165 -0.5834 -1.6646 -1.5735
 3491SOL    HW222107   1.397   3.707  12.099  0.3463  0.8240 -2.7191
 3492SOL     OW22108   2.621   2.920   3.311  0.0735  0.6917  0.2839
 3492SOL    HW122109   2.665   2.991   3.263  0.4296 -1.9788 -3.3581
 3492SOL    HW222110   2.531   2.953   3.311 -1.9964 -4.9500  0.5286
 3493SOL     OW22111   0.393   2.366  12.374 -0.5481 -0.2805 -0.6165
 3493SOL    HW122112   0.462   2.339  12.434 -1.5433 -1.7322 -0.1228
 3493SOL    HW222113   0.355   2.283  12.345  1.4061 -2.1753  2.3468
 3494SOL     OW22114   3.559   4.620   3.452  0.2820  0.0839  0.4184
 3494SOL    HW122115   3.556   4.619   3.547  1.0798  1.5478  0.4537
 3494SOL    HW222116   3.468   4.635   3.428  0.2266  0.1764  0.6913
 3495SOL     OW22117   2.098   1.298   0.941 -0.2972  0.3820 -0.4873
 3495SOL    HW122118   2.092   1.219   0.888  1.8760  0.0805 -0.2650
 3495SOL    HW222119   2.018   1.342   0.912 -0.7254 -1.0480 -1.4051
 3496SOL     OW22120   3.434   3.871   4.920 -0.9208  0.1544  0.2585
 3496SOL    HW122121   3.393   3.898   5.002 -0.5386 -2.2512  1.2200
 3496SOL    HW222122   3.418   3.944   4.859 -1.1714 -2.1582 -2.4219
 3497SOL     OW22123   1.610   1.671   7.412  0.0187  0.3554  0.1984
 3497SOL    HW122124   1.659   1.752   7.427 -0.6440  0.8623 -0.3829
 3497SOL    HW222125   1.681   1.613   7.382 -1.2713  0.2523 -2.6708
 3498SOL     OW22126   2.854   1.314  16.806  0.5436 -0.3232  0.3554
 3498SOL    HW122127   2.805   1.286  16.883  2.2888  0.4965  1.7579
 3498SOL    HW222128   2.812   1.393  16.773  1.0560 -0.4489 -0.6128
 3499SOL     OW22129   1.845   0.684   0.444 -0.1053  0.4814  0.4328
 3499SOL    HW122130   1.844   0.593   0.416 -1.4213  0.7475 -0.3498
 3499SOL    HW222131   1.821   0.722   0.360 -0.1874 -2.8721 -1.0779
 3500SOL     OW22132   2.379   3.453   4.490  0.5135  0.2707  0.2624
 3500SOL    HW122133   2.437   3.525   4.513  1.3841 -0.2987 -0.1521
 3500SOL    HW222134   2.301   3.490   4.448  0.7356  0.5686  0.1177
 3501SOL     OW22135   4.619   2.631  13.682 -0.2402 -0.0618  0.5196
 3501SOL    HW122136   4.556   2.619  13.753 -1.3456  0.7802 -0.2962
 3501SOL    HW222137   4.568   2.591  13.611 -0.1494  2.2878 -0.8684
 3502SOL     OW22138   0.229   4.617   7.950 -0.3960  0.3258 -0.1073
 3502SOL    HW122139   0.145   4.619   7.903 -0.3619 -1.7739 -0.2685
 3502SOL    HW222140   0.191   4.604   8.037 -1.8507 -0.2165 -0.8244
 3503SOL     OW22141   0.313   2.573  16.158 -0.1093  0.0485 -1.0511
 3503SOL    HW122142   0.399   2.603  16.127 -0.0824 -0.1205 -1.1454
 3503SOL    HW222143   0.326   2.478  16.158  1.1435  0.2194  0.6987
 3504SOL     OW22144   1.785   2.989   7.497  0.2731 -0.5180  0.0809
 3504SOL    HW122145   1.879   3.004   7.501  0.0453  0.3623  1.8678
 3504SOL    HW222146   1.759   3.076   7.469 -0.3857  0.0269  2.3909
 3505SOL     OW22147   0.403   3.807   1.653  0.0999 -0.0620 -0.1329
 3505SOL    HW122148   0.448   3.857   1.585 -2.0688 -1.0928 -2.3227
 3505SOL    HW222149   0.474   3.791   1.715 -1.4381 -1.6771  1.2178
 3506SOL     OW22150   2.147   2.573   6.463 -0.0965 -0.2229 -0.1637
 3506SOL    HW122151   2.232   2.561   6.506  0.8883 -1.1461 -2.3941
 3506SOL    HW222152   2.079   2.530   6.514 -1.2591  0.3519 -1.2371
 3507SOL     OW22153   1.622   4.518  11.560 -0.2739  0.4497  0.4136
 3507SOL    HW122154   1.708   4.516  11.518 -0.0786 -0.8242  0.8673
 3507SOL    HW222155   1.637   4.573  11.637  0.3764  2.0880 -0.8969
 3508SOL     OW22156   2.197   1.784   2.540 -0.4962 -0.5177  0.0716
 3508SOL    HW122157   2.251   1.770   2.617  0.4273  0.0555 -0.4687
 3508SOL    HW222158   2.139   1.710   2.557  0.8367 -1.2034  1.5575
 3509SOL     OW22159   3.434   4.233   5.228 -0.4176 -0.0202 -0.0531
 3509SOL    HW122160   3.386   4.298   5.177  1.2315  1.1849 -0.0921
 3509SOL    HW222161   3.408   4.151   5.188  0.8654 -0.5075  0.0944
 3510SOL     OW22162   1.118   0.964  11.428  0.5717  0.3734  0.4316
 3510SOL    HW122163   1.168   0.884  11.439 -1.1758 -1.2519 -3.2000
 3510SOL    HW222164   1.183   1.027  11.396  0.5155  0.7826  1.1202
 3511SOL     OW22165   1.155   1.849   8.529 -0.0545  0.3408 -0.1435
 3511SOL    HW122166   1.147   1.939   8.561  2.1847  0.5414 -0.1416
 3511SOL    HW222167   1.201   1.871   8.447 -0.2303  1.1153 -0.0304
 3512SOL     OW22168   3.001   4.589  16.903 -0.2876  0.3577 -0.3014
 3512SOL    HW122169   3.059   4.625  16.835 -0.1798 -0.1698 -0.4893
 3512SOL    HW222170   2.919   4.627  16.872 -1.8852 -1.2953  1.9605
 3513SOL     OW22171   4.716   4.144  13.419 -0.5487 -0.4569  0.1663
 3513SOL    HW122172   4.651   4.213  13.411 -1.3427 -1.3372 -1.0213
 3513SOL    HW222173   0.051   4.187  13.381 -2.9323  3.2942 -0.3730
 3514SOL     OW22174   2.771   3.782   9.684  0.1261 -0.0829 -0.1190
 3514SOL    HW122175   2.802   3.692   9.684  0.6632  0.1035  0.9761
 3514SOL    HW222176   2.704   3.783   9.753  1.4153 -1.5597  1.1483
 3515SOL     OW22177   3.152   1.654  16.439 -0.4282 -0.8184 -0.0563
 3515SOL    HW122178   3.183   1.729  16.489 -0.4171  1.2597 -3.1433
 3515SOL    HW222179   3.211   1.589  16.477 -0.3069  0.1932  1.4588
 3516SOL     OW22180   3.119   3.133   5.559 -0.0346 -0.5470  1.3196
 3516SOL    HW122181   3.148   3.042   5.570 -1.7652 -1.4204 -1.4819
 3516SOL    HW222182   3.040   3.120   5.507  1.7010 -3.4567 -0.5945
 3517SOL     OW22183   4.069   1.396   5.722  0.6028  0.3058  0.1348
 3517SOL    HW122184   4.061   1.383   5.628 -0.3537  1.8272  0.0028
 3517SOL    HW222185   3.976   1.397   5.746  0.5264 -1.2535 -0.0762
 3518SOL     OW22186   0.525   0.901  15.012  0.2393  0.3593 -0.4234
 3518SOL    HW122187   0.503   0.870  14.925  3.0973  1.6773 -1.6240
 3518SOL    HW222188   0.608   0.941  14.984  2.1065 -3.0893  0.1558
 3519SOL     OW22189   0.312   3.608  11.287  0.7111 -0.1459  0.2992
 3519SOL    HW122190   0.328   3.519  11.317  0.9405  0.4752  2.0374
 3519SOL    HW222191   0.403   3.628  11.264 -0.3170  3.3963 -0.7779
 3520SOL     OW22192   3.977   4.184   8.155  0.5910  0.2422  0.3648
 3520SOL    HW122193   4.061   4.159   8.116  0.3328  1.7135 -1.1394
 3520SOL    HW222194   4.007   4.210   8.242 -0.2351 -0.0769  0.7430
 3521SOL     OW22195   0.929   2.661  11.806 -0.3988  0.0913 -0.2239
 3521SOL    HW122196   0.890   2.599  11.744 -2.6940 -2.2668  3.5510
 3521SOL    HW222197   1.021   2.652  11.783 -1.3358 -1.7791 -3.2991
 3522SOL     OW22198   1.653   1.522   8.151  0.2187  0.1341  0.3162
 3522SOL    HW122199   1.602   1.532   8.231 -0.7555  0.2918 -0.3142
 3522SOL    HW222200   1.743   1.504   8.178  1.1380  2.1388 -1.4585
 3523SOL     OW22201   1.526   0.067   0.416 -0.1867 -0.2940  0.0447
 3523SOL    HW122202   1.433   0.046   0.421  0.0333 -1.6718 -1.8751
 3523SOL    HW222203   1.553   0.049   0.506  0.0340 -1.5554 -0.2801
 3524SOL     OW22204   2.629   3.264   6.400  0.1536 -0.1149 -0.3964
 3524SOL    HW122205   2.712   3.219   6.418 -0.3117 -0.6113  0.4830
 3524SOL    HW222206   2.559   3.225   6.452  0.6502 -0.5466 -0.0509
 3525SOL     OW22207   4.306   2.077   5.957 -0.3895  0.1911 -0.4135
 3525SOL    HW122208   4.361   2.010   5.998 -1.5080 -1.7973 -2.1830
 3525SOL    HW222209   4.302   2.143   6.026 -0.3533 -0.0597 -0.1729
 3526SOL     OW22210   3.237   1.694   2.457 -0.6005  0.4408  0.3707
 3526SOL    HW122211   3.218   1.615   2.407  0.9787  0.1209  0.2906
 3526SOL    HW222212   3.331   1.690   2.438 -0.6521  0.0478  0.2038
 3527SOL     OW22213   4.727   0.978   3.540 -0.2884 -0.3097 -0.1321
 3527SOL    HW122214   0.004   0.898   3.589  0.8436 -0.3073 -0.5610
 3527SOL    HW222215   4.691   0.926   3.467  1.9241  1.8110 -2.7374
 3528SOL     OW22216   3.574   4.322   4.946 -0.1474 -0.6219 -0.1204
 3528SOL    HW122217   3.592   4.241   4.995  1.1142 -1.2445 -1.6050
 3528SOL    HW222218   3.495   4.300   4.897  0.7190  0.4050 -1.9750
 3529SOL     OW22219   1.522   0.192  16.959  0.1279  0.1031 -0.0743
 3529SOL    HW122220   1.521   0.105  16.920  0.8463 -0.2211  0.6310
 3529SOL    HW222221   1.572   0.174  17.038 -1.4223 -2.1231  0.4083
 3530SOL     OW22222   0.955   1.744   7.547 -0.0555  0.2172  0.1438
 3530SOL    HW122223   0.969   1.755   7.453  1.0621 -0.2824  0.2555
 3530SOL    HW222224   1.005   1.666   7.569  1.5441  0.1766 -3.5143
 3531SOL     OW22225   2.872   3.652  11.369  0.4653  0.2162 -0.0839
 3531SOL    HW122226   2.850   3.597  11.294  2.2755  0.7097 -0.9693
 3531SOL    HW222227   2.858   3.743  11.345 -3.7020  0.0955  1.9129
 3532SOL     OW22228   3.110   0.152   4.329  0.2745  0.1029 -0.0191
 3532SOL    HW122229   3.058   0.129   4.406 -0.6848  0.4922 -0.5518
 3532SOL    HW222230   3.167   0.076   4.318  0.7026  0.5844 -1.1335
 3533SOL     OW22231   4.464   3.016  10.230  0.0422  0.1315  0.7648
 3533SOL    HW122232   4.460   2.946  10.165  0.4118 -0.0439  0.9329
 3533SOL    HW222233   4.522   2.985  10.299  0.3001  1.7709  1.2912
 3534SOL     OW22234   3.812   4.005   1.702 -0.3841 -0.2056 -0.2673
 3534SOL    HW122235   3.906   4.015   1.688  0.0034 -1.4711  1.5087
 3534SOL    HW222236   3.787   3.978   1.614  1.2291  0.5214 -0.9564
 3535SOL     OW22237   4.254   1.864  13.124  0.1391  0.5322  0.0537
 3535SOL    HW122238   4.174   1.912  13.145  0.5856  1.6755 -0.8856
 3535SOL    HW222239   4.325   1.913  13.166 -1.4380  0.8855  2.3501
 3536SOL     OW22240   1.011   4.387  15.070  0.0097 -0.4948  0.5451
 3536SOL    HW122241   0.947   4.323  15.038 -0.0609  0.1267 -0.5750
 3536SOL    HW222242   0.950   4.459  15.090  1.1091  0.4884  0.3733
 3537SOL     OW22243   0.527   3.243   2.347  0.2813 -0.0565  0.2154
 3537SOL    HW122244   0.524   3.157   2.306 -2.3874 -0.0392  0.3575
 3537SOL    HW222245   0.466   3.287   2.288 -0.4846 -2.0684 -0.4766
 3538SOL     OW22246   4.608   1.601   7.245  1.0366 -0.0270 -0.8164
 3538SOL    HW122247   4.602   1.586   7.340  1.1573 -1.0369 -0.9667
 3538SOL    HW222248   4.524   1.561   7.224  0.7027  0.0010  0.4363
 3539SOL     OW22249   4.201   0.231  16.773 -0.2413 -0.3885 -0.1001
 3539SOL    HW122250   4.276   0.281  16.741  0.0254 -0.0930  0.9935
 3539SOL    HW222251   4.246   0.147  16.763  0.6843 -0.0208  1.0208
 3540SOL     OW22252   0.369   2.382   3.024 -0.8391 -0.0047 -0.5560
 3540SOL    HW122253   0.377   2.359   3.116  1.3958 -1.7637 -1.1978
 3540SOL    HW222254   0.452   2.428   3.013  0.3456 -2.0352  0.0559
 3541SOL     OW22255   4.694   1.796   3.268  0.2460  0.1682 -0.3012
 3541SOL    HW122256   4.665   1.818   3.356 -0.1497 -0.2314 -0.3323
 3541SOL    HW222257   4.669   1.870   3.213 -0.2794 -1.1493 -1.8436
 3542SOL     OW22258   1.999   1.193  13.485 -0.1550  0.6551 -0.3684
 3542SOL    HW122259   2.054   1.206  13.408  1.0633  2.1659  0.7665
 3542SOL    HW222260   1.951   1.112  13.466  1.3760 -0.0048 -1.4439
 3543SOL     OW22261   1.652   0.840   4.113  0.7267  0.0834  0.4344
 3543SOL    HW122262   1.589   0.907   4.137 -1.4032 -1.6316 -0.2953
 3543SOL    HW222263   1.600   0.763   4.087 -0.9590  1.2676  0.3197
 3544SOL     OW22264   0.234   3.975   1.843 -0.1619 -0.1260 -0.0777
 3544SOL    HW122265   0.149   3.946   1.810 -0.3419  2.6114 -2.0375
 3544SOL    HW222266   0.284   3.924   1.779  1.8137  1.4498  0.2242
 3545SOL     OW22267   2.724   3.930   7.212 -0.4500  0.7480  0.1410
 3545SOL    HW122268   2.730   3.948   7.306 -0.5773  0.7235  0.1537
 3545SOL    HW222269   2.759   4.008   7.170 -0.4913  0.1325 -1.0360
 3546SOL     OW22270   3.378   2.423   9.262  0.3669 -0.0833 -0.2187
 3546SOL    HW122271   3.378   2.463   9.174 -0.0450  2.2205  0.8202
 3546SOL    HW222272   3.300   2.465   9.299  0.4831 -0.9205  0.9689
 3547SOL     OW22273   1.638   1.226   3.934 -0.6625 -0.4100  0.8470
 3547SOL    HW122274   1.565   1.242   3.995 -2.7084 -3.0650 -0.8782
 3547SOL    HW222275   1.633   1.298   3.871  0.1044 -0.6224  0.5432
 3548SOL     OW22276   1.677   0.072  16.139  0.2910 -0.1041  0.1292
 3548SOL    HW122277   1.768   0.043  16.131  0.2848 -0.1660  0.2709
 3548SOL    HW222278   1.682   0.089  16.233 -0.4639 -1.0413  0.3412
 3549SOL     OW22279   0.103   3.288   8.837  0.0757  0.0205 -0.1142
 3549SOL    HW122280   0.069   3.327   8.917  0.1057  0.7605 -0.4591
 3549SOL    HW222281   0.198   3.296   8.849 -0.0329 -0.9486  1.4432
 3550SOL     OW22282   4.583   3.185  16.407  0.3108  0.2662 -0.2080
 3550SOL    HW122283   4.585   3.266  16.356  1.0056 -0.6780 -1.6769
 3550SOL    HW222284   4.490   3.181  16.430  0.6581 -1.7982  0.8195
 3551SOL     OW22285   4.053   3.493  10.729 -0.3122 -0.3748  0.4670
 3551SOL    HW122286   4.080   3.526  10.815 -0.3168  1.3189 -0.1790
 3551SOL    HW222287   4.127   3.510  10.669  0.9561  1.9263  2.6880
 3552SOL     OW22288   2.514   2.235   7.464  0.3740 -0.8410 -0.2243
 3552SOL    HW122289   2.587   2.222   7.404 -0.2891 -0.8019 -1.0284
 3552SOL    HW222290   2.469   2.150   7.459  0.6355 -1.0007  0.1096
 3553SOL     OW22291   2.910   1.370   1.642  0.0780 -0.1647  0.0256
 3553SOL    HW122292   2.927   1.439   1.706  0.5455  0.5163 -0.8216
 3553SOL    HW222293   2.995   1.337   1.614 -0.4004  0.6562 -2.4042
 3554SOL     OW22294   0.512   4.413  16.676 -0.5965  0.2091  0.0502
 3554SOL    HW122295   0.591   4.418  16.622  1.6282 -0.0823  3.3184
 3554SOL    HW222296   0.516   4.489  16.734 -2.2371  2.6153 -2.9622
 3555SOL     OW22297   1.745   1.276   3.085 -0.3193  0.0266  0.1539
 3555SOL    HW122298   1.768   1.355   3.037  2.0271  0.3790  1.8383
 3555SOL    HW222299   1.669   1.313   3.129 -1.5316 -1.2221 -0.8892
 3556SOL     OW22300   3.554   2.266   3.373  0.2565  0.2841  0.3019
 3556SOL    HW122301   3.640   2.300   3.398 -0.1465  1.5795 -0.0650
 3556SOL    HW222302   3.579   2.210   3.299  2.1756  0.5990  0.7201
 3557SOL     OW22303   3.602   2.726   5.756  0.0506 -0.1619 -0.0685
 3557SOL    HW122304   3.586   2.637   5.723 -0.6471 -0.0969  0.0944
 3557SOL    HW222305   3.618   2.702   5.848 -3.0705  0.9385  0.7445
 3558SOL     OW22306   0.850   0.548   5.036 -0.2982  0.2780 -0.6216
 3558SOL    HW122307   0.889   0.571   4.952  0.0529  2.1966  0.0681
 3558SOL    HW222308   0.838   0.455   5.018  2.3877 -0.0739 -0.6407
 3559SOL     OW22309   0.069   3.115   8.453  0.1492  0.6405 -0.4054
 3559SOL    HW122310   0.019   3.179   8.503  2.5218 -0.1483  2.9981
 3559SOL    HW222311   0.102   3.058   8.523 -1.9040 -0.9931 -0.7585
 3560SOL     OW22312   2.790   0.203  11.049  0.5456 -0.2012  0.5130
 3560SOL    HW122313   2.781   0.289  11.009 -0.3907 -0.4500  0.1815
 3560SOL    HW222314   2.791   0.224  11.143 -3.4793 -1.4619  0.8496
 3561SOL     OW22315   1.784   0.773   5.506 -0.5436 -0.2113 -0.3162
 3561SOL    HW122316   1.700   0.729   5.522  0.0696 -0.8061  1.2225
 3561SOL    HW222317   1.843   0.700   5.522  0.3841  0.5783 -0.1659
 3562SOL     OW22318   0.095   3.616   3.077  0.2564  0.1731  0.0081
 3562SOL    HW122319   0.156   3.605   3.004  0.2803  1.6119 -0.1757
 3562SOL    HW222320   0.092   3.525   3.108 -0.0370  0.2284  0.1417
 3563SOL     OW22321   3.181   1.317   1.565 -0.4940  0.1987 -0.5354
 3563SOL    HW122322   3.206   1.224   1.561 -0.2118  0.2528 -0.0458
 3563SOL    HW222323   3.259   1.356   1.604  0.3055 -0.8509 -1.0872
 3564SOL     OW22324   3.978   2.099   7.999 -0.0434 -0.2304 -0.2645
 3564SOL    HW122325   3.983   2.119   8.092  0.2051  0.4177 -0.4182
 3564SOL    HW222326   3.889   2.125   7.978  0.7631  2.5141 -0.3112
 3565SOL     OW22327   4.420   0.752   8.842  0.6469  0.3386  0.4270
 3565SOL    HW122328   4.440   0.662   8.868  1.7837  0.6961  0.7582
 3565SOL    HW222329   4.423   0.801   8.924  1.4346  1.4963 -0.3005
 3566SOL     OW22330   3.297   4.547   5.098 -0.3026 -0.2060 -0.1545
 3566SOL    HW122331   3.218   4.598   5.081 -0.9362 -1.9688 -2.4417
 3566SOL    HW222332   3.267   4.460   5.075 -0.7111 -0.4025  1.1179
 3567SOL     OW22333   0.882   3.008   4.297  0.1051 -0.6094  1.0248
 3567SOL    HW122334   0.952   2.989   4.358  1.2889 -1.3847 -0.5718
 3567SOL    HW222335   0.863   2.925   4.254 -0.9395 -0.2282  0.7498
 3568SOL     OW22336   0.654   1.312   3.289  0.1109 -0.8793 -0.0561
 3568SOL    HW122337   0.639   1.301   3.383 -0.5726 -2.2405 -0.3237
 3568SOL    HW222338   0.579   1.267   3.250 -0.8327  0.3898  0.3086
 3569SOL     OW22339   4.310   0.583   0.344  0.6437 -0.5418  0.0601
 3569SOL    HW122340   4.325   0.639   0.267 -0.3081  1.2711  1.2016
 3569SOL    HW222341   4.336   0.499   0.307 -0.0701 -2.1826  3.2641
 3570SOL     OW22342   2.786   3.200   5.893  0.7541 -0.2186 -0.4747
 3570SOL    HW122343   2.782   3.143   5.817 -0.6814 -1.5323  0.5984
 3570SOL    HW222344   2.712   3.255   5.868 -0.4438 -2.0954 -1.0353
 3571SOL     OW22345   3.504   4.665   3.105 -0.0833 -0.2185  0.5589
 3571SOL    HW122346   3.597   4.674   3.087  0.1179 -0.6816  1.3448
 3571SOL    HW222347   3.475   4.730   3.041  0.8689 -0.2641  0.0960
 3572SOL     OW22348   3.222   1.570   9.574  0.3422 -0.6542  0.6010
 3572SOL    HW122349   3.129   1.550   9.563  0.3004 -0.5802  0.8297
 3572SOL    HW222350   3.237   1.536   9.662  0.7249  0.5252  0.9835
 3573SOL     OW22351   2.654   0.849   2.859  0.3463 -0.2546  0.3125
 3573SOL    HW122352   2.706   0.922   2.824 -1.5630  0.6709 -0.5437
 3573SOL    HW222353   2.569   0.889   2.845  0.8741  2.0638  3.6731
 3574SOL     OW22354   3.822   2.412   8.101  0.3039 -0.5102  0.5564
 3574SOL    HW122355   3.744   2.426   8.154 -1.0704 -1.2053 -1.2990
 3574SOL    HW222356   3.890   2.450   8.157 -3.4559  0.4582  4.4820
 3575SOL     OW22357   4.274   3.290  10.972 -0.5512  0.0550 -0.5643
 3575SOL    HW122358   4.336   3.223  10.999 -0.5047  0.2790 -0.1068
 3575SOL    HW222359   4.196   3.235  10.965 -0.1778 -0.6485  0.7490
 3576SOL     OW22360   2.853   1.005   7.551 -0.0571 -0.4346  0.4493
 3576SOL    HW122361   2.856   1.099   7.569  1.4014 -0.4326  0.1558
 3576SOL    HW222362   2.848   1.013   7.455  0.2607 -0.2614  0.4478
 3577SOL     OW22363   3.245   4.328   2.919  0.1071  0.5605 -0.1515
 3577SOL    HW122364   3.203   4.337   3.004 -0.5248 -1.8302 -0.2117
 3577SOL    HW222365   3.244   4.417   2.884  1.7719  1.6126  2.5318
 3578SOL     OW22366   4.309   0.287   2.030 -0.1243 -0.2425 -0.0932
 3578SOL    HW122367   4.388   0.318   2.076  0.2121  0.1345 -0.9178
 3578SOL    HW222368   4.237   0.333   2.073  0.4395  0.3928  0.1850
 3579SOL     OW22369   4.182   0.306   8.860 -0.3972  0.4117 -0.5990
 3579SOL    HW122370   4.090   0.290   8.883 -0.0627  1.2717  1.3645
 3579SOL    HW222371   4.189   0.312   8.765  0.6509 -0.4273 -0.5751
 3580SOL     OW22372   4.113   1.425   6.266 -0.0669 -0.4549 -0.1529
 3580SOL    HW122373   4.026   1.397   6.294 -0.4847  0.4124 -0.5883
 3580SOL    HW222374   4.132   1.479   6.343  2.4080  1.8731 -2.4442
 3581SOL     OW22375   4.442   0.206   3.320  0.3609 -0.1463  0.4565
 3581SOL    HW122376   4.516   0.245   3.366 -0.1156 -2.6190  3.2934
 3581SOL    HW222377   4.422   0.132   3.377  2.4765 -0.9023  0.1841
 3582SOL     OW22378   2.973   3.640   4.207  0.5908 -0.3434  0.1071
 3582SOL    HW122379   2.928   3.643   4.123  1.0410 -0.1624 -0.1312
 3582SOL    HW222380   2.917   3.583   4.259 -0.2722  2.2383  2.0548
 3583SOL     OW22381   0.372   1.708   5.108  0.4781  0.0885 -0.2620
 3583SOL    HW122382   0.341   1.732   5.195 -2.3979  0.4859 -1.3921
 3583SOL    HW222383   0.295   1.662   5.074  0.0001 -1.2120  2.6023
 3584SOL     OW22384   0.031   4.718   2.817  0.0570 -0.6721 -0.5148
 3584SOL    HW122385   0.119   4.684   2.834 -0.5641 -1.7920  0.4014
 3584SOL    HW222386   4.715   4.689   2.887 -0.9475  1.7546 -0.3490
 3585SOL     OW22387   2.355   2.775  13.515 -0.7853  0.7214 -0.0087
 3585SOL    HW122388   2.286   2.805  13.455 -2.1764 -1.5744  0.4359
 3585SOL    HW222389   2.425   2.829  13.479  0.9564 -0.5384  1.5209
 3586SOL     OW22390   4.187   2.291   5.373 -0.1719  0.3851  0.3207
 3586SOL    HW122391   4.227   2.373   5.404 -0.9868  0.3371  1.4871
 3586SOL    HW222392   4.105   2.297   5.422  0.4754 -0.8285  1.5404
 3587SOL     OW22393   1.179   3.844   1.739 -0.5163  0.1021 -0.7083
 3587SOL    HW122394   1.136   3.817   1.658 -0.4236 -0.4599 -0.5636
 3587SOL    HW222395   1.261   3.886   1.711  0.7658 -2.3301 -0.5349
 3588SOL     OW22396   2.883   1.990  10.276  0.4377  0.8113 -0.3581
 3588SOL    HW122397   2.901   1.915  10.333  0.4077  0.7214 -0.4665
 3588SOL    HW222398   2.857   2.047  10.348  2.0751  1.2827 -0.1360
 3589SOL     OW22399   3.504   2.059  10.753  0.0065  0.7436 -0.1582
 3589SOL    HW122400   3.572   2.100  10.698  0.9890  1.2147  1.4163
 3589SOL    HW222401   3.560   2.005  10.808 -2.4501  1.7122  3.2719
 3590SOL     OW22402   1.767   2.838   8.284  0.2463 -0.2743 -0.3966
 3590SOL    HW122403   1.699   2.904   8.291  0.6324 -0.0253  0.8800
 3590SOL    HW222404   1.825   2.856   8.358  2.2129  0.0781 -2.0355
 3591SOL     OW22405   0.600   0.230   4.112 -0.1673 -0.4024  0.7421
 3591SOL    HW122406   0.694   0.248   4.117  0.2731 -2.2416 -0.9580
 3591SOL    HW222407   0.555   0.280   4.180  0.3739  3.1420 -1.4830
 3592SOL     OW22408   2.752   2.106   6.994  0.5787  0.3865 -1.0282
 3592SOL    HW122409   2.817   2.100   6.924  0.1028 -2.0204 -1.2684
 3592SOL    HW222410   2.805   2.116   7.074  0.4456  0.5423 -0.9590
 3593SOL     OW22411   2.550   2.606   9.620  0.1585  0.2023 -0.1326
 3593SOL    HW122412   2.559   2.516   9.649  0.2375 -0.2312 -1.5065
 3593SOL    HW222413   2.638   2.628   9.588  1.1211  0.4926  2.7064
 3594SOL     OW22414   3.763   2.372   9.166 -0.1102 -0.1416 -0.2869
 3594SOL    HW122415   3.829   2.402   9.228  0.5392 -0.3015 -0.8920
 3594SOL    HW222416   3.700   2.443   9.157 -1.3579 -1.0489  1.3782
 3595SOL     OW22417   3.372   2.871   5.854  0.0457  0.1765  0.4211
 3595SOL    HW122418   3.457   2.850   5.816 -0.2741 -0.8829  0.3097
 3595SOL    HW222419   3.374   2.812   5.929 -0.0798 -0.2530  0.0827
 3596SOL     OW22420   1.385   3.106   5.917 -0.6851  0.6621 -0.6796
 3596SOL    HW122421   1.351   3.025   5.880 -0.6102  1.3464 -2.2262
 3596SOL    HW222422   1.390   3.158   5.837  1.8620  0.7514 -0.4733
 3597SOL     OW22423   2.889   3.203   9.572 -0.2184  0.3082 -0.2206
 3597SOL    HW122424   2.856   3.121   9.534 -1.3035 -0.7036  2.9191
 3597SOL    HW222425   2.958   3.218   9.507 -1.6716  0.6641 -1.6925
 3598SOL     OW22426   4.365   3.293   3.479 -0.0874 -0.5146 -0.2158
 3598SOL    HW122427   4.371   3.280   3.384  0.1300  2.6664 -0.6539
 3598SOL    HW222428   4.417   3.373   3.488  0.8516 -1.5335  3.6072
 3599SOL     OW22429   4.616   1.434  15.854 -0.0482  0.0695 -0.0105
 3599SOL    HW122430   4.669   1.358  15.829  0.4086  0.0401  1.0586
 3599SOL    HW222431   4.666   1.498  15.804  0.0366 -0.0260 -0.0487
 3600SOL     OW22432   3.005   3.377   4.875 -0.3021  0.1120  0.3898
 3600SOL    HW122433   3.011   3.366   4.780  0.9598  0.5734  0.4093
 3600SOL    HW222434   3.081   3.329   4.908  0.6396  2.2494  1.3173
 3601SOL     OW22435   2.291   2.630  11.992  0.0681 -1.2982 -0.5867
 3601SOL    HW122436   2.297   2.651  11.899 -2.4852 -0.3162 -0.5401
 3601SOL    HW222437   2.270   2.716  12.030 -2.1134 -1.9402 -0.3595
 3602SOL     OW22438   0.398   1.342   7.457 -0.6442  0.5523  0.2886
 3602SOL    HW122439   0.315   1.330   7.411 -1.2187  1.7674  0.9967
 3602SOL    HW222440   0.458   1.359   7.384  0.6718  2.3518  1.7572
 3603SOL     OW22441   1.706   4.129  11.675 -0.9260  0.4682 -0.0138
 3603SOL    HW122442   1.722   4.140  11.581 -0.2971  2.0465  0.2743
 3603SOL    HW222443   1.772   4.190  11.708  0.0893 -1.2213  1.0232
 3604SOL     OW22444   3.963   1.371  12.369  0.3290  0.0167  0.3386
 3604SOL    HW122445   3.989   1.464  12.368  2.4130 -0.5422  2.6822
 3604SOL    HW222446   3.869   1.371  12.387  0.1871 -2.5922 -0.5400
 3605SOL     OW22447   2.541   0.547   6.815  0.5528  0.7480 -0.1495
 3605SOL    HW122448   2.486   0.598   6.874 -0.7108 -2.5415  1.5087
 3605SOL    HW222449   2.511   0.462   6.847  0.6253  0.8948  0.2990
 3606SOL     OW22450   4.357   0.966   7.136 -0.0000  0.4318  0.9818
 3606SOL    HW122451   4.344   1.030   7.067 -0.7059 -1.4214 -0.6065
 3606SOL    HW222452   4.451   0.946   7.135 -0.0337  0.3803 -0.8273
 3607SOL     OW22453   2.804   0.739   3.130  0.3021 -0.4690 -0.2158
 3607SOL    HW122454   2.787   0.692   3.049 -0.6446  1.2068 -0.9975
 3607SOL    HW222455   2.796   0.672   3.198  1.1308  0.9612  1.3015
 3608SOL     OW22456   2.883   1.263   5.456  0.0893  0.1001 -0.2605
 3608SOL    HW122457   2.804   1.214   5.478  0.9194 -1.5681 -1.0423
 3608SOL    HW222458   2.949   1.200   5.482 -1.3905 -1.4633 -0.3209
 3609SOL     OW22459   1.861   1.232  12.639 -0.4419  0.4712  0.0698
 3609SOL    HW122460   1.832   1.153  12.593  1.9589 -0.1848 -0.3289
 3609SOL    HW222461   1.956   1.223  12.652 -0.5779  0.5956  1.1953
 3610SOL     OW22462   2.665   1.203   4.389  0.0952  0.2044  0.3427
 3610SOL    HW122463   2.575   1.172   4.379  0.6947 -2.0281  1.8619
 3610SOL    HW222464   2.701   1.130   4.439  0.1332  0.5719  0.8551
 3611SOL     OW22465   2.876   1.813   1.616 -0.0144 -0.3476  0.0657
 3611SOL    HW122466   2.854   1.731   1.571  0.6089 -0.0937 -0.6864
 3611SOL    HW222467   2.862   1.792   1.709  0.1694 -0.4304  0.0727
 3612SOL     OW22468   2.810   2.635   3.093  0.2209 -0.1614 -0.3728
 3612SOL    HW122469   2.868   2.625   3.169 -0.2043  0.1108 -0.0080
 3612SOL    HW222470   2.805   2.546   3.059 -1.3034 -0.1100 -0.2647
 3613SOL     OW22471   1.955   0.554   5.574  0.3196 -0.1485  0.1738
 3613SOL    HW122472   1.921   0.505   5.649  0.0338  0.0613  0.1799
 3613SOL    HW222473   2.040   0.580   5.611  0.4468 -1.0285  0.5073
 3614SOL     OW22474   2.513   1.714   3.070 -0.1854  0.1333  0.4706
 3614SOL    HW122475   2.459   1.641   3.100  0.5689 -0.3671  0.6113
 3614SOL    HW222476   2.579   1.707   3.140  2.4679 -1.9463 -2.2144
 3615SOL     OW22477   4.267   4.629  16.878  0.0338  0.0700 -0.1279
 3615SOL    HW122478   4.274   4.651  16.971 -1.4136 -0.3080  0.0654
 3615SOL    HW222479   4.346   4.676  16.850  0.6548  0.2471  1.9591
 3616SOL     OW22480   1.403   4.408   8.396 -0.0283  0.0914 -0.3764
 3616SOL    HW122481   1.405   4.400   8.491 -0.8792 -1.4695 -0.4884
 3616SOL    HW222482   1.334   4.474   8.399  0.1522  0.2754 -0.2630
 3617SOL     OW22483   4.330   4.701  17.146  0.2567  0.3914 -0.0693
 3617SOL    HW122484   4.396   0.008  17.195  1.8338 -2.4804  0.6822
 3617SOL    HW222485   4.328   4.615  17.188  1.2735  1.1868  1.6270
 3618SOL     OW22486   3.607   0.888  13.563  0.1103  0.2623 -0.6236
 3618SOL    HW122487   3.628   0.864  13.473  0.7937  0.1031 -0.4178
 3618SOL    HW222488   3.515   0.862  13.573  0.3795  0.5299  2.4741
 3619SOL     OW22489   3.326   0.376  17.008 -0.5904  0.1087  0.0355
 3619SOL    HW122490   3.251   0.433  16.989 -1.2806 -0.6273  0.5407
 3619SOL    HW222491   3.366   0.434  17.073  0.4317 -0.7524  0.1722
 3620SOL     OW22492   2.067   3.206   1.696  0.5641  0.4057 -0.3535
 3620SOL    HW122493   2.000   3.146   1.664  0.8992  0.0444 -0.3755
 3620SOL    HW222494   2.024   3.291   1.704 -0.8435 -0.5276  2.1899
 3621SOL     OW22495   2.393   0.355   9.723 -0.2932 -0.0948 -0.1208
 3621SOL    HW122496   2.410   0.432   9.776  2.7554 -0.1528 -1.0468
 3621SOL    HW222497   2.378   0.295   9.796 -0.9472 -0.3003 -0.4167
 3622SOL     OW22498   2.934   2.653  13.568 -0.2904 -0.1803  0.0532
 3622SOL    HW122499   2.877   2.699  13.629 -1.5016 -0.1428 -1.0932
 3622SOL    HW222500   2.932   2.575  13.622 -0.2089 -0.1367  0.1188
 3623SOL     OW22501   0.548   0.712   3.561 -0.2992 -0.3939  0.9850
 3623SOL    HW122502   0.636   0.745   3.542 -0.2325 -0.3799  1.3182
 3623SOL    HW222503   0.528   0.763   3.639  4.1158 -0.2282  1.9979
 3624SOL     OW22504   3.251   2.433   8.359  0.5129 -0.2742 -0.3256
 3624SOL    HW122505   3.245   2.422   8.454  2.1927  1.5316 -0.0025
 3624SOL    HW222506   3.218   2.523   8.355  3.5360  0.8068 -1.1839
 3625SOL     OW22507   0.074   0.771   4.840  0.2465  0.0462 -0.4776
 3625SOL    HW122508   0.163   0.741   4.824  0.5378  0.6608  0.0113
 3625SOL    HW222509   0.015   0.717   4.786 -1.4911  1.7943 -0.3240
 3626SOL     OW22510   1.494   3.507   7.090 -0.3741 -0.2083  0.1442
 3626SOL    HW122511   1.576   3.457   7.092 -0.6814 -0.7577 -2.0216
 3626SOL    HW222512   1.526   3.597   7.084  0.7610 -0.6189 -0.1042
 3627SOL     OW22513   3.839   0.755   2.022 -0.7204  0.4353 -0.0946
 3627SOL    HW122514   3.913   0.817   2.024  0.7802 -1.4245  1.9734
 3627SOL    HW222515   3.858   0.685   2.085  2.3096  2.7702  1.6006
 3628SOL     OW22516   3.688   4.461   3.268  0.1849  0.3522 -0.6813
 3628SOL    HW122517   3.735   4.412   3.336  1.3930 -0.0923 -1.8418
 3628SOL    HW222518   3.632   4.517   3.321  1.8367 -1.4589  3.0269
 3629SOL     OW22519   1.106   2.874   9.552  0.3118  0.2572  0.3051
 3629SOL    HW122520   1.068   2.947   9.602  0.0438 -0.4300  1.1041
 3629SOL    HW222521   1.082   2.794   9.599  1.1006 -0.5192 -0.6315
 3630SOL     OW22522   0.845   3.559   9.897  0.0281  0.4882  0.4779
 3630SOL    HW122523   0.919   3.501   9.881 -0.9088 -0.8742  1.1369
 3630SOL    HW222524   0.775   3.498   9.876  0.9502  0.0308 -1.2172
 3631SOL     OW22525   2.606   3.287   3.882 -0.5085 -0.0890  0.4459
 3631SOL    HW122526   2.684   3.264   3.831 -1.5795 -0.1484 -1.1699
 3631SOL    HW222527   2.628   3.377   3.908 -0.4848  0.4885 -1.4908
 3632SOL     OW22528   2.142   3.790   6.375  0.6688  0.1309  0.2906
 3632SOL    HW122529   2.061   3.751   6.343  0.2911 -0.0473  1.4437
 3632SOL    HW222530   2.152   3.862   6.314  0.2236  0.7316  0.9254
 3633SOL     OW22531   0.959   4.625  16.172 -0.1027  0.0612  0.3401
 3633SOL    HW122532   0.941   4.542  16.217 -0.0753 -0.7075 -1.0522
 3633SOL    HW222533   1.055   4.623  16.168 -0.0668  1.0275  0.7811
 3634SOL     OW22534   2.339   1.671   8.842  0.5131  0.3505  0.1736
 3634SOL    HW122535   2.391   1.710   8.772  0.5608 -1.2648 -0.6906
 3634SOL    HW222536   2.356   1.577   8.845  0.5477  0.3407 -0.4023
 3635SOL     OW22537   1.418   3.163   6.898 -0.0467  0.3638 -0.1168
 3635SOL    HW122538   1.505   3.192   6.869  0.3793  0.1480  0.9143
 3635SOL    HW222539   1.388   3.238   6.949  0.1658  0.4107 -0.0566
 3636SOL     OW22540   2.684   0.984  10.889  0.1061  0.4057 -0.2185
 3636SOL    HW122541   2.766   1.028  10.868  0.3723 -0.7747 -1.6253
 3636SOL    HW222542   2.618   1.040  10.848 -0.3228  0.2812  0.2857
 3637SOL     OW22543   1.564   3.778  17.189 -0.0547 -0.5957 -0.4977
 3637SOL    HW122544   1.612   3.731  17.122 -0.8123 -2.4874  0.2759
 3637SOL    HW222545   1.474   3.758  17.163 -1.6583  3.4975  1.8721
 3638SOL     OW22546   0.728   3.997   5.132 -0.2589 -0.9968 -0.5203
 3638SOL    HW122547   0.667   4.069   5.145 -0.9493 -1.6303 -0.2317
 3638SOL    HW222548   0.754   3.978   5.222  0.7381 -2.4767 -1.1204
 3639SOL     OW22549   1.213   1.748   4.888  0.8016  0.0289  0.3990
 3639SOL    HW122550   1.273   1.708   4.825 -1.1036  1.7178 -2.4737
 3639SOL    HW222551   1.161   1.670   4.906  1.7173 -0.5118  0.6840
 3640SOL     OW22552   3.028   3.815   9.631 -0.1849  0.2618 -0.3445
 3640SOL    HW122553   3.053   3.793   9.541  1.7864  0.1938  0.2135
 3640SOL    HW222554   2.935   3.798   9.639 -0.3380  2.1828  2.0913
 3641SOL     OW22555   3.599   2.892   5.530  0.1169  0.2745 -0.5865
 3641SOL    HW122556   3.510   2.920   5.508 -0.9120 -2.9730 -0.5432
 3641SOL    HW222557   3.574   2.841   5.607 -2.5002 -0.1761 -1.7472
 3642SOL     OW22558   4.152   1.871   0.710  0.3165 -0.2268  0.0173
 3642SOL    HW122559   4.179   1.962   0.708 -1.1491  0.1576 -2.1022
 3642SOL    HW222560   4.164   1.847   0.802 -1.5294 -1.2993 -0.0156
 3643SOL     OW22561   1.258   1.148   5.234  0.5386  0.2024 -0.0101
 3643SOL    HW122562   1.168   1.177   5.217  0.3870 -1.3742 -1.8640
 3643SOL    HW222563   1.300   1.222   5.279 -1.9568  0.6376  1.5763
 3644SOL     OW22564   3.904   2.064  11.015  0.6089 -0.4718 -0.1704
 3644SOL    HW122565   3.921   2.138  10.956 -0.6170 -0.7503 -0.8875
 3644SOL    HW222566   3.985   2.063  11.065  1.2833 -2.9626 -1.2800
 3645SOL     OW22567   2.488   3.682   7.349 -0.4044 -0.1249 -0.4754
 3645SOL    HW122568   2.525   3.760   7.391  1.6693 -1.6800  0.5992
 3645SOL    HW222569   2.511   3.693   7.256 -1.7056  1.9540 -0.5466
 3646SOL     OW22570   4.288   1.639   7.726  0.5403  0.1122 -0.2495
 3646SOL    HW122571   4.299   1.569   7.662  1.1262  1.2067 -1.3583
 3646SOL    HW222572   4.278   1.723   7.681  0.7572  0.6773  0.7722
 3647SOL     OW22573   0.414   1.508   1.728 -0.3083  0.4154 -0.0703
 3647SOL    HW122574   0.408   1.500   1.632 -1.2324 -0.3122  0.0563
 3647SOL    HW222575   0.329   1.551   1.734  0.0085  0.5898  2.7953
 3648SOL     OW22576   3.378   1.033   9.502 -0.3736  0.1652  0.0464
 3648SOL    HW122577   3.412   1.115   9.537  0.5830 -0.8326  1.4416
 3648SOL    HW222578   3.456   0.978   9.493 -2.5498 -2.7489 -0.9180
 3649SOL     OW22579   2.297   3.840  15.106  0.5004 -0.0383  0.3176
 3649SOL    HW122580   2.309   3.848  15.201  2.2464  0.3400  0.0628
 3649SOL    HW222581   2.270   3.750  15.090 -0.3699  0.4541 -0.9640
 3650SOL     OW22582   1.584   0.377   1.510 -0.2136  0.3358 -0.3990
 3650SOL    HW122583   1.504   0.355   1.559 -0.1386 -1.5205 -1.1295
 3650SOL    HW222584   1.641   0.301   1.522  0.5546  0.6400 -2.2461
 3651SOL     OW22585   0.200   2.232  13.085  0.1605 -0.3088  0.1593
 3651SOL    HW122586   0.131   2.203  13.026 -0.1676  0.3408  0.2248
 3651SOL    HW222587   0.281   2.191  13.056 -0.0171 -1.5191  1.3942
 3652SOL     OW22588   2.000   1.497   7.702 -0.2704  0.2040  0.3146
 3652SOL    HW122589   2.089   1.493   7.736  0.1964  0.9562 -0.7881
 3652SOL    HW222590   1.944   1.459   7.769  0.4921  0.6024  1.1861
 3653SOL     OW22591   3.734   2.712   6.000  0.2783 -0.0393 -0.0869
 3653SOL    HW122592   3.656   2.704   6.054  0.3842 -0.5998 -0.0172
 3653SOL    HW222593   3.796   2.660   6.051 -0.4635 -0.1576  0.6982
 3654SOL     OW22594   3.901   2.853   6.941 -0.2986 -0.2093  0.2142
 3654SOL    HW122595   3.822   2.895   6.908  0.9926  0.6141 -1.7869
 3654SOL    HW222596   3.864   2.787   7.000 -2.1770  1.2640  0.6486
 3655SOL     OW22597   3.081   0.392   5.270  0.7614 -0.2597 -0.2633
 3655SOL    HW122598   2.995   0.379   5.311  0.5040  0.0193 -0.7221
 3655SOL    HW222599   3.082   0.339   5.190 -0.3304 -0.0224 -0.4406
 3656SOL     OW22600   4.054   2.820   7.574  0.2186 -0.3538  0.0676
 3656SOL    HW122601   4.140   2.833   7.533  0.0876 -1.6683 -0.6527
 3656SOL    HW222602   4.002   2.873   7.514  0.0364 -0.4506  0.1388
 3657SOL     OW22603   3.523   0.167   4.402  0.6216  0.0329 -0.1958
 3657SOL    HW122604   3.492   0.165   4.312 -2.8559  2.9682  0.9083
 3657SOL    HW222605   3.573   0.085   4.402  2.2055  1.0041 -0.0062
 3658SOL     OW22606   1.487   2.814  14.700  0.0602  0.3456 -0.2891
 3658SOL    HW122607   1.495   2.894  14.647  1.3918  0.0924 -0.4704
 3658SOL    HW222608   1.567   2.770  14.669 -0.1437  1.0705 -1.8579
 3659SOL     OW22609   4.204   0.478   6.561 -0.1121 -0.4203  0.3000
 3659SOL    HW122610   4.177   0.570   6.568 -2.4388 -1.1029  0.2160
 3659SOL    HW222611   4.279   0.470   6.620  0.3855 -0.3212 -0.3224
 3660SOL     OW22612   4.032   1.510  13.435  0.1024 -0.5399 -0.7702
 3660SOL    HW122613   3.970   1.568  13.478 -0.2141 -0.3077 -1.5549
 3660SOL    HW222614   4.122   1.538  13.451 -0.1177 -0.8350  1.0341
 3661SOL     OW22615   2.524   1.460   2.381 -0.0065 -0.5485 -0.3202
 3661SOL    HW122616   2.454   1.484   2.320 -1.4455 -1.7188  0.8915
 3661SOL    HW222617   2.475   1.456   2.463 -2.0007  1.4815 -1.3950
 3662SOL     OW22618   3.221   4.720   4.087  0.3524 -0.1130  0.3034
 3662SOL    HW122619   3.295   4.679   4.040  0.7672  0.4473  0.4659
 3662SOL    HW222620   3.244   4.698   4.177  1.2510  0.9750  0.3359
 3663SOL     OW22621   0.475   0.393   7.234 -0.5395 -0.0454 -0.4650
 3663SOL    HW122622   0.399   0.390   7.291  0.5357  3.4911  1.1994
 3663SOL    HW222623   0.548   0.421   7.289  0.7164 -3.5170 -0.3949
 3664SOL     OW22624   0.455   3.505  17.180 -0.6947 -0.0895  0.5033
 3664SOL    HW122625   0.439   3.542  17.093  2.0369 -0.5071 -0.1988
 3664SOL    HW222626   0.386   3.439  17.175  0.6624 -1.4310 -0.5536
 3665SOL     OW22627   3.396   1.064   8.021 -0.3481  0.4522  0.7255
 3665SOL    HW122628   3.359   1.064   7.933 -0.5503 -1.5206  0.8201
 3665SOL    HW222629   3.432   1.152   8.021  1.1467 -0.1712  1.2362
 3666SOL     OW22630   0.176   4.369   1.514  0.4577 -0.0409 -0.2213
 3666SOL    HW122631   0.158   4.459   1.542 -1.1158 -1.3577  2.9662
 3666SOL    HW222632   0.092   4.340   1.477 -0.5255 -0.5416  2.4373
 3667SOL     OW22633   1.953   1.886  17.014  0.2533 -0.1254  0.0177
 3667SOL    HW122634   1.866   1.873  17.051  0.3440  1.0477  0.6475
 3667SOL    HW222635   1.935   1.978  16.994 -1.7042 -0.5113  0.0841
 3668SOL     OW22636   0.821   2.050   1.486  0.5322 -0.1306 -0.1364
 3668SOL    HW122637   0.777   1.995   1.551  0.7687 -0.6245 -0.3919
 3668SOL    HW222638   0.814   2.135   1.529  0.9876 -0.3052  0.2823
 3669SOL     OW22639   3.237   0.202   9.403 -0.2128 -0.2949  0.2979
 3669SOL    HW122640   3.272   0.148   9.332 -0.7977  0.1608 -0.3319
 3669SOL    HW222641   3.247   0.290   9.368 -2.5392  0.3222  1.2049
 3670SOL     OW22642   1.614   3.316   4.551 -0.2435 -0.0789  0.6898
 3670SOL    HW122643   1.591   3.346   4.639 -0.5758 -1.5793  1.1161
 3670SOL    HW222644   1.529   3.325   4.507  0.1404  1.0660  0.1858
 3671SOL     OW22645   3.258   0.555   9.105  0.3580  0.6959  0.2331
 3671SOL    HW122646   3.317   0.491   9.067 -0.9143 -1.0582  1.1923
 3671SOL    HW222647   3.204   0.574   9.028  2.2868  1.8125 -0.8459
 3672SOL     OW22648   4.406   4.162   4.778 -0.0684 -0.1968 -0.0263
 3672SOL    HW122649   4.416   4.255   4.757 -2.3896  0.1285  0.3412
 3672SOL    HW222650   4.454   4.162   4.861 -0.6877 -2.2651  0.3134
 3673SOL     OW22651   4.033   0.053  14.738 -0.4646  0.3751  0.1388
 3673SOL    HW122652   3.988   0.135  14.756 -1.2935  0.4472 -2.3549
 3673SOL    HW222653   4.028   0.025  14.830  1.5774 -2.0854 -0.4832
 3674SOL     OW22654   0.805   3.301   5.987 -0.2313  0.2398 -0.3149
 3674SOL    HW122655   0.723   3.259   5.962  0.1094 -0.7714  0.2401
 3674SOL    HW222656   0.858   3.289   5.908  1.0715  1.6014  0.3477
 3675SOL     OW22657   3.210   1.722   4.493 -0.1928 -0.0603 -0.4240
 3675SOL    HW122658   3.270   1.650   4.513  3.3439  2.4311 -1.9409
 3675SOL    HW222659   3.185   1.739   4.584  0.2410  2.8033 -0.8400
 3676SOL     OW22660   1.528   4.455   2.920  0.4856 -0.0735 -0.3148
 3676SOL    HW122661   1.479   4.524   2.965 -0.6005  0.0669 -1.7252
 3676SOL    HW222662   1.552   4.388   2.984  0.8387  0.8999  0.5843
 3677SOL     OW22663   1.098   3.317  11.014  0.3415 -0.2203  0.1300
 3677SOL    HW122664   1.044   3.246  10.979 -1.1064  0.1455  1.6191
 3677SOL    HW222665   1.131   3.281  11.096  2.0922  1.9540  0.3711
 3678SOL     OW22666   0.102   0.963   4.578 -0.2520  0.1588  0.3950
 3678SOL    HW122667   0.021   1.003   4.608  0.2252  0.5095  1.2059
 3678SOL    HW222668   0.091   0.869   4.596 -2.1667 -0.0292 -1.7515
 3679SOL     OW22669   1.487   1.995   3.582  0.6347  0.9147  0.6125
 3679SOL    HW122670   1.576   1.982   3.615  1.0615  2.8763  0.2257
 3679SOL    HW222671   1.470   2.089   3.581  4.1805  1.5813  1.4674
 3680SOL     OW22672   1.806   4.436   2.899 -0.4440 -0.6298 -0.3886
 3680SOL    HW122673   1.715   4.448   2.925 -0.6156  0.9339 -1.7213
 3680SOL    HW222674   1.825   4.521   2.858 -0.1557  0.7712  2.6949
 3681SOL     OW22675   0.647   1.479  13.101 -0.0666  0.0871  0.1671
 3681SOL    HW122676   0.678   1.565  13.132  1.4447 -0.6028  0.6010
 3681SOL    HW222677   0.601   1.439  13.175  2.2716 -0.9395  1.0732
 3682SOL     OW22678   3.223   3.257   5.002  0.0336 -0.4293  0.7569
 3682SOL    HW122679   3.223   3.165   4.979  1.9742 -0.2695  0.1218
 3682SOL    HW222680   3.220   3.258   5.098  0.9316 -0.3421  0.7801
 3683SOL     OW22681   3.120   3.413   4.337  0.8073 -0.3459  0.9571
 3683SOL    HW122682   3.148   3.501   4.313  1.9913 -0.9746  0.0940
 3683SOL    HW222683   3.174   3.358   4.280 -1.0962 -2.0086  0.7546
 3684SOL     OW22684   2.097   2.745  13.709  0.2382  0.1293  0.2304
 3684SOL    HW122685   2.185   2.754  13.674 -0.3994 -1.2023 -1.7322
 3684SOL    HW222686   2.088   2.813  13.776 -0.4956  1.5194 -1.2663
 3685SOL     OW22687   4.254   0.886  10.427 -0.6992 -0.0039 -0.2372
 3685SOL    HW122688   4.257   0.980  10.446  1.4785 -0.4753  1.8003
 3685SOL    HW222689   4.170   0.851  10.458  0.6931 -1.3782  2.0031
 3686SOL     OW22690   3.811   4.643   2.138 -0.2580 -0.0705  0.5936
 3686SOL    HW122691   3.723   4.605   2.138 -0.8549  1.2981  0.2288
 3686SOL    HW222692   3.844   4.581   2.204 -1.1385 -0.2411  0.8774
 3687SOL     OW22693   2.053   0.177  17.337 -0.1181 -0.7815  0.2288
 3687SOL    HW122694   1.959   0.172  17.353 -0.2251  1.9030  0.4037
 3687SOL    HW222695   2.062   0.140  17.249  0.5103 -3.8353  1.5793
 3688SOL     OW22696   4.428   0.974   3.661 -0.2358  0.0965 -0.1965
 3688SOL    HW122697   4.490   1.046   3.662 -0.8566  0.5701  2.4906
 3688SOL    HW222698   4.342   1.016   3.667  0.2175  0.6656  2.3573
 3689SOL     OW22699   1.572   4.248  14.886 -0.8363  0.2568  0.5249
 3689SOL    HW122700   1.584   4.335  14.924  0.8207  0.3366 -0.2033
 3689SOL    HW222701   1.483   4.260  14.852  0.5092  1.6073 -2.4855
 3690SOL     OW22702   2.382   0.256   3.111 -0.1159 -0.1579 -0.2224
 3690SOL    HW122703   2.308   0.261   3.051 -1.3775  0.6364  1.3834
 3690SOL    HW222704   2.385   0.349   3.135 -1.2505 -0.2869  0.4278
 3691SOL     OW22705   0.742   3.622   6.507 -0.3801  0.4104 -0.4502
 3691SOL    HW122706   0.771   3.694   6.450  0.1966  1.2037  0.8454
 3691SOL    HW222707   0.714   3.678   6.580  3.1292  0.2122  1.0508
 3692SOL     OW22708   0.087   1.516   7.731 -0.3784 -0.0544 -0.2356
 3692SOL    HW122709   0.052   1.429   7.714 -2.9229  1.1782 -1.3940
 3692SOL    HW222710   0.175   1.480   7.738 -2.0975 -3.2192  4.7438
 3693SOL     OW22711   4.449   0.568  17.556  0.0175  0.3582 -0.5446
 3693SOL    HW122712   4.513   0.628  17.519 -1.4031  2.7850  0.9510
 3693SOL    HW222713   4.403   0.532  17.480  0.0004 -2.1643  0.6550
 3694SOL     OW22714   3.016   0.232   5.028 -0.6536 -0.3788  0.3351
 3694SOL    HW122715   3.009   0.139   5.006 -0.2071 -0.3660  0.1444
 3694SOL    HW222716   2.972   0.270   4.952  0.4738  0.4133  0.0884
 3695SOL     OW22717   3.504   0.800   5.921  0.5165  0.1529  0.9016
 3695SOL    HW122718   3.579   0.746   5.894  1.0983  1.8733 -0.8943
 3695SOL    HW222719   3.549   0.859   5.981 -0.5990  2.7481 -0.8472
 3696SOL     OW22720   4.149   0.074  17.353 -0.1749  0.1373  0.1376
 3696SOL    HW122721   4.062   0.050  17.385  0.9718 -1.5094  2.0312
 3696SOL    HW222722   4.140   0.063  17.258 -0.5026  4.5523 -0.3613
 3697SOL     OW22723   2.974   0.595  11.897  0.1209  0.2245 -0.3495
 3697SOL    HW122724   2.985   0.509  11.857 -2.4988  0.2233 -1.0347
 3697SOL    HW222725   2.883   0.577  11.919  1.0151  0.1330  3.3867
 3698SOL     OW22726   3.230   3.264   8.078 -0.3740  0.2152  0.2517
 3698SOL    HW122727   3.221   3.357   8.097 -1.2460  0.1850 -0.0148
 3698SOL    HW222728   3.206   3.220   8.160  0.3372  0.2191  0.4612
 3699SOL     OW22729   1.462   3.208   4.984 -0.5889  0.2519 -0.2281
 3699SOL    HW122730   1.442   3.301   4.996 -0.3186  0.3682 -0.6449
 3699SOL    HW222731   1.557   3.220   4.995 -0.6620  1.3550 -0.8674
 3700SOL     OW22732   3.968   0.485   3.611 -0.1183 -0.0503  1.3994
 3700SOL    HW122733   4.011   0.482   3.697  1.5725  0.7953  0.6029
 3700SOL    HW222734   4.004   0.567   3.577 -1.2731 -0.1177  0.0572
 3701SOL     OW22735   2.625   0.692   4.675 -0.1606  0.3211 -0.0227
 3701SOL    HW122736   2.580   0.674   4.592  0.0433  0.1987 -0.1078
 3701SOL    HW222737   2.710   0.713   4.636 -0.0748 -1.7815 -0.9837
 3702SOL     OW22738   3.974   3.476  12.246 -0.6609 -0.3469 -0.2861
 3702SOL    HW122739   4.032   3.439  12.179 -1.0687 -0.1968 -0.7192
 3702SOL    HW222740   4.034   3.534  12.293 -0.2179 -1.0586  0.0343
 3703SOL     OW22741   3.707   3.081   9.676 -0.1924  0.5509 -0.5867
 3703SOL    HW122742   3.734   3.090   9.767 -0.7660  0.2546 -0.3844
 3703SOL    HW222743   3.748   2.995   9.665 -1.1557  0.4192 -3.1928
 3704SOL     OW22744   4.384   3.984  13.807  0.4999 -0.0454 -0.1276
 3704SOL    HW122745   4.432   3.911  13.767  2.1237  0.7887  0.3060
 3704SOL    HW222746   4.460   4.036  13.833  0.3668  0.1986 -0.2269
 3705SOL     OW22747   1.770   1.008  12.484 -0.2418 -0.1068  0.0489
 3705SOL    HW122748   1.792   0.919  12.510  0.8000 -0.4984 -2.1219
 3705SOL    HW222749   1.825   1.011  12.406 -0.1049  2.9989  0.2827
 3706SOL     OW22750   3.589   3.305  14.561 -0.2830 -0.1347  0.6038
 3706SOL    HW122751   3.669   3.332  14.517 -0.7907 -0.3012 -0.4248
 3706SOL    HW222752   3.611   3.356  14.638 -1.8036  1.2879  0.1010
 3707SOL     OW22753   1.303   3.921  17.737 -0.5343 -0.1050 -0.3050
 3707SOL    HW122754   1.388   3.924  17.692 -0.9729  0.9933 -1.0438
 3707SOL    HW222755   1.323   3.858   0.042 -0.5151  0.7751  0.4840
 3708SOL     OW22756   3.957   0.787  10.776 -0.4849  1.0646 -0.1110
 3708SOL    HW122757   3.918   0.734  10.846 -0.0881 -1.2832 -1.6747
 3708SOL    HW222758   3.888   0.851  10.759  2.7265  4.0195 -2.1374
 3709SOL     OW22759   3.107   2.532  12.701 -0.1856  1.0481 -0.8408
 3709SOL    HW122760   3.035   2.474  12.680  0.8137 -0.9357  1.2335
 3709SOL    HW222761   3.178   2.479  12.665  0.8718  0.5515  2.0125
 3710SOL     OW22762   1.982   2.084   5.379 -0.3511  0.0085  0.1858
 3710SOL    HW122763   1.951   1.994   5.386  1.1310 -0.4823  0.3131
 3710SOL    HW222764   1.907   2.118   5.330  0.4086  1.3034 -0.0638
 3711SOL     OW22765   3.117   2.504  15.411  0.0062  0.5197  0.2675
 3711SOL    HW122766   3.064   2.555  15.349  1.1367  0.6878 -0.5693
 3711SOL    HW222767   3.052   2.475  15.475 -2.5567  0.6755 -2.2703
 3712SOL     OW22768   2.698   1.719   3.282  0.0842 -0.1281 -0.1143
 3712SOL    HW122769   2.731   1.630   3.264  2.1135  1.0273 -2.1296
 3712SOL    HW222770   2.770   1.742   3.340 -0.4369  0.5292  0.2700
 3713SOL     OW22771   1.694   3.668   6.555  0.3673 -0.1995 -0.4734
 3713SOL    HW122772   1.642   3.592   6.577 -1.8440  1.4964  0.1735
 3713SOL    HW222773   1.687   3.656   6.460  1.8762 -0.5088 -0.5393
 3714SOL     OW22774   3.096   3.125  12.212 -0.0816  0.0696  0.3154
 3714SOL    HW122775   3.164   3.062  12.235  0.4935  0.7217  0.4008
 3714SOL    HW222776   3.135   3.155  12.130 -1.6593  1.2381  0.0065
 3715SOL     OW22777   3.081   1.678  14.105 -0.1091  0.0426 -0.5287
 3715SOL    HW122778   3.008   1.726  14.143 -0.0549 -0.4284  0.1642
 3715SOL    HW222779   3.123   1.749  14.057 -0.5509 -0.4119 -1.6124
 3716SOL     OW22780   2.043   2.912   5.689  0.0574 -0.0855 -0.2571
 3716SOL    HW122781   2.036   2.847   5.619 -1.5422 -0.5968  0.4094
 3716SOL    HW222782   2.139   2.906   5.696  0.0071  1.5082  1.7391
 3717SOL     OW22783   4.467   2.520  13.490  0.0881  0.0330 -0.2173
 3717SOL    HW122784   4.436   2.437  13.453  1.8460 -1.8799  2.6324
 3717SOL    HW222785   4.529   2.546  13.422  1.5249  1.0512  1.4861
 3718SOL     OW22786   2.721   4.103   5.133  0.4096 -0.1804  0.6246
 3718SOL    HW122787   2.733   4.025   5.079 -0.8795 -0.2034  0.3782
 3718SOL    HW222788   2.646   4.139   5.087  1.5531  1.6204  0.1975
 3719SOL     OW22789   0.606   1.883   2.137  0.3098 -0.0509 -0.7203
 3719SOL    HW122790   0.541   1.819   2.167  2.6864 -1.4615  1.4384
 3719SOL    HW222791   0.559   1.920   2.063 -1.9026 -0.2608  0.5810
 3720SOL     OW22792   0.174   2.702   5.962  0.1340  0.2066 -0.8108
 3720SOL    HW122793   0.250   2.646   5.974 -0.3230 -0.1954  0.1909
 3720SOL    HW222794   0.107   2.656   6.013  1.4337  0.9279  1.5357
 3721SOL     OW22795   0.965   3.009   7.978  0.4635  0.3770  0.2425
 3721SOL    HW122796   1.033   2.974   7.920 -0.9650 -1.1800 -0.5021
 3721SOL    HW222797   0.943   2.931   8.029 -0.6759  0.4080 -0.1834
 3722SOL     OW22798   1.147   1.015  11.122 -0.5643  0.1614  0.0900
 3722SOL    HW122799   1.208   1.019  11.195  0.3446 -0.7275 -0.6210
 3722SOL    HW222800   1.192   0.951  11.067  2.5466  1.2572  1.3779
 3723SOL     OW22801   0.045   3.580   6.256 -1.0443 -0.3085 -0.1477
 3723SOL    HW122802   0.043   3.676   6.257  0.6524 -0.2577 -1.5404
 3723SOL    HW222803   4.720   3.567   6.189 -1.0514  1.7194 -0.5245
 3724SOL     OW22804   3.981   2.284  13.087  1.1156  0.3349  0.6862
 3724SOL    HW122805   3.980   2.309  12.995  1.1520  3.0063  1.4009
 3724SOL    HW222806   4.031   2.353  13.132  4.0114 -1.7587  0.7079
 3725SOL     OW22807   0.139   1.545  17.067  0.1110  0.0934 -0.4001
 3725SOL    HW122808   0.060   1.492  17.074  0.5968 -0.6827 -0.8231
 3725SOL    HW222809   0.209   1.481  17.052 -0.1964  0.2910 -2.7051
 3726SOL     OW22810   4.622   3.834  12.649 -0.6881 -0.2768 -0.0230
 3726SOL    HW122811   4.669   3.840  12.733 -0.2339 -2.1497 -0.1370
 3726SOL    HW222812   4.615   3.929  12.642 -0.4305 -0.3380 -1.0875
 3727SOL     OW22813   0.872   3.756   0.202  0.2709 -0.4652  0.2793
 3727SOL    HW122814   0.812   3.823   0.172  1.3356  0.5535  0.4293
 3727SOL    HW222815   0.926   3.730   0.127  1.0683  2.1385 -0.0321
 3728SOL     OW22816   3.429   3.701   5.297  0.8945  0.0062  0.1290
 3728SOL    HW122817   3.345   3.656   5.290  0.7477  0.3135 -0.1137
 3728SOL    HW222818   3.480   3.646   5.357 -0.2203  1.5867  2.4778
 3729SOL     OW22819   3.803   2.631   8.433  0.3403 -0.4947  0.0927
 3729SOL    HW122820   3.736   2.583   8.384  0.0539  1.9052 -1.8733
 3729SOL    HW222821   3.847   2.682   8.364  1.9015 -1.2662  0.5304
 3730SOL     OW22822   3.805   1.976  10.079  0.3311  0.4580  0.0527
 3730SOL    HW122823   3.880   1.962  10.136  2.6752  0.8775 -2.9709
 3730SOL    HW222824   3.790   2.067  10.103 -1.1330 -0.5669  3.0029
 3731SOL     OW22825   1.031   3.321   9.026 -0.1658  0.3285 -0.0756
 3731SOL    HW122826   1.016   3.319   9.121  0.7211 -0.2811  0.0564
 3731SOL    HW222827   1.017   3.413   9.007 -0.3613  0.8744  2.6145
 3732SOL     OW22828   1.362   2.946   4.698  0.5849 -0.1454  0.3173
 3732SOL    HW122829   1.348   2.852   4.709  1.6224 -0.4241 -0.7067
 3732SOL    HW222830   1.450   2.953   4.662  0.7756 -3.2090  0.1509
 3733SOL     OW22831   1.704   1.530   9.738 -0.3706 -0.0340  0.0450
 3733SOL    HW122832   1.686   1.573   9.654 -0.0585 -1.3028 -0.6711
 3733SOL    HW222833   1.800   1.527   9.743 -0.4514  1.4200  2.1112
 3734SOL     OW22834   0.999   3.021  11.014  0.0196 -0.1756 -0.1435
 3734SOL    HW122835   0.915   3.062  10.991  0.4635 -0.6707 -2.6165
 3734SOL    HW222836   0.968   2.968  11.088  0.2308  1.2537  0.9779
 3735SOL     OW22837   2.619   1.842   7.605  0.1283 -0.1496 -0.2523
 3735SOL    HW122838   2.690   1.786   7.574  0.7140  1.3483 -1.6207
 3735SOL    HW222839   2.576   1.784   7.668 -2.5079 -0.0152 -1.9048
 3736SOL     OW22840   1.854   4.721   5.483  0.4389  0.3482 -0.3329
 3736SOL    HW122841   1.939   4.704   5.523 -0.2721 -0.8352  0.6921
 3736SOL    HW222842   1.798   4.683   5.551  1.8394 -0.1934  0.5201
 3737SOL     OW22843   0.015   0.459   2.808  0.4077  0.2056 -0.2422
 3737SOL    HW122844   4.682   0.403   2.828  0.2499  0.2105 -0.8069
 3737SOL    HW222845   0.089   0.413   2.846  1.6166  0.0171 -2.8603
 3738SOL     OW22846   2.987   2.594   6.602 -0.4844  0.5239  0.0454
 3738SOL    HW122847   3.033   2.559   6.526 -1.7208  0.4773 -0.6752
 3738SOL    HW222848   2.950   2.517   6.646  0.6083 -0.9241 -1.6261
 3739SOL     OW22849   4.301   1.043   7.992  0.2052  0.1225  1.0558
 3739SOL    HW122850   4.368   1.111   7.986 -0.3729  0.7744  1.9231
 3739SOL    HW222851   4.228   1.076   8.045 -0.2879  0.1536  0.3434
 3740SOL     OW22852   3.852   0.158  17.096  0.2658 -0.1145  0.6788
 3740SOL    HW122853   3.943   0.141  17.073  0.4513  0.1850  1.2219
 3740SOL    HW222854   3.806   0.101  17.034  0.7917 -0.1279  0.3002
 3741SOL     OW22855   4.240   1.203  13.063  0.0387  0.3558 -0.0619
 3741SOL    HW122856   4.192   1.218  12.981  1.2885 -1.8254 -1.2149
 3741SOL    HW222857   4.184   1.264  13.110  0.5432 -0.7846  2.0032
 3742SOL     OW22858   4.214   0.238  14.520  0.4563 -0.3463  0.1830
 3742SOL    HW122859   4.208   0.296  14.596 -0.3137 -1.4368  0.9562
 3742SOL    HW222860   4.189   0.298  14.451  0.8175  0.0835  0.4249
 3743SOL     OW22861   1.349   3.705   9.577  0.3841  0.4979 -0.3685
 3743SOL    HW122862   1.303   3.702   9.660  0.4310  1.4855 -0.3113
 3743SOL    HW222863   1.398   3.622   9.585 -1.9380 -0.8768 -0.5516
 3744SOL     OW22864   2.981   3.837   8.193  0.1705  0.7325 -0.2575
 3744SOL    HW122865   3.072   3.856   8.215  0.4909 -0.1920 -0.7832
 3744SOL    HW222866   2.972   3.750   8.153 -1.1281  1.6888 -2.0480
 3745SOL     OW22867   1.116   0.934   4.643 -0.1038 -0.6274 -0.2596
 3745SOL    HW122868   1.173   0.885   4.702 -0.0644  0.3247  0.5045
 3745SOL    HW222869   1.110   0.870   4.572  2.2497  1.1255 -2.0498
 3746SOL     OW22870   4.380   2.264  13.473 -0.1627 -0.3101  0.7939
 3746SOL    HW122871   4.294   2.263  13.516 -1.1286 -1.7770 -1.1818
 3746SOL    HW222872   4.359   2.205  13.401 -0.9462 -3.0737  3.2769
 3747SOL     OW22873   3.543   3.666   3.814 -0.8179  0.3873 -0.3965
 3747SOL    HW122874   3.556   3.735   3.749  0.1441 -0.3816 -1.0175
 3747SOL    HW222875   3.637   3.655   3.830 -0.7712 -1.7986 -2.2956
 3748SOL     OW22876   1.358   4.427  16.213  0.3672 -0.2488 -0.6315
 3748SOL    HW122877   1.292   4.497  16.216  1.0931  0.3554  1.3613
 3748SOL    HW222878   1.432   4.488  16.207  1.1164 -0.9826  1.0401
 3749SOL     OW22879   2.251   1.051   2.361  0.7444  0.1737 -0.0283
 3749SOL    HW122880   2.220   1.094   2.440 -0.0877 -1.5028  0.5613
 3749SOL    HW222881   2.222   1.117   2.298  1.8361  0.1240 -0.5958
 3750SOL     OW22882   2.814   0.939   6.956  0.0846  0.2829  0.5185
 3750SOL    HW122883   2.853   0.852   6.949 -0.8944  0.0259 -1.9338
 3750SOL    HW222884   2.731   0.918   6.913  0.9510 -2.0723 -0.0356
 3751SOL     OW22885   3.180   3.725   8.528 -0.1761 -0.6135 -0.2413
 3751SOL    HW122886   3.159   3.788   8.597  0.2665 -1.1056  0.3439
 3751SOL    HW222887   3.258   3.762   8.487 -0.6684  2.1270  1.3023
 3752SOL     OW22888   3.740   0.936  17.048 -0.7609 -0.8097 -0.4293
 3752SOL    HW122889   3.756   0.954  16.956  0.0089  0.7966  0.0018
 3752SOL    HW222890   3.822   0.981  17.071 -1.0956  0.8939 -2.6336
 3753SOL     OW22891   3.867   0.719  12.784 -0.0784 -0.8505  0.0103
 3753SOL    HW122892   3.925   0.794  12.772 -2.5532  1.3916  1.9002
 3753SOL    HW222893   3.788   0.774  12.784  1.3001  1.1472 -0.3330
 3754SOL     OW22894   1.867   4.495   4.283  0.2392  0.2941  0.0630
 3754SOL    HW122895   1.917   4.567   4.321  0.2601  0.3436 -0.0593
 3754SOL    HW222896   1.866   4.428   4.351  0.9043  0.7135  0.4784
 3755SOL     OW22897   4.097   2.260  11.765  0.5885  0.0845 -0.1000
 3755SOL    HW122898   4.155   2.257  11.841  2.4072 -0.6430 -1.5315
 3755SOL    HW222899   4.126   2.339  11.720 -2.9727  0.8971 -0.9531
 3756SOL     OW22900   1.645   4.613   4.562 -0.2980  0.1034 -0.0949
 3756SOL    HW122901   1.598   4.610   4.646  1.8292 -2.9282  0.9756
 3756SOL    HW222902   1.718   4.662   4.599 -0.9375 -0.3823  1.8054
 3757SOL     OW22903   0.639   2.127  10.982  0.6333 -0.4401 -0.8148
 3757SOL    HW122904   0.617   2.046  10.936 -0.3406 -0.3374 -0.5371
 3757SOL    HW222905   0.725   2.145  10.945  0.9845 -0.7655 -0.1577
 3758SOL     OW22906   4.088   0.188   0.916  0.0371  0.5532 -0.2239
 3758SOL    HW122907   4.113   0.147   0.833  0.8173 -0.2009  0.3823
 3758SOL    HW222908   4.118   0.278   0.907 -1.1724  0.8826 -0.8510
 3759SOL     OW22909   1.596   2.800   5.965  0.1578  0.3361 -0.0378
 3759SOL    HW122910   1.570   2.879   6.014 -1.0586 -0.2306  0.2342
 3759SOL    HW222911   1.660   2.837   5.904  1.3188 -2.8219 -0.6988
 3760SOL     OW22912   2.185   0.088   5.139  0.1820  0.5472  0.1244
 3760SOL    HW122913   2.135   0.166   5.163 -0.4785 -0.2554  1.3148
 3760SOL    HW222914   2.272   0.119   5.162  1.5670 -3.2557  0.0473
 3761SOL     OW22915   4.111   3.130  12.832  0.1162 -0.7145 -0.3824
 3761SOL    HW122916   4.156   3.142  12.749 -0.2132  0.8629 -0.3298
 3761SOL    HW222917   4.026   3.165  12.806  0.3518 -0.8931 -1.3801
 3762SOL     OW22918   2.689   2.896   4.910 -0.0267  0.1759 -0.2593
 3762SOL    HW122919   2.641   2.977   4.925  0.9226  0.4253  1.4697
 3762SOL    HW222920   2.620   2.844   4.869  0.3618 -1.0498  0.6388
 3763SOL     OW22921   2.759   2.540  16.868  0.0251 -0.5084  0.5375
 3763SOL    HW122922   2.677   2.588  16.860  0.3538  0.2315  1.6349
 3763SOL    HW222923   2.816   2.589  16.808 -0.8825 -0.2806 -0.1440
 3764SOL     OW22924   0.670   1.503   5.454 -0.4525  0.0472  0.4940
 3764SOL    HW122925   0.750   1.457   5.430  0.6659  2.5055 -0.5313
 3764SOL    HW222926   0.624   1.429   5.494 -0.6290 -0.7718 -1.2318
 3765SOL     OW22927   1.752   0.503   5.142  0.2148  0.1835  0.0010
 3765SOL    HW122928   1.771   0.597   5.146  0.5776  0.1292 -0.3737
 3765SOL    HW222929   1.807   0.490   5.064  0.1342 -1.8201  0.2902
 3766SOL     OW22930   1.874   0.275   6.653 -0.5816  0.1445 -0.0601
 3766SOL    HW122931   1.903   0.198   6.702 -2.2469  0.3791  1.3003
 3766SOL    HW222932   1.941   0.282   6.585 -0.0338  1.4547  0.6255
 3767SOL     OW22933   4.633   3.634  10.447 -0.1655 -0.1535 -0.0297
 3767SOL    HW122934   4.557   3.588  10.411  1.5655 -1.6006 -1.8265
 3767SOL    HW222935   4.637   3.717  10.399 -0.3623 -0.0153  0.1946
 3768SOL     OW22936   2.176   0.351  15.810  0.1371  0.0332 -0.1631
 3768SOL    HW122937   2.147   0.428  15.761 -0.3479 -1.4149 -2.1732
 3768SOL    HW222938   2.268   0.369  15.824 -0.2831  1.2579  1.0080
 3769SOL     OW22939   1.296   2.185   2.581 -0.4663 -0.5895 -0.6663
 3769SOL    HW122940   1.230   2.254   2.571  1.0185  0.6325 -2.0576
 3769SOL    HW222941   1.281   2.121   2.511 -0.5541 -0.5960 -0.6413
 3770SOL     OW22942   0.707   0.188  12.021 -0.6536  0.2055 -0.3070
 3770SOL    HW122943   0.645   0.207  11.951  2.0879  1.7465 -2.3002
 3770SOL    HW222944   0.789   0.207  11.976 -0.1590 -1.7641 -0.2630
 3771SOL     OW22945   3.933   0.951   7.569 -0.1885 -0.3837 -0.4455
 3771SOL    HW122946   3.870   0.899   7.620  1.0849  0.2004  1.7074
 3771SOL    HW222947   3.978   1.011   7.629 -0.3310 -0.0853 -0.6389
 3772SOL     OW22948   4.333   2.423   4.951  0.6490  0.6426 -0.0296
 3772SOL    HW122949   4.287   2.464   5.024  0.8874 -1.7936  1.5049
 3772SOL    HW222950   4.328   2.491   4.885  1.6680 -0.8107 -1.5982
 3773SOL     OW22951   4.501   2.439   4.271  0.4166  0.2170  0.2867
 3773SOL    HW122952   4.597   2.435   4.265  0.3910  0.7323 -0.6602
 3773SOL    HW222953   4.482   2.365   4.328  0.9519 -0.0735  0.0948
 3774SOL     OW22954   4.057   1.225   4.522  0.3797 -0.1179  0.6780
 3774SOL    HW122955   4.012   1.140   4.525  1.7504 -0.9258 -2.0157
 3774SOL    HW222956   4.095   1.214   4.609  1.2604 -0.4599  0.2492
 3775SOL     OW22957   3.778   1.977  12.179 -0.5330 -0.2737  0.0010
 3775SOL    HW122958   3.759   2.030  12.101 -3.2688 -0.7218  0.3679
 3775SOL    HW222959   3.873   1.977  12.165 -0.5077 -0.1166  0.1763
 3776SOL     OW22960   1.323   0.876  10.023 -0.6952  0.7080  0.3994
 3776SOL    HW122961   1.303   0.793   9.979 -0.1116  0.2033  1.0952
 3776SOL    HW222962   1.413   0.896   9.999  0.3140 -1.1663  2.5814
 3777SOL     OW22963   2.033   1.777   7.680 -0.2520 -0.3919 -0.4052
 3777SOL    HW122964   1.967   1.708   7.690  1.2186 -1.9829 -1.5161
 3777SOL    HW222965   2.078   1.735   7.606  2.1989  1.0356  0.2672
 3778SOL     OW22966   1.862   2.235   8.693  0.4743 -0.4880 -0.4067
 3778SOL    HW122967   1.945   2.224   8.738  0.0388  0.9370  0.7630
 3778SOL    HW222968   1.863   2.329   8.674 -0.0288 -0.1542  1.2198
 3779SOL     OW22969   4.190   2.883   5.435 -0.3513  0.2098  0.3041
 3779SOL    HW122970   4.138   2.938   5.377  3.3715  0.6835 -2.6189
 3779SOL    HW222971   4.275   2.915   5.405 -0.6797 -0.0151 -0.8695
 3780SOL     OW22972   4.309   0.329   0.214 -0.3031 -0.0125 -0.8615
 3780SOL    HW122973   4.307   0.242   0.174 -0.9646  0.0312 -0.9257
 3780SOL    HW222974   4.299   0.303   0.306  0.0983  1.7441 -0.3211
 3781SOL     OW22975   0.126   3.858   6.512 -0.6335 -0.2486 -0.1841
 3781SOL    HW122976   0.207   3.873   6.463  0.4331 -1.2961  1.2989
 3781SOL    HW222977   0.165   3.796   6.573  0.3428  0.8415  0.2926
 3782SOL     OW22978   2.833   1.240  12.176 -0.2518 -0.1871  0.0624
 3782SOL    HW122979   2.907   1.188  12.207  1.2857  1.1275 -1.4045
 3782SOL    HW222980   2.765   1.208  12.235  0.5791 -0.3477  0.9298
 3783SOL     OW22981   1.434   0.002   2.922  0.3530 -0.1771 -0.1001
 3783SOL    HW122982   1.495   0.025   2.852  0.5882  0.7481  0.4104
 3783SOL    HW222983   1.423   0.095   2.945 -0.2338  0.0052 -1.1229
 3784SOL     OW22984   1.669   3.364   8.308  0.4945 -0.8067  0.3388
 3784SOL    HW122985   1.602   3.406   8.362  0.1593  1.2478 -1.6818
 3784SOL    HW222986   1.746   3.421   8.303  0.8647 -1.0848  2.7052
 3785SOL     OW22987   4.294   1.277   8.361  0.0279  0.0987 -0.2093
 3785SOL    HW122988   4.216   1.230   8.332 -0.2871 -0.4777  1.5749
 3785SOL    HW222989   4.339   1.286   8.277  0.2621 -0.7537 -0.1740
 3786SOL     OW22990   1.345   0.104   5.036  0.1216  0.3677  0.0788
 3786SOL    HW122991   1.431   0.092   4.998  1.1225  2.4209  1.6567
 3786SOL    HW222992   1.332   0.024   5.088 -0.1601  0.0199 -0.5302
 3787SOL     OW22993   0.397   3.649   6.094 -0.7710  0.0408 -0.5733
 3787SOL    HW122994   0.428   3.739   6.082  2.6422 -0.7288  2.6330
 3787SOL    HW222995   0.387   3.640   6.189 -0.5135  1.0638 -0.4561
 3788SOL     OW22996   0.327   1.647   4.741  0.3402  0.0169 -0.3799
 3788SOL    HW122997   0.330   1.739   4.713  0.1478  0.5623  1.4212
 3788SOL    HW222998   0.234   1.627   4.735 -0.0859  2.3810 -1.8290
 3789SOL     OW22999   3.977   2.408   7.403 -0.5479  0.2977 -0.1370
 3789SOL    HW123000   3.978   2.313   7.416  1.1876  0.3812  0.3311
 3789SOL    HW223001   4.023   2.439   7.481 -2.8553 -1.4912  1.8986
 3790SOL     OW23002   3.472   1.846   8.770  0.1876  0.0341  0.2893
 3790SOL    HW123003   3.567   1.839   8.766  0.4124  2.6044  0.9433
 3790SOL    HW223004   3.447   1.754   8.779  1.3054 -0.0660  2.3140
 3791SOL     OW23005   2.668   1.036   3.722  0.0882  0.4345 -0.1985
 3791SOL    HW123006   2.760   1.061   3.726  0.0427  0.5730  0.0110
 3791SOL    HW223007   2.680   0.942   3.724  0.3127  0.4421 -1.3334
 3792SOL     OW23008   4.542   4.342   2.993  0.2497 -0.2049  0.5526
 3792SOL    HW123009   4.458   4.310   2.959 -0.0866  0.1765  1.0160
 3792SOL    HW223010   4.514   4.342   3.085 -0.3375  0.4972  0.3753
 3793SOL     OW23011   1.545   1.879   6.660  0.2413 -0.3164 -0.0678
 3793SOL    HW123012   1.468   1.929   6.632  0.0416 -0.8817 -0.5153
 3793SOL    HW223013   1.573   1.858   6.571 -1.0487 -1.1261 -0.2895
 3794SOL     OW23014   0.467   3.876   4.584 -0.5466  0.1077 -0.1814
 3794SOL    HW123015   0.420   3.921   4.654  0.6134  1.4122 -0.2469
 3794SOL    HW223016   0.515   3.803   4.622 -0.4244 -0.9443 -2.3453
 3795SOL     OW23017   2.831   3.125   2.237 -0.5492 -0.0982  0.0723
 3795SOL    HW123018   2.763   3.078   2.190 -0.2973 -2.2049  1.8006
 3795SOL    HW223019   2.805   3.211   2.205 -1.4597 -0.6907 -0.7489
 3796SOL     OW23020   4.128   0.085   0.684  0.5820 -0.3485  0.0705
 3796SOL    HW123021   4.182   0.008   0.705 -2.2775 -1.4222  3.4049
 3796SOL    HW223022   4.076   0.047   0.613 -1.0731  0.7603  0.7039
 3797SOL     OW23023   4.599   1.042   0.255 -0.6708  0.2096  0.2432
 3797SOL    HW123024   4.561   1.112   0.307  1.3744  2.7941 -1.7703
 3797SOL    HW223025   4.535   0.975   0.280  0.0197 -1.3730 -2.1261
 3798SOL     OW23026   3.241   2.563   9.499  0.4872  0.1204  0.0299
 3798SOL    HW123027   3.327   2.580   9.537  0.4454 -1.9130  1.0155
 3798SOL    HW223028   3.214   2.479   9.536  0.0476 -0.6626 -2.0368
 3799SOL     OW23029   3.289   1.805  16.604  0.2575  0.0697 -0.6291
 3799SOL    HW123030   3.374   1.769  16.576 -0.0468 -1.4192  0.3820
 3799SOL    HW223031   3.316   1.897  16.614 -0.5624  0.3605 -1.1912
 3800SOL     OW23032   3.554   1.622   3.915 -0.3235  0.4032 -0.1829
 3800SOL    HW123033   3.636   1.613   3.866 -0.2531 -4.3117  0.7798
 3800SOL    HW223034   3.492   1.595   3.846 -2.1864 -1.3341  2.1667
 3801SOL     OW23035   2.234   3.715   9.357  0.4590  0.0274 -0.5789
 3801SOL    HW123036   2.276   3.630   9.349 -0.9373 -0.5356 -1.9948
 3801SOL    HW223037   2.301   3.781   9.342  1.3871 -0.3001  2.2255
 3802SOL     OW23038   2.142   4.681   2.340 -0.2986  0.3141  0.3998
 3802SOL    HW123039   2.214   4.629   2.304 -0.9128  0.7511 -1.4640
 3802SOL    HW223040   2.097   4.695   2.256 -0.5200 -0.7457  0.3348
 3803SOL     OW23041   3.278   2.030   8.642 -0.3455 -0.3712 -0.1164
 3803SOL    HW123042   3.201   1.976   8.622 -0.2771  0.3943 -2.5245
 3803SOL    HW223043   3.350   1.968   8.638 -2.4341 -2.9479  1.7328
 3804SOL     OW23044   4.441   3.456  10.389  0.5030  0.0403 -0.4421
 3804SOL    HW123045   4.377   3.419  10.329 -0.0949  1.5975 -0.7545
 3804SOL    HW223046   4.485   3.379  10.425  2.2554  1.3567  0.2849
 3805SOL     OW23047   1.776   0.719   2.060 -0.2197  0.3582 -0.4040
 3805SOL    HW123048   1.820   0.668   1.991 -2.7320 -0.3826 -1.4675
 3805SOL    HW223049   1.741   0.799   2.021 -0.2033 -0.0152 -1.1862
 3806SOL     OW23050   0.045   4.033  10.113  0.5075 -0.4319 -0.2353
 3806SOL    HW123051   0.084   4.120  10.126  2.4145 -1.3362  0.1166
 3806SOL    HW223052   0.090   4.001  10.034  1.8941  0.6794  0.1043
 3807SOL     OW23053   4.132   2.248   5.795  0.1902 -0.9531  0.0303
 3807SOL    HW123054   4.056   2.203   5.757 -0.3643  0.9019 -1.0629
 3807SOL    HW223055   4.190   2.185   5.836 -0.9341 -0.0388  3.0307
 3808SOL     OW23056   2.842   3.756  13.963  0.2187  0.0034 -0.9119
 3808SOL    HW123057   2.821   3.728  14.052 -0.0025  1.2367 -0.5660
 3808SOL    HW223058   2.937   3.765  13.963  0.3041 -0.9148 -0.2347
 3809SOL     OW23059   1.043   1.521   9.806 -0.7952  0.2904 -0.5826
 3809SOL    HW123060   1.033   1.570   9.887  0.1131 -2.0685  0.9791
 3809SOL    HW223061   0.995   1.443   9.834  1.5511 -1.4322 -1.2990
 3810SOL     OW23062   3.318   4.073   5.946 -0.1356  0.1248  0.3712
 3810SOL    HW123063   3.338   4.160   5.912 -0.4954 -0.2049 -0.6938
 3810SOL    HW223064   3.288   4.096   6.034  0.0505 -2.3039  1.0816
 3811SOL     OW23065   2.110   0.380   3.800 -0.3702 -0.6448 -0.0251
 3811SOL    HW123066   2.122   0.473   3.818  1.0324 -0.9936  0.8474
 3811SOL    HW223067   2.045   0.390   3.731  2.6009  1.6806 -2.4843
 3812SOL     OW23068   1.611   0.352   6.693 -0.1329 -0.1340  0.5864
 3812SOL    HW123069   1.702   0.325   6.681 -0.5971 -1.6871  0.5282
 3812SOL    HW223070   1.602   0.440   6.658  2.8886  0.7122  1.9572
 3813SOL     OW23071   1.717   2.709   3.074  0.0394 -0.3743  0.1676
 3813SOL    HW123072   1.686   2.747   3.156  1.8262 -0.3799  0.8512
 3813SOL    HW223073   1.800   2.754   3.061 -0.3703  0.5401  0.7188
 3814SOL     OW23074   4.152   4.557  14.735  0.1625 -0.6515  0.0930
 3814SOL    HW123075   4.126   4.642  14.701  0.6258  0.4638  2.4997
 3814SOL    HW223076   4.099   4.500  14.679 -3.3697  2.8907 -0.1439
 3815SOL     OW23077   4.730   0.160   9.732 -0.2669  0.3236  0.3725
 3815SOL    HW123078   4.692   0.072   9.728 -0.9651  0.5977  1.0664
 3815SOL    HW223079   0.058   0.152   9.668 -2.8116  0.5177 -2.4468
 3816SOL     OW23080   3.791   1.172   4.106  0.4507  0.1786  0.0631
 3816SOL    HW123081   3.823   1.152   4.019 -2.1440 -2.2432 -0.3607
 3816SOL    HW223082   3.708   1.218   4.094 -0.5516 -1.4098  0.8223
 3817SOL     OW23083   4.497   3.615   4.129 -0.4332  0.1751  0.2898
 3817SOL    HW123084   4.465   3.676   4.195  0.2834  1.9229 -0.9831
 3817SOL    HW223085   4.577   3.579   4.167  2.5581  2.5863 -3.7639
 3818SOL     OW23086   0.889   2.396   8.041 -0.0956  0.1412 -0.0066
 3818SOL    HW123087   0.965   2.417   8.095  0.3957 -0.6947 -0.3808
 3818SOL    HW223088   0.881   2.301   8.049 -1.7405  0.2104 -0.7390
 3819SOL     OW23089   2.136   1.420   3.646 -0.1042  0.2854 -0.3538
 3819SOL    HW123090   2.071   1.354   3.622 -0.7687 -0.1954  2.7341
 3819SOL    HW223091   2.098   1.436   3.732 -2.2530 -3.8847 -0.5101
 3820SOL     OW23092   0.350   0.643   4.405  0.3648  0.3043 -0.5502
 3820SOL    HW123093   0.419   0.644   4.472  0.5618  2.5144 -0.7957
 3820SOL    HW223094   0.371   0.560   4.362  0.4444  0.2818 -0.4682
 3821SOL     OW23095   4.318   0.201  14.890  0.4151  0.4008  0.3944
 3821SOL    HW123096   4.308   0.172  14.980 -1.9143 -0.0300 -0.0126
 3821SOL    HW223097   4.232   0.239  14.870  0.7531  0.1001 -1.6784
 3822SOL     OW23098   1.628   1.372  15.852 -0.7481  0.2603  0.5212
 3822SOL    HW123099   1.680   1.300  15.817 -2.7941  0.1700 -2.3023
 3822SOL    HW223100   1.675   1.445  15.810  1.9760 -2.0445 -0.4406
 3823SOL     OW23101   4.566   0.997   6.466  0.2352 -0.4220  0.3033
 3823SOL    HW123102   4.526   0.920   6.425 -0.7534 -0.3306  1.1045
 3823SOL    HW223103   4.645   0.958   6.504  1.1804 -1.5070 -2.7294
 3824SOL     OW23104   0.362   4.689  16.563  0.3042  0.1741 -0.5849
 3824SOL    HW123105   0.438   4.731  16.522 -1.4559  3.9754  0.0825
 3824SOL    HW223106   0.411   4.642  16.632 -2.1069 -0.3394  0.7911
 3825SOL     OW23107   1.214   3.657   4.916 -0.1230 -0.4705 -0.3270
 3825SOL    HW123108   1.292   3.685   4.869 -0.5286 -1.2428 -1.4741
 3825SOL    HW223109   1.195   3.574   4.872 -0.4631 -0.2733 -0.5549
 3826SOL     OW23110   3.853   0.409   7.432 -0.3982  0.2896 -0.2624
 3826SOL    HW123111   3.792   0.403   7.359  0.7338 -0.4087 -1.1475
 3826SOL    HW223112   3.937   0.441   7.399 -0.3087  0.0718 -0.2438
 3827SOL     OW23113   0.568   2.685   4.369  0.0968 -0.2797 -0.3186
 3827SOL    HW123114   0.511   2.664   4.442  0.1324 -1.1993 -0.5551
 3827SOL    HW223115   0.656   2.685   4.406  0.6730 -0.6835 -1.6567
 3828SOL     OW23116   2.536   3.945   3.820  0.5482 -0.4712  0.2038
 3828SOL    HW123117   2.608   3.891   3.788  1.5385  0.4489  0.8700
 3828SOL    HW223118   2.463   3.909   3.771 -0.1963  0.8105  0.3552
 3829SOL     OW23119   2.999   4.453  11.315 -0.5335  0.3274 -0.0944
 3829SOL    HW123120   3.005   4.488  11.404 -1.7284 -0.3818  0.2660
 3829SOL    HW223121   3.057   4.377  11.319  0.4125  1.1039  1.1508
 3830SOL     OW23122   1.010   2.801   6.612  0.0514  0.2171 -0.1156
 3830SOL    HW123123   0.936   2.752   6.648  0.2257 -0.7423 -1.0705
 3830SOL    HW223124   0.984   2.893   6.607  2.2365  0.9042  0.8803
 3831SOL     OW23125   2.706   1.247   5.745  0.2994 -0.3058  0.1287
 3831SOL    HW123126   2.691   1.333   5.706 -1.1453  0.2588  1.9311
 3831SOL    HW223127   2.801   1.251   5.752  0.3227 -3.4009  1.7048
 3832SOL     OW23128   0.423   0.230   5.156  0.1017 -0.4578 -0.0042
 3832SOL    HW123129   0.407   0.274   5.239 -0.7005  0.0363 -0.4155
 3832SOL    HW223130   0.440   0.143   5.190 -1.0890 -1.1754 -1.2297
 3833SOL     OW23131   0.589   3.810   1.842 -0.5379 -0.5680 -0.6837
 3833SOL    HW123132   0.676   3.783   1.811 -0.0998  1.1971 -0.9672
 3833SOL    HW223133   0.616   3.844   1.927 -4.5428  4.0738 -1.2973
 3834SOL     OW23134   4.016   2.022   4.309  0.5069  0.3926  0.1718
 3834SOL    HW123135   4.084   1.992   4.369  1.8140  1.3549 -0.8344
 3834SOL    HW223136   3.982   2.095   4.361  0.2307  0.5129 -0.1807
 3835SOL     OW23137   0.589   0.773   3.824 -0.0718  0.2308  0.0566
 3835SOL    HW123138   0.565   0.815   3.906  0.6974  3.3685 -1.3346
 3835SOL    HW223139   0.664   0.728   3.862  0.4473  1.3748  0.3901
 3836SOL     OW23140   0.615   3.405   5.653  0.6863  0.5226 -0.1597
 3836SOL    HW123141   0.616   3.436   5.563  1.2119 -1.3009 -0.7832
 3836SOL    HW223142   0.585   3.483   5.700  0.2892  0.2732  0.0059
 3837SOL     OW23143   1.947   3.218   7.021 -0.0999 -0.0060  0.4007
 3837SOL    HW123144   2.031   3.252   6.990  0.7553  0.0929  2.8226
 3837SOL    HW223145   1.980   3.137   7.058  0.0482  0.8687  2.1861
 3838SOL     OW23146   3.874   1.337   6.394 -0.1716  0.6579  0.5401
 3838SOL    HW123147   3.784   1.370   6.395 -0.2260  0.5148  0.2753
 3838SOL    HW223148   3.861   1.253   6.438 -0.8010  1.5596  2.0956
 3839SOL     OW23149   0.847   3.340  11.775  0.8171 -0.1236 -0.0602
 3839SOL    HW123150   0.789   3.277  11.818 -1.0202  1.3187 -0.4055
 3839SOL    HW223151   0.787   3.409  11.747 -1.8395 -1.3266  2.6704
 3840SOL     OW23152   2.342   4.522   0.750  0.2774  0.0276 -0.4412
 3840SOL    HW123153   2.296   4.442   0.772  1.2886 -0.0323  1.4834
 3840SOL    HW223154   2.426   4.503   0.791  0.6392  2.4574 -0.0473
 3841SOL     OW23155   1.864   2.364  13.697 -0.1087 -0.3025 -0.0201
 3841SOL    HW123156   1.771   2.364  13.675 -0.1199 -1.5157 -0.0090
 3841SOL    HW223157   1.874   2.450  13.737 -2.5068  0.6284 -1.4432
 3842SOL     OW23158   3.170   4.299   7.588 -0.0681 -0.1157  0.1761
 3842SOL    HW123159   3.219   4.375   7.618  0.7778  0.0760 -1.6971
 3842SOL    HW223160   3.092   4.306   7.642 -1.0661 -2.4677 -0.9717
 3843SOL     OW23161   0.384   4.178   8.617 -0.2513  0.3337  0.5924
 3843SOL    HW123162   0.358   4.169   8.525 -1.8474  2.2629  0.8495
 3843SOL    HW223163   0.475   4.208   8.617  0.6607 -2.3783 -3.0950
 3844SOL     OW23164   1.071   2.420  16.947  0.2946  0.8212 -0.4246
 3844SOL    HW123165   1.009   2.439  17.018  0.6499  0.5076 -0.0259
 3844SOL    HW223166   1.132   2.358  16.987  0.4233  0.5505 -1.0399
 3845SOL     OW23167   0.555   2.199   7.446  0.2525  0.3594 -0.4623
 3845SOL    HW123168   0.642   2.159   7.443 -1.3956 -3.1168 -1.6164
 3845SOL    HW223169   0.520   2.157   7.368  0.0297 -2.0332  0.9314
 3846SOL     OW23170   0.587   0.824   7.541  0.0014 -0.3256  0.3814
 3846SOL    HW123171   0.610   0.893   7.479 -1.2289  0.5169  0.8704
 3846SOL    HW223172   0.592   0.742   7.491 -0.9969 -1.0687  1.5042
 3847SOL     OW23173   1.950   2.282  14.429 -0.3596 -0.1927 -0.1359
 3847SOL    HW123174   2.033   2.325  14.449  0.4618 -1.1713 -1.4177
 3847SOL    HW223175   1.898   2.344  14.378  0.4418  1.2446  0.7766
 3848SOL     OW23176   4.562   0.355  12.582  0.0536 -0.3785 -0.0996
 3848SOL    HW123177   4.478   0.401  12.574  0.2604  0.3467  1.8468
 3848SOL    HW223178   4.544   0.273  12.535 -2.2118  0.3821 -0.6043
 3849SOL     OW23179   2.728   3.376  11.500 -0.1945 -0.2742  0.3105
 3849SOL    HW123180   2.814   3.360  11.460 -0.6121 -3.9097  0.9129
 3849SOL    HW223181   2.733   3.472  11.505 -0.0414 -0.3638  1.9439
 3850SOL     OW23182   2.234   4.612   7.729  0.1991  0.4455  0.3789
 3850SOL    HW123183   2.202   4.700   7.709  2.2335  1.1492  0.2007
 3850SOL    HW223184   2.163   4.557   7.695  0.7706 -0.3872  0.5188
 3851SOL     OW23185   2.295   4.266   5.285  0.3957 -0.4581  0.2022
 3851SOL    HW123186   2.204   4.273   5.254 -0.4410 -0.4426  2.6183
 3851SOL    HW223187   2.304   4.174   5.260 -0.3756 -0.1870 -1.0740
 3852SOL     OW23188   4.633   3.190  12.693 -0.5147 -0.2865 -0.1579
 3852SOL    HW123189   4.689   3.249  12.642  0.5542 -1.0062  0.1625
 3852SOL    HW223190   4.608   3.254  12.760 -2.6842 -1.9096  0.5651
 3853SOL     OW23191   3.429   3.628   8.830  0.4141  0.1796  0.2291
 3853SOL    HW123192   3.439   3.643   8.736 -3.0200 -3.0008 -0.6441
 3853SOL    HW223193   3.492   3.684   8.876 -0.8617  1.9905 -0.2096
 3854SOL     OW23194   1.447   2.076   2.053  0.3638  0.6513  0.3541
 3854SOL    HW123195   1.470   2.132   1.979 -1.3278  0.9005  0.0195
 3854SOL    HW223196   1.457   1.991   2.010  2.1285 -1.2237  4.3982
 3855SOL     OW23197   0.941   4.260   3.185 -0.0251 -0.0877  0.5277
 3855SOL    HW123198   0.918   4.311   3.262 -0.8581 -1.9934  1.5441
 3855SOL    HW223199   1.034   4.242   3.196  0.3371  1.1852 -0.5072
 3856SOL     OW23200   1.729   0.138   7.411  0.5495 -0.2181  0.2313
 3856SOL    HW123201   1.769   0.066   7.461  2.0476  0.1271 -0.5074
 3856SOL    HW223202   1.644   0.131   7.455  1.2828 -0.0536  1.6981
 3857SOL     OW23203   2.154   4.383  12.479  0.0473  0.3962  0.0413
 3857SOL    HW123204   2.228   4.323  12.490  0.1418  0.7553  1.3280
 3857SOL    HW223205   2.149   4.397  12.384  0.0654 -0.3199 -0.0679
 3858SOL     OW23206   2.164   4.608   3.161 -0.0927  0.2116 -0.6051
 3858SOL    HW123207   2.210   4.527   3.182  0.1908  1.0315  2.0026
 3858SOL    HW223208   2.074   4.576   3.163  0.6937 -2.0124 -1.3150
 3859SOL     OW23209   2.980   4.003   3.132 -0.0549 -0.3321  0.0306
 3859SOL    HW123210   2.986   3.927   3.190 -2.3559 -0.7818 -0.3423
 3859SOL    HW223211   2.886   4.003   3.113 -0.4700  0.9257  2.0324
 3860SOL     OW23212   2.465   3.686   8.030  0.5263 -0.5470  0.4292
 3860SOL    HW123213   2.412   3.714   8.104  0.4380  2.0287 -0.6223
 3860SOL    HW223214   2.442   3.593   8.026 -2.1029  0.0580  1.1841
 3861SOL     OW23215   1.033   1.270   6.079 -0.0970 -0.3712  0.4445
 3861SOL    HW123216   0.970   1.342   6.076 -1.4464 -1.6169 -1.0863
 3861SOL    HW223217   1.081   1.298   6.001 -0.1987  0.0315  0.5291
 3862SOL     OW23218   2.160   3.946   6.156 -0.0788 -0.3924 -0.7702
 3862SOL    HW123219   2.212   3.885   6.103 -0.2194 -1.3862  0.2334
 3862SOL    HW223220   2.154   4.016   6.091  1.9678  1.1599  0.6960
 3863SOL     OW23221   3.922   0.072   7.815 -0.2515 -0.4747 -0.2392
 3863SOL    HW123222   3.896   0.102   7.902 -2.0137 -0.8008 -0.6546
 3863SOL    HW223223   3.849   0.010   7.811  0.8905 -1.8847  0.6934
 3864SOL     OW23224   4.015   3.806  15.032 -0.2464 -0.0669 -1.4119
 3864SOL    HW123225   3.958   3.776  15.104  1.0657  0.4639 -0.1594
 3864SOL    HW223226   4.071   3.733  15.006  0.4340  0.1704 -0.6139
 3865SOL     OW23227   2.768   4.181   9.061  0.0926 -0.5092  0.0103
 3865SOL    HW123228   2.772   4.131   9.143  0.6039  1.6249  1.2602
 3865SOL    HW223229   2.674   4.192   9.051  0.2952  0.8296 -0.3746
 3866SOL     OW23230   0.551   4.382   3.666 -0.6526 -0.6580 -0.5232
 3866SOL    HW123231   0.488   4.322   3.707 -2.1991  1.7933  0.6972
 3866SOL    HW223232   0.500   4.422   3.595 -1.2816  0.9363  0.8177
 3867SOL     OW23233   0.347   2.189  15.010  0.0041 -0.2601  0.5775
 3867SOL    HW123234   0.406   2.161  14.939  1.2325  0.0743  1.4732
 3867SOL    HW223235   0.317   2.273  14.975 -0.8272 -0.8747 -0.2022
 3868SOL     OW23236   3.281   1.855   9.439 -0.1748  0.1693  0.3956
 3868SOL    HW123237   3.196   1.816   9.418 -0.4975  0.5475  1.0106
 3868SOL    HW223238   3.269   1.885   9.529 -2.0723  0.1872  0.1446
 3869SOL     OW23239   1.147   3.098  13.541  0.2790 -0.0952  0.3560
 3869SOL    HW123240   1.226   3.044  13.545  1.9250  2.4487  1.6538
 3869SOL    HW223241   1.175   3.166  13.601  0.5214  0.4857 -0.4231
 3870SOL     OW23242   0.732   2.688   9.084  0.6099 -0.0757 -0.9466
 3870SOL    HW123243   0.748   2.681   8.989  1.3465  2.2291 -0.9835
 3870SOL    HW223244   0.677   2.610   9.092 -1.7352  1.5901 -0.7490
 3871SOL     OW23245   4.607   1.188  14.141 -0.0091  0.9212 -0.3807
 3871SOL    HW123246   4.616   1.171  14.235  1.2455  0.3047 -0.6113
 3871SOL    HW223247   4.687   1.165  14.094  1.7212  2.2310  1.9185
 3872SOL     OW23248   3.979   3.460  11.868  0.0718 -0.4233 -0.5782
 3872SOL    HW123249   3.933   3.396  11.922 -0.5311  0.3541 -0.1803
 3872SOL    HW223250   4.043   3.481  11.936 -1.2827 -0.2914  0.6544
 3873SOL     OW23251   3.778   0.367   3.482  0.3597  0.0652 -0.4177
 3873SOL    HW123252   3.842   0.430   3.515 -1.2571  0.9940  0.9514
 3873SOL    HW223253   3.728   0.353   3.563  0.9389 -0.5212 -0.1686
 3874SOL     OW23254   2.727   3.107  15.879 -0.2351 -0.1642 -0.2445
 3874SOL    HW123255   2.777   3.031  15.849  2.7455  1.2480  1.0266
 3874SOL    HW223256   2.805   3.149  15.915 -0.4444 -0.9755  1.1661
 3875SOL     OW23257   1.098   1.658  10.514 -0.1247 -0.0730 -0.1086
 3875SOL    HW123258   1.064   1.709  10.588 -1.2991 -0.1111 -0.6159
 3875SOL    HW223259   1.025   1.596  10.501  0.5856 -1.0158  0.3349
 3876SOL     OW23260   3.914   0.670   4.879  0.2944 -0.1542  0.2566
 3876SOL    HW123261   3.912   0.714   4.964 -4.4613  1.4634 -0.7019
 3876SOL    HW223262   3.973   0.596   4.890 -2.5914 -2.5159 -0.2470
 3877SOL     OW23263   2.688   0.063   9.794 -0.3142  0.5995  0.0264
 3877SOL    HW123264   2.685   0.142   9.740  1.5745  1.4599  1.1791
 3877SOL    HW223265   2.751   0.081   9.864 -1.9082  3.3687  0.7404
 3878SOL     OW23266   4.620   1.202   5.308 -0.2124  0.3397 -0.5763
 3878SOL    HW123267   4.529   1.212   5.281 -0.3578  1.5818  0.3716
 3878SOL    HW223268   4.623   1.211   5.403  1.2588  0.4877 -0.6495
 3879SOL     OW23269   0.838   3.605  14.110  0.1694  0.5286  0.3623
 3879SOL    HW123270   0.919   3.560  14.134 -0.1251 -0.8084 -1.1502
 3879SOL    HW223271   0.872   3.626  14.023 -1.4006  1.9567  0.1025
 3880SOL     OW23272   3.725   4.498   4.327  0.1387  0.0260  0.4680
 3880SOL    HW123273   3.741   4.403   4.322 -2.5798 -0.4650  1.0678
 3880SOL    HW223274   3.697   4.502   4.419  0.8991 -1.6667  0.7928
 3881SOL     OW23275   0.339   4.658   1.563  0.3795  0.0385 -0.0167
 3881SOL    HW123276   0.365   4.649   1.654  1.8765 -1.6076 -0.5978
 3881SOL    HW223277   0.246   4.637   1.566  0.2892  0.6424  1.2045
 3882SOL     OW23278   0.348   0.789   1.870  0.2434 -0.4399 -0.1316
 3882SOL    HW123279   0.379   0.813   1.957  1.0035 -1.3850 -0.1558
 3882SOL    HW223280   0.375   0.870   1.826 -0.5040  0.6130  1.3618
 3883SOL     OW23281   1.284   1.519   3.199  0.1559  0.7320 -0.7511
 3883SOL    HW123282   1.313   1.572   3.273 -1.5492  1.7183 -0.7904
 3883SOL    HW223283   1.282   1.592   3.137  1.9139 -0.2543 -1.9864
 3884SOL     OW23284   2.686   3.546   9.341 -0.1488  0.8978  0.0713
 3884SOL    HW123285   2.643   3.474   9.388  0.5228  0.9022  0.6995
 3884SOL    HW223286   2.780   3.539   9.355 -0.2188 -1.3070 -0.5609
 3885SOL     OW23287   4.663   1.755   3.946  0.5246  0.4573 -0.8595
 3885SOL    HW123288   4.654   1.818   4.018  0.4606  0.6569 -1.0439
 3885SOL    HW223289   4.738   1.797   3.905  0.7456  0.1694 -0.7569
 3886SOL     OW23290   4.082   1.984   2.744  0.4673 -0.0694 -0.2330
 3886SOL    HW123291   4.020   2.052   2.769 -0.3518 -0.5256 -1.0413
 3886SOL    HW223292   4.164   2.032   2.730  0.6489 -0.3716 -0.2143
 3887SOL     OW23293   3.133   0.494  10.135 -0.3557 -0.0980 -0.1298
 3887SOL    HW123294   3.166   0.448  10.058 -1.1221  0.7081 -0.9493
 3887SOL    HW223295   3.080   0.565  10.099 -1.0697 -0.1936  0.7363
 3888SOL     OW23296   0.300   3.199   3.261  0.0928  0.0091 -0.0591
 3888SOL    HW123297   0.255   3.255   3.325 -0.6374 -0.5440 -0.0858
 3888SOL    HW223298   0.354   3.137   3.308 -0.4047  0.2608  0.8431
 3889SOL     OW23299   0.100   0.428  15.262  0.4566  0.3990 -0.1441
 3889SOL    HW123300   0.088   0.500  15.201  1.9999  0.7357 -0.0544
 3889SOL    HW223301   0.190   0.406  15.238  0.9065  0.9219  1.0468
 3890SOL     OW23302   0.624   3.677   4.679 -0.2973  0.2278 -0.4020
 3890SOL    HW123303   0.604   3.627   4.600 -0.7428  1.1856 -0.8951
 3890SOL    HW223304   0.717   3.659   4.692 -0.2498  0.3133 -0.6185
 3891SOL     OW23305   3.734   4.675  16.919 -0.1603  0.1393  0.0258
 3891SOL    HW123306   3.727   4.692  16.825  2.0494  3.3280  0.4426
 3891SOL    HW223307   3.777   4.590  16.930  0.7901  0.5355 -0.6223
 3892SOL     OW23308   0.990   2.880   7.119 -0.2705 -0.4237  0.3682
 3892SOL    HW123309   0.933   2.845   7.188 -1.0076  2.1205  1.0737
 3892SOL    HW223310   1.051   2.928   7.174 -0.5730 -0.9347  1.1476
 3893SOL     OW23311   4.453   1.817  15.684 -0.1161 -0.1130  0.4694
 3893SOL    HW123312   4.387   1.750  15.704 -0.7042  0.2174 -0.3536
 3893SOL    HW223313   4.460   1.823  15.589  0.0794 -0.2367  0.4768
 3894SOL     OW23314   1.866   1.379   7.885 -0.1282  0.1011  0.2921
 3894SOL    HW123315   1.895   1.351   7.971 -0.1490 -0.6665  0.0532
 3894SOL    HW223316   1.810   1.302   7.873 -1.3141  1.1488 -0.9851
 3895SOL     OW23317   2.881   0.536   3.626 -0.2614  0.4589  0.1204
 3895SOL    HW123318   2.924   0.472   3.683  0.2472  0.5101 -0.2089
 3895SOL    HW223319   2.941   0.610   3.633 -0.4472  0.6416 -0.2340
 3896SOL     OW23320   2.851   0.298   4.818 -0.7492 -0.1796  0.1531
 3896SOL    HW123321   2.850   0.305   4.723  1.2997 -2.1575 -0.0038
 3896SOL    HW223322   2.775   0.354   4.832 -0.1640  0.5722  0.3009
 3897SOL     OW23323   2.592   0.175   5.978 -0.7095 -0.6102  0.1396
 3897SOL    HW123324   2.663   0.138   5.926 -0.5615  1.3695 -1.0622
 3897SOL    HW223325   2.538   0.216   5.910  0.0927 -0.1650 -0.2301
 3898SOL     OW23326   3.161   1.425   7.598 -0.3309 -0.2658 -0.6830
 3898SOL    HW123327   3.204   1.469   7.525 -0.5904 -1.3407 -1.4845
 3898SOL    HW223328   3.137   1.342   7.557  2.6874 -1.8425  0.7433
 3899SOL     OW23329   0.282   3.453   5.855  0.0766 -0.2490 -0.6400
 3899SOL    HW123330   0.234   3.536   5.855 -2.1422 -1.5414  1.0245
 3899SOL    HW223331   0.368   3.488   5.876 -0.0408  0.4758 -1.3881
 3900SOL     OW23332   3.891   1.110   8.538 -0.0412 -0.1681  0.1364
 3900SOL    HW123333   3.982   1.086   8.520  0.5428  1.4399  0.9033
 3900SOL    HW223334   3.843   1.029   8.552  1.5869 -1.1261  0.1459
 3901SOL     OW23335   4.090   0.856   8.322  0.1650 -0.8593  0.1649
 3901SOL    HW123336   4.087   0.799   8.245 -1.5711  0.4422 -0.7551
 3901SOL    HW223337   4.016   0.809   8.362 -0.0963 -0.1471  0.5222
 3902SOL     OW23338   3.400   4.015   9.356  0.3254 -0.0180 -0.4804
 3902SOL    HW123339   3.418   3.982   9.443 -1.4131  0.5263  0.0888
 3902SOL    HW223340   3.317   4.053   9.384  0.4533 -0.2890  0.2600
 3903SOL     OW23341   3.271   2.352   4.812 -0.4029 -0.3970 -0.2264
 3903SOL    HW123342   3.236   2.425   4.761 -2.5771 -0.6428  0.9245
 3903SOL    HW223343   3.357   2.339   4.772  0.2741 -1.4724  1.5901
 3904SOL     OW23344   4.730   4.151   4.848 -0.0818  0.1587  0.8100
 3904SOL    HW123345   4.689   4.080   4.799  0.1539  0.7089 -0.1772
 3904SOL    HW223346   0.052   4.177   4.781 -1.4152  0.0562 -0.4907
 3905SOL     OW23347   4.486   0.531  10.759  0.0713  0.1189 -0.0367
 3905SOL    HW123348   4.449   0.504  10.675 -0.5450  0.4663  0.1244
 3905SOL    HW223349   4.514   0.620  10.737  1.3812 -0.4824 -0.7958
 3906SOL     OW23350   0.629   3.318   3.849 -0.3532  0.1547 -0.4983
 3906SOL    HW123351   0.614   3.365   3.932  3.4910 -1.5439  1.1550
 3906SOL    HW223352   0.711   3.271   3.858 -0.4509  0.3366  1.4865
 3907SOL     OW23353   1.273   0.509  10.387  0.0560 -0.0403 -0.4028
 3907SOL    HW123354   1.269   0.604  10.379 -2.5184 -0.1271 -0.1214
 3907SOL    HW223355   1.329   0.499  10.464  0.9338 -2.6663 -1.3605
 3908SOL     OW23356   0.623   0.147   8.237  0.2406  0.0761 -0.1878
 3908SOL    HW123357   0.542   0.149   8.187  0.1026  0.9639  0.0611
 3908SOL    HW223358   0.637   0.240   8.255  0.2738 -0.1838  1.1363
 3909SOL     OW23359   1.530   4.103   6.632  0.2999  0.4892 -0.0005
 3909SOL    HW123360   1.622   4.102   6.660  0.5407 -0.2177 -0.7995
 3909SOL    HW223361   1.536   4.069   6.542 -1.7220  0.7494 -0.2206
 3910SOL     OW23362   2.651   0.692  11.408 -0.0526 -0.6917  0.4395
 3910SOL    HW123363   2.580   0.662  11.466 -1.1721 -1.2434 -1.2225
 3910SOL    HW223364   2.724   0.691  11.469 -0.2688 -0.6463  0.7019
 3911SOL     OW23365   0.734   1.999   6.411  0.3780  0.5731 -0.0616
 3911SOL    HW123366   0.708   2.028   6.324 -2.9189 -2.6144 -0.0987
 3911SOL    HW223367   0.758   2.080   6.456  0.4809  0.2183  0.5307
 3912SOL     OW23368   1.754   2.439   3.049 -0.0993  0.4419  0.1136
 3912SOL    HW123369   1.752   2.533   3.031  2.7921  0.3634 -0.5707
 3912SOL    HW223370   1.661   2.414   3.046 -0.2921  1.3213 -1.4008
 3913SOL     OW23371   2.425   3.736  10.278 -0.2684  0.3454 -0.2486
 3913SOL    HW123372   2.487   3.809  10.283  2.7659 -2.3408  1.8607
 3913SOL    HW223373   2.387   3.747  10.365  0.8763 -2.2083  0.5999
 3914SOL     OW23374   1.069   4.072  14.683  0.6577  0.4499 -0.6071
 3914SOL    HW123375   1.070   4.096  14.776  0.5190  1.2729 -0.8254
 3914SOL    HW223376   1.062   4.162  14.652 -1.6920  0.3848 -0.2653
 3915SOL     OW23377   2.594   3.592   4.633  0.3885  0.3310  0.8158
 3915SOL    HW123378   2.675   3.585   4.684  0.5236  0.1681  0.5780
 3915SOL    HW223379   2.605   3.678   4.594 -1.7573  0.2607  0.1119
 3916SOL     OW23380   1.129   4.151  14.943  0.1382  0.0810 -0.2671
 3916SOL    HW123381   1.075   4.212  14.993 -0.2442  0.0944 -0.6975
 3916SOL    HW223382   1.200   4.132  15.003  1.2936 -0.4395 -1.7976
 3917SOL     OW23383   1.569   4.569  16.160 -0.1817  0.2897 -0.2879
 3917SOL    HW123384   1.595   4.661  16.160 -0.7959  0.4594  1.5337
 3917SOL    HW223385   1.656   4.531  16.150  0.2171  0.8020  1.1998
 3918SOL     OW23386   3.913   3.650   4.480  0.1063 -0.0363 -0.2097
 3918SOL    HW123387   3.895   3.715   4.412 -1.5140  1.4564  1.6299
 3918SOL    HW223388   3.891   3.696   4.561  1.8388  0.0329  0.2192
 3919SOL     OW23389   3.466   2.765   0.826  0.2781  0.2447 -0.0248
 3919SOL    HW123390   3.552   2.770   0.783  0.1511 -4.1067 -0.7880
 3919SOL    HW223391   3.465   2.853   0.862  0.5467 -0.7744  2.4479
 3920SOL     OW23392   0.508   0.610   5.229  0.1706  0.2532 -0.1251
 3920SOL    HW123393   0.485   0.551   5.157 -0.3188 -1.6998  1.6493
 3920SOL    HW223394   0.471   0.695   5.204 -1.6514 -0.4710  0.0871
 3921SOL     OW23395   3.075   1.960   3.035 -0.2122  0.1628 -0.2736
 3921SOL    HW123396   2.995   2.006   3.060  0.3988  1.0758 -0.0211
 3921SOL    HW223397   3.065   1.873   3.073  0.4462  0.3635  0.3603
 3922SOL     OW23398   4.595   0.959   6.788 -0.4154 -0.0465  0.1286
 3922SOL    HW123399   4.553   1.038   6.755 -2.0209 -0.3038  1.6015
 3922SOL    HW223400   4.526   0.898   6.812  0.3570 -2.1298 -2.8058
 3923SOL     OW23401   2.869   4.428   4.832  0.2660 -0.0148 -0.3045
 3923SOL    HW123402   2.953   4.442   4.875 -0.3161  1.2789  0.4068
 3923SOL    HW223403   2.877   4.488   4.758  0.4025 -1.6030 -1.5661
 3924SOL     OW23404   2.393   4.139   8.584 -0.1223 -0.1638  0.7096
 3924SOL    HW123405   2.444   4.179   8.514 -2.5385  0.8859 -0.4670
 3924SOL    HW223406   2.302   4.138   8.554 -0.2715  1.4032  1.1363
 3925SOL     OW23407   2.066   2.759  11.430  0.4714 -0.2112  0.4250
 3925SOL    HW123408   2.117   2.694  11.478  0.5507 -1.4131 -1.2954
 3925SOL    HW223409   1.984   2.718  11.403 -0.3725  0.3871  2.0838
 3926SOL     OW23410   0.677   0.609  16.897 -0.3333  0.0075  0.2284
 3926SOL    HW123411   0.627   0.665  16.837  1.9030  1.3519 -0.3781
 3926SOL    HW223412   0.656   0.649  16.981  1.2101 -0.4233  0.8144
 3927SOL     OW23413   1.082   0.411   7.097 -0.1744 -0.2593  0.5211
 3927SOL    HW123414   1.172   0.400   7.129  0.1511  0.4081 -0.1609
 3927SOL    HW223415   1.093   0.475   7.026  3.3364 -0.3865  0.9724
 3928SOL     OW23416   4.357   1.634   1.369 -0.4407 -0.6133 -0.2165
 3928SOL    HW123417   4.335   1.570   1.436  1.2944 -0.3911  0.5667
 3928SOL    HW223418   4.371   1.711   1.424  1.6784 -1.0759 -0.1090
 3929SOL     OW23419   2.947   3.419   0.338 -0.4563  0.2706  0.0946
 3929SOL    HW123420   3.004   3.482   0.294 -1.1718  0.1028 -1.0827
 3929SOL    HW223421   2.932   3.374   0.255 -0.6358 -2.3419  1.5521
 3930SOL     OW23422   0.383   4.344   6.226 -0.1803  0.0282 -0.2799
 3930SOL    HW123423   0.305   4.295   6.252  0.8322 -1.4005  0.0695
 3930SOL    HW223424   0.413   4.281   6.160 -0.8454 -1.8840  1.2545
 3931SOL     OW23425   2.082   3.258  15.190 -0.4381  0.5235 -0.5757
 3931SOL    HW123426   2.050   3.167  15.194  0.4369  0.3474  2.4483
 3931SOL    HW223427   2.174   3.234  15.205 -1.6537 -2.8114  1.7713
 3932SOL     OW23428   4.518   3.088   4.076 -0.5200  0.1513  0.3188
 3932SOL    HW123429   4.578   3.153   4.039  0.8979 -2.2549 -1.6778
 3932SOL    HW223430   4.583   3.044   4.131  0.1569  0.3028 -0.3545
 3933SOL     OW23431   2.344   0.959   7.726  0.3429  0.5802 -0.5926
 3933SOL    HW123432   2.330   1.027   7.792  1.6297 -0.6373  0.9413
 3933SOL    HW223433   2.298   0.998   7.652  0.0329  0.8277 -0.2691
 3934SOL     OW23434   0.634   0.163   7.919 -0.0492 -0.4188 -0.5855
 3934SOL    HW123435   0.561   0.114   7.882 -0.5055 -0.0941 -0.1085
 3934SOL    HW223436   0.711   0.119   7.883  0.0657 -0.7385  0.0547
 3935SOL     OW23437   3.818   1.630   1.845 -0.1815  0.0657 -0.5099
 3935SOL    HW123438   3.848   1.582   1.922 -0.3996  0.7605  0.0141
 3935SOL    HW223439   3.900   1.674   1.820  0.2152 -0.4150 -0.0389
 3936SOL     OW23440   2.633   3.823  14.285  0.2125  0.4811 -0.0494
 3936SOL    HW123441   2.638   3.750  14.223 -0.9509  0.4870 -0.1352
 3936SOL    HW223442   2.702   3.799  14.348 -1.2294 -0.4389  1.1674
 3937SOL     OW23443   2.415   3.202  11.289  0.6063  0.0011 -0.1557
 3937SOL    HW123444   2.366   3.193  11.207  0.2481  1.6653 -0.1240
 3937SOL    HW223445   2.500   3.223  11.249  0.5020 -2.2620 -1.5479
 3938SOL     OW23446   3.672   2.677   9.429 -0.3714  0.8288  0.1141
 3938SOL    HW123447   3.638   2.674   9.340 -1.7897 -1.9152  0.7684
 3938SOL    HW223448   3.596   2.631   9.465 -0.3999  0.1754 -0.7893
 3939SOL     OW23449   3.822   4.331   0.858  0.2714 -0.1193  0.0109
 3939SOL    HW123450   3.795   4.411   0.814 -1.2706 -0.5609  0.1754
 3939SOL    HW223451   3.917   4.331   0.846 -0.0357  0.0314 -2.2626
 3940SOL     OW23452   0.707   0.117   5.206  0.2861 -0.6238 -0.4503
 3940SOL    HW123453   0.626   0.074   5.231  0.7450 -0.6432  1.0127
 3940SOL    HW223454   0.707   0.189   5.269 -0.6165  0.0900 -1.2716
 3941SOL     OW23455   4.357   0.733   0.719 -0.5085 -0.1078  0.3053
 3941SOL    HW123456   4.310   0.786   0.784 -3.7257 -1.8102 -0.6453
 3941SOL    HW223457   4.440   0.721   0.765 -0.0120  1.1460 -0.2521
 3942SOL     OW23458   3.042   4.098   8.262 -0.7177 -0.0156  0.0061
 3942SOL    HW123459   2.990   4.026   8.224  0.4561 -1.8315  1.8388
 3942SOL    HW223460   3.044   4.166   8.194  1.2886 -0.6621 -0.5677
 3943SOL     OW23461   3.341   4.151   4.795  0.4969  0.1081  0.8286
 3943SOL    HW123462   3.267   4.103   4.757  1.3504 -1.4270  1.1231
 3943SOL    HW223463   3.394   4.170   4.718  3.7501 -0.3649  2.9456
 3944SOL     OW23464   4.314   1.618   4.695  1.1788 -0.3685 -0.6990
 3944SOL    HW123465   4.348   1.707   4.687  1.0607 -0.0618  1.9682
 3944SOL    HW223466   4.230   1.621   4.650 -0.4303 -0.8145  2.2356
 3945SOL     OW23467   0.519   2.051   0.042 -0.3346 -0.3970  0.1879
 3945SOL    HW123468   0.456   2.073  17.737 -2.2572 -0.6475  1.8712
 3945SOL    HW223469   0.515   1.955   0.033 -1.6108 -0.3652  0.3489
 3946SOL     OW23470   0.156   0.787   1.304  0.3005 -0.2132  0.0159
 3946SOL    HW123471   0.224   0.821   1.361  0.3500  2.2858 -1.4981
 3946SOL    HW223472   0.105   0.728   1.360  0.9300 -1.7178 -0.9969
 3947SOL     OW23473   3.170   2.577   4.650  0.1596  0.1668  0.0968
 3947SOL    HW123474   3.092   2.614   4.692  0.3629 -1.1291  1.6122
 3947SOL    HW223475   3.117   2.536   4.581 -1.2211  1.5671  0.3109
 3948SOL     OW23476   2.634   2.281   5.169 -0.3025  0.7743  0.2377
 3948SOL    HW123477   2.557   2.289   5.112 -0.7584  0.0747  0.7639
 3948SOL    HW223478   2.657   2.191   5.145  1.6905  1.1489  0.7508
 3949SOL     OW23479   1.137   4.456   4.202  0.1586  0.1139  0.1311
 3949SOL    HW123480   1.205   4.522   4.186 -0.2152  0.4864  0.0859
 3949SOL    HW223481   1.064   4.502   4.243  1.2187  1.6211  0.3418
 3950SOL     OW23482   4.020   1.889   4.609  0.5894 -0.3351  0.2154
 3950SOL    HW123483   4.008   1.822   4.541 -3.6850  0.8849 -0.2037
 3950SOL    HW223484   4.112   1.908   4.591 -0.1574  0.2851 -2.9857
 3951SOL     OW23485   2.485   2.742   6.396  0.0085  0.9184  0.0479
 3951SOL    HW123486   2.472   2.728   6.490 -0.6041  4.4832  0.5064
 3951SOL    HW223487   2.500   2.652   6.367 -2.3313  1.2040 -2.0616
 3952SOL     OW23488   3.597   2.252  16.580  0.3653  0.3823  0.7241
 3952SOL    HW123489   3.554   2.264  16.665  0.4507  2.8982  0.4148
 3952SOL    HW223490   3.531   2.262  16.511  1.5622  1.1409 -0.2924
 3953SOL     OW23491   2.883   0.182   3.203  0.9279  0.2146  0.5475
 3953SOL    HW123492   2.838   0.263   3.179 -0.8751 -0.0240  3.1195
 3953SOL    HW223493   2.812   0.123   3.180 -0.3032  1.4821  1.0734
 3954SOL     OW23494   2.498   1.940   5.010 -0.1429 -0.0410 -0.3921
 3954SOL    HW123495   2.432   1.968   4.947  1.0949 -1.2443 -2.2376
 3954SOL    HW223496   2.573   1.992   4.982  0.5456 -0.3010  0.9899
 3955SOL     OW23497   1.575   2.111  12.608 -0.3144  0.0475 -0.4669
 3955SOL    HW123498   1.525   2.035  12.578 -2.5279  1.8343 -1.3124
 3955SOL    HW223499   1.543   2.182  12.553 -1.4265 -0.1915 -0.1223
 3956SOL     OW23500   0.781   2.600  10.190  0.2906  0.2821 -0.2955
 3956SOL    HW123501   0.715   2.543  10.231  1.7343 -1.0503  0.1661
 3956SOL    HW223502   0.770   2.579  10.098  0.3369 -1.7653  0.1627
 3957SOL     OW23503   1.903   4.582   6.722 -1.1591 -0.3210 -0.1225
 3957SOL    HW123504   1.975   4.519   6.723  0.6059  1.6651 -0.7556
 3957SOL    HW223505   1.954   4.657   6.754  0.1271 -1.6567  0.9652
 3958SOL     OW23506   3.843   0.306   2.506  0.2261 -0.2858  0.1306
 3958SOL    HW123507   3.935   0.294   2.486  0.5072  0.2355  1.1285
 3958SOL    HW223508   3.844   0.343   2.595 -0.3391 -0.0267  0.0317
 3959SOL     OW23509   3.128   4.396   6.820  0.2719 -0.1321 -0.5884
 3959SOL    HW123510   3.119   4.345   6.740 -4.2919 -2.0007  1.1081
 3959SOL    HW223511   3.061   4.357   6.876  0.5080  0.5942  0.2115
 3960SOL     OW23512   1.260   1.240   3.297  0.3342  0.2939 -0.8457
 3960SOL    HW123513   1.279   1.325   3.258  0.4249  1.3475  1.5031
 3960SOL    HW223514   1.220   1.203   3.219 -0.0771 -1.3438  0.1435
 3961SOL     OW23515   0.057   3.303   1.673  0.1090  0.1123 -0.6405
 3961SOL    HW123516   0.011   3.366   1.617  0.3802 -0.2165 -1.2281
 3961SOL    HW223517   0.058   3.352   1.755  0.7892 -0.5711 -0.2405
 3962SOL     OW23518   0.056   0.522   5.075  0.4544 -0.5451  0.1786
 3962SOL    HW123519   4.731   0.514   5.144 -0.7741 -2.3607 -1.2084
 3962SOL    HW223520   0.004   0.543   4.998  0.6974 -1.4565 -0.2378
 3963SOL     OW23521   1.630   2.999   7.973  0.0736 -0.0712 -0.4012
 3963SOL    HW123522   1.708   2.997   7.917  1.1262 -1.3455  1.1245
 3963SOL    HW223523   1.655   3.029   8.060  0.3827 -0.0354 -0.5026
 3964SOL     OW23524   3.293   0.981   5.149 -0.6945  0.3236 -0.3896
 3964SOL    HW123525   3.204   0.991   5.117 -0.6813 -0.6593 -0.7495
 3964SOL    HW223526   3.293   1.030   5.231  1.5706 -0.0028 -0.1766
 3965SOL     OW23527   1.596   3.444   4.783 -0.0501  0.2303  0.2935
 3965SOL    HW123528   1.659   3.406   4.844 -0.0022 -1.3197 -0.7277
 3965SOL    HW223529   1.517   3.449   4.837 -0.6261 -0.0315 -0.5306
 3966SOL     OW23530   4.597   1.251   4.876 -0.2202  0.6257  0.7573
 3966SOL    HW123531   4.564   1.322   4.821 -1.1556 -0.5707 -0.1820
 3966SOL    HW223532   4.678   1.293   4.906  1.1000 -0.2093 -1.6752
 3967SOL     OW23533   4.262   0.269   0.474 -0.1639  0.0158 -0.0110
 3967SOL    HW123534   4.185   0.228   0.514 -0.2389 -1.4028 -1.6221
 3967SOL    HW223535   4.303   0.317   0.546 -1.8816  0.8765  0.4124
 3968SOL     OW23536   2.375   3.521  15.340 -0.2889 -0.1822  0.1202
 3968SOL    HW123537   2.302   3.564  15.384 -0.1637 -0.1476  0.2926
 3968SOL    HW223538   2.437   3.495  15.409 -1.2360 -0.0821  1.0119
 3969SOL     OW23539   1.541   3.419  13.871  0.0607  0.4996 -0.2457
 3969SOL    HW123540   1.470   3.459  13.921 -0.9448 -0.3640 -0.9790
 3969SOL    HW223541   1.626   3.451  13.900  0.7278 -1.2748 -0.2694
 3970SOL     OW23542   0.129   4.569   1.275  0.1540  0.4670 -0.1676
 3970SOL    HW123543   0.088   4.587   1.190  1.4960  3.0212 -0.3003
 3970SOL    HW223544   0.058   4.509   1.299  0.4979  0.4829  0.8633
 3971SOL     OW23545   2.043   3.133   5.463 -0.0376  0.0093 -0.1439
 3971SOL    HW123546   2.043   3.182   5.545 -0.8498  0.8288 -0.6353
 3971SOL    HW223547   1.954   3.100   5.462 -0.3843  0.9427 -0.5452
 3972SOL     OW23548   0.403   2.887   5.055  0.3199  0.0122  0.6990
 3972SOL    HW123549   0.378   2.822   5.120  0.8696 -1.5234 -0.6448
 3972SOL    HW223550   0.401   2.966   5.109  1.2357 -0.3209  1.2187
 3973SOL     OW23551   0.493   0.093   5.883  0.0498  0.0524 -0.7631
 3973SOL    HW123552   0.512   0.095   5.977 -0.7169 -1.2914 -0.5835
 3973SOL    HW223553   0.582   0.082   5.851 -0.2688  1.7276 -2.2245
 3974SOL     OW23554   4.363   3.031   8.821  0.3995  0.4640  0.1661
 3974SOL    HW123555   4.354   3.040   8.726  1.3402 -1.1840 -0.0827
 3974SOL    HW223556   4.285   2.980   8.841 -0.5976  1.2619 -1.6418
 3975SOL     OW23557   0.876   3.817   4.988 -0.0674 -0.0416  0.8554
 3975SOL    HW123558   0.843   3.881   5.051  0.7695  0.9940  0.2523
 3975SOL    HW223559   0.952   3.776   5.029  0.8873  0.8055 -0.0624
 3976SOL     OW23560   4.632   2.455  14.358 -0.1973 -0.0092 -0.3508
 3976SOL    HW123561   4.607   2.476  14.448 -0.2625  0.9959 -0.6055
 3976SOL    HW223562   4.703   2.396  14.382  1.1106  1.3291 -0.9472
 3977SOL     OW23563   4.526   2.441   1.525  0.0750 -0.4968 -0.0923
 3977SOL    HW123564   4.455   2.386   1.557 -0.0465  0.1130  0.7034
 3977SOL    HW223565   4.489   2.530   1.530  2.7045  0.7334 -2.8427
 3978SOL     OW23566   0.173   3.209  15.565 -0.1085 -0.0399  0.0867
 3978SOL    HW123567   0.116   3.179  15.494 -0.1570 -0.7299  0.4244
 3978SOL    HW223568   0.155   3.303  15.559  0.0072  0.0452  1.0576
 3979SOL     OW23569   1.658   0.517  17.243 -0.1394  0.0098 -0.3781
 3979SOL    HW123570   1.579   0.541  17.292 -0.1709  0.9914 -0.9044
 3979SOL    HW223571   1.694   0.442  17.290  1.8402 -0.7218 -3.0674
 3980SOL     OW23572   4.679   1.300   6.519 -0.0746  0.1671  0.2836
 3980SOL    HW123573   4.733   1.364   6.565 -0.6063  1.1864 -0.5171
 3980SOL    HW223574   4.738   1.224   6.517 -0.2515  0.0653 -0.8242
 3981SOL     OW23575   2.882   1.933   2.184 -0.2243  0.3644 -0.8722
 3981SOL    HW123576   2.938   1.914   2.259 -0.9285  0.8891 -0.2281
 3981SOL    HW223577   2.801   1.950   2.231  0.4211 -1.3944  0.8494
 3982SOL     OW23578   2.625   2.592   2.687  0.2128 -0.4318  0.3763
 3982SOL    HW123579   2.672   2.651   2.746 -2.0354  0.3668  1.3614
 3982SOL    HW223580   2.559   2.652   2.652  1.1821 -0.3266 -1.3130
 3983SOL     OW23581   0.808   3.531   3.594  0.2148  0.2520 -0.5364
 3983SOL    HW123582   0.831   3.623   3.578  0.8810  0.7854  3.4693
 3983SOL    HW223583   0.714   3.521   3.579  0.4641 -1.2809 -1.1364
 3984SOL     OW23584   1.381   0.286  13.021  0.6528 -0.2994  0.1719
 3984SOL    HW123585   1.415   0.363  13.066 -3.0194 -0.1153  2.5757
 3984SOL    HW223586   1.317   0.249  13.082  1.0384 -3.0416 -1.0704
 3985SOL     OW23587   3.054   2.349   3.380  0.1675  0.3110  0.3697
 3985SOL    HW123588   2.997   2.422   3.404 -0.9804 -0.0393 -1.2656
 3985SOL    HW223589   2.990   2.285   3.350  0.0336  0.0955  1.1140
 3986SOL     OW23590   0.801   2.498  16.555 -0.3566  0.2158 -0.1346
 3986SOL    HW123591   0.797   2.504  16.650 -0.1005  1.0515 -0.1749
 3986SOL    HW223592   0.894   2.478  16.542 -0.3719  0.8684 -1.3288
 3987SOL     OW23593   4.518   1.545   2.149  0.1702 -0.2061 -0.5595
 3987SOL    HW123594   4.441   1.546   2.092  0.1008  1.1040 -0.4477
 3987SOL    HW223595   4.579   1.514   2.082  0.6913 -0.9198  0.2434
 3988SOL     OW23596   1.032   4.299   9.212  0.2105 -0.6015  0.0286
 3988SOL    HW123597   0.989   4.270   9.292  0.7452  1.2912  1.0189
 3988SOL    HW223598   1.034   4.390   9.244 -1.5417 -1.0710  1.4149
 3989SOL     OW23599   2.595   3.787   3.534 -0.4021  0.1259 -0.0240
 3989SOL    HW123600   2.647   3.765   3.612  0.1008  1.1972 -0.0580
 3989SOL    HW223601   2.643   3.858   3.492  0.8492 -0.4520  0.4279
 3990SOL     OW23602   4.586   1.731   4.806  0.3391 -0.5964 -0.2057
 3990SOL    HW123603   4.547   1.797   4.864 -0.5480 -1.3228  0.0046
 3990SOL    HW223604   4.642   1.786   4.750 -1.7452  1.6169 -0.1219
 3991SOL     OW23605   2.969   3.616   8.753  0.1498  0.5373 -0.3436
 3991SOL    HW123606   2.887   3.641   8.712 -0.3066  0.5479  0.5810
 3991SOL    HW223607   3.011   3.702   8.748 -2.1638  1.5964 -1.6380
 3992SOL     OW23608   4.737   4.453  17.550  0.1424 -0.1737  0.5741
 3992SOL    HW123609   4.664   4.393  17.538 -0.9077  0.9772  1.1967
 3992SOL    HW223610   0.055   4.403  17.495  1.4264 -0.2800  2.0736
 3993SOL     OW23611   1.445   2.610  10.032  0.2278  0.1539  0.0620
 3993SOL    HW123612   1.367   2.666  10.034 -1.8614 -2.8508  1.9281
 3993SOL    HW223613   1.400   2.535  10.069  1.3631  0.2649  1.6472
 3994SOL     OW23614   0.664   1.386   8.003 -0.3081  0.1012 -0.2712
 3994SOL    HW123615   0.616   1.367   8.084  0.9062  0.2853  0.4831
 3994SOL    HW223616   0.663   1.480   7.987 -1.2588  0.0798 -0.3396
 3995SOL     OW23617   4.169   1.361   2.778 -0.3225  0.3681 -0.3979
 3995SOL    HW123618   4.248   1.310   2.758  0.3587  1.8332 -1.3990
 3995SOL    HW223619   4.167   1.362   2.874 -1.1327 -2.6670 -0.3783
 3996SOL     OW23620   2.657   4.409  14.097  0.2860 -0.1408  0.5181
 3996SOL    HW123621   2.717   4.429  14.169 -0.6143  4.3431  0.0547
 3996SOL    HW223622   2.598   4.342  14.132 -1.2742 -0.7896 -3.3786
 3997SOL     OW23623   3.123   1.419   3.526  0.1607  0.2928 -0.6730
 3997SOL    HW123624   3.058   1.351   3.508  0.5985 -0.0288 -1.0579
 3997SOL    HW223625   3.123   1.419   3.622  0.9537 -1.5550 -0.6824
 3998SOL     OW23626   2.362   1.176   4.567  0.6254  0.1602  0.6271
 3998SOL    HW123627   2.436   1.184   4.626  0.0116  1.3742  1.2247
 3998SOL    HW223628   2.361   1.083   4.544 -0.1468  0.1467  0.7034
 3999SOL     OW23629   2.803   2.756   1.846 -0.4286 -0.6476  0.1689
 3999SOL    HW123630   2.723   2.709   1.868  0.1492 -1.7236 -0.0188
 3999SOL    HW223631   2.869   2.688   1.860 -1.1568 -1.4153 -0.1380
 4000SOL     OW23632   4.463   4.159   7.710 -0.0668  0.8204  0.2770
 4000SOL    HW123633   4.540   4.106   7.730  0.8335  1.8730 -0.4422
 4000SOL    HW223634   4.406   4.082   7.715 -0.0283  0.7262 -0.7621
 4001SOL     OW23635   0.428   0.683  15.105 -0.5087  0.9463  0.7036
 4001SOL    HW123636   0.509   0.641  15.075 -1.5025 -3.0209  3.4303
 4001SOL    HW223637   0.436   0.778  15.101  1.3942  0.6568 -1.7418
 4002SOL     OW23638   3.266   3.233   5.298  0.4336 -0.1840  0.1253
 4002SOL    HW123639   3.212   3.202   5.371 -1.9623 -0.0773 -1.6274
 4002SOL    HW223640   3.335   3.168   5.285 -0.6004 -0.6489 -2.9622
 4003SOL     OW23641   0.510   2.223   7.766  0.0378  0.6880  0.1696
 4003SOL    HW123642   0.603   2.240   7.783 -0.0764  3.4417 -2.0612
 4003SOL    HW223643   0.473   2.277   7.835 -0.8015  1.0340 -0.5625
 4004SOL     OW23644   3.519   4.586   3.730  0.0342 -0.6290  0.1856
 4004SOL    HW123645   3.481   4.609   3.815  1.6163  3.0707 -0.1266
 4004SOL    HW223646   3.556   4.498   3.742 -0.4562 -0.6281  1.6632
 4005SOL     OW23647   2.842   4.666   3.842 -0.4606 -0.2040  0.0067
 4005SOL    HW123648   2.873   4.622   3.921 -0.2651 -1.5573 -0.8018
 4005SOL    HW223649   2.911   4.732   3.832 -1.7228  0.9148 -1.2204
 4006SOL     OW23650   3.442   3.526   9.302 -0.1884  0.0214  0.4549
 4006SOL    HW123651   3.434   3.614   9.267 -1.4743 -0.6349 -0.9251
 4006SOL    HW223652   3.401   3.474   9.233 -2.0103  2.2527 -0.1472
 4007SOL     OW23653   3.276   0.143   1.156 -0.7624  0.0353  0.2731
 4007SOL    HW123654   3.331   0.110   1.226 -0.7103  1.0605  0.7160
 4007SOL    HW223655   3.186   0.126   1.182 -1.2810 -0.3338 -1.7323
 4008SOL     OW23656   3.992   4.605  13.562 -0.0030 -0.2891 -0.6066
 4008SOL    HW123657   3.935   4.604  13.639  0.8274  1.8951  0.0323
 4008SOL    HW223658   3.951   4.548  13.497 -1.6844  1.4804 -1.0935
 4009SOL     OW23659   3.798   2.246  10.121 -0.0898 -0.4370  0.1087
 4009SOL    HW123660   3.881   2.287  10.097 -1.2564  1.2971 -0.9048
 4009SOL    HW223661   3.739   2.288  10.059  1.9505 -0.4017 -1.8198
 4010SOL     OW23662   0.202   1.516   8.173 -0.2496 -0.1727  0.3880
 4010SOL    HW123663   0.229   1.553   8.089  0.3293 -0.0003  0.6518
 4010SOL    HW223664   0.287   1.505   8.215  0.0358  2.1083  0.3917
 4011SOL     OW23665   4.583   2.140   8.591  0.2245 -0.2735  0.0601
 4011SOL    HW123666   4.508   2.126   8.649 -0.1666  2.4674  0.2249
 4011SOL    HW223667   4.623   2.053   8.588  2.3170  0.7115 -0.6617
 4012SOL     OW23668   4.347   0.206   6.812 -0.0788  0.4192  0.3402
 4012SOL    HW123669   4.379   0.161   6.890 -0.4071 -1.1266 -0.4335
 4012SOL    HW223670   4.361   0.298   6.835 -2.2955  1.3508 -1.9883
 4013SOL     OW23671   0.697   2.838  13.574 -1.0696 -0.2199  0.2555
 4013SOL    HW123672   0.725   2.777  13.506 -0.2943 -1.4307  1.6733
 4013SOL    HW223673   0.786   2.870  13.591 -1.0233 -1.4595  2.2916
 4014SOL     OW23674   3.473   1.524   9.888  0.1023 -0.9607 -0.1376
 4014SOL    HW123675   3.550   1.557   9.841  0.9102 -1.4723  0.8292
 4014SOL    HW223676   3.509   1.536   9.976 -1.1812  1.7494  0.0396
 4015SOL     OW23677   4.287   0.423  12.261 -0.5507  0.2051  0.2982
 4015SOL    HW123678   4.221   0.355  12.243  0.8976 -0.6644 -1.7752
 4015SOL    HW223679   4.304   0.405  12.353  1.7948  0.4116 -0.1059
 4016SOL     OW23680   2.095   0.560  11.630 -0.3841 -0.1643 -0.2826
 4016SOL    HW123681   2.027   0.495  11.645  0.6678 -1.1257  0.3016
 4016SOL    HW223682   2.102   0.604  11.715  0.9746  2.1117 -1.5512
 4017SOL     OW23683   0.829   4.642   2.080 -0.3015  0.2124 -0.2348
 4017SOL    HW123684   0.747   4.630   2.128  0.5832 -1.8084  0.7424
 4017SOL    HW223685   0.803   4.613   1.992 -0.9995 -1.2796  0.4722
 4018SOL     OW23686   2.450   1.344  11.826  0.1799  0.3388  0.1886
 4018SOL    HW123687   2.537   1.356  11.788 -0.1490  1.1961 -0.2909
 4018SOL    HW223688   2.406   1.402  11.765 -0.0170  0.0568  0.0632
 4019SOL     OW23689   1.911   2.564   8.068  0.0150 -0.0058  0.4618
 4019SOL    HW123690   1.971   2.598   8.135 -0.6928  2.6749 -0.2481
 4019SOL    HW223691   1.895   2.473   8.092 -0.0906  0.1927  1.1393
 4020SOL     OW23692   4.449   1.253   7.511 -0.1951 -0.2710 -0.1022
 4020SOL    HW123693   4.391   1.178   7.521  0.3070 -0.6292  0.0929
 4020SOL    HW223694   4.493   1.246   7.427 -2.9499 -0.9848 -1.4668
 4021SOL     OW23695   0.118   2.303   5.473 -0.0699 -0.2536  0.0444
 4021SOL    HW123696   0.116   2.399   5.463  2.7636  0.1380  3.0310
 4021SOL    HW223697   0.030   2.300   5.511  0.1774 -2.6198  0.4248
 4022SOL     OW23698   0.900   3.821   8.224  0.3499 -0.1995 -0.2575
 4022SOL    HW123699   0.816   3.793   8.189  0.3073  0.5182 -0.7207
 4022SOL    HW223700   0.944   3.756   8.279 -0.0082 -0.5693 -0.4081
 4023SOL     OW23701   0.474   3.142  15.195  0.7143  0.4172  0.0616
 4023SOL    HW123702   0.478   3.053  15.229  0.9625 -0.3412 -1.9334
 4023SOL    HW223703   0.517   3.139  15.109  0.4754 -0.6696 -0.0166
 4024SOL     OW23704   1.817   0.353  13.154 -0.4911 -0.3560  0.2278
 4024SOL    HW123705   1.887   0.414  13.133 -0.1349  0.0998  2.6697
 4024SOL    HW223706   1.849   0.269  13.120  0.5200  0.3900 -0.6671
 4025SOL     OW23707   3.932   4.292   8.828 -0.4698  0.0671  0.1722
 4025SOL    HW123708   3.948   4.382   8.856  1.3595 -0.2698  0.2145
 4025SOL    HW223709   3.836   4.287   8.831 -0.5408  0.5841 -1.4001
 4026SOL     OW23710   3.784   2.103  11.902 -0.3901 -0.3940  0.1422
 4026SOL    HW123711   3.695   2.132  11.879 -0.2869  0.2403  0.5281
 4026SOL    HW223712   3.832   2.186  11.910 -1.6903  0.3463  0.2667
 4027SOL     OW23713   2.589   0.929   6.734  0.1912 -0.5889 -0.4932
 4027SOL    HW123714   2.542   0.906   6.654 -0.0596  1.4333 -0.9405
 4027SOL    HW223715   2.629   1.015   6.717 -1.5942  0.5308  0.9074
 4028SOL     OW23716   4.603   0.573   9.385 -0.2070  0.2770  0.4107
 4028SOL    HW123717   4.620   0.490   9.429 -0.1523  0.2364  0.3128
 4028SOL    HW223718   4.684   0.594   9.339 -1.4161  0.8714 -1.4574
 4029SOL     OW23719   1.617   1.508   4.644  0.2350 -0.1316  0.0955
 4029SOL    HW123720   1.591   1.569   4.575 -0.7923  2.7285  3.0107
 4029SOL    HW223721   1.711   1.525   4.644  0.7084 -2.6796 -0.9778
 4030SOL     OW23722   1.154   0.320  10.587 -0.0792 -0.3622  0.5419
 4030SOL    HW123723   1.118   0.408  10.590  0.2554 -0.2538  1.2974
 4030SOL    HW223724   1.181   0.318  10.496 -1.5848  2.4739  0.0502
 4031SOL     OW23725   0.855   1.856   4.990 -0.3468 -0.1989  0.1884
 4031SOL    HW123726   0.871   1.762   4.982  0.9928 -0.1175  1.8581
 4031SOL    HW223727   0.926   1.877   5.051  0.6685  0.5714 -1.2830
 4032SOL     OW23728   0.956   1.615   5.019  0.2064  0.3075  0.1433
 4032SOL    HW123729   0.933   1.575   5.103 -1.2316 -2.6813 -1.6726
 4032SOL    HW223730   0.962   1.552   4.948  2.8158 -0.1345  0.7634
 4033SOL     OW23731   2.592   1.667   2.788  0.5610  0.3378 -0.0175
 4033SOL    HW123732   2.685   1.651   2.771  0.4448 -0.3942  0.0120
 4033SOL    HW223733   2.584   1.695   2.879  0.6217 -3.0322  1.0338
 4034SOL     OW23734   0.563   0.413  17.636  0.2369  0.5708 -0.1087
 4034SOL    HW123735   0.531   0.500  17.662 -0.2989  0.6381 -0.9955
 4034SOL    HW223736   0.603   0.379  17.716  1.8304  1.2723 -0.6210
 4035SOL     OW23737   4.492   1.004   0.743 -0.4678  0.4889  0.4843
 4035SOL    HW123738   4.562   1.024   0.805 -0.5122 -0.0912  0.7172
 4035SOL    HW223739   4.431   0.978   0.811  0.4550 -0.3008  1.0145
 4036SOL     OW23740   3.170   2.957   2.563 -0.2310  0.1500  0.2241
 4036SOL    HW123741   3.104   2.940   2.495 -0.2649 -1.4394  0.6609
 4036SOL    HW223742   3.147   3.043   2.598  3.0842  0.3466  1.9093
 4037SOL     OW23743   3.733   2.825  10.538 -0.0014  0.4399 -0.2177
 4037SOL    HW123744   3.652   2.790  10.574  0.5738  1.3402  1.9723
 4037SOL    HW223745   3.732   2.912  10.578 -1.8762  0.9385 -1.3590
 4038SOL     OW23746   0.529   1.786   3.808  0.0931  0.4909  0.3610
 4038SOL    HW123747   0.522   1.716   3.743  1.2827  1.1323 -0.4457
 4038SOL    HW223748   0.442   1.799   3.846 -0.0372 -1.1278  0.6193
 4039SOL     OW23749   1.501   2.512   9.630  0.4557 -0.4545  0.3844
 4039SOL    HW123750   1.523   2.443   9.692 -1.9009 -0.0563  1.6636
 4039SOL    HW223751   1.414   2.483   9.602  0.1707  0.6661  0.0666
 4040SOL     OW23752   3.210   0.006  14.704 -0.3509  0.3389 -0.8075
 4040SOL    HW123753   3.272   4.700  14.648 -2.0319 -1.8012 -0.8287
 4040SOL    HW223754   3.221   4.691  14.780 -0.9999  0.9155 -0.2802
 4041SOL     OW23755   2.893   4.299   0.626  0.6557 -0.3440  0.5497
 4041SOL    HW123756   2.802   4.281   0.652  0.0736  1.5159 -0.1401
 4041SOL    HW223757   2.876   4.313   0.533  0.2169 -0.5571  0.5972
 4042SOL     OW23758   1.762   0.413   7.855  0.1058  0.2653 -0.2188
 4042SOL    HW123759   1.766   0.507   7.837 -0.7690 -0.0113 -1.8182
 4042SOL    HW223760   1.691   0.411   7.920 -0.2097 -0.3073 -0.5909
 4043SOL     OW23761   2.370   1.994   8.234 -0.7165  0.4076  0.3521
 4043SOL    HW123762   2.424   2.073   8.240  0.9618 -0.5501 -2.1144
 4043SOL    HW223763   2.374   1.975   8.140 -2.1243  2.7638 -0.1701
 4044SOL     OW23764   0.142   4.175  15.623  0.2259 -0.1418 -0.2608
 4044SOL    HW123765   0.206   4.105  15.634 -1.0922 -1.3034  0.0117
 4044SOL    HW223766   0.073   4.146  15.683 -0.7697 -1.2277 -1.9331
 4045SOL     OW23767   4.474   4.088  17.477 -0.2510 -0.4867  0.5186
 4045SOL    HW123768   4.399   4.029  17.474 -0.2288 -0.4705 -0.4431
 4045SOL    HW223769   4.537   4.027  17.439  2.0269  1.4924  1.1258
 4046SOL     OW23770   1.131   0.876  10.691 -0.0834  0.1899 -0.0314
 4046SOL    HW123771   1.124   0.972  10.692  1.6066  0.3209  0.2713
 4046SOL    HW223772   1.046   0.867  10.648  1.3561  0.1454 -2.9139
 4047SOL     OW23773   2.284   3.036   6.940  0.5487  0.3851  0.3526
 4047SOL    HW123774   2.314   2.947   6.960  2.5138  0.9344 -0.1614
 4047SOL    HW223775   2.206   3.043   6.995 -2.0237 -2.4913 -2.8835
 4048SOL     OW23776   0.961   0.308  11.988 -0.3225  0.4759 -0.5735
 4048SOL    HW123777   0.971   0.363  12.065  1.6303  0.8366 -1.0870
 4048SOL    HW223778   1.015   0.364  11.933  2.5405 -0.4873  1.2796
 4049SOL     OW23779   0.829   2.267  10.775 -0.1619  0.0203 -0.3869
 4049SOL    HW123780   0.835   2.303  10.864 -0.4296  1.4897 -0.9634
 4049SOL    HW223781   0.895   2.323  10.734 -1.0193  0.8666 -0.6231
 4050SOL     OW23782   2.410   0.561   8.960 -0.3366  0.1566  0.0393
 4050SOL    HW123783   2.387   0.645   8.920 -1.1588  0.0057  0.2107
 4050SOL    HW223784   2.352   0.498   8.919 -0.9935  1.1714 -0.5782
 4051SOL     OW23785   3.281   0.017   2.600 -0.0458 -0.2324 -0.0734
 4051SOL    HW123786   3.264   4.687   2.539  1.1508  1.2389 -2.1497
 4051SOL    HW223787   3.192   0.054   2.606  0.0788 -0.1430  1.2051
 4052SOL     OW23788   1.533   0.622   7.010  0.2992  0.5733 -0.0154
 4052SOL    HW123789   1.555   0.593   7.098  0.1646 -3.5829 -1.3473
 4052SOL    HW223790   1.511   0.534   6.978  0.6003  0.7350 -0.6731
 4053SOL     OW23791   1.769   3.858  11.774  0.2558 -0.5467  0.1519
 4053SOL    HW123792   1.795   3.862  11.682  0.6408 -4.7135  0.0734
 4053SOL    HW223793   1.728   3.944  11.778  2.1213  0.3894 -0.7785
 4054SOL     OW23794   1.768   0.562   9.055  0.1459 -0.1705  0.1279
 4054SOL    HW123795   1.738   0.507   9.127 -2.2916  0.2348 -0.5689
 4054SOL    HW223796   1.725   0.646   9.070 -0.4410 -0.2375 -1.1745
 4055SOL     OW23797   2.929   4.458  11.026  0.4368  0.2562 -0.6798
 4055SOL    HW123798   2.894   4.543  11.000 -1.2948 -0.3207 -0.2311
 4055SOL    HW223799   2.955   4.467  11.118  0.9653 -0.6166 -0.7440
 4056SOL     OW23800   3.033   1.799   9.372  0.2612  0.3104 -0.5905
 4056SOL    HW123801   3.012   1.736   9.303  0.8767 -0.4977 -0.0390
 4056SOL    HW223802   2.958   1.785   9.431  0.7074  1.6939  0.3142
 4057SOL     OW23803   2.602   0.728   9.172 -0.1738  0.1304 -0.0260
 4057SOL    HW123804   2.628   0.642   9.206 -0.7914  0.7069  1.9127
 4057SOL    HW223805   2.664   0.783   9.220  1.5425  0.6715 -2.9240
 4058SOL     OW23806   2.038   1.730   1.967 -0.2985  0.0512  0.0461
 4058SOL    HW123807   2.033   1.822   1.941  2.3037  0.4501  0.9351
 4058SOL    HW223808   1.960   1.696   1.923  0.8156 -1.5904 -0.6789
 4059SOL     OW23809   4.112   0.479   4.910  0.7574 -0.1589  0.0009
 4059SOL    HW123810   4.184   0.510   4.964  2.2961  0.5598 -2.5070
 4059SOL    HW223811   4.047   0.452   4.976 -0.9518 -1.2448 -2.1225
 4060SOL     OW23812   4.137   0.104  15.633 -0.3100 -0.0523 -0.0173
 4060SOL    HW123813   4.054   0.150  15.620 -0.1052 -0.3138 -2.1876
 4060SOL    HW223814   4.171   0.087  15.546  1.5787  0.4250  0.6288
 4061SOL     OW23815   0.025   2.424   4.197 -0.0378 -0.1154  0.0271
 4061SOL    HW123816   0.090   2.489   4.224  0.0829 -0.2475  0.0588
 4061SOL    HW223817   0.051   2.354   4.258 -0.5597 -0.2181  0.1369
 4062SOL     OW23818   1.286   4.022   6.387 -0.0449  0.3720  0.0319
 4062SOL    HW123819   1.209   3.985   6.344 -0.8852  0.0257  1.8255
 4062SOL    HW223820   1.343   4.021   6.310 -1.7017 -0.1966 -1.1817
 4063SOL     OW23821   0.601   2.387   9.173 -0.3122  0.0478  0.3165
 4063SOL    HW123822   0.538   2.359   9.107 -1.0454  2.7608 -0.1380
 4063SOL    HW223823   0.546   2.388   9.252  0.8680  1.0941  1.1282
 4064SOL     OW23824   2.318   1.750   5.084 -0.0548  0.0681 -0.3205
 4064SOL    HW123825   2.364   1.826   5.049  1.2963 -0.8520 -0.5815
 4064SOL    HW223826   2.387   1.684   5.071 -0.5398 -0.8262  1.7116
 4065SOL     OW23827   4.284   4.285   6.360 -0.8032  0.0355  0.0381
 4065SOL    HW123828   4.376   4.259   6.366 -0.3652  1.8377  1.3047
 4065SOL    HW223829   4.298   4.375   6.330  1.4093 -0.7132 -1.2027
 4066SOL     OW23830   0.675   0.500   6.686  0.4622 -0.8826 -0.3153
 4066SOL    HW123831   0.666   0.435   6.616 -1.6813 -0.7665 -0.1455
 4066SOL    HW223832   0.761   0.477   6.720  1.2254  1.3442 -0.6962
 4067SOL     OW23833   1.411   4.394  10.085 -0.1581 -0.0529 -0.2820
 4067SOL    HW123834   1.453   4.362  10.005  1.0965 -0.2321  0.4556
 4067SOL    HW223835   1.329   4.429  10.050  0.1693 -0.7198 -1.7038
 4068SOL     OW23836   3.065   3.883   8.749 -0.0795 -0.0050  0.3760
 4068SOL    HW123837   3.139   3.943   8.753 -0.9557  1.2079 -1.6659
 4068SOL    HW223838   3.000   3.953   8.746  0.9422  0.9223 -0.0129
 4069SOL     OW23839   3.229   3.919  13.800 -0.3253  0.6524  0.2762
 4069SOL    HW123840   3.315   3.878  13.796 -0.6543  0.0505 -0.6539
 4069SOL    HW223841   3.194   3.890  13.885 -0.9589 -0.0474 -0.2276
 4070SOL     OW23842   1.475   0.383   7.398 -0.1242 -0.0505  1.0837
 4070SOL    HW123843   1.521   0.316   7.448 -0.3202 -2.4997 -2.0027
 4070SOL    HW223844   1.404   0.330   7.362  0.2394 -0.0905  0.4330
 4071SOL     OW23845   4.720   4.010  15.813  0.8091  0.2258 -0.8204
 4071SOL    HW123846   0.010   4.034  15.900 -2.8119 -0.2328  0.6117
 4071SOL    HW223847   4.707   3.916  15.823 -0.1556  0.7392  2.7539
 4072SOL     OW23848   3.661   4.284  10.496  1.1514  0.5901 -0.0841
 4072SOL    HW123849   3.671   4.377  10.514  1.2761  0.5419  0.0911
 4072SOL    HW223850   3.713   4.251  10.569  1.6160  2.7133  0.5422
 4073SOL     OW23851   3.671   0.925   5.724 -0.0281  0.0691  0.1580
 4073SOL    HW123852   3.663   0.997   5.788 -0.1507 -0.8725  1.2015
 4073SOL    HW223853   3.709   0.851   5.771  0.3334  2.0079  2.9741
 4074SOL     OW23854   2.451   2.848   5.944  0.1522  0.4069  0.1372
 4074SOL    HW123855   2.466   2.760   5.977 -2.8344 -0.0141  0.3063
 4074SOL    HW223856   2.358   2.848   5.963  0.2624 -0.5623  0.6380
 4075SOL     OW23857   4.438   0.876   4.739 -0.2821  0.5175 -0.5294
 4075SOL    HW123858   4.353   0.886   4.696 -1.4577  0.2816  1.7282
 4075SOL    HW223859   4.448   0.781   4.732  1.8697  0.6010  1.6415
 4076SOL     OW23860   1.337   1.859   8.858  0.1371 -0.3735 -0.2250
 4076SOL    HW123861   1.325   1.929   8.923 -1.4305  0.0788 -0.9858
 4076SOL    HW223862   1.363   1.921   8.790  1.4148 -1.2309 -0.5102
 4077SOL     OW23863   0.324   2.754   2.764  0.5788 -0.4566 -0.0424
 4077SOL    HW123864   0.325   2.840   2.807  5.1842 -0.5141 -0.0760
 4077SOL    HW223865   0.328   2.775   2.670  0.5688 -0.5999 -0.0741
 4078SOL     OW23866   3.364   4.075   1.263 -0.0004  0.0517 -0.1464
 4078SOL    HW123867   3.370   3.992   1.311  0.1051 -0.4649 -1.0669
 4078SOL    HW223868   3.396   4.045   1.178  2.5559  0.0452  0.8192
 4079SOL     OW23869   1.108   2.625   5.886  0.6312  0.4117 -0.0051
 4079SOL    HW123870   1.080   2.636   5.977  1.1004  1.2998  0.0382
 4079SOL    HW223871   1.025   2.622   5.839 -0.0770  2.5225  1.1104
 4080SOL     OW23872   3.501   2.529   3.520  0.3406  0.0884 -0.0113
 4080SOL    HW123873   3.527   2.457   3.577  0.9906  1.5622  1.5697
 4080SOL    HW223874   3.507   2.489   3.434  0.6322  2.1710 -0.9633
 4081SOL     OW23875   4.236   1.952   4.478  0.1294  0.5188  0.4111
 4081SOL    HW123876   4.247   2.040   4.514  0.4593  0.0871  1.3749
 4081SOL    HW223877   4.308   1.946   4.415 -1.1083  1.7634 -1.1139
 4082SOL     OW23878   4.381   4.056  15.419  0.2284 -0.0600  0.1236
 4082SOL    HW123879   4.356   3.974  15.377  1.1689 -1.1382  1.6670
 4082SOL    HW223880   4.458   4.026  15.467  1.5433  3.1307  0.0209
 4083SOL     OW23881   4.300   0.730   3.585 -0.1943  0.0597 -0.1132
 4083SOL    HW123882   4.339   0.644   3.601 -2.0894 -1.1734 -2.1386
 4083SOL    HW223883   4.358   0.796   3.622 -2.3009  2.1900 -0.5726
 4084SOL     OW23884   4.106   3.557   8.144 -0.0188  0.0258  0.3612
 4084SOL    HW123885   4.019   3.593   8.164 -0.5688 -2.7741  3.2271
 4084SOL    HW223886   4.078   3.472   8.111  0.6566  0.2286 -0.7179
 4085SOL     OW23887   1.183   2.654   1.807 -0.1929 -0.0458  0.7452
 4085SOL    HW123888   1.270   2.628   1.839 -1.1561 -2.2843  1.5395
 4085SOL    HW223889   1.182   2.595   1.732  2.3430  0.6788  0.1453
 4086SOL     OW23890   3.712   3.667  17.611 -0.1867  0.3380  0.1198
 4086SOL    HW123891   3.666   3.628  17.537 -1.4068  1.4232  0.2978
 4086SOL    HW223892   3.724   3.586  17.660  0.7000 -0.8886 -2.1172
 4087SOL     OW23893   2.205   3.458   2.157  0.1857 -0.0555 -0.2732
 4087SOL    HW123894   2.112   3.473   2.145  0.1651 -1.7033 -2.0526
 4087SOL    HW223895   2.250   3.497   2.083  0.5943 -0.4264 -0.2236
 4088SOL     OW23896   3.048   0.660   3.803  0.3397 -0.8786 -0.4444
 4088SOL    HW123897   3.097   0.661   3.885  0.0771 -0.0985 -0.2987
 4088SOL    HW223898   3.118   0.671   3.739  0.6852  2.2125  0.4678
 4089SOL     OW23899   4.099   3.322   3.385 -0.6615  0.1222 -0.4358
 4089SOL    HW123900   4.062   3.235   3.369 -2.2461  0.5087  1.1151
 4089SOL    HW223901   4.063   3.352   3.468 -1.4807 -1.6082 -0.1862
 4090SOL     OW23902   0.866   1.903  15.784 -0.4787 -0.0205 -0.1018
 4090SOL    HW123903   0.931   1.964  15.748  1.3999 -1.5037  0.8108
 4090SOL    HW223904   0.786   1.955  15.788  0.1326  0.9672 -0.7820
 4091SOL     OW23905   0.456   3.510   4.259  0.3323 -0.2771  0.1902
 4091SOL    HW123906   0.518   3.507   4.185 -0.3649 -0.1281 -0.3975
 4091SOL    HW223907   0.515   3.482   4.329  0.8102 -0.3045 -0.2238
 4092SOL     OW23908   0.525   0.026   3.019  0.6602  0.0446  0.3126
 4092SOL    HW123909   0.605   0.004   3.066 -0.2737 -1.0652  1.3796
 4092SOL    HW223910   0.559   0.081   2.948 -2.0559  0.3456 -0.7487
 4093SOL     OW23911   1.018   2.049   2.531 -0.2485  0.6149 -0.3213
 4093SOL    HW123912   0.998   2.137   2.501 -0.6029  0.7962  0.4469
 4093SOL    HW223913   1.011   2.000   2.449 -0.4603  0.7962 -0.4115
 4094SOL     OW23914   2.706   0.594   2.801 -0.7035  0.1149 -0.0140
 4094SOL    HW123915   2.718   0.585   2.706  1.4739 -0.1090  0.2817
 4094SOL    HW223916   2.711   0.688   2.817  2.1762 -0.1239  0.4169
 4095SOL     OW23917   2.150   1.118   6.965 -0.0761 -0.4977 -0.2633
 4095SOL    HW123918   2.128   1.031   6.931  0.6277 -0.9864  0.5410
 4095SOL    HW223919   2.073   1.133   7.020  0.5195 -2.4710  1.1278
 4096SOL     OW23920   1.733   0.411   8.194  0.2078  0.0586 -0.3946
 4096SOL    HW123921   1.717   0.501   8.164 -1.4275 -0.1024  0.0271
 4096SOL    HW223922   1.653   0.389   8.241  1.4704 -2.3364  0.5898
 4097SOL     OW23923   0.049   3.518   5.469 -0.6143 -0.2365 -0.4611
 4097SOL    HW123924   0.019   3.583   5.533 -0.8898  2.1356 -2.9856
 4097SOL    HW223925   0.095   3.574   5.406 -0.8403 -1.9122 -2.0967
 4098SOL     OW23926   4.055   2.683   1.127  0.6775 -0.5045  0.0847
 4098SOL    HW123927   4.075   2.759   1.072  0.2642 -0.7865 -0.4573
 4098SOL    HW223928   3.977   2.647   1.085  0.9219 -1.0426  0.0997
 4099SOL     OW23929   1.955   2.529   1.914 -0.2675 -0.3495 -0.2556
 4099SOL    HW123930   1.985   2.441   1.938  0.8842 -0.5981 -2.6543
 4099SOL    HW223931   1.984   2.538   1.823  1.3113 -0.6118  0.2250
 4100SOL     OW23932   4.101   1.369   7.859 -0.1445  0.4031 -0.1260
 4100SOL    HW123933   4.124   1.446   7.911  0.7390 -1.1901  1.8744
 4100SOL    HW223934   4.175   1.357   7.800 -0.1509 -1.5138  0.2568
 4101SOL     OW23935   3.151   1.624   2.829  0.0044  0.1321  0.1367
 4101SOL    HW123936   3.146   1.671   2.912 -0.4381  1.0975 -0.4232
 4101SOL    HW223937   3.217   1.680   2.789 -0.7577  0.5641 -0.5241
 4102SOL     OW23938   0.218   2.857   3.639 -0.4905 -0.1113 -0.3114
 4102SOL    HW123939   0.296   2.851   3.694 -0.3532 -1.0546 -0.6078
 4102SOL    HW223940   0.169   2.926   3.684  0.4841 -0.3585  1.1377
 4103SOL     OW23941   0.792   0.140   2.340 -0.0106  0.1185 -0.5087
 4103SOL    HW123942   0.875   0.130   2.294  0.6701  0.9485  0.5432
 4103SOL    HW223943   0.738   0.185   2.274  1.3142  1.3495 -0.7457
 4104SOL     OW23944   4.539   0.093  16.480 -0.2706 -0.3619  0.2187
 4104SOL    HW123945   4.513   0.002  16.465  1.6202 -1.0399  1.1428
 4104SOL    HW223946   4.622   0.096  16.432 -0.4841  1.5694 -0.0140
 4105SOL     OW23947   3.469   3.043   2.001  0.2947 -0.1868  0.1089
 4105SOL    HW123948   3.496   3.090   1.922 -1.9337  1.5724  0.4040
 4105SOL    HW223949   3.409   2.976   1.970  1.4595 -0.6853 -1.0525
 4106SOL     OW23950   3.203   0.821   8.129  0.3994  0.4760 -0.8740
 4106SOL    HW123951   3.266   0.843   8.060  1.0286 -0.7488 -0.6963
 4106SOL    HW223952   3.136   0.787   8.071  1.4438  0.5408 -2.1320
 4107SOL     OW23953   4.399   3.933   5.217  0.0099  0.2154 -0.0193
 4107SOL    HW123954   4.445   4.007   5.177 -2.9094  1.8618 -0.3439
 4107SOL    HW223955   4.316   3.977   5.236 -1.6463 -0.9198 -4.5526
 4108SOL     OW23956   4.321   2.848  14.735 -0.2840  0.2087 -0.0269
 4108SOL    HW123957   4.334   2.900  14.656 -2.2549  2.7571  1.3213
 4108SOL    HW223958   4.314   2.920  14.797 -3.3368  0.2729 -0.4049
 4109SOL     OW23959   0.370   1.284   8.003 -0.6808  0.0415  0.1356
 4109SOL    HW123960   0.347   1.197   7.973  0.3555  0.4084 -1.7043
 4109SOL    HW223961   0.423   1.316   7.930  1.3794  1.2186  2.1179
 4110SOL     OW23962   3.854   2.751   3.223 -0.3345 -0.4705 -0.8049
 4110SOL    HW123963   3.766   2.780   3.249  0.6115 -0.5057  2.3936
 4110SOL    HW223964   3.885   2.694   3.293 -0.2053  0.2512 -0.2763
 4111SOL     OW23965   4.519   3.301   8.365 -0.4657 -0.5110  0.0104
 4111SOL    HW123966   4.433   3.311   8.407  0.7253  1.0027  2.1040
 4111SOL    HW223967   4.573   3.290   8.443  1.4576  1.8943 -0.9919
 4112SOL     OW23968   3.885   3.724   4.041 -0.2813  0.1176 -0.1747
 4112SOL    HW123969   3.850   3.672   4.113  0.0378  1.2696  0.7967
 4112SOL    HW223970   3.949   3.785   4.077  1.1319 -1.0801 -0.6558
 4113SOL     OW23971   0.707   4.474  14.747  0.0431 -0.1413 -0.0161
 4113SOL    HW123972   0.673   4.409  14.809  1.0834  0.9101  1.6505
 4113SOL    HW223973   0.627   4.510  14.710  1.0563  0.9646 -1.1147
 4114SOL     OW23974   2.575   1.189   8.323 -0.3774 -0.1288 -0.0085
 4114SOL    HW123975   2.625   1.267   8.346  1.3789 -0.2591 -3.3824
 4114SOL    HW223976   2.548   1.159   8.410 -1.9018 -0.9093 -0.7438
 4115SOL     OW23977   2.752   3.487  11.831 -0.0120 -0.5440 -0.2437
 4115SOL    HW123978   2.790   3.504  11.918  1.2265 -0.2289 -0.8523
 4115SOL    HW223979   2.752   3.571  11.785 -2.2404 -0.4704 -0.1444
 4116SOL     OW23980   3.300   1.911   5.973  0.6722 -0.3046 -0.5882
 4116SOL    HW123981   3.228   1.972   5.985  0.0901 -0.7432 -1.8911
 4116SOL    HW223982   3.340   1.936   6.057 -1.5786  0.4251  0.2510
 4117SOL     OW23983   1.292   4.175   0.507  0.0091  0.3579 -0.6094
 4117SOL    HW123984   1.346   4.241   0.551  1.9430  0.7457 -3.5197
 4117SOL    HW223985   1.286   4.115   0.581 -2.4114  3.3921  1.6660
 4118SOL     OW23986   2.656   4.150   0.675 -0.0129  1.1269 -0.0232
 4118SOL    HW123987   2.714   4.080   0.643 -1.6975 -0.4066  0.2210
 4118SOL    HW223988   2.590   4.154   0.605  1.2550 -0.1426 -1.2915
 4119SOL     OW23989   1.715   0.455  15.246  0.1168  0.3451 -0.2561
 4119SOL    HW123990   1.650   0.431  15.179 -0.2230  1.8613 -0.4747
 4119SOL    HW223991   1.702   0.385  15.311 -2.6084  1.4072  0.3602
 4120SOL     OW23992   2.150   3.482   4.328 -0.1341 -0.0051 -0.0010
 4120SOL    HW123993   2.160   3.417   4.259  1.7455 -1.2769  1.4701
 4120SOL    HW223994   2.105   3.551   4.279 -0.6658  0.4683  1.1336
 4121SOL     OW23995   1.118   4.198  16.652  0.1512 -0.6130  0.2359
 4121SOL    HW123996   1.124   4.254  16.729 -0.8881 -1.0875  0.6629
 4121SOL    HW223997   1.025   4.181  16.634  0.0107 -1.4142  1.7681
 4122SOL     OW23998   4.106   3.835   3.449  0.1641 -0.2206 -0.1629
 4122SOL    HW123999   4.166   3.820   3.522  0.0114  0.8379  0.1801
 4122SOL    HW224000   4.134   3.765   3.390  0.7225 -0.0215 -0.1398
 4123SOL     OW24001   1.488   4.607   6.097 -0.5354 -0.3949 -0.2382
 4123SOL    HW124002   1.551   4.555   6.146 -0.1334 -1.6920 -2.1484
 4123SOL    HW224003   1.493   4.689   6.146 -0.2874 -0.7126  0.2686
 4124SOL     OW24004   1.396   2.226   2.303 -0.3260  0.4277 -0.3033
 4124SOL    HW124005   1.429   2.178   2.227 -1.8643  0.0864 -0.7470
 4124SOL    HW224006   1.420   2.177   2.381  1.0223 -2.4209 -2.5167
 4125SOL     OW24007   2.901   3.745   2.088  0.4163  0.0307  0.0472
 4125SOL    HW124008   2.960   3.717   2.158 -0.0109  1.0829  0.8215
 4125SOL    HW224009   2.962   3.734   2.015  0.0272  1.7363 -0.5426
 4126SOL     OW24010   0.008   3.080   3.423  0.1663 -0.2528 -0.0175
 4126SOL    HW124011   0.011   3.073   3.328 -2.6746  0.3950 -0.1569
 4126SOL    HW224012   4.667   3.038   3.448 -0.4317  0.2663 -1.1089
 4127SOL     OW24013   0.714   1.775   8.547  0.1808 -0.0708  0.4229
 4127SOL    HW124014   0.723   1.869   8.529  0.1454 -0.1740 -0.1380
 4127SOL    HW224015   0.760   1.759   8.629 -0.9639 -2.3547  0.6257
 4128SOL     OW24016   4.051   4.671  15.838 -0.6178 -0.2946  0.6311
 4128SOL    HW124017   4.067   4.726  15.761  1.2384  1.0581  1.9678
 4128SOL    HW224018   4.016   4.595  15.791 -1.4213 -0.9425  2.2837
 4129SOL     OW24019   0.611   3.642  14.308  0.3356 -0.7134 -0.0090
 4129SOL    HW124020   0.658   3.676  14.232  0.6022  2.0591  1.4007
 4129SOL    HW224021   0.678   3.654  14.375 -0.5607 -2.9858  1.3282
 4130SOL     OW24022   4.611   2.211   4.139 -0.4225 -0.1776  0.1769
 4130SOL    HW124023   4.620   2.306   4.135  0.5024 -0.1483  2.8909
 4130SOL    HW224024   4.523   2.212   4.103  1.1283  1.9869 -3.5470
 4131SOL     OW24025   3.777   1.836   9.500 -0.0832 -0.1081  0.4647
 4131SOL    HW124026   3.737   1.786   9.571 -1.3063  1.7386  1.0832
 4131SOL    HW224027   3.703   1.887   9.466 -0.6413 -1.2709 -0.0647
 4132SOL     OW24028   0.817   4.742   3.067  0.4392  0.4409  0.5508
 4132SOL    HW124029   0.837   4.680   2.996  1.2518  2.0672 -0.6451
 4132SOL    HW224030   0.874   4.695   3.128  2.3596 -0.2794 -1.7999
 4133SOL     OW24031   2.649   3.123  12.737  0.3183  0.1302  0.1257
 4133SOL    HW124032   2.725   3.136  12.794  0.0042 -0.5819  0.7025
 4133SOL    HW224033   2.648   3.028  12.727  0.3227  0.3067 -1.4887
 4134SOL     OW24034   3.228   0.035  13.830 -0.1358 -0.4808 -0.2011
 4134SOL    HW124035   3.267   0.110  13.787 -0.4419  0.2361  0.7705
 4134SOL    HW224036   3.183   0.071  13.906 -2.7215  0.5765 -2.2210
 4135SOL     OW24037   2.883   4.132   1.870 -0.0718 -0.2792  0.8541
 4135SOL    HW124038   2.872   4.207   1.811  1.8072 -0.5487  0.1885
 4135SOL    HW224039   2.809   4.077   1.844 -0.0221  0.6451 -1.2758
 4136SOL     OW24040   3.377   4.082   9.075  0.8621 -0.4673 -0.7803
 4136SOL    HW124041   3.406   4.042   9.157  0.2731  1.1213  0.1965
 4136SOL    HW224042   3.352   4.165   9.116  0.3882 -1.1189  0.2401
 4137SOL     OW24043   4.344   3.270  10.218  0.4126  0.0391  0.4771
 4137SOL    HW124044   4.258   3.230  10.231 -0.1342  1.0316 -0.0817
 4137SOL    HW224045   4.413   3.205  10.227  0.6041  0.2036  0.1656
 4138SOL     OW24046   3.129   3.719   9.377 -0.5533  0.2307  0.3774
 4138SOL    HW124047   3.186   3.697   9.303 -2.6102 -2.6928 -0.3807
 4138SOL    HW224048   3.045   3.743   9.339 -1.2976  0.0233  1.8736
 4139SOL     OW24049   0.825   1.466  16.684 -0.5096  0.0524 -0.0530
 4139SOL    HW124050   0.893   1.524  16.717 -0.8855  0.0125  0.7984
 4139SOL    HW224051   0.842   1.461  16.590  2.3229  2.6980  0.3544
 4140SOL     OW24052   1.081   0.229   5.579  0.0848 -0.3763  0.3326
 4140SOL    HW124053   1.134   0.276   5.516  1.4580 -1.9773  0.2908
 4140SOL    HW224054   1.117   0.265   5.660 -1.3301  3.1949 -0.6225
 4141SOL     OW24055   3.343   3.761   9.957  0.4362 -0.2678  0.8370
 4141SOL    HW124056   3.385   3.700   9.896 -0.3496 -0.9850  0.9994
 4141SOL    HW224057   3.421   3.784  10.007  3.5525 -0.5679 -3.9019
 4142SOL     OW24058   1.358   3.279   5.704  0.2936 -0.2242 -0.3930
 4142SOL    HW124059   1.271   3.318   5.693  1.4333  2.4785  0.0545
 4142SOL    HW224060   1.412   3.339   5.653 -0.7527 -0.3479 -1.6575
 4143SOL     OW24061   3.696   0.232   7.699 -0.4451  0.4837  0.0585
 4143SOL    HW124062   3.709   0.282   7.780  0.6431  0.1867  0.0731
 4143SOL    HW224063   3.719   0.148   7.740  2.6793  0.0154 -2.6689
 4144SOL     OW24064   3.563   0.315   6.454  0.3415  0.1627  0.2337
 4144SOL    HW124065   3.534   0.403   6.478  2.4348  0.3730  1.9748
 4144SOL    HW224066   3.509   0.276   6.522 -3.3726  2.5993 -1.3183
 4145SOL     OW24067   1.859   2.196  12.570  0.0388 -0.9224 -0.6816
 4145SOL    HW124068   1.820   2.122  12.523  0.6948 -1.1322 -0.9010
 4145SOL    HW224069   1.790   2.262  12.575  1.9505  1.0733 -0.7823
 4146SOL     OW24070   0.444   2.860   6.208 -0.5197  0.1265 -0.6588
 4146SOL    HW124071   0.506   2.868   6.281 -1.3601 -1.7159  0.2665
 4146SOL    HW224072   0.422   2.952   6.192  1.8861  0.5725 -1.4310
 4147SOL     OW24073   2.510   4.124   9.022 -0.6906 -0.3984  0.0795
 4147SOL    HW124074   2.420   4.090   9.019 -0.2318 -1.4351 -1.6402
 4147SOL    HW224075   2.504   4.193   8.955  1.1687 -0.5207 -0.2161
 4148SOL     OW24076   3.645   0.776  15.202  0.3764 -0.1094  0.1320
 4148SOL    HW124077   3.625   0.837  15.131 -1.0046 -1.2589 -0.4693
 4148SOL    HW224078   3.729   0.813  15.229 -0.3828 -0.2225  2.6391
 4149SOL     OW24079   0.437   2.827  11.674 -0.2095 -0.1582  0.1614
 4149SOL    HW124080   0.400   2.828  11.762  0.5028 -1.2078  0.4769
 4149SOL    HW224081   0.363   2.792  11.625  1.2189 -1.6467 -0.9187
 4150SOL     OW24082   4.609   2.870   3.228 -0.1576 -0.1378  0.1034
 4150SOL    HW124083   4.643   2.780   3.223  0.7155  0.1491  0.8925
 4150SOL    HW224084   4.584   2.884   3.319 -1.0596 -0.6228 -0.0703
 4151SOL     OW24085   0.883   3.184   8.771  0.0520 -0.2521 -0.5745
 4151SOL    HW124086   0.893   3.115   8.837 -0.0061 -1.8873 -2.2784
 4151SOL    HW224087   0.916   3.260   8.818 -1.3735  1.0313 -1.6678
 4152SOL     OW24088   3.716   3.227   8.638 -0.2690 -0.3390  0.4662
 4152SOL    HW124089   3.764   3.263   8.713 -2.8370 -1.2025  2.5240
 4152SOL    HW224090   3.693   3.312   8.599 -1.8536  0.1081  2.3389
 4153SOL     OW24091   0.279   1.870   4.308 -0.3261  0.1832 -0.1158
 4153SOL    HW124092   0.313   1.956   4.280  0.4200 -0.8941 -2.4928
 4153SOL    HW224093   0.262   1.828   4.224 -1.0004 -0.0352  0.1266
 4154SOL     OW24094   2.210   0.852  10.083  0.1043 -0.3043 -0.5269
 4154SOL    HW124095   2.255   0.935  10.093 -2.2514  0.7001  1.7312
 4154SOL    HW224096   2.128   0.884  10.046 -1.3809 -2.0764  1.2554
 4155SOL     OW24097   0.094   1.964  11.885  0.3707  0.0479 -0.1045
 4155SOL    HW124098   0.068   2.018  11.810 -0.1144 -0.2756 -0.1675
 4155SOL    HW224099   0.183   1.933  11.866 -0.3945 -1.2419 -1.5809
 4156SOL     OW24100   0.441   2.301   1.412 -0.6987 -0.3968  0.0163
 4156SOL    HW124101   0.369   2.291   1.474  0.1197  4.3785  1.7327
 4156SOL    HW224102   0.429   2.217   1.368 -0.3165 -0.3120 -0.2478
 4157SOL     OW24103   1.013   2.321   4.506  0.2496  0.3226 -0.5664
 4157SOL    HW124104   1.031   2.412   4.481 -1.8203  0.2831 -2.1368
 4157SOL    HW224105   1.073   2.298   4.577  0.6026 -0.4034 -1.0954
 4158SOL     OW24106   1.376   1.308   4.827  0.8206 -0.3589 -0.0269
 4158SOL    HW124107   1.444   1.320   4.893  0.9160  0.6341 -0.3182
 4158SOL    HW224108   1.346   1.231   4.876 -0.1390 -0.9220 -1.5212
 4159SOL     OW24109   4.076   3.719   3.115 -0.0491 -0.1901  0.3484
 4159SOL    HW124110   4.000   3.770   3.087 -0.1774 -0.1318  0.8079
 4159SOL    HW224111   4.134   3.789   3.144  0.5360  0.2028 -1.7171
 4160SOL     OW24112   4.660   2.582   3.190  0.2432  0.1793  0.0008
 4160SOL    HW124113   4.566   2.582   3.172  0.1127 -0.8457  0.6594
 4160SOL    HW224114   4.696   2.521   3.125 -0.8617 -0.7924  0.2941
 4161SOL     OW24115   3.528   1.221   3.985 -0.3078 -0.6131  0.2504
 4161SOL    HW124116   3.457   1.275   4.021  0.2505  0.9330 -0.9834
 4161SOL    HW224117   3.480   1.154   3.936  0.4314 -0.1693 -1.0413
 4162SOL     OW24118   2.567   1.922   3.948 -0.0764  0.1800  1.1082
 4162SOL    HW124119   2.574   1.979   4.024  0.2738  0.5737  0.7810
 4162SOL    HW224120   2.584   1.841   3.996 -0.5028  0.7814  2.2758
 4163SOL     OW24121   0.695   4.209   6.382 -0.3129 -0.4181 -0.1486
 4163SOL    HW124122   0.746   4.160   6.446 -1.6114 -1.1412  0.3319
 4163SOL    HW224123   0.608   4.178   6.406 -1.9113  4.8599  0.7979
 4164SOL     OW24124   4.613   1.347   8.897  0.2023  0.1561 -0.0651
 4164SOL    HW124125   4.629   1.408   8.825  1.7647  2.5956  2.3703
 4164SOL    HW224126   4.602   1.271   8.840  0.3350  0.7261 -0.8551
 4165SOL     OW24127   1.277   4.709   5.260  0.4322 -0.0868 -0.5064
 4165SOL    HW124128   1.195   0.017   5.265 -1.0320 -2.7851  2.2040
 4165SOL    HW224129   1.266   4.651   5.335 -1.0657  0.4239 -0.3378
 4166SOL     OW24130   2.432   4.487   7.189 -0.3251  0.3942  0.0429
 4166SOL    HW124131   2.523   4.504   7.215 -0.1173  1.0252 -1.0955
 4166SOL    HW224132   2.389   4.547   7.249 -1.9113 -1.1936  0.4945
 4167SOL     OW24133   4.650   4.054  10.568 -0.4210 -0.0011 -0.1817
 4167SOL    HW124134   4.729   4.104  10.589 -0.1167 -0.7038  0.3619
 4167SOL    HW224135   4.578   4.115  10.584 -0.1125  0.3375 -0.0895
 4168SOL     OW24136   2.198   0.953   4.778 -0.5812  0.1609  0.4012
 4168SOL    HW124137   2.290   0.926   4.777 -1.6366 -3.3218 -1.2245
 4168SOL    HW224138   2.153   0.874   4.749  0.4638  0.7565 -2.8410
 4169SOL     OW24139   3.879   0.833   6.014 -0.3994 -0.4535  0.3443
 4169SOL    HW124140   3.913   0.915   5.979  0.4966 -0.4010  1.3440
 4169SOL    HW224141   3.953   0.786   6.052 -0.3588  1.6011  2.7481
 4170SOL     OW24142   2.123   2.941   3.229 -0.3675 -0.2175  0.0792
 4170SOL    HW124143   2.146   3.032   3.208 -0.2161 -0.6638 -1.6782
 4170SOL    HW224144   2.171   2.928   3.310 -1.5276 -0.6956  0.6851
 4171SOL     OW24145   2.766   2.827   5.560 -0.2848 -0.3284  0.7786
 4171SOL    HW124146   2.859   2.851   5.562 -0.3345 -0.0661 -0.3825
 4171SOL    HW224147   2.753   2.794   5.472 -3.0737  0.4092  0.9123
 4172SOL     OW24148   4.322   0.235   1.517 -0.9144  0.2268  0.3231
 4172SOL    HW124149   4.296   0.220   1.608  0.4854  0.7363  0.8029
 4172SOL    HW224150   4.258   0.178   1.473 -0.4680  2.3981 -3.1501
 4173SOL     OW24151   2.450   3.836  15.406 -0.1537  0.4419  0.2706
 4173SOL    HW124152   2.527   3.797  15.446 -0.3045 -1.1416 -0.9705
 4173SOL    HW224153   2.384   3.806  15.469 -0.0592 -0.3260  0.0066
 4174SOL     OW24154   0.764   4.431  11.250  0.0380 -0.2159  0.2409
 4174SOL    HW124155   0.696   4.490  11.283  1.0449  1.1942 -0.1913
 4174SOL    HW224156   0.813   4.423  11.331  0.4379 -0.4827 -0.0247
 4175SOL     OW24157   4.045   3.111   9.809  0.3576 -0.1779 -0.2859
 4175SOL    HW124158   4.130   3.068   9.801 -0.4116 -1.7956  0.3030
 4175SOL    HW224159   4.035   3.172   9.735 -0.0732  0.9147  0.6784
 4176SOL     OW24160   1.890   1.068   3.231  0.0628 -0.4952 -0.1464
 4176SOL    HW124161   1.860   1.140   3.175 -1.5977 -0.2506  1.0348
 4176SOL    HW224162   1.856   0.997   3.176  2.6179 -0.8236 -1.2862
 4177SOL     OW24163   0.871   1.323   4.435  0.1358 -0.5220  0.3386
 4177SOL    HW124164   0.798   1.356   4.488  0.2858 -2.2088  1.5868
 4177SOL    HW224165   0.909   1.248   4.480 -1.3224 -0.0972  2.2708
 4178SOL     OW24166   1.091   1.819   7.753  0.1429  0.4527  0.3170
 4178SOL    HW124167   1.125   1.729   7.758 -0.5150  0.3362  2.7172
 4178SOL    HW224168   1.035   1.808   7.677 -0.6542 -1.6092  1.2123
 4179SOL     OW24169   2.903   3.781   7.624  0.0744  0.6816 -0.1921
 4179SOL    HW124170   2.933   3.709   7.569  0.9067 -0.2453  1.4769
 4179SOL    HW224171   2.851   3.829   7.559 -0.6968 -0.3051 -0.2892
 4180SOL     OW24172   4.068   4.065   2.521 -0.4781  0.7081 -0.2074
 4180SOL    HW124173   3.984   4.097   2.555 -0.3053  0.1048  0.7765
 4180SOL    HW224174   4.040   3.974   2.507  0.5202  0.1996  1.1747
 4181SOL     OW24175   2.449   4.057   6.297 -0.1198  0.0603 -0.3570
 4181SOL    HW124176   2.483   3.974   6.330  0.0241  0.2151 -0.1196
 4181SOL    HW224177   2.385   4.074   6.367  0.8082  1.7095  0.0721
 4182SOL     OW24178   1.527   1.727   2.176  0.0428 -0.2138 -0.1845
 4182SOL    HW124179   1.479   1.649   2.150  2.7784 -1.9760  0.0774
 4182SOL    HW224180   1.471   1.783   2.229 -0.6815 -0.7821 -0.3537
 4183SOL     OW24181   3.179   4.555   7.712 -0.4398  0.3151  0.4099
 4183SOL    HW124182   3.116   4.597   7.770 -1.3888 -4.5436  2.8939
 4183SOL    HW224183   3.134   4.575   7.630 -0.1680 -2.3723 -0.4076
 4184SOL     OW24184   4.119   3.215  14.979 -0.0407  0.5485  0.5489
 4184SOL    HW124185   4.037   3.167  14.968  0.5114 -0.5206  1.0884
 4184SOL    HW224186   4.186   3.160  14.938 -0.9107  0.3109 -0.5672
 4185SOL     OW24187   2.695   1.800   8.222  0.0146 -0.7644 -0.8916
 4185SOL    HW124188   2.621   1.776   8.278 -0.4691  0.9361 -0.7945
 4185SOL    HW224189   2.769   1.762   8.269 -0.0442  1.7874  1.2587
 4186SOL     OW24190   2.283   4.187   4.059  0.2284 -0.0721  0.3979
 4186SOL    HW124191   2.350   4.224   4.117 -0.3437 -0.1024  1.0908
 4186SOL    HW224192   2.201   4.204   4.107 -0.6774 -0.7165 -0.9152
 4187SOL     OW24193   1.380   0.619   8.179  0.1143  0.3855 -0.6204
 4187SOL    HW124194   1.300   0.663   8.208 -0.4943 -0.1082 -1.5457
 4187SOL    HW224195   1.347   0.529   8.189  2.8860 -0.5164  0.3572
 4188SOL     OW24196   4.432   0.887   6.275 -0.2845  0.1107  0.1905
 4188SOL    HW124197   4.344   0.924   6.274 -1.3110 -2.2967  0.6051
 4188SOL    HW224198   4.458   0.883   6.183 -1.1110 -0.9519  0.0025
 4189SOL     OW24199   0.248   2.004   1.123 -0.1933  0.3703 -0.1763
 4189SOL    HW124200   0.196   2.072   1.167 -0.0232  1.6446 -1.9542
 4189SOL    HW224201   0.186   1.933   1.105 -1.0628  1.0645  0.0693
 4190SOL     OW24202   3.428   2.885   4.837  0.1168  0.4027 -0.2743
 4190SOL    HW124203   3.349   2.891   4.783  0.1866 -3.2475 -0.7873
 4190SOL    HW224204   3.474   2.967   4.821  0.4169  0.5131  1.1420
 4191SOL     OW24205   3.074   2.901   3.660  0.6711 -0.4321 -0.2497
 4191SOL    HW124206   3.166   2.913   3.633  0.9421  0.4100  1.0208
 4191SOL    HW224207   3.078   2.869   3.750 -0.9894 -2.7204 -1.0094
 4192SOL     OW24208   0.539   0.315  12.963 -0.1649  0.5082 -0.4744
 4192SOL    HW124209   0.446   0.337  12.960 -0.2401  0.2301 -0.1063
 4192SOL    HW224210   0.534   0.261  13.042  1.5826 -1.8271 -1.9484
 4193SOL     OW24211   3.778   1.414   7.793  0.0051  0.0833  0.2562
 4193SOL    HW124212   3.835   1.421   7.869  1.3442  0.0069 -0.7422
 4193SOL    HW224213   3.846   1.425   7.726 -0.8514 -0.4535 -0.7029
 4194SOL     OW24214   1.667   0.027   8.288  0.2058  0.2862  0.5136
 4194SOL    HW124215   1.588   0.076   8.264  0.4439  0.9843  1.1434
 4194SOL    HW224216   1.688   4.735   8.201  0.1500  0.1108  0.5675
 4195SOL     OW24217   4.562   2.271  16.033  0.4301 -0.2243 -0.5279
 4195SOL    HW124218   4.580   2.295  16.124  0.1491 -0.4632 -0.4093
 4195SOL    HW224219   4.508   2.193  16.044  1.6294 -0.7105  1.8729
 4196SOL     OW24220   2.624   0.724   3.680 -0.5835  0.0936 -0.1139
 4196SOL    HW124221   2.539   0.687   3.656  0.3522 -0.6607 -2.2084
 4196SOL    HW224222   2.665   0.649   3.722  2.2558  1.8844  0.2669
 4197SOL     OW24223   1.385   0.887   1.827  0.2493 -0.4710 -0.7160
 4197SOL    HW124224   1.411   0.901   1.736  1.9825 -2.5398 -0.5393
 4197SOL    HW224225   1.303   0.936   1.820  1.8725  2.1586 -1.5263
 4198SOL     OW24226   1.112   0.448  11.816 -0.0043 -0.2248  0.0692
 4198SOL    HW124227   1.111   0.512  11.744 -1.9285  1.1789  1.3384
 4198SOL    HW224228   1.195   0.467  11.860  1.2021 -1.4041 -1.6975
 4199SOL     OW24229   3.329   0.527   4.433 -0.2954  0.5174  0.0674
 4199SOL    HW124230   3.393   0.458   4.450  1.5825  2.3170  0.2551
 4199SOL    HW224231   3.244   0.483   4.419 -0.5013  1.5160 -1.7215
 4200SOL     OW24232   1.172   4.072   6.048  0.2859  0.1112 -0.2279
 4200SOL    HW124233   1.246   4.124   6.016  0.1935 -0.2122 -0.9658
 4200SOL    HW224234   1.128   4.125   6.115  1.6429  0.5489  0.3236
 4201SOL     OW24235   4.712   1.593   6.244 -0.2524 -0.0875 -0.2567
 4201SOL    HW124236   0.005   1.538   6.173  2.9068 -0.2206  1.3736
 4201SOL    HW224237   0.054   1.614   6.286  1.0977 -0.9087 -2.5388
 4202SOL     OW24238   1.833   2.724   6.582 -0.2818 -0.1712 -0.5864
 4202SOL    HW124239   1.878   2.652   6.627  0.2319 -0.3236 -1.3357
 4202SOL    HW224240   1.740   2.701   6.579 -0.8568  2.0577  0.0168
 4203SOL     OW24241   0.704   3.676  16.122  0.0134 -0.0482 -0.6008
 4203SOL    HW124242   0.778   3.667  16.062  0.9360  0.9820  0.3812
 4203SOL    HW224243   0.741   3.733  16.189 -0.2882  1.1374 -1.4515
 4204SOL     OW24244   0.522   3.567   2.408  0.4576 -0.1731  0.1474
 4204SOL    HW124245   0.486   3.655   2.418  1.7941  0.4346 -0.3953
 4204SOL    HW224246   0.442   3.517   2.430 -0.0225  1.0778  1.2229
 4205SOL     OW24247   4.636   1.003   3.160  0.1433 -0.1367 -0.0524
 4205SOL    HW124248   4.635   0.932   3.224 -1.4619  0.4418  0.5442
 4205SOL    HW224249   4.564   1.055   3.193  1.1402  2.3642 -1.7825
 4206SOL     OW24250   1.846   4.650   3.713 -0.1456  0.0357  0.1116
 4206SOL    HW124251   1.942   4.654   3.710 -0.1629  1.4284  1.4415
 4206SOL    HW224252   1.824   4.559   3.730  1.5327 -0.2511  0.7419
 4207SOL     OW24253   0.424   2.078   5.103 -0.2766 -0.0971  0.2713
 4207SOL    HW124254   0.468   2.001   5.138 -1.1663 -0.9776 -0.5023
 4207SOL    HW224255   0.361   2.102   5.171  0.2783  1.8812  0.1034
 4208SOL     OW24256   0.792   2.427   5.709 -0.3065  0.2407  0.0508
 4208SOL    HW124257   0.785   2.497   5.774 -0.5679  2.2713 -2.1865
 4208SOL    HW224258   0.712   2.446   5.660 -0.7850  0.5601  0.9535
 4209SOL     OW24259   0.323   4.319   8.850 -0.0687 -0.6967  0.1918
 4209SOL    HW124260   0.273   4.242   8.878 -0.8481 -0.2369  0.0737
 4209SOL    HW224261   0.377   4.287   8.778 -2.6088 -0.3077 -1.8977
 4210SOL     OW24262   2.345   0.421  16.034 -0.4898  0.0439 -0.4597
 4210SOL    HW124263   2.370   0.404  16.124  2.2586 -1.6665 -1.5212
 4210SOL    HW224264   2.249   0.424  16.036 -0.3901  3.1832 -0.7603
 4211SOL     OW24265   0.096   0.312  12.531 -0.1964 -0.4642 -0.2017
 4211SOL    HW124266   0.136   0.368  12.465 -1.6072 -1.3996 -1.8357
 4211SOL    HW224267   0.014   0.356  12.555  1.3563  1.2035  2.0526
 4212SOL     OW24268   3.180   1.472   4.762 -0.4071 -0.3405  0.1796
 4212SOL    HW124269   3.255   1.413   4.760  0.7628  1.1953 -1.2848
 4212SOL    HW224270   3.114   1.404   4.773 -0.7257 -0.0796 -0.0973
 4213SOL     OW24271   1.231   0.699   6.270  0.0616  0.5253 -0.1489
 4213SOL    HW124272   1.170   0.661   6.207  1.3926 -0.3400 -0.9170
 4213SOL    HW224273   1.303   0.726   6.213  1.4758 -0.1200  1.3451
 4214SOL     OW24274   0.632   0.682  12.268  0.2290  0.0282  0.4171
 4214SOL    HW124275   0.698   0.742  12.302  1.5813  0.4349 -2.8732
 4214SOL    HW224276   0.688   0.604  12.259  1.8240  1.1863  0.1808
 4215SOL     OW24277   1.088   3.982   7.718 -0.4884 -0.1863  0.2044
 4215SOL    HW124278   1.049   3.945   7.797 -1.1893  0.5626  0.2011
 4215SOL    HW224279   1.089   3.896   7.677 -1.1933 -0.3242  0.4743
 4216SOL     OW24280   0.203   4.483   4.932  0.0644  0.2713 -0.3852
 4216SOL    HW124281   0.209   4.438   5.016  0.1705  0.9031 -0.0517
 4216SOL    HW224282   0.292   4.483   4.896 -0.3243  0.9914 -1.3484
 4217SOL     OW24283   2.969   2.788   3.439  0.2908 -0.3965  0.7066
 4217SOL    HW124284   3.040   2.826   3.387 -0.6955  1.6761  0.8537
 4217SOL    HW224285   2.989   2.811   3.530  1.6226  0.7994  0.1123
 4218SOL     OW24286   1.200   4.738   7.203  0.2071  0.3000  0.2691
 4218SOL    HW124287   1.134   0.060   7.231 -0.1064 -1.0057  2.5158
 4218SOL    HW224288   1.233   0.027   7.119  1.2558 -2.0791 -0.1727
 4219SOL     OW24289   0.506   2.480   6.489  0.1677 -0.0025  0.0514
 4219SOL    HW124290   0.502   2.507   6.581  0.5072  0.3698 -0.0457
 4219SOL    HW224291   0.438   2.412   6.484  1.2482 -1.0272 -0.4668
 4220SOL     OW24292   0.299   0.185  16.272  0.0460  0.3856  0.5698
 4220SOL    HW124293   0.394   0.193  16.262 -0.0505  2.4721  1.3889
 4220SOL    HW224294   0.279   0.153  16.184  1.8556 -1.7102  0.9254
 4221SOL     OW24295   3.125   3.639   5.751 -0.1347  0.2026  0.2997
 4221SOL    HW124296   3.171   3.722   5.750  0.2983 -0.0375  0.4697
 4221SOL    HW224297   3.176   3.577   5.699 -1.9812 -0.5442 -0.6515
 4222SOL     OW24298   0.578   2.235   0.850 -0.1783 -0.0559  0.4280
 4222SOL    HW124299   0.640   2.223   0.922 -1.4019 -1.5339  1.2022
 4222SOL    HW224300   0.633   2.286   0.789 -0.0658 -0.5521  0.1124
 4223SOL     OW24301   2.589   3.135  11.507 -0.2319  0.1360 -0.2943
 4223SOL    HW124302   2.652   3.196  11.545 -0.4595  1.6024 -2.2824
 4223SOL    HW224303   2.561   3.182  11.429  0.3959 -1.1370 -1.2852
 4224SOL     OW24304   0.516   0.731   9.390 -0.2479  0.1438 -0.1895
 4224SOL    HW124305   0.590   0.671   9.376 -1.0381 -0.5789 -1.2535
 4224SOL    HW224306   0.451   0.672   9.429 -1.6314  1.7724 -0.0386
 4225SOL     OW24307   3.639   2.621   9.137  0.0768  0.4450  0.1007
 4225SOL    HW124308   3.636   2.715   9.118 -0.8758 -0.2292 -3.0984
 4225SOL    HW224309   3.582   2.601   9.063  1.6049  0.6219 -1.1131
 4226SOL     OW24310   2.396   1.843  16.374 -0.0010  0.1015  0.0687
 4226SOL    HW124311   2.401   1.842  16.470  0.3865  0.0056  0.0464
 4226SOL    HW224312   2.393   1.750  16.352 -1.2114  0.7945 -2.6518
 4227SOL     OW24313   1.349   4.363   9.009  0.7147 -0.2619 -0.9469
 4227SOL    HW124314   1.391   4.277   9.009  0.9263 -0.1570  0.7985
 4227SOL    HW224315   1.424   4.422   9.012 -0.8941  1.6483  1.9704
 4228SOL     OW24316   2.880   0.016   4.848 -0.1445  0.5735 -0.3846
 4228SOL    HW124317   2.866   0.110   4.831  2.1240  0.6698 -1.6857
 4228SOL    HW224318   2.806   4.726   4.795  1.6563 -0.4164 -2.2979
 4229SOL     OW24319   0.318   2.777   1.751  0.8850  0.0511  0.2605
 4229SOL    HW124320   0.332   2.726   1.672  0.0971 -0.5254  0.4930
 4229SOL    HW224321   0.227   2.799   1.729  1.0967 -0.7100 -1.3157
 4230SOL     OW24322   1.352   1.681   7.287  0.0536  1.0124 -0.0191
 4230SOL    HW124323   1.329   1.588   7.277 -3.1864  1.7911  0.1049
 4230SOL    HW224324   1.446   1.682   7.303  0.3278 -1.8657 -1.3771
 4231SOL     OW24325   0.610   4.477  15.361 -0.4737  0.3530 -0.5194
 4231SOL    HW124326   0.607   4.469  15.457 -1.2496  1.5401 -0.4399
 4231SOL    HW224327   0.606   4.573  15.353 -0.3819  0.2764 -1.4113
 4232SOL     OW24328   3.527   1.862   1.184  0.0021 -0.3117 -0.2506
 4232SOL    HW124329   3.580   1.833   1.110  2.4691  2.8228  0.3045
 4232SOL    HW224330   3.447   1.898   1.145 -0.9155 -0.1615  1.7616
 4233SOL     OW24331   3.688   3.709   6.661 -0.1156 -0.1059 -0.1601
 4233SOL    HW124332   3.771   3.753   6.641 -0.3447  0.4495  0.1185
 4233SOL    HW224333   3.717   3.642   6.723  1.1781  0.8557  0.2626
 4234SOL     OW24334   1.161   1.094   9.436  0.3577 -0.5211  0.5319
 4234SOL    HW124335   1.143   1.154   9.364  1.8348 -0.3488  0.2935
 4234SOL    HW224336   1.253   1.121   9.441  0.3916 -0.0541 -2.6497
 4235SOL     OW24337   2.799   2.145   9.355 -0.3181  0.6993  0.0582
 4235SOL    HW124338   2.854   2.119   9.429 -0.2438  0.7814  0.0314
 4235SOL    HW224339   2.842   2.109   9.277  2.0551 -0.0068  1.6986
 4236SOL     OW24340   3.014   4.242   2.733 -0.0151 -0.0179 -0.2372
 4236SOL    HW124341   2.992   4.155   2.765  1.3022  0.3506  1.6804
 4236SOL    HW224342   3.052   4.280   2.813 -0.2337  1.4285 -0.8185
 4237SOL     OW24343   3.828   3.667   8.559 -0.1368 -0.1512  0.1118
 4237SOL    HW124344   3.735   3.690   8.569 -0.3251 -0.9253  0.0748
 4237SOL    HW224345   3.834   3.700   8.469  1.7103 -0.7648  0.0131
 4238SOL     OW24346   1.690   1.174   3.432  0.0464 -0.1330 -0.0828
 4238SOL    HW124347   1.614   1.165   3.489  0.5834 -3.2531  0.1166
 4238SOL    HW224348   1.708   1.089   3.391 -1.4129 -1.2702  1.6541
 4239SOL     OW24349   0.010   2.984   4.170  0.3765 -0.3267 -0.0514
 4239SOL    HW124350   0.046   2.947   4.251  0.2195  1.2754  0.7498
 4239SOL    HW224351   0.076   3.050   4.149  0.4190 -0.6496 -0.9347
 4240SOL     OW24352   2.722   3.573   9.042  0.0874 -0.4441 -0.0181
 4240SOL    HW124353   2.705   3.652   8.991  1.8559 -0.0683 -0.0266
 4240SOL    HW224354   2.731   3.612   9.129 -1.6522  0.1798 -0.1133
 4241SOL     OW24355   3.824   1.794   2.463 -0.1603  0.4473  0.0708
 4241SOL    HW124356   3.777   1.867   2.424 -0.6412  0.4577  0.6682
 4241SOL    HW224357   3.781   1.788   2.549 -1.7132  0.5371 -0.7062
 4242SOL     OW24358   2.659   2.213   2.623 -0.0010  0.4018 -0.7756
 4242SOL    HW124359   2.628   2.227   2.713 -1.6955  3.4696 -1.8231
 4242SOL    HW224360   2.585   2.166   2.584  0.9197 -2.6662  1.1494
 4243SOL     OW24361   1.008   3.442   6.298 -0.3907  0.1920  0.4177
 4243SOL    HW124362   1.036   3.352   6.315 -0.2259  0.5174  1.8395
 4243SOL    HW224363   0.922   3.424   6.336  1.4078 -2.3878  3.1727
 4244SOL     OW24364   0.567   2.822   0.554  0.1108  0.1689  0.2213
 4244SOL    HW124365   0.489   2.873   0.576  0.1103 -0.0875  0.8163
 4244SOL    HW224366   0.541   2.755   0.490 -0.0070  0.4630 -0.0394
 4245SOL     OW24367   3.962   0.355  12.459  0.4858  0.1144  0.0253
 4245SOL    HW124368   3.953   0.359  12.363  0.4048 -2.7800 -0.0922
 4245SOL    HW224369   3.952   0.447  12.480 -2.0674 -0.2471  0.3143
 4246SOL     OW24370   1.441   0.162   8.240 -0.0508  0.1246 -0.3516
 4246SOL    HW124371   1.395   0.122   8.314  0.1374 -1.3211 -1.0073
 4246SOL    HW224372   1.463   0.246   8.280  0.1706 -0.1149  0.0276
 4247SOL     OW24373   2.688   4.658   2.482 -0.5602 -0.4456 -0.2061
 4247SOL    HW124374   2.737   4.705   2.414 -1.0641  1.4523  0.7322
 4247SOL    HW224375   2.596   4.665   2.457 -0.7097 -1.2024  0.1408
 4248SOL     OW24376   3.272   0.355   4.957 -0.2882  0.3056 -0.0056
 4248SOL    HW124377   3.187   0.321   4.985  0.7086 -1.1074  1.3516
 4248SOL    HW224378   3.312   0.272   4.933 -2.4377 -1.0364  1.0443
 4249SOL     OW24379   3.452   2.595   8.019 -0.7316  0.5367 -0.0404
 4249SOL    HW124380   3.400   2.536   7.964  1.3080 -0.3636 -0.9958
 4249SOL    HW224381   3.394   2.669   8.032  0.9691  1.4567  2.2700
 4250SOL     OW24382   4.441   2.927   7.818 -0.2512 -0.1866 -0.6493
 4250SOL    HW124383   4.504   2.998   7.832  0.7351 -0.7996 -2.0677
 4250SOL    HW224384   4.487   2.846   7.796  2.1808  0.7796  0.8918
 4251SOL     OW24385   2.639   0.207   3.516  0.2428 -0.5968  0.5709
 4251SOL    HW124386   2.612   0.282   3.464 -1.0675 -0.2642  1.7402
 4251SOL    HW224387   2.612   0.235   3.604  0.3568 -1.0434  0.7507
 4252SOL     OW24388   3.076   1.504  12.100  0.0370 -0.8572 -0.3809
 4252SOL    HW124389   3.070   1.517  12.005 -0.1610  1.5393 -0.0445
 4252SOL    HW224390   2.984   1.514  12.126 -0.0342  0.4514 -1.1443
 4253SOL     OW24391   3.120   3.133   0.133 -0.3735 -0.4895  0.4383
 4253SOL    HW124392   3.057   3.085   0.187  0.8985 -0.3776  2.0005
 4253SOL    HW224393   3.162   3.062   0.085  0.2622 -1.0800  1.8849
 4254SOL     OW24394   2.840   3.421   6.071 -0.0885 -0.2609  0.5212
 4254SOL    HW124395   2.824   3.340   6.023  1.1030 -1.0805  1.4800
 4254SOL    HW224396   2.912   3.390   6.127 -0.4791 -0.4431  0.9253
 4255SOL     OW24397   3.550   3.063   1.088  0.5193  0.4581 -0.5157
 4255SOL    HW124398   3.470   3.060   1.035 -0.2764 -1.1458  0.7948
 4255SOL    HW224399   3.562   2.975   1.122  0.7041  1.0936  1.0765
 4256SOL     OW24400   2.407   2.742   6.644 -0.7454  0.3409 -0.0194
 4256SOL    HW124401   2.323   2.769   6.683 -0.0387  1.4902  0.7125
 4256SOL    HW224402   2.450   2.823   6.672  0.3348  0.0501 -0.8658
 4257SOL     OW24403   1.427   2.115  13.680  0.3915 -0.8368  0.3996
 4257SOL    HW124404   1.348   2.062  13.694  0.1722  0.2599  3.3905
 4257SOL    HW224405   1.387   2.198  13.705 -1.0915 -0.9840 -1.4733
 4258SOL     OW24406   1.866   4.541  10.343 -0.3726  0.4447  0.3059
 4258SOL    HW124407   1.817   4.515  10.421 -1.2779  0.0212 -0.4044
 4258SOL    HW224408   1.892   4.456  10.308 -0.2371  1.1100 -1.2065
 4259SOL     OW24409   2.933   0.539   1.064  0.1001  0.4877 -0.4618
 4259SOL    HW124410   2.878   0.612   1.037 -0.1339  0.6153  0.3659
 4259SOL    HW224411   3.010   0.552   1.009 -0.5144 -1.9956 -1.9280
 4260SOL     OW24412   4.429   4.246   5.855  0.4920  0.2242 -0.0323
 4260SOL    HW124413   4.483   4.234   5.933 -1.0960 -0.3124  1.0071
 4260SOL    HW224414   4.493   4.280   5.793  0.6680 -1.6752 -0.8861
 4261SOL     OW24415   0.670   4.091  16.251 -0.0373 -0.0151  0.5236
 4261SOL    HW124416   0.660   4.139  16.333  2.3156  1.2373  0.0674
 4261SOL    HW224417   0.681   4.003  16.286 -1.2559 -1.0467 -1.6818
 4262SOL     OW24418   1.259   4.363   2.034  0.4130  0.5930 -0.9690
 4262SOL    HW124419   1.288   4.414   2.109 -2.5835  0.1551  0.4893
 4262SOL    HW224420   1.308   4.284   2.058 -0.7444  1.1402  3.2793
 4263SOL     OW24421   3.872   2.859   5.797  0.1284  0.0461  0.3012
 4263SOL    HW124422   3.795   2.816   5.835  0.2137  0.2410  0.6923
 4263SOL    HW224423   3.901   2.915   5.869  1.7619  0.3008 -0.5692
 4264SOL     OW24424   3.415   3.389   1.921  0.2068  0.2816 -0.2275
 4264SOL    HW124425   3.385   3.475   1.891  0.5454  1.2371  2.1731
 4264SOL    HW224426   3.333   3.340   1.911 -0.0768  0.5253  0.8487
 4265SOL     OW24427   4.097   4.207   4.724  0.0219  0.2679  0.2844
 4265SOL    HW124428   4.111   4.162   4.807 -0.4149 -0.3281  0.0336
 4265SOL    HW224429   4.186   4.227   4.694 -0.1327  0.7961  0.1698
 4266SOL     OW24430   2.148   4.285   2.461  0.0796 -0.0445 -0.5829
 4266SOL    HW124431   2.131   4.211   2.520  1.1775 -0.6972 -1.0739
 4266SOL    HW224432   2.170   4.354   2.523 -1.3528 -0.0516 -0.0730
 4267SOL     OW24433   2.389   4.237  12.478  0.1539  0.3248  0.5908
 4267SOL    HW124434   2.437   4.234  12.396  0.6542 -2.5456  0.9832
 4267SOL    HW224435   2.450   4.205  12.544  0.8399 -1.8340 -1.0860
 4268SOL     OW24436   3.513   0.475   1.752 -0.3135  0.4320  0.1493
 4268SOL    HW124437   3.604   0.464   1.781 -0.4105  0.9341  0.6376
 4268SOL    HW224438   3.509   0.554   1.699 -0.2667 -0.2770 -0.9150
 4269SOL     OW24439   0.575   0.015   7.262  0.4896  0.0624 -0.0287
 4269SOL    HW124440   0.595   0.080   7.329  0.3933 -0.0739  0.1303
 4269SOL    HW224441   0.659   0.006   7.218  0.0280  1.3651 -1.1910
 4270SOL     OW24442   2.843   2.003   4.423 -0.5836  0.2190  0.9331
 4270SOL    HW124443   2.865   1.936   4.358 -3.1567 -0.2284  0.5354
 4270SOL    HW224444   2.858   1.957   4.506  1.7734  0.3598  0.5777
 4271SOL     OW24445   2.169   1.443   9.475 -0.6689  1.1059  0.8155
 4271SOL    HW124446   2.074   1.432   9.478 -0.6421  0.1000 -3.2370
 4271SOL    HW224447   2.210   1.366   9.514 -0.9869  0.5978  0.1510
 4272SOL     OW24448   2.662   4.514   7.306  0.3121 -0.1368  0.0624
 4272SOL    HW124449   2.686   4.448   7.371  2.7986  2.0352  1.3349
 4272SOL    HW224450   2.658   4.598   7.353  2.9078  1.1694 -2.0291
 4273SOL     OW24451   0.714   3.509   2.972  0.2649  0.4410 -0.6587
 4273SOL    HW124452   0.647   3.487   2.908 -1.7656  0.1514  1.5809
 4273SOL    HW224453   0.775   3.437   2.955 -1.5676 -1.1389 -0.4961
 4274SOL     OW24454   2.926   0.100   4.142 -0.1322  0.5779 -0.2833
 4274SOL    HW124455   2.953   0.018   4.100 -0.2539  0.3111  0.1628
 4274SOL    HW224456   3.004   0.114   4.196  0.9236 -0.2281 -1.6196
 4275SOL     OW24457   0.233   2.051   9.335  0.4958 -0.7427  0.2183
 4275SOL    HW124458   0.258   2.099   9.256  1.6476 -0.1358  0.9623
 4275SOL    HW224459   0.138   2.063   9.334  0.4468 -1.2525 -1.2043
 4276SOL     OW24460   2.816   3.443   7.786  0.3877 -0.6450 -0.5254
 4276SOL    HW124461   2.827   3.533   7.816  1.2484  0.5790 -4.5449
 4276SOL    HW224462   2.901   3.401   7.801  0.8008 -0.3022 -1.8938
 4277SOL     OW24463   4.568   4.343   6.098  0.3080  0.4495 -0.0236
 4277SOL    HW124464   4.474   4.355   6.086  0.5279  1.2569 -0.9450
 4277SOL    HW224465   4.569   4.367   6.191 -1.4512 -3.3559  0.9673
 4278SOL     OW24466   1.661   2.055   1.372 -0.0065  0.8218 -0.2863
 4278SOL    HW124467   1.697   2.022   1.289 -1.5209 -0.0131 -0.6187
 4278SOL    HW224468   1.735   2.093   1.418  0.4210 -1.4073  0.8624
 4279SOL     OW24469   1.515   4.589   5.460  0.2253 -0.2643 -0.0176
 4279SOL    HW124470   1.494   4.529   5.532  3.2017 -1.7724 -0.3992
 4279SOL    HW224471   1.547   4.667   5.506 -1.1507 -0.3477  1.0953
 4280SOL     OW24472   2.257   1.106   3.181 -0.7720  0.0191 -0.3730
 4280SOL    HW124473   2.331   1.124   3.238 -0.0390  1.3005 -1.7256
 4280SOL    HW224474   2.217   1.031   3.224  1.2681 -2.1137 -2.2268
 4281SOL     OW24475   2.229   1.021   5.971  0.1891 -0.2871 -0.6705
 4281SOL    HW124476   2.271   0.952   6.022 -1.3277 -3.1905 -3.2739
 4281SOL    HW224477   2.236   1.087   6.039 -0.9251 -0.9375  0.0907
 4282SOL     OW24478   2.518   4.294   5.631 -0.0772  0.0977 -0.0079
 4282SOL    HW124479   2.495   4.217   5.683 -1.4330  1.9063  2.0352
 4282SOL    HW224480   2.548   4.248   5.552  0.8257  0.0694  0.3525
 4283SOL     OW24481   2.345   0.381  14.983  0.0425  0.1660  0.0572
 4283SOL    HW124482   2.360   0.375  14.888  0.4658  0.6045  0.0942
 4283SOL    HW224483   2.288   0.456  14.998 -0.5463 -0.5677  1.5064
 4284SOL     OW24484   0.200   0.016   2.004  0.6176 -0.1296 -0.1466
 4284SOL    HW124485   0.192   0.084   2.072  2.8063 -2.0173  2.0020
 4284SOL    HW224486   0.260   0.062   1.946  1.6468 -0.9840  0.2456
 4285SOL     OW24487   4.166   3.715  11.215 -0.4462  0.5836  0.3603
 4285SOL    HW124488   4.197   3.762  11.293 -0.3291 -0.1658  0.7676
 4285SOL    HW224489   4.231   3.645  11.209 -1.3325 -0.3941  2.0292
 4286SOL     OW24490   0.878   2.532   6.963  0.2575 -0.0439 -0.4118
 4286SOL    HW124491   0.888   2.563   6.873  0.0388 -0.9298 -0.7399
 4286SOL    HW224492   0.795   2.485   6.959  1.0983 -1.5647 -0.2043
 4287SOL     OW24493   0.606   4.698   0.707  0.0079  0.1614 -0.2073
 4287SOL    HW124494   0.564   0.042   0.692  1.1555  0.6372 -0.6500
 4287SOL    HW224495   0.560   4.661   0.783  1.1251 -1.7652 -0.4767
 4288SOL     OW24496   1.282   3.766   4.400  0.1150  0.8708  0.8459
 4288SOL    HW124497   1.242   3.767   4.313  1.4403 -1.7214  0.2144
 4288SOL    HW224498   1.337   3.845   4.400  0.5226  0.5887 -0.6178
 4289SOL     OW24499   4.739   2.372   7.388 -0.1933 -0.8636 -0.7160
 4289SOL    HW124500   4.731   2.445   7.450  0.7386 -1.3574 -0.0143
 4289SOL    HW224501   4.651   2.351   7.355 -1.2050  1.5698  0.4264
 4290SOL     OW24502   3.942   3.356   2.958 -0.0544  0.0200  0.3121
 4290SOL    HW124503   3.990   3.389   3.034  1.8255  1.7271 -1.6220
 4290SOL    HW224504   3.996   3.393   2.888  1.2344  1.5949  2.1256
 4291SOL     OW24505   0.930   4.491   5.426 -0.0612 -0.4835 -0.0283
 4291SOL    HW124506   0.947   4.442   5.346 -0.5544  1.6679 -1.4522
 4291SOL    HW224507   0.844   4.533   5.420 -0.2186 -0.9753 -1.2180
 4292SOL     OW24508   1.318   4.660   2.483 -0.1439 -0.2089  0.0016
 4292SOL    HW124509   1.338   0.010   2.501  1.8265 -0.9287  1.5909
 4292SOL    HW224510   1.377   4.619   2.546 -0.6470  0.7562  1.1050
 4293SOL     OW24511   2.178   2.666  17.200  0.1974  0.0370 -0.0453
 4293SOL    HW124512   2.229   2.746  17.215  2.6818 -1.1771 -2.0859
 4293SOL    HW224513   2.175   2.653  17.105  0.6488  2.5559 -0.3922
 4294SOL     OW24514   2.277   1.736   3.633  0.8067 -0.5864  0.0965
 4294SOL    HW124515   2.301   1.662   3.687  2.0032  0.3997  0.9225
 4294SOL    HW224516   2.350   1.745   3.571  0.2095  0.7479 -0.4300
 4295SOL     OW24517   2.943   4.361  11.729  0.3586  0.5563  0.2600
 4295SOL    HW124518   3.032   4.389  11.750  1.1836 -0.6006 -1.7071
 4295SOL    HW224519   2.902   4.446  11.717 -0.0581  0.2840 -0.2502
 4296SOL     OW24520   1.253   3.228   3.165 -0.2829  0.0014  0.3399
 4296SOL    HW124521   1.232   3.313   3.125 -0.2437 -0.3235 -0.3727
 4296SOL    HW224522   1.332   3.214   3.112  0.5523  0.7158  1.3994
 4297SOL     OW24523   4.195   1.795   1.922  0.5484 -0.1143  0.2828
 4297SOL    HW124524   4.134   1.785   1.849 -0.5998 -1.3137  1.4302
 4297SOL    HW224525   4.253   1.864   1.888 -1.6024  0.3752 -2.4398
 4298SOL     OW24526   2.916   4.335  15.762 -0.1209 -0.3584  0.2252
 4298SOL    HW124527   3.010   4.346  15.749 -0.0010 -0.2620  1.2349
 4298SOL    HW224528   2.906   4.266  15.696  1.9834 -0.2139 -0.2524
 4299SOL     OW24529   0.383   2.109   2.791  0.3297 -0.1098  0.2830
 4299SOL    HW124530   0.439   2.117   2.868  0.1678 -1.0697  0.4931
 4299SOL    HW224531   0.414   2.022   2.766 -0.7538 -0.9117  1.7213
 4300SOL     OW24532   3.428   2.028  16.675  0.0403 -0.3202 -0.0639
 4300SOL    HW124533   3.510   2.065  16.708 -0.2905  0.1787  0.2017
 4300SOL    HW224534   3.374   2.106  16.661  1.3735  0.2696 -1.8337
 4301SOL     OW24535   3.361   0.896   3.983 -0.6316  0.1043 -0.0362
 4301SOL    HW124536   3.357   0.948   3.904  0.9262  0.0829 -0.1211
 4301SOL    HW224537   3.455   0.878   3.989 -0.9328 -1.7324 -0.6944
 4302SOL     OW24538   0.516   1.811   1.523 -0.8935  0.0512 -0.1403
 4302SOL    HW124539   0.508   1.716   1.516  1.5526  0.0093 -2.5136
 4302SOL    HW224540   0.426   1.832   1.499 -0.7496  0.7936 -0.0332
 4303SOL     OW24541   3.967   3.768   1.808 -0.0674  0.2073 -0.2118
 4303SOL    HW124542   3.903   3.834   1.834  1.5533  1.4309  0.6780
 4303SOL    HW224543   3.973   3.756   1.713 -0.6318  0.3037 -0.2606
 4304SOL     OW24544   2.249   1.346   0.625  0.4874  0.4315  0.6963
 4304SOL    HW124545   2.235   1.377   0.714  0.6600  2.2290  0.0889
 4304SOL    HW224546   2.331   1.297   0.630  0.4529  0.2489 -0.4891
 4305SOL     OW24547   0.659   0.508   7.441  0.1490 -0.1386 -0.4064
 4305SOL    HW124548   0.630   0.435   7.496 -0.6006  1.4966  1.3425
 4305SOL    HW224549   0.723   0.544   7.501  1.7463 -2.5122 -0.6748
 4306SOL     OW24550   1.147   4.192   8.540  0.1296  0.0361 -0.8416
 4306SOL    HW124551   1.067   4.149   8.512 -0.1308 -0.5340  0.7760
 4306SOL    HW224552   1.145   4.258   8.471 -1.2431  1.4535  0.5655
 4307SOL     OW24553   0.232   3.118   4.077  0.4960 -0.3509 -0.2509
 4307SOL    HW124554   0.231   3.209   4.110 -2.1073 -0.5643  0.2575
 4307SOL    HW224555   0.323   3.095   4.063  0.2956 -2.3950  1.8392
 4308SOL     OW24556   0.178   4.300   5.648  0.8771  0.0729 -0.3230
 4308SOL    HW124557   0.265   4.335   5.626  1.8149 -1.3650  1.0319
 4308SOL    HW224558   0.124   4.378   5.636  1.7961  0.7610 -0.0195
 4309SOL     OW24559   0.043   1.903  15.476 -0.6069  0.3169  0.3654
 4309SOL    HW124560   0.128   1.864  15.497  0.3446  2.6723  0.9156
 4309SOL    HW224561   0.038   1.973  15.541 -0.0568  1.0885 -0.4310
 4310SOL     OW24562   3.875   0.726   1.751  0.3883 -0.2095  0.1072
 4310SOL    HW124563   3.841   0.647   1.793  0.9337 -1.8131 -2.4597
 4310SOL    HW224564   3.930   0.760   1.822  2.4977  1.2891 -2.2178
 4311SOL     OW24565   0.249   4.501   6.815 -0.1802  0.1394  0.1368
 4311SOL    HW124566   0.203   4.497   6.731 -0.1247  0.0824  0.1089
 4311SOL    HW224567   0.324   4.448   6.787  0.6024  0.4679  1.6310
 4312SOL     OW24568   3.526   3.236   3.499 -0.2198 -0.3164  0.2858
 4312SOL    HW124569   3.552   3.322   3.530 -0.4440  0.2534 -1.1202
 4312SOL    HW224570   3.597   3.174   3.515  0.2358  0.1175 -0.0845
 4313SOL     OW24571   2.702   3.290   8.267 -0.4134 -0.1065 -0.2010
 4313SOL    HW124572   2.609   3.268   8.264 -0.5633  0.6815 -1.2559
 4313SOL    HW224573   2.715   3.374   8.223 -2.2285  0.6503  0.7052
 4314SOL     OW24574   4.586   2.368   5.550 -0.0577 -0.2687 -0.2497
 4314SOL    HW124575   4.501   2.326   5.561 -0.3242 -0.1872 -2.0564
 4314SOL    HW224576   4.555   2.454   5.521 -0.0582  0.2455  1.2973
 4315SOL     OW24577   3.699   1.427  12.678  0.5548  0.4460 -0.9516
 4315SOL    HW124578   3.646   1.506  12.663 -2.3268 -1.5723 -1.5289
 4315SOL    HW224579   3.710   1.403  12.586 -2.2786 -0.8013 -0.9676
 4316SOL     OW24580   2.235   1.716   7.891  0.0996 -0.0953  0.2568
 4316SOL    HW124581   2.181   1.758   7.824 -1.6134 -2.9013 -0.1369
 4316SOL    HW224582   2.264   1.637   7.845  1.3208 -0.4027  1.5387
 4317SOL     OW24583   1.331   1.932   3.046 -0.3842 -0.3423  0.1427
 4317SOL    HW124584   1.340   2.001   2.980  0.0237  0.9651  1.5574
 4317SOL    HW224585   1.331   1.981   3.129 -0.1905 -2.5051  1.4292
 4318SOL     OW24586   4.284   3.052   3.038  0.5596 -0.6055  0.0859
 4318SOL    HW124587   4.305   3.029   2.947  2.4950 -0.7463  0.5814
 4318SOL    HW224588   4.212   2.989   3.037  0.4386 -0.4871  1.4407
 4319SOL     OW24589   1.174   1.406   7.863 -0.2333 -0.1248 -0.0334
 4319SOL    HW124590   1.089   1.383   7.900  0.0253 -0.5037  0.3397
 4319SOL    HW224591   1.232   1.331   7.877 -1.6441 -0.8716  1.7072
 4320SOL     OW24592   0.293   4.619  14.899  0.1585 -0.0928  0.4019
 4320SOL    HW124593   0.230   4.680  14.861  1.0705  0.6865  0.1318
 4320SOL    HW224594   0.241   4.612  14.979 -1.2101  0.3342 -0.4558
 4321SOL     OW24595   2.256   2.078   8.911 -0.1185  0.2797 -0.0116
 4321SOL    HW124596   2.347   2.068   8.882  0.2284  3.1560  0.0402
 4321SOL    HW224597   2.270   2.122   8.995 -1.1447  0.4814  0.0565
 4322SOL     OW24598   0.825   3.776   3.206  0.1131 -0.0260 -0.4437
 4322SOL    HW124599   0.818   3.809   3.117 -1.4361 -0.1126 -0.3564
 4322SOL    HW224600   0.763   3.837   3.247  0.7542  0.1531  0.2651
 4323SOL     OW24601   2.038   3.937   5.774  0.8531  0.3401 -0.7298
 4323SOL    HW124602   2.052   3.870   5.841  2.0231  2.1931  0.8750
 4323SOL    HW224603   2.070   3.890   5.697 -0.3960 -0.6963 -0.6117
 4324SOL     OW24604   2.031   0.807   6.231  0.1515  0.1828  0.0328
 4324SOL    HW124605   2.041   0.799   6.136 -0.2141  2.4561 -0.2011
 4324SOL    HW224606   2.060   0.898   6.237  1.3009 -0.1166 -1.0104
 4325SOL     OW24607   3.128   4.062   5.105  0.1002  0.6647 -0.5237
 4325SOL    HW124608   3.168   3.984   5.144 -0.0632  1.1071  0.5421
 4325SOL    HW224609   3.048   4.022   5.071 -0.3901 -0.5959  2.0748
 4326SOL     OW24610   3.505   1.942   3.589  0.9411 -0.4839  0.3410
 4326SOL    HW124611   3.526   2.000   3.663 -0.5269  0.3062  0.1313
 4326SOL    HW224612   3.439   1.882   3.625 -0.4009  0.8944  0.1743
 4327SOL     OW24613   4.227   3.317   4.830 -0.1732 -0.1190 -0.0041
 4327SOL    HW124614   4.275   3.389   4.790  1.1436 -0.8874  0.2042
 4327SOL    HW224615   4.269   3.327   4.916  0.2946 -0.1393 -0.2357
 4328SOL     OW24616   1.108   2.370  15.389 -0.2467  0.2421  0.1745
 4328SOL    HW124617   1.103   2.275  15.382 -0.6256  0.2289  0.5937
 4328SOL    HW224618   1.152   2.381  15.473  1.0515  0.9573 -0.6023
 4329SOL     OW24619   1.392   4.598  14.748  0.2070 -0.1499 -0.4935
 4329SOL    HW124620   1.366   4.515  14.707 -1.8458 -0.7069  1.9546
 4329SOL    HW224621   1.314   4.617  14.800  0.7862  1.0108 -0.0550
 4330SOL     OW24622   1.157   1.704   8.192  0.5222  0.1116  0.0537
 4330SOL    HW124623   1.225   1.713   8.259  1.2314  1.8079 -0.9081
 4330SOL    HW224624   1.111   1.625   8.221  0.7935 -0.3807 -0.8816
 4331SOL     OW24625   4.643   1.537   3.238 -0.0379 -0.0762 -0.4706
 4331SOL    HW124626   4.627   1.506   3.328 -2.4287  0.6415 -0.6445
 4331SOL    HW224627   4.665   1.628   3.258 -0.1834  0.2584 -1.8991
 4332SOL     OW24628   2.927   2.532   1.933 -0.3803  0.4817  0.4223
 4332SOL    HW124629   2.943   2.478   2.010  1.2884 -0.9994 -0.9512
 4332SOL    HW224630   3.002   2.515   1.876  0.1400  1.4527  0.8196
 4333SOL     OW24631   4.187   0.306   5.337 -0.1695 -0.0605  0.5598
 4333SOL    HW124632   4.117   0.255   5.295 -0.7687  1.5729 -0.4746
 4333SOL    HW224633   4.259   0.246   5.353  0.9962  0.9984 -0.7145
 4334SOL     OW24634   1.211   2.133   0.275  0.1205 -0.1103  0.4102
 4334SOL    HW124635   1.289   2.094   0.234  1.4581  2.1015  0.8520
 4334SOL    HW224636   1.142   2.091   0.224  0.0044 -0.0364  0.5089
 4335SOL     OW24637   1.168   3.429   4.784 -0.1458 -0.2279  0.3360
 4335SOL    HW124638   1.084   3.384   4.771 -0.6424  1.2734 -1.6948
 4335SOL    HW224639   1.233   3.374   4.739 -0.3093 -0.8531  0.8712
 4336SOL     OW24640   2.168   2.265   5.496  0.3341 -0.0716  0.4184
 4336SOL    HW124641   2.093   2.215   5.462 -0.1758  0.8400  0.1778
 4336SOL    HW224642   2.132   2.348   5.464 -0.8635 -1.2473 -1.3096
 4337SOL     OW24643   4.212   4.137   8.020  0.3544 -0.2450  0.0067
 4337SOL    HW124644   4.250   4.212   7.974  1.5514 -1.6351 -1.2371
 4337SOL    HW224645   4.285   4.075   8.016  0.0337 -0.4071 -2.9517
 4338SOL     OW24646   2.364   2.478   2.892  0.0104  0.3764 -0.0988
 4338SOL    HW124647   2.375   2.478   2.987 -0.2231 -0.0232 -0.0694
 4338SOL    HW224648   2.375   2.572   2.880  0.1138  0.5125  1.1033
 4339SOL     OW24649   1.836   3.039   6.704 -0.0041  0.1653 -0.2318
 4339SOL    HW124650   1.751   3.027   6.747 -0.3337 -0.3691 -1.0153
 4339SOL    HW224651   1.890   2.981   6.757 -1.5296  0.2425  1.4084
 4340SOL     OW24652   0.761   2.946  17.273  0.1336 -0.0419  0.7883
 4340SOL    HW124653   0.828   3.004  17.310  0.6003  0.2887 -0.5572
 4340SOL    HW224654   0.772   2.879  17.340 -1.4439 -0.3935  0.6828
 4341SOL     OW24655   0.225   2.643   3.127  0.3656 -0.1602  0.0995
 4341SOL    HW124656   0.288   2.606   3.064 -0.5680  3.2928 -2.9043
 4341SOL    HW224657   0.164   2.573   3.149  0.9151 -0.5740  0.2968
 4342SOL     OW24658   2.881   0.256   5.645 -0.3669  0.0511 -0.3347
 4342SOL    HW124659   2.785   0.261   5.652 -0.4286  1.0356 -1.9704
 4342SOL    HW224660   2.883   0.163   5.621 -0.8405 -0.3609  1.1555
 4343SOL     OW24661   4.056   3.070   5.280 -0.3581 -0.1815 -0.2546
 4343SOL    HW124662   4.120   3.121   5.330 -0.9752  0.9136 -0.5970
 4343SOL    HW224663   4.006   3.141   5.239 -3.9316 -2.6810 -0.2115
 4344SOL     OW24664   1.530   1.515   6.240  0.0357 -0.5598 -0.7549
 4344SOL    HW124665   1.522   1.597   6.190  0.2945  1.6702  2.8263
 4344SOL    HW224666   1.607   1.482   6.193 -0.6377 -0.3383 -2.0395
 4345SOL     OW24667   2.202   3.674   8.270  0.1008 -0.5797  0.5290
 4345SOL    HW124668   2.186   3.681   8.364 -1.1332  1.8040  0.1524
 4345SOL    HW224669   2.255   3.754   8.261  0.6549 -0.7212  2.5140
 4346SOL     OW24670   0.603   2.662   6.881  0.5314 -0.2708 -0.1487
 4346SOL    HW124671   0.578   2.755   6.880  1.2387 -0.0980 -1.4611
 4346SOL    HW224672   0.568   2.642   6.968 -1.0557  2.6831 -0.1200
 4347SOL     OW24673   1.957   0.274  11.451  0.1471  0.0010  0.1271
 4347SOL    HW124674   1.871   0.311  11.431  0.0111 -0.9180 -0.9904
 4347SOL    HW224675   1.950   0.182  11.425  1.0953  0.0313 -0.2566
 4348SOL     OW24676   1.231   1.873   7.127  0.5973 -0.1810 -0.8243
 4348SOL    HW124677   1.286   1.824   7.189 -0.5751 -0.5709 -0.1035
 4348SOL    HW224678   1.293   1.930   7.082  2.6948 -0.1943  1.9975
 4349SOL     OW24679   0.082   0.589   1.476 -0.0135 -0.0800  0.2312
 4349SOL    HW124680   0.000   0.583   1.525 -0.9266 -1.1600 -1.4102
 4349SOL    HW224681   0.147   0.591   1.546  0.6606 -0.3787 -0.3896
 4350SOL     OW24682   0.582   2.034  14.859  0.7996 -0.0731  0.3836
 4350SOL    HW124683   0.647   1.990  14.803 -0.2098 -1.7890  0.5369
 4350SOL    HW224684   0.510   2.030  14.795  0.3414  3.2505  0.7257
 4351SOL     OW24685   1.795   1.248  10.661  0.4701 -0.1490 -0.4210
 4351SOL    HW124686   1.798   1.244  10.565  1.3983 -2.1258 -0.3119
 4351SOL    HW224687   1.771   1.158  10.683 -0.8343 -0.0965 -1.6229
 4352SOL     OW24688   2.142   2.228   5.799 -0.0096 -0.5361 -0.2662
 4352SOL    HW124689   2.152   2.241   5.705 -0.9198 -1.2658 -0.4642
 4352SOL    HW224690   2.231   2.218   5.832  0.2329  0.8899 -0.4840
 4353SOL     OW24691   4.381   1.912  16.823  0.3340 -1.0473 -0.1962
 4353SOL    HW124692   4.327   1.843  16.861  0.1961 -1.5295 -1.2484
 4353SOL    HW224693   4.467   1.871  16.822  0.7927 -0.0843  0.8324
 4354SOL     OW24694   0.763   4.148   0.925  0.3062  0.0825 -0.1236
 4354SOL    HW124695   0.793   4.062   0.953 -1.2948 -0.5044 -0.1765
 4354SOL    HW224696   0.727   4.177   1.009 -0.7959  0.6348 -0.7676
 4355SOL     OW24697   0.736   1.143  12.003  0.0050 -0.0848 -0.0500
 4355SOL    HW124698   0.782   1.066  12.038 -1.2673 -0.3498  1.0646
 4355SOL    HW224699   0.810   1.200  11.982 -0.5158  0.7813  0.4720
 4356SOL     OW24700   1.854   1.485   7.267 -0.3152 -0.5291 -0.2216
 4356SOL    HW124701   1.890   1.574   7.264 -0.5354 -0.4422 -0.3321
 4356SOL    HW224702   1.902   1.457   7.344 -0.3945  0.9274  0.3573
 4357SOL     OW24703   3.392   2.770   2.443 -0.3217  0.0632  0.1345
 4357SOL    HW124704   3.438   2.854   2.432  1.4612 -0.7214  1.5811
 4357SOL    HW224705   3.309   2.803   2.478  0.2006  0.3240  1.1262
 4358SOL     OW24706   4.230   3.074   7.267  0.1737 -0.1959 -0.3722
 4358SOL    HW124707   4.183   2.996   7.238 -0.0024 -0.6748  1.2001
 4358SOL    HW224708   4.250   3.121   7.187  0.3740  1.0918  0.4306
 4359SOL     OW24709   1.157   1.059   8.291  0.0979  0.1047 -0.0104
 4359SOL    HW124710   1.169   1.122   8.220 -1.6400 -0.5737 -0.9260
 4359SOL    HW224711   1.067   1.030   8.277 -0.3635  1.0749  0.9285
 4360SOL     OW24712   0.099   2.645  15.260 -0.5777 -0.3320 -0.3699
 4360SOL    HW124713   0.165   2.630  15.326 -0.4542 -1.5079 -0.7587
 4360SOL    HW224714   0.024   2.594  15.291 -0.6285 -0.7335 -1.1480
 4361SOL     OW24715   3.836   0.469   7.004 -0.0237  0.2592  0.5694
 4361SOL    HW124716   3.867   0.421   6.927 -0.3864  0.6317  0.1931
 4361SOL    HW224717   3.826   0.394   7.064 -0.5866  0.7801  1.1231
 4362SOL     OW24718   1.028   1.283  11.132  0.2573  0.5631 -0.0782
 4362SOL    HW124719   0.968   1.277  11.206 -1.9324 -0.7641 -1.9568
 4362SOL    HW224720   1.078   1.203  11.145 -2.0492 -1.1931 -1.9988
 4363SOL     OW24721   1.368   0.638   3.037  0.1597  0.8493 -0.4708
 4363SOL    HW124722   1.356   0.719   3.087 -0.0134  1.5415 -1.6348
 4363SOL    HW224723   1.346   0.572   3.102 -0.0504 -0.6789 -2.1189
 4364SOL     OW24724   1.732   3.673   6.894  0.0121 -0.1367  0.5383
 4364SOL    HW124725   1.732   3.669   6.989  0.3452 -1.2771  0.4963
 4364SOL    HW224726   1.647   3.706   6.866  0.1613  0.6876  1.0675
 4365SOL     OW24727   1.951   2.383   4.035 -0.3434  0.0178  0.1555
 4365SOL    HW124728   1.944   2.464   3.984 -0.0071  1.2383  2.0646
 4365SOL    HW224729   1.909   2.318   3.979 -0.4969  1.1741 -1.0668
 4366SOL     OW24730   3.312   0.981  14.081 -0.4216 -0.5213 -0.1997
 4366SOL    HW124731   3.336   1.055  14.025  0.4586  0.3486  1.3350
 4366SOL    HW224732   3.350   1.011  14.164 -1.2145  1.9966 -0.7296
 4367SOL     OW24733   4.637   2.594  11.058 -0.0080  0.2017  0.1417
 4367SOL    HW124734   4.727   2.563  11.063  0.2977  1.2309  0.8133
 4367SOL    HW224735   4.601   2.574  11.144  1.6280  0.9698  0.9924
 4368SOL     OW24736   3.753   2.191   7.923 -0.7099 -0.0489 -0.0339
 4368SOL    HW124737   3.744   2.250   7.847 -0.2025 -1.3074 -1.0769
 4368SOL    HW224738   3.755   2.253   7.995 -0.8348  0.2127 -0.2573
 4369SOL     OW24739   1.781   2.492  15.652  0.2114 -0.2240  0.1946
 4369SOL    HW124740   1.836   2.570  15.646  0.1699 -0.1197  1.1409
 4369SOL    HW224741   1.702   2.538  15.623 -0.3043 -1.7454 -0.8207
 4370SOL     OW24742   3.518   2.324   8.786  0.2886 -1.0513  0.0827
 4370SOL    HW124743   3.577   2.257   8.821 -0.5540  0.1562  3.8239
 4370SOL    HW224744   3.449   2.311   8.851 -1.7373 -1.0059 -2.0777
 4371SOL     OW24745   1.137   1.685   2.161 -0.1956  0.3077 -0.0986
 4371SOL    HW124746   1.152   1.633   2.240 -0.2518  0.3767 -0.0420
 4371SOL    HW224747   1.049   1.721   2.176 -0.0810  0.2626  0.6841
 4372SOL     OW24748   3.500   1.537   5.072  0.2411  0.2012  0.3028
 4372SOL    HW124749   3.531   1.447   5.079  1.1158  0.5533  0.9041
 4372SOL    HW224750   3.523   1.573   5.157 -1.6979  0.7843  0.5797
 4373SOL     OW24751   0.337   1.678   7.937 -0.1893 -0.3280  0.3674
 4373SOL    HW124752   0.369   1.727   8.013  0.7758 -0.6554  0.1817
 4373SOL    HW224753   0.270   1.735   7.901 -0.2721 -0.7931 -0.2331
 4374SOL     OW24754   4.696   2.289   3.352  0.7432  0.1353  0.2039
 4374SOL    HW124755   0.017   2.259   3.286  0.0376  2.7015 -1.6427
 4374SOL    HW224756   4.686   2.210   3.405 -2.3637  0.7766  0.5334
 4375SOL     OW24757   3.429   3.355   8.861  0.2496 -0.0397 -0.0697
 4375SOL    HW124758   3.408   3.332   8.771 -1.2492  2.4042 -0.3571
 4375SOL    HW224759   3.424   3.450   8.850  1.1223  0.0971  0.7042
 4376SOL     OW24760   3.312   2.097   8.324  0.1637 -0.1297 -0.6803
 4376SOL    HW124761   3.335   2.175   8.374 -0.0578 -1.2007  1.1094
 4376SOL    HW224762   3.217   2.098   8.336  0.0053  2.8702 -2.2264
 4377SOL     OW24763   2.364   2.214   4.296  0.0186  0.0928  0.3013
 4377SOL    HW124764   2.443   2.177   4.258  0.6315  1.0819  0.6153
 4377SOL    HW224765   2.344   2.276   4.226  1.4588  0.2542  0.0363
 4378SOL     OW24766   2.916   1.667   8.328  0.0708 -0.0907 -0.1132
 4378SOL    HW124767   3.001   1.706   8.309 -0.2273  1.0651  0.8654
 4378SOL    HW224768   2.937   1.575   8.314  0.3389  0.1736 -1.4689
 4379SOL     OW24769   1.948   0.017  16.031  0.0999 -0.2678 -0.5579
 4379SOL    HW124770   1.944   0.090  15.970  0.6117  0.5840  0.4332
 4379SOL    HW224771   2.039   4.727  16.023  0.4385  0.8800 -1.2193
 4380SOL     OW24772   2.173   0.067  14.106  0.0777 -0.0677  0.8025
 4380SOL    HW124773   2.186   4.730  14.159 -1.6217 -0.5368  0.5478
 4380SOL    HW224774   2.213   0.050  14.021 -1.0199  1.4771 -0.0350
 4381SOL     OW24775   1.349   0.778   7.945 -0.4564  0.1007 -0.3942
 4381SOL    HW124776   1.262   0.817   7.957 -0.3726 -0.3021  1.5425
 4381SOL    HW224777   1.359   0.721   8.021 -0.5237 -0.0378 -0.4886
 4382SOL     OW24778   4.511   0.197   3.625  0.0414  0.3469 -0.0496
 4382SOL    HW124779   4.548   0.202   3.713 -1.3564 -0.1803  0.5766
 4382SOL    HW224780   4.465   0.113   3.627  2.6379 -1.0964 -1.5360
 4383SOL     OW24781   3.422   3.826   7.857  0.2612  0.0620 -0.5243
 4383SOL    HW124782   3.475   3.900   7.827 -0.4215  1.5508  1.9702
 4383SOL    HW224783   3.335   3.850   7.823  0.0993  1.6494  1.0022
 4384SOL     OW24784   3.686   3.842   1.491 -0.2838 -0.4138  0.1745
 4384SOL    HW124785   3.595   3.816   1.475 -0.0843 -0.4462 -0.9397
 4384SOL    HW224786   3.730   3.774   1.541 -1.1929 -0.8583  0.3755
 4385SOL     OW24787   2.287   0.320  14.065 -0.4934 -0.0288  0.5102
 4385SOL    HW124788   2.241   0.246  14.105  2.0494 -0.5549  2.4135
 4385SOL    HW224789   2.221   0.368  14.015  0.2892  0.4963 -0.0220
 4386SOL     OW24790   4.230   3.756   8.457  0.3551  0.5032  0.8179
 4386SOL    HW124791   4.240   3.817   8.531 -0.2628 -0.7165  1.9208
 4386SOL    HW224792   4.201   3.816   8.389 -1.5665 -1.1558  0.1662
 4387SOL     OW24793   0.718   1.927   7.179  0.2403 -0.3542 -0.6375
 4387SOL    HW124794   0.694   2.016   7.203  1.3147 -0.5027  1.0451
 4387SOL    HW224795   0.779   1.948   7.108 -0.1870  1.5285 -0.4489
 4388SOL     OW24796   0.008   0.567  11.379 -0.0769  0.3732  0.5186
 4388SOL    HW124797   4.681   0.594  11.439 -0.2053 -2.1343  1.4899
 4388SOL    HW224798   4.713   0.487  11.341  0.1925  0.6269 -0.2946
 4389SOL     OW24799   3.263   0.576   2.661 -0.0899 -0.0184  0.1840
 4389SOL    HW124800   3.202   0.625   2.716  0.1775  0.0736  0.3977
 4389SOL    HW224801   3.259   0.496   2.714  1.1234 -0.7000 -0.7687
 4390SOL     OW24802   3.201   0.686  11.996  0.2742 -0.0824 -0.1828
 4390SOL    HW124803   3.128   0.642  11.953  0.7929  1.3081 -2.4864
 4390SOL    HW224804   3.249   0.611  12.032  0.4233 -1.4477 -3.2154
 4391SOL     OW24805   0.495   3.727   3.749  0.0699  0.3774  0.0788
 4391SOL    HW124806   0.495   3.799   3.686  0.0746  0.2970 -0.0130
 4391SOL    HW224807   0.582   3.731   3.789 -1.3746 -2.8302  3.6051
 4392SOL     OW24808   3.857   1.597   5.542  0.7636  0.1421 -0.4554
 4392SOL    HW124809   3.871   1.567   5.631 -1.3460  0.3066 -0.0851
 4392SOL    HW224810   3.794   1.666   5.562 -2.2013 -1.9123 -2.7858
 4393SOL     OW24811   4.086   3.369   6.644  0.4329  0.0740 -0.2371
 4393SOL    HW124812   4.025   3.308   6.683 -1.9469  1.3273 -2.0100
 4393SOL    HW224813   4.041   3.382   6.561 -0.6241  2.1687  0.6535
 4394SOL     OW24814   1.017   0.033  11.991  0.4117 -0.0843  0.4093
 4394SOL    HW124815   1.001   0.045  12.084 -1.8088  0.8523 -0.1027
 4394SOL    HW224816   1.025   0.127  11.972  1.0796  0.1339  1.7433
 4395SOL     OW24817   0.409   3.780   4.331 -0.4336 -0.0062  0.4045
 4395SOL    HW124818   0.426   3.689   4.309  2.0667  0.7506 -0.8430
 4395SOL    HW224819   0.405   3.786   4.426 -0.5925  0.3066  0.3817
 4396SOL     OW24820   0.869   3.529  13.593 -0.0990 -0.6901  0.0454
 4396SOL    HW124821   0.788   3.572  13.567  0.4726  0.5927  0.4129
 4396SOL    HW224822   0.928   3.529  13.517  0.1493  0.9884  0.2492
 4397SOL     OW24823   1.971   0.681   2.833  0.2041  0.0629  0.1201
 4397SOL    HW124824   1.919   0.752   2.797  0.4676  0.4171  0.4450
 4397SOL    HW224825   2.064   0.705   2.831 -0.2925  1.8783 -0.8460
 4398SOL     OW24826   2.197   0.765   0.195  0.3413  0.4663 -0.0938
 4398SOL    HW124827   2.244   0.829   0.142  1.0784 -0.7027 -0.8612
 4398SOL    HW224828   2.247   0.767   0.276  0.6300  0.4407 -0.2698
 4399SOL     OW24829   3.996   1.152   6.877 -0.0462 -0.4956  0.0502
 4399SOL    HW124830   4.057   1.154   6.803  2.0850  3.0446  1.8927
 4399SOL    HW224831   3.912   1.143   6.831  0.5215 -1.4723 -0.7991
 4400SOL     OW24832   3.084   2.136   3.631 -0.4490  0.2696 -0.0022
 4400SOL    HW124833   3.167   2.122   3.585 -0.9088  0.0680 -0.7810
 4400SOL    HW224834   3.105   2.214   3.682 -0.6171 -0.7038  1.5541
 4401SOL     OW24835   2.552   2.055  16.373 -0.2116 -0.0303 -0.2082
 4401SOL    HW124836   2.631   2.004  16.392 -1.8063 -2.6304 -0.6505
 4401SOL    HW224837   2.493   1.983  16.351  1.5492 -2.0802  1.7787
 4402SOL     OW24838   0.126   1.595   5.489 -0.4271 -0.0848 -0.5346
 4402SOL    HW124839   0.056   1.609   5.553 -1.3156 -3.6032 -0.7520
 4402SOL    HW224840   0.183   1.537   5.540  0.5926  3.5869  2.4983
 4403SOL     OW24841   3.662   1.805   5.583  0.6844 -0.4435 -0.0248
 4403SOL    HW124842   3.714   1.885   5.572  0.7690 -0.1806  2.3146
 4403SOL    HW224843   3.602   1.827   5.654  1.2656  0.0826  0.3102
 4404SOL     OW24844   3.265   1.397   8.687  0.4704 -0.0329  0.2827
 4404SOL    HW124845   3.255   1.351   8.604  0.9498  0.5115 -0.0724
 4404SOL    HW224846   3.217   1.341   8.748 -1.6652  0.5843 -0.8243
 4405SOL     OW24847   3.228   1.025   2.416 -0.3295 -0.6269  0.2222
 4405SOL    HW124848   3.273   1.090   2.361 -0.7324 -1.9497 -1.6778
 4405SOL    HW224849   3.147   1.065   2.447 -0.3229 -0.4377  0.0023
 4406SOL     OW24850   3.380   0.283   3.863 -0.9726  0.1086  0.3630
 4406SOL    HW124851   3.337   0.217   3.810  0.6143  0.0381 -0.8405
 4406SOL    HW224852   3.306   0.323   3.909 -1.5086  0.5005 -0.8572
 4407SOL     OW24853   2.281   0.239   4.378 -0.4138  0.0362 -0.3647
 4407SOL    HW124854   2.368   0.273   4.400 -0.5011  0.6335 -0.9312
 4407SOL    HW224855   2.312   0.166   4.324  1.4187 -0.6288  1.5622
 4408SOL     OW24856   4.143   4.554  15.495 -0.4570 -0.4353 -0.0362
 4408SOL    HW124857   4.063   4.501  15.490 -2.5184  2.5982  1.1259
 4408SOL    HW224858   4.109   4.627  15.443 -3.8394 -3.4831 -2.1461
 4409SOL     OW24859   1.923   1.950   1.806 -0.5397 -0.4586 -0.0036
 4409SOL    HW124860   1.874   2.030   1.826  2.9118  1.3397  1.2633
 4409SOL    HW224861   2.004   1.992   1.777 -0.5063 -1.2583 -1.0585
 4410SOL     OW24862   3.084   3.210  11.807 -0.3157 -0.2059  0.3730
 4410SOL    HW124863   3.121   3.134  11.761 -0.6589  1.6862 -3.0752
 4410SOL    HW224864   3.148   3.219  11.877 -0.2349 -0.6290  0.3533
 4411SOL     OW24865   2.345   0.062  16.559  0.2413 -0.2052  0.6468
 4411SOL    HW124866   2.292   0.089  16.484  1.5832  1.6370  0.3523
 4411SOL    HW224867   2.311   0.123  16.624 -1.6093  1.7791 -2.2208
 4412SOL     OW24868   4.372   1.862   1.546 -0.2873  0.5871 -0.2980
 4412SOL    HW124869   4.344   1.901   1.629 -1.8448  0.0179 -0.5631
 4412SOL    HW224870   4.424   1.934   1.511 -1.1858  0.6533 -1.4962
 4413SOL     OW24871   4.262   2.068   2.227 -0.0286  0.5361 -0.3589
 4413SOL    HW124872   4.182   2.077   2.278 -0.2861 -2.1203 -0.2692
 4413SOL    HW224873   4.240   2.145   2.175 -0.7201  1.6267  1.6009
 4414SOL     OW24874   1.625   4.392   5.925 -0.1533  0.4997  0.0558
 4414SOL    HW124875   1.667   4.475   5.952  1.4328  0.3426 -1.9235
 4414SOL    HW224876   1.691   4.336   5.966  1.3623  2.0141 -0.3096
 4415SOL     OW24877   3.186   2.958   6.454  0.3977  0.2208 -0.3281
 4415SOL    HW124878   3.247   3.006   6.398 -0.4061  4.5272  2.4387
 4415SOL    HW224879   3.250   2.929   6.519  1.3259 -0.2711 -1.4617
 4416SOL     OW24880   3.627   0.908   9.478  0.4671  0.4848 -1.1637
 4416SOL    HW124881   3.624   0.831   9.420  1.5279 -0.0139 -0.5473
 4416SOL    HW224882   3.708   0.898   9.527 -0.2530  1.6906  0.2452
 4417SOL     OW24883   2.219   1.533   6.458 -0.6330  0.5181  0.4581
 4417SOL    HW124884   2.208   1.441   6.483 -0.8722  0.6367  0.7819
 4417SOL    HW224885   2.143   1.546   6.401 -0.9339  1.7144  1.1376
 4418SOL     OW24886   1.312   2.690   4.667  0.3665  0.3855 -0.1222
 4418SOL    HW124887   1.289   2.707   4.576  2.8458  1.2923 -0.5842
 4418SOL    HW224888   1.380   2.624   4.658  2.0860  1.9897  1.0917
 4419SOL     OW24889   1.878   1.718  13.441  0.1162  0.7471 -0.0568
 4419SOL    HW124890   1.887   1.748  13.531  2.3457  1.6175 -0.5809
 4419SOL    HW224891   1.890   1.624  13.455  2.2709  1.0605  0.2070
 4420SOL     OW24892   4.690   0.285  15.398 -0.1379  0.4702  0.2567
 4420SOL    HW124893   0.003   0.346  15.348 -1.8261  1.4013 -0.4654
 4420SOL    HW224894   0.016   0.234  15.442 -0.9712 -0.3425  0.5998
 4421SOL     OW24895   3.163   2.356   7.044  0.6685  0.0697  0.6389
 4421SOL    HW124896   3.146   2.273   6.999 -0.5469  0.2852  0.7151
 4421SOL    HW224897   3.093   2.349   7.109  0.7960 -0.3806  0.7266
 4422SOL     OW24898   1.707   1.013   5.666 -0.1234  0.0129 -0.2655
 4422SOL    HW124899   1.702   0.981   5.756 -0.5957 -0.8587 -0.6021
 4422SOL    HW224900   1.697   0.940   5.605  1.8445 -0.8245  0.4103
 4423SOL     OW24901   2.273   1.744  13.107 -0.2724 -0.0302  0.4905
 4423SOL    HW124902   2.251   1.823  13.156  0.3277  1.1280 -1.1119
 4423SOL    HW224903   2.198   1.685  13.120  1.4340 -1.9642  1.4043
 4424SOL     OW24904   4.147   1.397   1.820 -0.1660 -0.8067 -0.3459
 4424SOL    HW124905   4.092   1.428   1.747 -0.8918  0.1750  0.6080
 4424SOL    HW224906   4.189   1.319   1.785  0.5350 -1.9343  3.0645
 4425SOL     OW24907   1.121   1.275   9.246  0.3374 -0.5051 -0.1977
 4425SOL    HW124908   1.039   1.323   9.256  1.5744  1.5172  0.3369
 4425SOL    HW224909   1.173   1.350   9.216  0.0735  0.6015  2.1077
 4426SOL     OW24910   3.175   4.415  13.578 -0.1439  0.4216 -0.5988
 4426SOL    HW124911   3.212   4.474  13.643 -0.7367  1.2398 -1.0085
 4426SOL    HW224912   3.209   4.330  13.606  0.3046 -0.0153 -2.4731
 4427SOL     OW24913   3.471   2.612   9.680  0.1921 -0.2211 -0.4329
 4427SOL    HW124914   3.565   2.598   9.685  0.5088  2.1283  0.0191
 4427SOL    HW224915   3.443   2.673   9.748  2.1625 -0.1020  0.2623
 4428SOL     OW24916   0.788   0.589   9.343 -0.5961 -0.4512  0.1364
 4428SOL    HW124917   0.882   0.592   9.327 -0.7324  0.2486 -0.5043
 4428SOL    HW224918   0.776   0.514   9.402 -0.9910 -0.4102  0.1083
 4429SOL     OW24919   0.521   0.430   5.009 -0.2517 -0.1561  0.4280
 4429SOL    HW124920   0.577   0.385   4.946 -3.6757  2.4511 -4.4918
 4429SOL    HW224921   0.495   0.362   5.071 -0.1183 -0.4652  0.1418
 4430SOL     OW24922   2.151   0.746   4.375 -0.0887 -0.0425 -0.1133
 4430SOL    HW124923   2.090   0.777   4.308  1.2298 -2.0436 -2.2955
 4430SOL    HW224924   2.120   0.655   4.380 -1.8288  0.5338 -0.5165
 4431SOL     OW24925   1.064   1.200   4.017 -0.1992 -0.4895 -0.0651
 4431SOL    HW124926   1.098   1.230   4.101 -1.1423  1.3624 -0.3399
 4431SOL    HW224927   1.100   1.112   4.013 -0.7417 -0.6879 -0.5767
 4432SOL     OW24928   4.175   3.438   4.020  0.2587  0.4270  0.0966
 4432SOL    HW124929   4.170   3.384   4.099  0.4834  0.6723  0.2760
 4432SOL    HW224930   4.245   3.388   3.978  0.1041  1.6987 -1.6579
 4433SOL     OW24931   1.435   1.153   2.865 -0.4574 -0.4020  0.1894
 4433SOL    HW124932   1.440   1.226   2.803 -2.3729  0.2049  0.7372
 4433SOL    HW224933   1.350   1.115   2.840  0.4872 -2.0157 -0.5844
 4434SOL     OW24934   0.866   3.037   6.913 -0.3688  0.6247 -0.1590
 4434SOL    HW124935   0.903   2.979   6.979  0.2738  0.1664 -0.9218
 4434SOL    HW224936   0.775   3.008   6.902 -0.3535  0.9213 -1.0898
 4435SOL     OW24937   1.263   3.967   3.673  0.2373 -0.2940 -0.1752
 4435SOL    HW124938   1.244   4.050   3.717 -1.2309  0.4641 -2.2394
 4435SOL    HW224939   1.319   3.983   3.597 -0.1160  0.8781 -0.1925
 4436SOL     OW24940   0.067   0.937   0.466 -0.2243 -0.9674  0.7990
 4436SOL    HW124941   0.081   0.860   0.521  2.0045 -1.2963 -0.2386
 4436SOL    HW224942   4.713   0.944   0.466 -0.1143  0.6774 -0.4855
 4437SOL     OW24943   2.147   1.138  12.717 -0.0667 -0.7450  0.0922
 4437SOL    HW124944   2.182   1.226  12.704  0.5203 -1.2267 -1.5003
 4437SOL    HW224945   2.140   1.108  12.627  0.5847  1.2083 -0.5976
 4438SOL     OW24946   4.689   3.072   1.637  0.7166 -0.3997 -0.0377
 4438SOL    HW124947   4.624   3.092   1.704 -0.5441  1.2284 -1.7665
 4438SOL    HW224948   0.020   3.133   1.652 -0.5381  1.2064 -0.4435
 4439SOL     OW24949   0.215   1.888   0.170  0.0711  0.0488  0.3205
 4439SOL    HW124950   0.159   1.931   0.106  1.7300  1.4282 -0.2236
 4439SOL    HW224951   0.194   1.797   0.151  0.4105  0.3307 -1.3972
 4440SOL     OW24952   1.130   2.607   5.265  0.1791 -0.3756 -0.2520
 4440SOL    HW124953   1.158   2.565   5.346 -1.5079  0.9164  1.0041
 4440SOL    HW224954   1.187   2.570   5.197  0.4356 -0.1293 -0.1690
 4441SOL     OW24955   1.989   3.708   7.387 -0.4070 -0.2079 -0.1117
 4441SOL    HW124956   1.956   3.647   7.453  2.6188 -0.8804  0.7571
 4441SOL    HW224957   1.964   3.794   7.421 -1.5456  0.5308 -2.7874
 4442SOL     OW24958   1.442   1.081   3.174  0.1427 -0.4304 -0.2015
 4442SOL    HW124959   1.417   1.130   3.252  3.1022 -1.1427  1.2132
 4442SOL    HW224960   1.439   1.149   3.106  1.7510 -1.4308 -1.2733
 4443SOL     OW24961   1.304   1.684   2.975 -0.9484 -0.5374  0.4348
 4443SOL    HW124962   1.336   1.771   2.999 -0.1705 -0.6558 -0.1550
 4443SOL    HW224963   1.350   1.651   2.897 -0.5084 -0.6534  0.7445
 4444SOL     OW24964   1.837   4.537   3.340 -0.1942 -0.2876  0.2336
 4444SOL    HW124965   1.801   4.481   3.271 -2.1757  0.1332  0.9313
 4444SOL    HW224966   1.851   4.473   3.410 -4.0559 -0.8463  0.4922
 4445SOL     OW24967   3.975   0.476   9.922 -0.0894  0.0067  0.3083
 4445SOL    HW124968   3.888   0.502   9.955  0.1716  1.9850 -0.5367
 4445SOL    HW224969   3.961   0.383   9.905 -2.9727  0.3558  0.7001
 4446SOL     OW24970   3.408   4.371   6.217 -0.2263 -0.3798 -0.6403
 4446SOL    HW124971   3.378   4.388   6.307 -1.0159 -0.0400 -0.9700
 4446SOL    HW224972   3.372   4.283   6.207 -0.6666 -0.0811 -1.6449
 4447SOL     OW24973   1.919   0.825   4.656  0.3112 -0.0515 -0.2347
 4447SOL    HW124974   1.964   0.884   4.596 -0.6857  0.8550 -0.0801
 4447SOL    HW224975   1.871   0.885   4.713 -0.7181 -1.1446  0.0421
 4448SOL     OW24976   1.065   2.409   5.677 -0.4707 -0.5156 -0.3635
 4448SOL    HW124977   1.073   2.429   5.770  2.2584 -1.4344 -0.4068
 4448SOL    HW224978   0.971   2.428   5.675 -0.3082  0.3121  0.1682
 4449SOL     OW24979   1.628   0.014  12.119  0.2661 -0.0029 -0.7406
 4449SOL    HW124980   1.597   4.699  12.049 -0.2189 -0.0234 -0.5063
 4449SOL    HW224981   1.589   0.094  12.083 -3.2572 -1.5425 -0.3179
 4450SOL     OW24982   1.956   0.235  15.861  0.0858 -0.1111 -0.3364
 4450SOL    HW124983   1.932   0.200  15.775 -0.5261  0.1471 -0.2668
 4450SOL    HW224984   2.046   0.265  15.844  1.0543 -2.1111  1.1564
 4451SOL     OW24985   4.150   1.084  13.914  0.4369 -0.3434 -0.6894
 4451SOL    HW124986   4.202   1.055  13.839  2.0971  0.1909  0.2765
 4451SOL    HW224987   4.077   1.022  13.912  1.5805 -1.7588  2.6342
 4452SOL     OW24988   3.084   3.906   7.773 -0.5334  0.4278  0.5305
 4452SOL    HW124989   3.028   3.873   7.703  0.7701 -0.6917  0.0015
 4452SOL    HW224990   3.159   3.945   7.729 -0.1139  0.7243  1.5025
 4453SOL     OW24991   2.570   1.961   1.523  0.2298 -0.1783 -0.4819
 4453SOL    HW124992   2.607   1.935   1.607  0.3038  0.4909 -0.3095
 4453SOL    HW224993   2.507   1.895   1.494 -1.7714  2.0239 -1.1113
 4454SOL     OW24994   1.293   0.601   7.478  0.0448  0.2296 -0.2002
 4454SOL    HW124995   1.362   0.666   7.488 -0.3859  0.9919 -2.0905
 4454SOL    HW224996   1.349   0.525   7.465 -0.5723 -0.1707 -0.5443
 4455SOL     OW24997   3.384   4.410   6.902 -0.0565  0.5762 -0.0791
 4455SOL    HW124998   3.292   4.410   6.874 -1.0444  1.2781  3.1148
 4455SOL    HW224999   3.424   4.485   6.858 -1.3191  0.7510 -0.9245
 4456SOL     OW25000   4.234   4.160   5.701 -0.4132  0.1100 -0.4212
 4456SOL    HW125001   4.184   4.215   5.761  1.7417  2.4014 -0.7630
 4456SOL    HW225002   4.323   4.188   5.722 -0.2585 -0.7676  0.0809
 4457SOL     OW25003   2.628   4.152   4.474 -0.2676  0.3068 -0.3036
 4457SOL    HW125004   2.647   4.203   4.552  0.0863  4.1287 -2.8845
 4457SOL    HW225005   2.533   4.147   4.480 -0.1977 -1.2531 -0.3473
 4458SOL     OW25006   4.619   0.536   6.952  0.2304 -0.2802  0.1004
 4458SOL    HW125007   4.700   0.500   6.917  0.0299  0.4133 -1.0694
 4458SOL    HW225008   4.655   0.585   7.026  0.6980  0.2255 -0.4648
 4459SOL     OW25009   4.239   4.693  16.515 -0.1471 -0.1374 -0.1190
 4459SOL    HW125010   4.193   4.726  16.593 -0.9863  0.6654 -0.9537
 4459SOL    HW225011   4.262   4.602  16.537 -2.4880 -0.2986  1.7412
 4460SOL     OW25012   0.997   4.083   1.497 -0.1942 -0.3612 -0.1100
 4460SOL    HW125013   1.061   4.136   1.544 -1.4391 -0.3825  1.6137
 4460SOL    HW225014   0.937   4.063   1.569  0.4483 -0.1014  0.4958
 4461SOL     OW25015   2.651   4.636   9.410  0.3542  0.0989 -0.6055
 4461SOL    HW125016   2.725   4.596   9.364  0.9055 -1.0577  1.3009
 4461SOL    HW225017   2.697   4.659   9.491  1.1860  2.0450 -1.6220
 4462SOL     OW25018   1.243   0.688  14.709  0.6724 -0.0703  0.4710
 4462SOL    HW125019   1.173   0.731  14.660  1.1671 -0.4995 -0.5985
 4462SOL    HW225020   1.196   0.654  14.785 -1.5452 -1.1328 -1.4012
 4463SOL     OW25021   2.430   0.073  15.072  0.8744  0.2214  0.5621
 4463SOL    HW125022   2.472   0.100  15.153 -0.0574  1.4920  0.6116
 4463SOL    HW225023   2.502   0.071  15.009  0.2187 -0.2316 -0.1883
 4464SOL     OW25024   2.974   0.993   5.710 -0.9654 -0.3580  0.3021
 4464SOL    HW125025   3.027   1.040   5.646 -0.5666  0.5646  1.3150
 4464SOL    HW225026   2.955   1.064   5.772  2.6324  0.6700  0.2289
 4465SOL     OW25027   4.278   2.154   4.868  0.6494 -0.0153  0.3403
 4465SOL    HW125028   4.244   2.109   4.946 -0.5480 -0.9060 -0.6852
 4465SOL    HW225029   4.298   2.240   4.905  0.4468 -0.4648  1.5110
 4466SOL     OW25030   3.149   2.123  14.172  0.1288 -0.4165 -0.1699
 4466SOL    HW125031   3.086   2.123  14.244  1.5935 -0.3769  1.1092
 4466SOL    HW225032   3.197   2.205  14.186 -0.7719  0.2799 -1.1305
 4467SOL     OW25033   3.880   2.520   4.538 -0.2260 -0.0984  0.1359
 4467SOL    HW125034   3.878   2.600   4.485  1.3982  0.4132  0.8401
 4467SOL    HW225035   3.814   2.540   4.604 -1.4286 -1.9017 -0.5286
 4468SOL     OW25036   4.554   1.009   4.353  0.3480 -0.2420  0.0852
 4468SOL    HW125037   4.633   0.956   4.356  0.3901  0.0085  3.3549
 4468SOL    HW225038   4.495   0.969   4.288 -1.0599 -0.2363  1.3503
 4469SOL     OW25039   0.043   0.952   8.730 -0.5033  0.5082 -0.4560
 4469SOL    HW125040   4.719   1.020   8.716 -0.3283  1.1507  1.8861
 4469SOL    HW225041   0.068   0.922   8.642  0.2464  1.8312 -0.6902
 4470SOL     OW25042   0.298   3.175  13.119  0.1943  0.1253  0.3402
 4470SOL    HW125043   0.207   3.195  13.097 -0.6517 -4.1590 -0.0724
 4470SOL    HW225044   0.306   3.238  13.191  1.5484  1.9782 -1.4136
 4471SOL     OW25045   2.751   1.955   8.938 -1.2253  0.2896 -0.3623
 4471SOL    HW125046   2.731   1.932   9.028 -2.0213 -1.0608 -0.8848
 4471SOL    HW225047   2.846   1.959   8.951 -1.0531 -0.7902 -1.3015
 4472SOL     OW25048   1.962   0.461   4.589 -0.0622  0.2699  0.4626
 4472SOL    HW125049   1.959   0.367   4.573  1.3935  0.2002  0.6226
 4472SOL    HW225050   1.983   0.491   4.501 -1.3899  0.3907  0.1822
 4473SOL     OW25051   4.599   1.913  16.504  0.3485 -0.2696  0.2218
 4473SOL    HW125052   4.610   1.970  16.427  0.7110 -0.1795  0.3447
 4473SOL    HW225053   4.504   1.903  16.491  0.5951 -2.3040 -0.0227
 4474SOL     OW25054   3.683   1.780   0.983  0.2681  0.2366 -0.0653
 4474SOL    HW125055   3.754   1.832   0.945  0.5158 -1.0296 -1.3439
 4474SOL    HW225056   3.676   1.701   0.929 -0.8310 -0.1386  0.6349
 4475SOL     OW25057   3.134   3.541  16.985 -0.2559 -0.1090 -0.4717
 4475SOL    HW125058   3.121   3.487  16.907 -2.0448 -1.2233  0.5820
 4475SOL    HW225059   3.225   3.518  16.999 -0.3419 -1.2567 -1.7758
 4476SOL     OW25060   0.784   4.313   4.463 -0.2391  0.0595 -0.5208
 4476SOL    HW125061   0.878   4.296   4.466 -0.1681  0.7609  1.4110
 4476SOL    HW225062   0.756   4.222   4.467 -0.6833  0.1996 -0.4673
 4477SOL     OW25063   1.917   4.336   8.633 -0.1847 -0.1893  0.2845
 4477SOL    HW125064   1.841   4.342   8.690 -0.4469  2.0397 -0.3050
 4477SOL    HW225065   1.928   4.428   8.608  0.7712 -0.4312 -0.2211
 4478SOL     OW25066   1.327   3.310   9.065  0.0855 -0.0793  0.3076
 4478SOL    HW125067   1.234   3.304   9.042 -0.2320 -0.3645  1.6505
 4478SOL    HW225068   1.364   3.228   9.032 -0.0642 -0.5872  1.3690
 4479SOL     OW25069   2.758   2.655   5.813  0.1091  0.0274  0.2587
 4479SOL    HW125070   2.790   2.664   5.723 -1.2901 -1.9730 -0.4362
 4479SOL    HW225071   2.793   2.736   5.848  1.8175 -0.1240 -1.0892
 4480SOL     OW25072   0.048   4.507  13.642 -0.0689  0.0866  0.8773
 4480SOL    HW125073   0.075   4.416  13.650  0.7554  0.5033  2.8193
 4480SOL    HW225074   0.118   4.545  13.696  0.4378 -1.2433  1.1528
 4481SOL     OW25075   3.942   0.991   4.494 -0.0777 -0.3921 -0.4006
 4481SOL    HW125076   3.986   0.931   4.433  0.5947 -1.5306  1.2045
 4481SOL    HW225077   3.909   0.933   4.562 -0.9169  0.0176 -0.4655
 4482SOL     OW25078   4.260   1.714   7.153  0.6856  0.0218  0.2372
 4482SOL    HW125079   4.342   1.754   7.122  1.3827 -0.0285  2.0177
 4482SOL    HW225080   4.223   1.689   7.069 -2.1042  0.7038  1.2814
 4483SOL     OW25081   2.239   1.536   1.958 -0.6924 -0.3138  0.5115
 4483SOL    HW125082   2.235   1.508   1.867 -0.3561  2.0967 -0.2621
 4483SOL    HW225083   2.169   1.601   1.958 -0.3809  0.0168 -2.1561
 4484SOL     OW25084   2.160   0.975   0.463  0.3988 -0.3322 -0.2655
 4484SOL    HW125085   2.231   1.000   0.404  0.7319 -3.1885 -1.1031
 4484SOL    HW225086   2.196   1.007   0.545 -1.6759 -0.5455  0.7188
 4485SOL     OW25087   0.098   0.590  15.042 -0.0826  0.5545 -0.1739
 4485SOL    HW125088   0.193   0.594  15.046 -0.1894  2.1073  0.6148
 4485SOL    HW225089   0.074   0.682  15.046  0.4687  0.7754 -1.9600
 4486SOL     OW25090   2.749   2.170   1.603 -0.2156  0.0414  0.1219
 4486SOL    HW125091   2.700   2.102   1.557  1.7690 -0.7350 -0.8568
 4486SOL    HW225092   2.753   2.247   1.545 -1.1178 -1.3674 -1.8098
 4487SOL     OW25093   0.828   0.717   2.697  0.3064 -0.2215  0.1754
 4487SOL    HW125094   0.911   0.756   2.667 -0.0540  1.2311  1.0666
 4487SOL    HW225095   0.847   0.689   2.786 -1.6928 -1.5674  0.1728
 4488SOL     OW25096   2.594   4.735  13.783 -0.4403 -0.0290  0.1449
 4488SOL    HW125097   2.657   0.061  13.809  0.6337 -1.1694  0.5168
 4488SOL    HW225098   2.663   4.674  13.756 -2.0752 -1.5699 -0.5092
 4489SOL     OW25099   4.350   4.243   0.827  0.0855  0.5026  0.0459
 4489SOL    HW125100   4.443   4.226   0.839 -0.3707  0.1251  3.1159
 4489SOL    HW225101   4.329   4.246   0.733  0.9355  0.1944 -0.1571
 4490SOL     OW25102   0.669   3.630  14.682 -0.2600 -0.6689 -0.2268
 4490SOL    HW125103   0.696   3.680  14.605 -1.7613 -0.0846 -0.3644
 4490SOL    HW225104   0.703   3.550  14.643 -0.4951 -1.1058  0.4740
 4491SOL     OW25105   3.360   1.459  16.517  0.0670 -0.0322 -0.1396
 4491SOL    HW125106   3.427   1.520  16.547  0.5401  0.3933 -2.0369
 4491SOL    HW225107   3.361   1.404  16.595 -0.0635 -0.6856 -0.5939
 4492SOL     OW25108   1.948   4.359   5.580  0.2065 -0.1696  0.2093
 4492SOL    HW125109   1.918   4.270   5.596 -3.2558  0.8166 -0.8314
 4492SOL    HW225110   2.040   4.345   5.605  0.4106  0.7420 -0.0162
 4493SOL     OW25111   2.971   4.629   2.772 -0.4910 -0.5321 -0.0378
 4493SOL    HW125112   2.995   4.575   2.697  0.2535  0.6586 -0.6668
 4493SOL    HW225113   2.991   4.719   2.745  1.9589  0.0816  3.8784
 4494SOL     OW25114   0.268   3.603  14.643  0.4349  0.2145 -0.0013
 4494SOL    HW125115   0.182   3.645  14.652 -0.8152 -2.1539 -1.0005
 4494SOL    HW225116   0.322   3.682  14.635  1.5699 -0.3128  2.4690
 4495SOL     OW25117   3.310   1.032  17.090  0.0676 -0.2754 -0.5117
 4495SOL    HW125118   3.358   0.980  17.026 -0.3896 -0.7857 -0.4352
 4495SOL    HW225119   3.310   0.982  17.172 -1.0744 -1.0913 -1.0139
 4496SOL     OW25120   2.352   2.048   5.545 -0.3775  0.4095  0.1949
 4496SOL    HW125121   2.440   2.078   5.522  0.1079 -1.3828 -0.3326
 4496SOL    HW225122   2.292   2.119   5.522  0.2470  1.1283  0.8115
 4497SOL     OW25123   0.100   0.913   6.174 -0.4303  0.2620 -0.4000
 4497SOL    HW125124   0.080   0.822   6.152  2.7936 -0.7220  0.7347
 4497SOL    HW225125   0.095   0.956   6.089  2.0988 -0.4035 -0.8853
 4498SOL     OW25126   2.102   3.452   8.594 -0.1063  0.1920 -0.1865
 4498SOL    HW125127   2.051   3.533   8.585 -0.1824  0.0658 -0.8597
 4498SOL    HW225128   2.194   3.473   8.578  0.2030 -1.1196 -0.1475
 4499SOL     OW25129   0.458   2.175  16.385 -0.0970  0.1069 -0.1841
 4499SOL    HW125130   0.483   2.090  16.349 -0.3706  0.5472 -1.4009
 4499SOL    HW225131   0.390   2.153  16.449  0.3147 -0.8772 -0.0875
 4500SOL     OW25132   2.865   0.838   8.552  0.4327 -0.5313  0.1493
 4500SOL    HW125133   2.936   0.774   8.541  0.4224 -0.5851  0.4012
 4500SOL    HW225134   2.922   0.910   8.525  2.1135 -1.8014  0.3232
 4501SOL     OW25135   3.948   3.729   7.250 -0.4562 -0.7835 -0.2302
 4501SOL    HW125136   4.024   3.685   7.289  1.5339  0.8074 -2.2967
 4501SOL    HW225137   3.905   3.774   7.323  0.5492 -2.2526  1.2430
 4502SOL     OW25138   0.966   3.919   2.954  0.2870  0.4564  0.1112
 4502SOL    HW125139   1.002   3.835   2.984 -1.2809  0.5736  2.3582
 4502SOL    HW225140   0.891   3.898   2.899  1.4147 -2.6078 -0.2499
 4503SOL     OW25141   4.312   2.241   8.259  0.1181  0.1974 -0.1094
 4503SOL    HW125142   4.365   2.163   8.243 -1.1705 -0.5457 -0.7362
 4503SOL    HW225143   4.375   2.303   8.297  1.2097 -1.8220  1.3862
 4504SOL     OW25144   1.979   2.898   8.786  0.4306  0.2806  0.0738
 4504SOL    HW125145   2.072   2.900   8.806  0.3516  0.6364  0.4029
 4504SOL    HW225146   1.950   2.911   8.876  0.5280  0.0048  0.1453
 4505SOL     OW25147   1.243   3.199  11.253  0.1063  0.1881 -0.1525
 4505SOL    HW125148   1.207   3.152  11.328  3.0120 -0.0180  1.1025
 4505SOL    HW225149   1.262   3.128  11.192  1.4273 -0.9200  1.5523
 4506SOL     OW25150   3.878   1.301   0.585  0.1756 -0.0237 -0.5640
 4506SOL    HW125151   3.788   1.269   0.582  0.5215 -0.8032 -2.5094
 4506SOL    HW225152   3.877   1.394   0.563 -0.4514 -0.5196 -2.5509
 4507SOL     OW25153   2.553   1.601  15.655 -0.1132  0.3504  0.3242
 4507SOL    HW125154   2.618   1.568  15.718  0.0097  2.3125  1.2284
 4507SOL    HW225155   2.565   1.538  15.584 -0.5620  1.5242 -0.7907
 4508SOL     OW25156   3.849   2.046  10.647 -0.2026 -0.9104  0.1750
 4508SOL    HW125157   3.822   2.075  10.560  1.3265 -0.2748 -0.0897
 4508SOL    HW225158   3.899   2.122  10.675 -1.7139  0.4476 -0.7866
 4509SOL     OW25159   3.945   1.108   7.826  0.1712 -0.4002  0.1342
 4509SOL    HW125160   3.867   1.073   7.868  0.9035 -0.5149  1.4159
 4509SOL    HW225161   3.952   1.201   7.849  2.9485 -0.9721  1.5938
 4510SOL     OW25162   2.016   1.383  11.886 -0.1791 -0.1912 -0.4254
 4510SOL    HW125163   1.922   1.387  11.903  0.1796 -1.6491  2.0109
 4510SOL    HW225164   2.011   1.353  11.796 -1.9917 -1.1068 -0.0148
 4511SOL     OW25165   2.116   2.770   4.019 -0.1106  0.0708 -0.0298
 4511SOL    HW125166   2.034   2.802   4.057  0.4669  0.7251  0.6500
 4511SOL    HW225167   2.077   2.705   3.960  1.9565 -2.0888  0.9883
 4512SOL     OW25168   1.417   2.728  14.350  0.2527  0.6421 -0.0446
 4512SOL    HW125169   1.432   2.655  14.410 -4.4390 -0.3873 -0.1579
 4512SOL    HW225170   1.502   2.771  14.338  0.3332 -0.4070 -3.1627
 4513SOL     OW25171   1.918   3.154   3.877 -0.3669  0.2432 -0.2157
 4513SOL    HW125172   1.893   3.180   3.966  0.6739 -0.1580  0.1851
 4513SOL    HW225173   1.928   3.236   3.829 -0.0737 -0.0608 -0.6733
 4514SOL     OW25174   3.407   3.466   6.957 -0.1826  0.0563  0.1568
 4514SOL    HW125175   3.493   3.424   6.964  0.4756  1.4142  0.0331
 4514SOL    HW225176   3.390   3.517   7.036  0.8355 -1.4151  1.3189
 4515SOL     OW25177   2.696   2.089   1.293 -0.1566 -0.5138  0.0669
 4515SOL    HW125178   2.731   2.097   1.204 -1.6449 -0.1307 -0.4840
 4515SOL    HW225179   2.750   2.015   1.323  0.4889 -1.7051 -3.9914
 4516SOL     OW25180   1.345   3.040   7.973  0.5802  0.2489  0.0673
 4516SOL    HW125181   1.315   3.024   7.883  1.9205  0.7466 -0.4834
 4516SOL    HW225182   1.440   3.032   7.963  0.4010 -0.9160 -0.6581
 4517SOL     OW25183   1.578   0.999   0.907 -0.9825 -0.1134 -0.6329
 4517SOL    HW125184   1.592   0.915   0.862 -0.4894 -1.3251  1.7816
 4517SOL    HW225185   1.494   0.999   0.953 -0.1397  0.1109  0.9148
 4518SOL     OW25186   3.040   2.856   0.449  0.4092 -0.9308  0.4637
 4518SOL    HW125187   3.135   2.869   0.453  0.0636  1.6697  0.4135
 4518SOL    HW225188   3.031   2.761   0.439 -0.7613 -0.5002 -2.3647
 4519SOL     OW25189   4.717   0.021   4.371 -0.3097 -0.2631  0.6069
 4519SOL    HW125190   0.037   4.697   4.339  1.0908 -0.7935  4.3700
 4519SOL    HW225191   0.019   0.036   4.455  1.0534 -0.2057 -0.1246
 4520SOL     OW25192   0.348   2.359   4.094  0.1334  0.7432 -0.2760
 4520SOL    HW125193   0.318   2.411   4.019  0.2771  0.6572 -0.3944
 4520SOL    HW225194   0.439   2.389   4.097 -0.4361  2.6633 -1.9557
 4521SOL     OW25195   1.140   3.442   5.805  0.2094  0.7277 -0.3651
 4521SOL    HW125196   1.189   3.478   5.879 -1.0239 -0.6438  1.1018
 4521SOL    HW225197   1.134   3.520   5.749  2.8133  1.0043 -0.2433
 4522SOL     OW25198   4.069   1.133   0.480  0.5924  0.0727 -0.3962
 4522SOL    HW125199   4.060   1.056   0.423  0.5775  0.4626 -0.9208
 4522SOL    HW225200   3.982   1.164   0.502  1.1825  0.7737  0.9425
 4523SOL     OW25201   2.985   4.586   4.067  0.3876 -0.0139  0.4375
 4523SOL    HW125202   3.008   4.499   4.101  0.0480  0.2822  1.4295
 4523SOL    HW225203   3.071   4.627   4.062 -0.5866  2.0806  1.0939
 4524SOL     OW25204   3.665   1.646   9.700  0.0156 -0.1669 -0.6739
 4524SOL    HW125205   3.593   1.630   9.639  1.3337 -1.1655 -1.9604
 4524SOL    HW225206   3.697   1.556   9.693  0.8111  0.2120 -1.7948
 4525SOL     OW25207   2.226   0.311   2.492 -0.0997  0.0227  0.1225
 4525SOL    HW125208   2.167   0.384   2.510 -0.6554  0.0034 -1.6068
 4525SOL    HW225209   2.237   0.331   2.399  0.3231  0.6114  0.2976
 4526SOL     OW25210   2.947   3.079  12.517 -0.3419  0.3600  0.1100
 4526SOL    HW125211   2.875   3.096  12.456 -0.1890  1.6898  0.2871
 4526SOL    HW225212   2.957   2.984  12.520  0.2976  0.5038  2.5242
 4527SOL     OW25213   1.703   2.789  15.074 -0.4181  0.5391  0.2032
 4527SOL    HW125214   1.758   2.730  15.022 -0.2476 -1.0495  2.1978
 4527SOL    HW225215   1.756   2.789  15.154 -0.8582  1.6915  0.4994
 4528SOL     OW25216   0.103   3.736   3.776  0.0146 -0.1811  0.0678
 4528SOL    HW125217   0.159   3.680   3.830  2.5134  1.7900 -0.4458
 4528SOL    HW225218   0.084   3.813   3.830 -2.7169 -1.9613  1.5958
 4529SOL     OW25219   2.195   1.997   4.361  0.1257 -0.1959  0.4567
 4529SOL    HW125220   2.167   2.037   4.444 -0.7396 -2.6407  1.3246
 4529SOL    HW225221   2.211   2.078   4.312  0.0975  1.4170  3.0964
 4530SOL     OW25222   3.077   2.149   4.405 -0.1447 -0.4429 -0.2072
 4530SOL    HW125223   3.087   2.221   4.343 -2.9680 -0.2245 -0.4067
 4530SOL    HW225224   2.981   2.142   4.412 -0.4322  0.6820 -3.2547
 4531SOL     OW25225   3.773   2.412  17.468 -0.3923  0.3969  0.1397
 4531SOL    HW125226   3.764   2.342  17.533  0.9993 -0.2270 -0.3249
 4531SOL    HW225227   3.863   2.443  17.478  0.2377 -0.9388 -1.4252
 4532SOL     OW25228   2.694   1.612  11.612  0.0291 -0.0505 -0.3997
 4532SOL    HW125229   2.753   1.670  11.661  0.2136  0.2412 -0.9697
 4532SOL    HW225230   2.607   1.647  11.632  0.8490  2.6493 -1.5201
 4533SOL     OW25231   3.811   0.461   4.424  0.1884 -0.2139  0.3904
 4533SOL    HW125232   3.907   0.459   4.419  0.1730  0.4608 -0.3057
 4533SOL    HW225233   3.798   0.433   4.334 -0.2318  0.9723  0.0840
 4534SOL     OW25234   1.518   3.687  13.135  0.1170 -0.1308 -0.9892
 4534SOL    HW125235   1.423   3.688  13.125 -0.1971 -0.0699  2.0520
 4534SOL    HW225236   1.548   3.620  13.074 -0.0231 -1.9375  0.9328
 4535SOL     OW25237   2.306   0.779  14.970 -0.6353 -0.7358  0.5627
 4535SOL    HW125238   2.369   0.729  15.022 -0.9067 -0.9117  0.7220
 4535SOL    HW225239   2.329   0.735  14.888 -0.2867  1.9791 -0.8318
 4536SOL     OW25240   3.133   2.979  10.412 -0.7036  0.7169 -0.6338
 4536SOL    HW125241   3.060   2.924  10.442 -1.1800  2.2321  0.9586
 4536SOL    HW225242   3.133   3.059  10.463  1.7143  1.7585 -2.2704
 4537SOL     OW25243   3.257   0.766   3.163  0.3135 -0.4826  0.3704
 4537SOL    HW125244   3.195   0.796   3.230  3.7548  2.3724  2.2127
 4537SOL    HW225245   3.331   0.732   3.212 -0.5201 -0.8185  1.3909
 4538SOL     OW25246   0.613   3.231   4.582 -0.5352  0.2022  0.6892
 4538SOL    HW125247   0.526   3.212   4.548  0.7107  0.0210 -2.4193
 4538SOL    HW225248   0.664   3.230   4.501 -2.3269  2.5335 -0.4703
 4539SOL     OW25249   1.768   1.983  12.393  0.4033 -0.2080 -0.0006
 4539SOL    HW125250   1.762   1.888  12.400  2.5850 -0.1606  2.5265
 4539SOL    HW225251   1.680   1.996  12.358  0.1657  0.1114  0.7346
 4540SOL     OW25252   2.771   3.019   4.133 -0.5274  0.2966 -0.1211
 4540SOL    HW125253   2.793   2.932   4.166  0.1074  0.1736 -0.8673
 4540SOL    HW225254   2.793   3.071   4.210  0.4940  2.6695 -1.9868
 4541SOL     OW25255   2.371   1.440   9.031  0.1871 -0.0478 -0.0338
 4541SOL    HW125256   2.464   1.454   9.014  0.5939 -1.3393  1.1079
 4541SOL    HW225257   2.359   1.504   9.101 -0.1235 -0.5785  0.4022
 4542SOL     OW25258   3.643   1.231   9.451  0.3954  0.1093 -0.1125
 4542SOL    HW125259   3.648   1.136   9.443 -0.0784 -0.1185  2.3532
 4542SOL    HW225260   3.698   1.263   9.379  0.6529  0.4616  0.2443
 4543SOL     OW25261   4.487   4.467   3.994  0.1239  0.2241 -0.5098
 4543SOL    HW125262   4.455   4.553   3.967  2.2539  0.2704 -2.8500
 4543SOL    HW225263   4.571   4.497   4.031  0.1573 -1.0228  0.3988
 4544SOL     OW25264   1.711   1.926   4.581 -0.2857 -0.0098 -0.5925
 4544SOL    HW125265   1.628   1.974   4.575  0.3421  1.1056 -0.2044
 4544SOL    HW225266   1.766   1.996   4.547  1.5803 -0.3433  1.8107
 4545SOL     OW25267   2.021   4.184   6.225 -0.6394  0.0174 -0.1026
 4545SOL    HW125268   2.040   4.092   6.247  2.4719  0.6413 -0.0953
 4545SOL    HW225269   1.963   4.213   6.296 -0.6970  1.1813 -0.6285
 4546SOL     OW25270   0.521   1.618   7.034  0.3414  0.3524 -0.4604
 4546SOL    HW125271   0.559   1.647   7.117 -1.2370 -1.5009  0.9033
 4546SOL    HW225272   0.529   1.699   6.984 -0.8296  1.4177  1.0617
 4547SOL     OW25273   1.296   4.164  16.193  0.2061 -0.4999 -0.0915
 4547SOL    HW125274   1.319   4.256  16.177  1.4268 -0.7931 -0.0648
 4547SOL    HW225275   1.329   4.127  16.111  3.2012  3.0504 -0.5330
 4548SOL     OW25276   4.282   3.086   8.547  0.4438 -0.5038  0.3965
 4548SOL    HW125277   4.239   3.076   8.462  1.9139 -1.8296 -0.1907
 4548SOL    HW225278   4.213   3.140   8.585 -0.3479 -0.1687 -1.5299
 4549SOL     OW25279   4.464   1.786   6.184 -0.2494  0.1955 -0.5182
 4549SOL    HW125280   4.458   1.764   6.277 -0.4914  1.1659 -0.3024
 4549SOL    HW225281   4.553   1.821   6.178  0.2123 -0.9523 -0.2864
 4550SOL     OW25282   3.659   3.732   8.939 -0.4900 -0.0521 -0.3167
 4550SOL    HW125283   3.753   3.717   8.933 -0.6645 -1.2963 -0.1023
 4550SOL    HW225284   3.656   3.765   9.029 -2.1230 -0.8393 -0.0787
 4551SOL     OW25285   2.720   2.231   4.489 -0.0927  0.3589  0.7385
 4551SOL    HW125286   2.680   2.286   4.421  0.7574 -0.6511 -0.5836
 4551SOL    HW225287   2.741   2.154   4.437 -1.0802  1.5574 -1.4526
 4552SOL     OW25288   1.633   2.971  10.897  0.3815  0.4417  0.1862
 4552SOL    HW125289   1.591   3.035  10.954  0.9154  0.2892  0.7444
 4552SOL    HW225290   1.688   3.028  10.842 -1.5621  3.4991  1.4447
 4553SOL     OW25291   0.639   0.727   7.282 -0.1639  0.0038 -0.4340
 4553SOL    HW125292   0.718   0.724   7.228 -0.2989  2.0548 -0.7544
 4553SOL    HW225293   0.644   0.636   7.313 -2.0411 -1.4699 -4.5021
 4554SOL     OW25294   3.084   2.803   8.419 -0.2668 -0.4421  0.1778
 4554SOL    HW125295   3.059   2.839   8.334 -1.4149 -1.3395  0.1279
 4554SOL    HW225296   3.025   2.731   8.440  0.4428 -1.0043  0.2580
 4555SOL     OW25297   4.692   0.188   7.492  0.3957 -0.6631  0.4943
 4555SOL    HW125298   4.683   0.229   7.406 -0.4810 -0.8526  0.4918
 4555SOL    HW225299   4.603   0.153   7.502 -0.7392  1.7824 -1.0340
 4556SOL     OW25300   1.160   3.172   3.666  0.5460 -0.4183  0.1016
 4556SOL    HW125301   1.212   3.096   3.693  2.3009  1.5012  2.0595
 4556SOL    HW225302   1.083   3.125   3.634  0.5415 -0.8739  0.7702
 4557SOL     OW25303   0.884   4.564   7.049  0.4029 -0.0521 -0.1722
 4557SOL    HW125304   0.973   4.572   7.015 -0.3984  2.5572 -1.6336
 4557SOL    HW225305   0.854   4.654   7.046  0.6110  0.0306  0.1576
 4558SOL     OW25306   1.052   1.783   5.566  0.5277 -0.3757  0.0975
 4558SOL    HW125307   0.959   1.789   5.544  0.4897 -0.6537  0.1854
 4558SOL    HW225308   1.090   1.763   5.480 -1.3020 -0.3777 -0.7241
 4559SOL     OW25309   4.197   2.857   7.028  0.5935  0.2881 -0.1852
 4559SOL    HW125310   4.172   2.949   7.019 -0.8292 -0.2770 -1.8843
 4559SOL    HW225311   4.111   2.822   7.004  1.0118 -1.0642  0.3050
 4560SOL     OW25312   3.315   3.285   0.490 -0.7449  0.1653 -0.4031
 4560SOL    HW125313   3.223   3.285   0.516 -0.6110 -0.0656  0.0649
 4560SOL    HW225314   3.342   3.335   0.566  1.2737  0.0586 -1.0426
 4561SOL     OW25315   3.611   4.372  11.092  0.1706 -0.0762 -0.3983
 4561SOL    HW125316   3.527   4.360  11.137 -0.0906  1.5642 -0.4521
 4561SOL    HW225317   3.601   4.464  11.069 -0.8620  0.0533  0.5485
 4562SOL     OW25318   3.233   2.777   7.308 -0.3006  0.2279 -0.0631
 4562SOL    HW125319   3.263   2.868   7.318 -0.8525  0.4642 -0.5825
 4562SOL    HW225320   3.308   2.747   7.256  1.9843  1.4109  2.5078
 4563SOL     OW25321   0.891   4.003  16.818  0.1961 -0.0791 -0.8685
 4563SOL    HW125322   0.963   4.005  16.880 -0.6645  1.5011  0.0870
 4563SOL    HW225323   0.837   3.934  16.857  1.9098 -0.6315  0.4814
 4564SOL     OW25324   0.153   4.208   0.155  0.1554  0.4108  0.4558
 4564SOL    HW125325   0.129   4.294   0.120  2.5210  1.0564  0.4117
 4564SOL    HW225326   0.115   4.215   0.243 -0.4683 -1.1241  0.3098
 4565SOL     OW25327   0.201   1.660   2.414 -0.0514 -0.7975  0.1413
 4565SOL    HW125328   0.195   1.567   2.435  1.1217 -0.5009  1.7798
 4565SOL    HW225329   0.119   1.693   2.451 -0.0863 -1.7970  0.9686
 4566SOL     OW25330   1.037   3.070  10.047 -0.1340 -0.7047 -0.7370
 4566SOL    HW125331   1.020   3.012  10.121 -0.0867 -1.0100 -0.9655
 4566SOL    HW225332   0.974   3.142  10.053  1.2012  0.3217  1.2315
 4567SOL     OW25333   3.890   0.273  14.354 -0.2466 -0.3222 -0.1061
 4567SOL    HW125334   3.972   0.321  14.365 -1.4114  1.4093  0.8754
 4567SOL    HW225335   3.922   0.185  14.377 -0.4373  0.1853  2.1209
 4568SOL     OW25336   2.625   1.096   7.757 -0.3553  0.5370  0.6666
 4568SOL    HW125337   2.565   1.022   7.767 -0.9360  1.1008  1.3712
 4568SOL    HW225338   2.701   1.048   7.723 -0.6236  0.1114  0.6616
 4569SOL     OW25339   0.707   3.970   2.183 -0.0434 -0.1521  0.0606
 4569SOL    HW125340   0.717   4.039   2.248  1.5128  0.1957 -0.5559
 4569SOL    HW225341   0.709   3.890   2.235  1.1673 -1.0713 -1.3942
 4570SOL     OW25342   4.558   1.959   6.561  0.0878 -0.1795 -0.0928
 4570SOL    HW125343   4.473   1.942   6.521 -0.7151  2.7529  0.4088
 4570SOL    HW225344   4.610   1.954   6.480  1.7757 -1.7139  1.0663
 4571SOL     OW25345   0.284   3.959   4.768  0.1320 -0.5326 -0.5039
 4571SOL    HW125346   0.245   4.018   4.703 -1.6750 -0.5225  0.5824
 4571SOL    HW225347   0.211   3.898   4.776  0.3752 -0.5552  1.5995
 4572SOL     OW25348   1.133   4.349  16.865 -0.0953  0.1178  0.0052
 4572SOL    HW125349   1.107   4.442  16.861  0.3027  0.1984 -0.7587
 4572SOL    HW225350   1.084   4.319  16.941  0.4490 -1.7025 -0.3623
 4573SOL     OW25351   2.917   4.167  10.306  0.4706 -0.3248 -0.2678
 4573SOL    HW125352   3.001   4.181  10.349 -0.2226 -1.1313  1.3710
 4573SOL    HW225353   2.930   4.087  10.254 -0.2546 -0.3451 -0.4236
 4574SOL     OW25354   1.833   4.038   2.680 -0.7786 -0.5865 -0.1468
 4574SOL    HW125355   1.859   4.011   2.592  2.9101 -1.3715  1.1924
 4574SOL    HW225356   1.912   4.026   2.731 -0.8695 -0.7371 -0.0411
 4575SOL     OW25357   0.114   3.458   3.409 -0.0581  0.1420 -0.5472
 4575SOL    HW125358   0.066   3.525   3.457  2.6042  0.7941  1.2270
 4575SOL    HW225359   0.176   3.514   3.362  0.0334  1.3332  0.9786
 4576SOL     OW25360   3.372   3.930   5.195 -0.4160 -0.3556  0.2460
 4576SOL    HW125361   3.350   3.960   5.283 -0.9717  1.7633 -0.6096
 4576SOL    HW225362   3.401   3.842   5.217 -0.3379 -0.8197 -1.6747
 4577SOL     OW25363   1.264   0.634   0.480 -0.4589  0.2186  0.2562
 4577SOL    HW125364   1.296   0.546   0.497 -1.2471 -0.0672  0.2470
 4577SOL    HW225365   1.322   0.693   0.528  1.6191  0.3968 -2.5160
 4578SOL     OW25366   1.966   1.879   6.205  0.0203 -0.3193  0.0793
 4578SOL    HW125367   2.017   1.801   6.188 -2.2832 -1.8030 -0.0743
 4578SOL    HW225368   2.011   1.914   6.282  1.9288  2.8183 -2.4780
 4579SOL     OW25369   2.719   0.667   6.404  0.1614 -0.3215  0.0804
 4579SOL    HW125370   2.778   0.742   6.403  1.3316 -1.2551 -0.1302
 4579SOL    HW225371   2.753   0.624   6.483 -0.0673 -1.9969 -0.7347
 4580SOL     OW25372   1.404   2.972   7.415 -0.0814  0.6478 -0.3868
 4580SOL    HW125373   1.369   2.906   7.355  2.6093 -1.4789  0.4129
 4580SOL    HW225374   1.397   2.919   7.494  3.0182  1.5109  0.4661
 4581SOL     OW25375   2.295   0.116  15.752 -0.5400  0.6316 -0.0004
 4581SOL    HW125376   2.336   0.154  15.674  0.0169 -2.6225 -1.2556
 4581SOL    HW225377   2.250   0.196  15.781  1.0004  0.9943  1.4728
 4582SOL     OW25378   4.281   1.065   2.135  0.4607  0.5635  0.2002
 4582SOL    HW125379   4.373   1.069   2.159  0.7523 -1.0036 -0.7033
 4582SOL    HW225380   4.293   1.082   2.042 -0.1025  1.2419  0.2522
 4583SOL     OW25381   1.333   2.554   7.181 -0.2301  0.3764  0.1950
 4583SOL    HW125382   1.287   2.625   7.226  2.4735 -0.0573  3.7116
 4583SOL    HW225383   1.263   2.494   7.155 -1.3584  0.8884  2.0375
 4584SOL     OW25384   1.486   0.865   6.648 -0.1091  0.1330 -0.1370
 4584SOL    HW125385   1.546   0.810   6.699 -0.8368 -1.2280 -0.7493
 4584SOL    HW225386   1.478   0.951   6.690 -1.3881  1.0748 -2.3333
 4585SOL     OW25387   0.956   2.676   0.015 -0.2267  0.0687 -0.0271
 4585SOL    HW125388   0.881   2.627   0.050  1.4293 -2.2743  0.1624
 4585SOL    HW225389   0.957   2.652  17.687 -0.0579 -0.9511  0.2449
 4586SOL     OW25390   4.329   0.719   5.028  0.0835  0.3182 -0.4611
 4586SOL    HW125391   4.397   0.656   5.004  1.5644  1.3618  0.9992
 4586SOL    HW225392   4.290   0.674   5.102  0.0614  2.1675  0.6385
 4587SOL     OW25393   4.162   0.561   4.655  0.1522 -0.1633  0.5774
 4587SOL    HW125394   4.142   0.514   4.735  0.3212 -0.9143  0.1766
 4587SOL    HW225395   4.258   0.566   4.654  0.1983 -1.5508 -2.0383
 4588SOL     OW25396   3.030   2.297  14.628 -0.2585 -0.1158 -0.1184
 4588SOL    HW125397   3.004   2.246  14.705  1.3197 -1.0853 -0.2272
 4588SOL    HW225398   3.037   2.228  14.563 -1.2648  0.0662 -0.4159
 4589SOL     OW25399   0.004   1.521   4.055  0.3407  0.4721  0.4718
 4589SOL    HW125400   4.712   1.602   4.017  1.0621  0.0849 -0.9991
 4589SOL    HW225401   4.673   1.460   4.044  0.5922  0.0809  0.9777
 4590SOL     OW25402   2.350   3.928  16.256  0.1285 -0.0474  0.5424
 4590SOL    HW125403   2.412   3.902  16.324  1.5663  0.9301 -0.3914
 4590SOL    HW225404   2.264   3.895  16.281 -0.1949  0.5756  0.2554
 4591SOL     OW25405   0.060   3.124   8.182  0.2562 -0.0216  0.2558
 4591SOL    HW125406   0.108   3.042   8.183  0.4675  0.1178  1.8386
 4591SOL    HW225407   0.047   3.131   8.277  0.3212  2.6013  0.0948
 4592SOL     OW25408   1.574   0.799   9.272 -0.1854 -0.0571  0.2095
 4592SOL    HW125409   1.529   0.883   9.282 -1.4563 -1.0299  2.7887
 4592SOL    HW225410   1.506   0.734   9.292 -0.7847  0.4427 -0.1971
 4593SOL     OW25411   0.859   4.733   6.785 -0.0887  0.0014 -0.6271
 4593SOL    HW125412   0.778   0.042   6.775  1.1618  2.1503  0.2568
 4593SOL    HW225413   0.823   4.644   6.797 -0.5661  0.3160  0.2602
 4594SOL     OW25414   3.707   2.741   7.937  0.4247  0.6061  0.0656
 4594SOL    HW125415   3.625   2.695   7.953  1.1472 -1.2783 -1.6255
 4594SOL    HW225416   3.670   2.824   7.905 -0.2479  0.5423  0.6767
 4595SOL     OW25417   3.487   1.589  15.086  0.1085 -0.4055  0.1506
 4595SOL    HW125418   3.463   1.528  15.156  0.2043 -1.5904 -0.8388
 4595SOL    HW225419   3.479   1.679  15.116 -1.9738 -0.1568 -1.0926
 4596SOL     OW25420   4.723   2.539   8.331  0.0275 -0.7947  0.1760
 4596SOL    HW125421   4.668   2.471   8.369  0.8768 -1.6799 -0.1648
 4596SOL    HW225422   4.722   2.595   8.408 -1.5408  0.5761 -0.8372
 4597SOL     OW25423   2.188   3.587   4.805 -0.2367 -0.6970 -0.4006
 4597SOL    HW125424   2.186   3.497   4.838 -0.5758 -0.5541 -0.0310
 4597SOL    HW225425   2.233   3.620   4.883  1.0530 -3.0119 -0.1676
 4598SOL     OW25426   2.205   3.839   7.694  0.3546 -0.1511 -0.0985
 4598SOL    HW125427   2.127   3.804   7.736  0.6700 -1.6856 -0.8016
 4598SOL    HW225428   2.209   3.784   7.616  1.3972  0.1276 -0.2490
 4599SOL     OW25429   2.504   1.867   6.053 -0.1527 -0.1940  0.5655
 4599SOL    HW125430   2.595   1.870   6.024 -0.1593 -1.4242  0.4231
 4599SOL    HW225431   2.505   1.832   6.143  2.3056  0.0562  0.6256
 4600SOL     OW25432   1.278   3.896   5.466 -0.8546 -0.1007 -0.2710
 4600SOL    HW125433   1.229   3.829   5.512 -0.6438 -0.3496 -0.4100
 4600SOL    HW225434   1.295   3.965   5.531  0.1696 -1.4922  0.9254
 4601SOL     OW25435   1.499   2.442   9.262 -0.2485  0.5602 -0.5695
 4601SOL    HW125436   1.447   2.402   9.331  0.4159  0.1583 -0.3086
 4601SOL    HW225437   1.574   2.473   9.312 -1.3935  0.4047  1.2401
 4602SOL     OW25438   2.985   4.506   5.641  0.0970 -0.4536  0.1320
 4602SOL    HW125439   3.077   4.487   5.657  0.0406  0.0110  0.9631
 4602SOL    HW225440   2.971   4.425   5.592  1.1703 -0.4725 -0.1454
 4603SOL     OW25441   3.272   0.549  13.736  0.5151 -0.1701  0.1736
 4603SOL    HW125442   3.204   0.559  13.670  0.7506  0.0919 -0.0298
 4603SOL    HW225443   3.280   0.637  13.771 -1.2469 -0.9578  2.5538
 4604SOL     OW25444   4.718   2.138   5.848 -0.0779  0.6978  0.0958
 4604SOL    HW125445   4.677   2.129   5.761  0.5029 -0.4827 -0.0507
 4604SOL    HW225446   0.024   2.220   5.835  2.3593 -0.4212  2.0597
 4605SOL     OW25447   0.241   1.822  17.438  0.3811 -0.5214  0.2683
 4605SOL    HW125448   0.155   1.848  17.407  1.3319  0.5535 -1.4606
 4605SOL    HW225449   0.242   1.731  17.409  1.2604  0.1964 -1.9375
 4606SOL     OW25450   3.346   3.405   3.303 -0.3473 -0.1864 -0.1758
 4606SOL    HW125451   3.352   3.409   3.398  1.2135 -0.4034 -0.2687
 4606SOL    HW225452   3.430   3.449   3.295 -0.0225 -0.8763 -0.6456
 4607SOL     OW25453   3.959   1.482   5.217 -0.5792  0.2839 -0.0674
 4607SOL    HW125454   3.908   1.445   5.289 -1.5701 -0.7859 -1.3078
 4607SOL    HW225455   4.012   1.403   5.208 -0.3661  0.2222  1.8547
 4608SOL     OW25456   3.604   2.482   8.275  0.2612  0.1382 -0.4921
 4608SOL    HW125457   3.519   2.506   8.238 -1.3581 -2.0994  1.6781
 4608SOL    HW225458   3.579   2.430   8.352  0.7190  1.7996  0.7952
 4609SOL     OW25459   2.534   4.427  11.873  0.4295 -0.4293 -0.0742
 4609SOL    HW125460   2.615   4.452  11.916  2.1499 -1.4302 -2.7712
 4609SOL    HW225461   2.517   4.497  11.810 -1.0770 -1.0406 -0.3670
 4610SOL     OW25462   2.578   2.827  10.648  0.0606  0.2071 -0.2479
 4610SOL    HW125463   2.531   2.843  10.730  1.8540 -0.5024  0.9136
 4610SOL    HW225464   2.665   2.855  10.673 -0.1550  0.1395  0.5664
 4611SOL     OW25465   2.172   3.740   4.577 -0.4507 -0.6062  0.0418
 4611SOL    HW125466   2.186   3.702   4.664 -3.3586  0.8999  1.1643
 4611SOL    HW225467   2.102   3.682   4.546 -1.0102 -1.3452  2.6862
 4612SOL     OW25468   1.049   1.242  13.543  0.2785 -0.6263  0.3900
 4612SOL    HW125469   0.960   1.219  13.571  0.8376 -1.3729  1.5854
 4612SOL    HW225470   1.022   1.304  13.475  1.1969 -0.7132 -0.0441
 4613SOL     OW25471   2.540   1.062   3.056  0.0438 -0.3124 -0.5152
 4613SOL    HW125472   2.490   1.141   3.034  0.4931  0.1838  0.2296
 4613SOL    HW225473   2.540   1.018   2.971  1.5772  2.7846 -2.1598
 4614SOL     OW25474   4.328   1.593   9.256 -0.1227 -0.5765  0.0745
 4614SOL    HW125475   4.373   1.529   9.201 -1.4201  0.0150 -1.6885
 4614SOL    HW225476   4.352   1.560   9.342 -0.6340 -1.4337 -0.1144
 4615SOL     OW25477   1.624   3.033   5.193  0.3357 -0.2736  0.9295
 4615SOL    HW125478   1.542   2.984   5.190  0.0089  0.4875 -2.7443
 4615SOL    HW225479   1.642   3.027   5.099  3.6134 -2.0129  1.6812
 4616SOL     OW25480   2.586   3.602  14.088  0.6164  0.0680 -0.1036
 4616SOL    HW125481   2.512   3.549  14.116  1.5496 -0.7880  0.7466
 4616SOL    HW225482   2.568   3.614  13.994  1.1614  0.7391 -0.1264
 4617SOL     OW25483   2.107   3.558   6.154  0.9809 -0.0947 -0.0596
 4617SOL    HW125484   2.069   3.489   6.209  0.3701 -0.9820 -1.5807
 4617SOL    HW225485   2.191   3.574   6.198 -0.8386  3.0639  2.1867
 4618SOL     OW25486   2.895   1.552   2.117  0.3894 -0.5099  0.2222
 4618SOL    HW125487   2.885   1.624   2.055  1.0476  0.1974  0.9279
 4618SOL    HW225488   2.816   1.560   2.170  1.1962  0.5983  1.2658
 4619SOL     OW25489   1.121   3.208  13.997 -0.0923  0.3761 -0.2951
 4619SOL    HW125490   1.039   3.195  13.950  0.1607  1.0304 -0.9126
 4619SOL    HW225491   1.149   3.280  13.942 -0.3348  0.6859 -0.0190
 4620SOL     OW25492   2.822   0.286   7.246  0.0684 -0.4081 -0.4598
 4620SOL    HW125493   2.762   0.294   7.319  0.5830 -2.0204  0.1396
 4620SOL    HW225494   2.795   0.356   7.186  0.4061  0.1265  0.0092
 4621SOL     OW25495   2.219   2.824   7.566  0.0547  0.1986  0.4302
 4621SOL    HW125496   2.247   2.793   7.652  1.4228  0.3716  0.0443
 4621SOL    HW225497   2.242   2.916   7.567  1.1104 -0.0498 -0.9966
 4622SOL     OW25498   0.880   0.809  14.980  0.1466 -0.0709 -0.4742
 4622SOL    HW125499   0.810   0.790  14.917  0.4490 -1.3793 -0.4124
 4622SOL    HW225500   0.858   0.761  15.060 -1.2405  0.6290 -0.4288
 4623SOL     OW25501   0.083   0.104  12.362  0.1907  0.1396 -0.2613
 4623SOL    HW125502   0.163   0.119  12.310 -0.7610  2.0416 -1.1954
 4623SOL    HW225503   0.087   0.181  12.418 -1.0606 -1.3698  1.8800
 4624SOL     OW25504   2.915   2.454  15.570 -0.6635  0.1189  0.4235
 4624SOL    HW125505   2.930   2.370  15.614 -0.9836  1.1966  2.5650
 4624SOL    HW225506   2.823   2.449  15.544 -0.3226  0.5770 -0.8824
 4625SOL     OW25507   2.266   2.057  14.641 -0.4001 -0.2935  0.6541
 4625SOL    HW125508   2.282   2.152  14.641 -0.4372 -0.2875  0.5600
 4625SOL    HW225509   2.289   2.020  14.556 -0.2706 -1.3241  1.1344
 4626SOL     OW25510   0.830   0.662   6.423  0.7091 -0.3881  0.0126
 4626SOL    HW125511   0.735   0.670   6.417  0.7838 -0.1329 -0.7885
 4626SOL    HW225512   0.866   0.741   6.382  1.8305 -1.0795 -0.3357
 4627SOL     OW25513   2.168   3.073   3.773  0.1256 -0.9387  0.6320
 4627SOL    HW125514   2.219   3.148   3.806  1.1939 -0.8009 -1.3564
 4627SOL    HW225515   2.080   3.094   3.803  0.3265 -0.2072  0.7250
 4628SOL     OW25516   2.325   4.524  13.094  0.5123 -0.1041  0.1750
 4628SOL    HW125517   2.259   4.461  13.124  0.5247  0.3316  1.1247
 4628SOL    HW225518   2.356   4.471  13.021  0.9267 -0.4169  0.5825
 4629SOL     OW25519   2.086   2.430   9.460 -0.3576  0.2257 -1.2456
 4629SOL    HW125520   2.106   2.497   9.395  1.0694 -1.5226 -2.5900
 4629SOL    HW225521   2.070   2.484   9.537 -0.3943 -0.9170 -0.4472
 4630SOL     OW25522   2.142   1.410   5.977  0.0508 -0.0528 -0.5234
 4630SOL    HW125523   2.089   1.331   5.995  0.0644 -0.2634 -1.4392
 4630SOL    HW225524   2.224   1.376   5.943 -0.3251 -0.4329 -1.0445
 4631SOL     OW25525   2.273   2.336   2.686 -0.5242 -1.0776 -0.2175
 4631SOL    HW125526   2.320   2.396   2.745 -0.8104 -1.5789  0.5240
 4631SOL    HW225527   2.230   2.275   2.745  0.0447  0.2585  1.6034
 4632SOL     OW25528   3.911   3.969   2.957  0.4432 -1.0043  0.3064
 4632SOL    HW125529   3.862   3.893   2.927  0.8032 -0.7500 -0.9325
 4632SOL    HW225530   3.845   4.034   2.980  2.5534  0.6135  1.8568
 4633SOL     OW25531   1.401   3.740   2.212  0.7030 -0.4212  0.0295
 4633SOL    HW125532   1.358   3.655   2.210 -0.8663  0.4239 -2.6871
 4633SOL    HW225533   1.440   3.733   2.299 -1.7247 -0.4072  1.1202
 4634SOL     OW25534   3.664   3.426   0.424  0.3817 -0.0053 -0.1558
 4634SOL    HW125535   3.638   3.465   0.341 -1.9662 -0.9956  0.1058
 4634SOL    HW225536   3.633   3.339   0.397 -0.5381  0.5896 -1.0295
 4635SOL     OW25537   1.831   3.079   8.480 -0.2138 -0.6785  0.2698
 4635SOL    HW125538   1.905   3.137   8.498 -1.3538  1.3354 -1.4640
 4635SOL    HW225539   1.841   3.011   8.546 -3.1640 -1.0730  0.3351
 4636SOL     OW25540   4.125   3.039   2.726 -0.6007  1.0146 -0.2219
 4636SOL    HW125541   4.061   2.987   2.679  0.7764 -1.1599  0.3215
 4636SOL    HW225542   4.106   3.128   2.697 -2.4224  1.0164  0.9977
 4637SOL     OW25543   0.331   0.212   5.701 -0.5936  0.0533  0.0730
 4637SOL    HW125544   0.331   0.300   5.740  0.8540  1.2184 -2.5787
 4637SOL    HW225545   0.386   0.170   5.768 -1.0752 -2.3523 -1.0399
 4638SOL     OW25546   1.984   0.229   7.045 -0.2322 -0.1501  0.7882
 4638SOL    HW125547   1.894   0.229   7.080 -0.7455  0.1769 -0.5165
 4638SOL    HW225548   2.033   0.248   7.124  0.9470 -0.3981  0.1052
 4639SOL     OW25549   4.191   1.010   1.653 -0.6085 -0.6354 -0.0313
 4639SOL    HW125550   4.241   1.089   1.675 -1.6238 -0.3398  1.2035
 4639SOL    HW225551   4.108   1.055   1.637 -0.8032 -0.7102  0.7612
 4640SOL     OW25552   4.607   4.100   6.764 -0.4693 -0.0148  0.1301
 4640SOL    HW125553   4.538   4.150   6.720 -2.0839 -0.1751  2.4971
 4640SOL    HW225554   4.642   4.168   6.822 -2.7970  0.9132  0.4389
 4641SOL     OW25555   1.798   0.723   9.410 -0.8831  0.0859 -0.2517
 4641SOL    HW125556   1.840   0.794   9.457 -0.6726 -0.4412  0.3639
 4641SOL    HW225557   1.736   0.772   9.356 -0.4779  0.3311 -0.4907
 4642SOL     OW25558   0.251   4.546   3.716  0.4487 -0.0247 -0.2627
 4642SOL    HW125559   0.225   4.457   3.697  1.2072 -0.1441 -0.7731
 4642SOL    HW225560   0.289   4.569   3.631 -2.1127  0.0726 -1.3660
 4643SOL     OW25561   1.363   0.182   9.253  0.5008 -0.2447 -0.0879
 4643SOL    HW125562   1.388   0.183   9.346 -4.2420  1.1257  1.1868
 4643SOL    HW225563   1.402   0.098   9.230  0.0327 -0.2392 -0.9107
 4644SOL     OW25564   3.116   0.964   8.489 -0.0880 -0.3968 -0.2172
 4644SOL    HW125565   3.140   0.938   8.578  1.1828  0.2389 -0.3606
 4644SOL    HW225566   3.150   1.053   8.477 -0.1738 -0.3616 -0.2000
 4645SOL     OW25567   3.588   1.839   3.286 -0.4095  0.0963  0.1911
 4645SOL    HW125568   3.510   1.864   3.335 -1.3639  2.0827 -2.3481
 4645SOL    HW225569   3.561   1.791   3.208 -0.3477  0.3757 -0.0019
 4646SOL     OW25570   2.203   4.612   7.390  0.5513 -0.4613 -0.3565
 4646SOL    HW125571   2.128   4.639   7.336 -1.8815 -0.1410  3.1459
 4646SOL    HW225572   2.173   4.527   7.422 -0.7584  0.6141  1.2827
 4647SOL     OW25573   4.053   1.813   3.999  0.4558 -0.7660  0.4710
 4647SOL    HW125574   4.066   1.744   3.934 -0.6190  1.0085 -1.5944
 4647SOL    HW225575   4.030   1.762   4.077  0.2474 -2.6466 -0.8275
 4648SOL     OW25576   3.100   3.923   2.626 -0.5109  0.3601  0.0680
 4648SOL    HW125577   3.191   3.893   2.619 -1.0093 -1.1495  0.1179
 4648SOL    HW225578   3.095   3.984   2.552  1.8526  0.9171  0.3599
 4649SOL     OW25579   0.604   3.734  17.207 -0.0655 -0.2006  0.1109
 4649SOL    HW125580   0.581   3.748  17.298  0.8808  3.2354 -0.1598
 4649SOL    HW225581   0.548   3.663  17.176  0.9110 -0.2865 -1.5063
 4650SOL     OW25582   2.028   3.007  11.237 -0.2328 -0.5129 -0.7758
 4650SOL    HW125583   2.018   3.100  11.259 -0.1279 -0.2719 -1.7756
 4650SOL    HW225584   1.939   2.972  11.239 -0.9859  1.3294 -1.6768
 4651SOL     OW25585   2.282   1.809   8.443  0.4131  0.1290 -0.0143
 4651SOL    HW125586   2.349   1.789   8.509  0.9909  1.0307 -0.3143
 4651SOL    HW225587   2.323   1.885   8.401 -1.1908  0.4114 -1.0628
 4652SOL     OW25588   2.317   2.575   7.843 -0.2560 -0.2058  0.2146
 4652SOL    HW125589   2.243   2.552   7.786 -0.2224 -1.2799  0.5948
 4652SOL    HW225590   2.285   2.639   7.907  2.9166  1.2667  0.3157
 4653SOL     OW25591   4.454   0.112   6.578  0.4847 -0.7198 -0.1503
 4653SOL    HW125592   4.454   0.020   6.604  0.5726 -0.4678  0.7542
 4653SOL    HW225593   4.401   0.150   6.649 -0.7472 -1.5864 -0.6029
 4654SOL     OW25594   1.445   0.339   3.410  0.1553 -0.1376  0.4499
 4654SOL    HW125595   1.490   0.329   3.326 -0.9089  1.4406 -0.3067
 4654SOL    HW225596   1.451   0.247   3.437 -1.3332 -0.6662 -1.0295
 4655SOL     OW25597   1.359   0.877   4.205  0.1884  0.5632 -0.3614
 4655SOL    HW125598   1.398   0.937   4.268 -2.1343  0.2366  1.3838
 4655SOL    HW225599   1.294   0.931   4.160  0.0839 -0.6713 -1.6934
 4656SOL     OW25600   2.384   1.744   1.542 -0.4279 -0.3519  0.2985
 4656SOL    HW125601   2.315   1.755   1.476  0.0130  2.3262  0.2894
 4656SOL    HW225602   2.382   1.651   1.566  0.9122 -0.6514 -0.7751
 4657SOL     OW25603   4.040   4.614   5.269  0.4801 -0.0009  0.0525
 4657SOL    HW125604   4.124   4.627   5.226  0.5784  1.0344  0.5630
 4657SOL    HW225605   3.987   4.681   5.226  0.4667 -1.9272 -2.8843
 4658SOL     OW25606   3.296   1.378   2.871 -0.7383 -0.3491 -0.1722
 4658SOL    HW125607   3.243   1.380   2.791 -0.1485 -0.1477 -0.5578
 4658SOL    HW225608   3.358   1.451   2.864 -0.9241 -0.3620 -2.0661
 4659SOL     OW25609   1.857   2.147   4.517  0.5378  0.1366 -0.0227
 4659SOL    HW125610   1.895   2.228   4.552  0.2841  0.2642 -0.0482
 4659SOL    HW225611   1.883   2.152   4.425 -0.6832  2.8335 -0.2147
 4660SOL     OW25612   3.896   0.271   8.900  0.2373 -0.1153  0.1149
 4660SOL    HW125613   3.841   0.205   8.858 -0.8444  2.3820 -2.4545
 4660SOL    HW225614   3.836   0.346   8.901 -1.0100 -1.0637 -2.6495
 4661SOL     OW25615   3.913   2.694   2.509 -0.0740 -0.0766  0.5859
 4661SOL    HW125616   3.838   2.662   2.458 -0.3705  2.1839 -0.3851
 4661SOL    HW225617   3.892   2.787   2.518  2.4185  0.5432  0.0089
 4662SOL     OW25618   0.787   0.009   5.825  0.2240 -0.1597  0.3763
 4662SOL    HW125619   0.847   0.043   5.892 -0.4396  1.2181  0.2705
 4662SOL    HW225620   0.848   4.739   5.753 -0.2677 -1.9110  0.2315
 4663SOL     OW25621   1.310   4.733   7.607 -0.0103 -0.2590 -0.0485
 4663SOL    HW125622   1.280   4.695   7.689 -2.2741  0.4781 -0.5278
 4663SOL    HW225623   1.295   4.668   7.538 -0.6831 -2.0973  1.8619
 4664SOL     OW25624   1.579   0.043   4.356  0.3224  0.1290  0.6434
 4664SOL    HW125625   1.585   4.722   4.428 -0.3234 -0.3763  0.2688
 4664SOL    HW225626   1.672   0.061   4.343  0.5969 -2.4079 -1.0653
 4665SOL     OW25627   4.298   1.039   7.709 -0.5084  0.0810  0.3432
 4665SOL    HW125628   4.306   1.008   7.799  1.7799 -0.0787  0.0703
 4665SOL    HW225629   4.326   0.961   7.661  3.7393  1.7950  0.0213
 4666SOL     OW25630   1.071   1.055  13.780  0.0500 -0.2297  0.0273
 4666SOL    HW125631   1.058   1.115  13.707 -1.7996 -2.3756 -1.4002
 4666SOL    HW225632   1.160   1.064  13.813 -0.8493 -1.3039  2.7817
 4667SOL     OW25633   1.266   2.128   2.869  0.2349  0.0154  0.4513
 4667SOL    HW125634   1.184   2.178   2.876  1.1846  1.6495 -0.1686
 4667SOL    HW225635   1.322   2.204   2.849 -1.5281  0.5939 -2.2418
 4668SOL     OW25636   1.994   2.502   3.144 -0.0776  0.3045  0.3318
 4668SOL    HW125637   1.903   2.474   3.151  0.3975 -0.7324  2.4258
 4668SOL    HW225638   2.031   2.433   3.088 -1.6509 -0.3910  0.1671
 4669SOL     OW25639   3.139   4.476   3.448  0.2428 -0.0090 -0.4251
 4669SOL    HW125640   3.092   4.453   3.368 -0.0138  1.4237 -0.6916
 4669SOL    HW225641   3.228   4.473   3.413 -1.0674  4.3198 -4.0916
 4670SOL     OW25642   0.586   0.827   7.816 -0.4740  0.0051  0.1127
 4670SOL    HW125643   0.549   0.752   7.862  0.4818 -0.2912  0.4022
 4670SOL    HW225644   0.572   0.795   7.727 -0.1803  0.5486 -0.1258
 4671SOL     OW25645   1.439   4.364   0.636  0.3353  0.3873 -0.4997
 4671SOL    HW125646   1.434   4.386   0.729  1.7206 -0.4666 -0.2189
 4671SOL    HW225647   1.497   4.431   0.599  1.6806  0.7134  2.1861
 4672SOL     OW25648   2.301   0.498   1.883 -0.1881  0.9107 -0.1171
 4672SOL    HW125649   2.227   0.445   1.911 -0.8855  2.6348  1.2912
 4672SOL    HW225650   2.372   0.434   1.870 -0.4684  0.8382 -1.2943
 4673SOL     OW25651   3.893   2.922   1.556 -0.0700 -0.5229 -0.0959
 4673SOL    HW125652   3.961   2.963   1.503 -0.7278  2.5538  1.4613
 4673SOL    HW225653   3.871   2.997   1.611  1.8006 -0.1363  0.0962
 4674SOL     OW25654   1.087   2.721   3.640 -0.0752  0.1349 -0.4899
 4674SOL    HW125655   1.178   2.742   3.621 -0.6626  2.0360 -1.2013
 4674SOL    HW225656   1.047   2.803   3.611  0.8316  0.7614  0.0534
 4675SOL     OW25657   0.845   3.766   7.625 -0.4355  0.2008  0.2084
 4675SOL    HW125658   0.935   3.733   7.620 -0.5899 -0.0641 -0.8256
 4675SOL    HW225659   0.824   3.748   7.716 -3.3973  1.9416 -0.1367
 4676SOL     OW25660   0.633   2.720   5.692 -0.1431  0.2067  0.3583
 4676SOL    HW125661   0.589   2.644   5.655 -2.2139  2.3012 -1.4961
 4676SOL    HW225662   0.612   2.784   5.624  1.4108  1.4874  1.1025
 4677SOL     OW25663   1.791   1.583   6.112 -1.0195 -0.0932  0.4149
 4677SOL    HW125664   1.816   1.673   6.092 -2.0115  0.5024  1.8049
 4677SOL    HW225665   1.754   1.559   6.027 -0.6120 -2.3300  0.8728
 4678SOL     OW25666   1.697   4.358   6.791 -0.0814  0.3208 -0.2514
 4678SOL    HW125667   1.761   4.388   6.855 -1.1412  0.0398  0.9366
 4678SOL    HW225668   1.720   4.265   6.791 -1.0925  0.0902  2.6218
 4679SOL     OW25669   1.022   3.055  15.795 -0.0855  0.0158  0.1312
 4679SOL    HW125670   0.971   3.020  15.868 -0.6694  1.4092  0.3868
 4679SOL    HW225671   0.958   3.065  15.725  0.9635 -0.0787 -0.8426
 4680SOL     OW25672   0.896   3.829  16.569  0.2264 -0.0913  0.1163
 4680SOL    HW125673   0.981   3.795  16.540  0.2189 -2.7561  3.1262
 4680SOL    HW225674   0.915   3.905  16.623  1.7021 -1.0231  0.9210
 4681SOL     OW25675   4.230   2.258   7.597 -0.2031 -0.1062 -0.1766
 4681SOL    HW125676   4.284   2.179   7.584 -0.5123 -0.3839  0.2074
 4681SOL    HW225677   4.140   2.227   7.585 -1.0075  1.6080  1.5161
 4682SOL     OW25678   0.675   1.322   6.448  0.3384  0.1916 -0.0455
 4682SOL    HW125679   0.585   1.327   6.413  0.0197 -2.5528  0.3792
 4682SOL    HW225680   0.721   1.271   6.381  0.6643 -0.8552  0.9767
 4683SOL     OW25681   3.352   1.045  14.807  0.0697  0.2579  0.1762
 4683SOL    HW125682   3.308   1.087  14.880 -1.5538 -0.8425 -0.1576
 4683SOL    HW225683   3.276   0.997  14.773 -0.4777  1.2444  0.0135
 4684SOL     OW25684   4.528   2.658  13.142 -0.0731 -0.1012 -0.2973
 4684SOL    HW125685   4.484   2.743  13.155  1.3430  0.3837  1.4351
 4684SOL    HW225686   4.576   2.679  13.062  1.5855 -0.2878  0.6489
 4685SOL     OW25687   2.659   3.323   2.170 -0.0890  1.0979  0.6227
 4685SOL    HW125688   2.569   3.315   2.201 -0.3558  0.9528 -0.1882
 4685SOL    HW225689   2.645   3.331   2.076  2.4785 -1.5004  0.0189
 4686SOL     OW25690   1.900   4.729   7.861  0.9080  0.0360 -0.1392
 4686SOL    HW125691   1.962   0.028   7.800  1.8466 -1.5988 -0.2667
 4686SOL    HW225692   1.956   4.737   7.939 -1.0069 -1.0208  1.3200
 4687SOL     OW25693   3.530   0.316   6.162 -0.0854  0.0386  0.5641
 4687SOL    HW125694   3.532   0.318   6.257 -0.2387  3.5709  0.5023
 4687SOL    HW225695   3.435   0.311   6.147 -0.0318 -0.2689  0.3379
 4688SOL     OW25696   4.253   0.940   3.271  0.2612  0.0388 -0.0452
 4688SOL    HW125697   4.237   0.864   3.215 -1.3687  0.4415 -0.1329
 4688SOL    HW225698   4.161   0.966   3.280 -0.4231 -2.1487 -0.5606
 4689SOL     OW25699   3.706   3.603  15.012  0.0562 -0.1321 -0.0973
 4689SOL    HW125700   3.696   3.677  15.072 -0.2437 -0.7479  0.6191
 4689SOL    HW225701   3.777   3.556  15.056  0.7034  0.4183 -0.5392
 4690SOL     OW25702   4.741   0.191   6.200  0.3132  0.4298 -0.2405
 4690SOL    HW125703   4.676   0.204   6.269 -2.6823  0.1869 -3.0203
 4690SOL    HW225704   0.068   0.256   6.216  2.0847 -0.5803 -3.5527
 4691SOL     OW25705   2.943   0.572   1.918 -0.3963 -0.0132  0.0901
 4691SOL    HW125706   3.001   0.568   1.994 -0.5563  2.3729  0.3277
 4691SOL    HW225707   2.952   0.666   1.900  1.2205 -0.4663 -1.5100
 4692SOL     OW25708   0.194   1.397  11.283 -0.1634  0.1971  0.1426
 4692SOL    HW125709   0.242   1.426  11.361  2.2172 -0.1072 -1.2022
 4692SOL    HW225710   0.236   1.312  11.272  0.0775  0.0016  2.7589
 4693SOL     OW25711   1.070   1.009   3.411 -0.4968 -0.3621  0.6665
 4693SOL    HW125712   1.099   1.088   3.366  1.0456 -0.8622  0.7939
 4693SOL    HW225713   1.126   1.007   3.489  0.7146 -0.6808 -0.2202
 4694SOL     OW25714   4.306   0.206   7.992  0.1548  0.0436 -0.4365
 4694SOL    HW125715   4.304   0.301   7.987 -0.3322  0.0719  0.2908
 4694SOL    HW225716   4.212   0.186   7.998  0.2687 -0.9978 -1.9717
 4695SOL     OW25717   0.313   0.815   7.592 -0.0937  0.3952  0.5133
 4695SOL    HW125718   0.403   0.836   7.568  0.7987 -1.9807  1.7320
 4695SOL    HW225719   0.290   0.898   7.634  1.0834  1.4263 -0.8594
 4696SOL     OW25720   1.801   3.799   2.134  0.2077  0.3894  0.1978
 4696SOL    HW125721   1.862   3.871   2.151  1.2488 -0.7791  1.3463
 4696SOL    HW225722   1.722   3.852   2.124 -1.0041 -1.6533 -1.0920
 4697SOL     OW25723   0.046   2.830   5.403  0.7578  0.3804 -0.2657
 4697SOL    HW125724   0.004   2.815   5.319  3.5987 -0.4861 -1.5471
 4697SOL    HW225725   0.086   2.915   5.385 -0.3135  0.7455 -0.8729
 4698SOL     OW25726   3.083   0.173   8.592  0.2906 -0.1835  0.1535
 4698SOL    HW125727   3.074   0.186   8.498  0.3901 -1.5276 -0.0472
 4698SOL    HW225728   3.170   0.135   8.594  0.7565  0.7684 -2.2322
 4699SOL     OW25729   2.971   1.863   7.161  0.2004  0.2265 -0.0709
 4699SOL    HW125730   3.023   1.783   7.161  0.0364  0.1047 -2.6571
 4699SOL    HW225731   2.921   1.848   7.081 -0.2342 -0.8860  0.4052
 4700SOL     OW25732   3.561   3.883   2.437  0.4682 -0.0653  0.7073
 4700SOL    HW125733   3.610   3.966   2.436 -0.2408  0.3372 -1.5154
 4700SOL    HW225734   3.635   3.824   2.427 -0.1098 -0.5293 -0.7941
 4701SOL     OW25735   2.242   1.368   8.638  0.1958 -0.1269  0.4767
 4701SOL    HW125736   2.185   1.418   8.579 -0.3209 -0.7569  0.4454
 4701SOL    HW225737   2.329   1.378   8.601 -0.4096 -0.3494 -1.0209
 4702SOL     OW25738   1.788   4.136  17.729 -0.3047  0.7321 -0.4533
 4702SOL    HW125739   1.793   4.158  17.636  2.3247 -0.0139 -0.4915
 4702SOL    HW225740   1.701   4.098  17.723 -0.7679  1.6410  0.4941
 4703SOL     OW25741   1.122   4.163  10.126  0.5899  0.1934 -0.1745
 4703SOL    HW125742   1.132   4.081  10.078 -0.9491  0.4677 -0.9684
 4703SOL    HW225743   1.040   4.194  10.086 -0.7541  0.4383  2.7617
 4704SOL     OW25744   4.007   1.612  17.622  0.5651 -0.0803  0.2371
 4704SOL    HW125745   4.009   1.707  17.618 -0.5989 -0.1483 -1.7215
 4704SOL    HW225746   4.094   1.604  17.662  0.5682  1.0458  0.4390
 4705SOL     OW25747   2.167   1.134   1.607  0.2241  0.9291 -0.7549
 4705SOL    HW125748   2.203   1.077   1.676 -0.9196  0.2155 -0.7353
 4705SOL    HW225749   2.083   1.090   1.590  0.1347  0.2638  1.3616
 4706SOL     OW25750   4.539   2.837  10.423 -0.2710 -0.7566  0.3102
 4706SOL    HW125751   4.531   2.849  10.518  0.6760 -0.9063  0.4086
 4706SOL    HW225752   4.633   2.851  10.421 -0.5793  1.2331  0.2727
 4707SOL     OW25753   1.115   4.352   1.735 -0.3497  0.3193 -0.1198
 4707SOL    HW125754   1.185   4.291   1.708 -2.0793 -1.3121 -0.9060
 4707SOL    HW225755   1.082   4.316   1.818 -0.9326  1.8128  0.2822
 4708SOL     OW25756   1.718   3.049  11.750 -0.1130 -0.4789  0.1105
 4708SOL    HW125757   1.794   3.048  11.693 -0.3603  1.8089 -0.2761
 4708SOL    HW225758   1.695   2.956  11.750 -1.1962 -0.2053 -1.9031
 4709SOL     OW25759   3.742   3.113   6.182 -0.0802 -0.5001 -0.6108
 4709SOL    HW125760   3.652   3.121   6.215  0.3372 -0.1510  0.4147
 4709SOL    HW225761   3.736   3.034   6.129 -2.3942  0.5106 -1.8758
 4710SOL     OW25762   0.273   3.675   7.989  0.0025  0.5327  0.6729
 4710SOL    HW125763   0.198   3.674   8.048  0.8344  1.2146  1.7501
 4710SOL    HW225764   0.303   3.766   7.993  0.9123  0.2792 -0.1697
 4711SOL     OW25765   1.436   1.044   8.281  0.5346  0.0888 -0.0407
 4711SOL    HW125766   1.406   1.023   8.369 -0.9658 -1.2724 -0.8868
 4711SOL    HW225767   1.351   1.075   8.248  0.4672  0.4871  0.5021
 4712SOL     OW25768   4.259   0.860   4.226 -0.1599  0.0701 -0.1054
 4712SOL    HW125769   4.343   0.827   4.193 -1.5417 -3.3255 -0.1473
 4712SOL    HW225770   4.237   0.920   4.155  1.6656  1.4466  0.4795
 4713SOL     OW25771   2.066   1.162   3.859  0.3545 -0.1606 -0.2638
 4713SOL    HW125772   2.015   1.210   3.924  1.1386  0.8439 -0.3985
 4713SOL    HW225773   2.016   1.162   3.777  2.2226 -0.0220 -1.4068
 4714SOL     OW25774   2.422   0.395  15.725  0.7299 -0.1341 -0.0939
 4714SOL    HW125775   2.465   0.465  15.675  0.1333  0.9549  0.9355
 4714SOL    HW225776   2.394   0.335  15.656 -1.3333  0.5628  0.1109
 4715SOL     OW25777   0.331   1.474   1.427  0.5300 -0.0848  0.3073
 4715SOL    HW125778   0.267   1.531   1.385  0.3688 -0.3530  0.1842
 4715SOL    HW225779   0.266   1.405   1.441  0.8255 -0.9750 -2.5652
 4716SOL     OW25780   1.133   4.477   8.079  0.3268  0.4997 -0.0990
 4716SOL    HW125781   1.099   4.388   8.082  3.0466 -0.5312  0.5562
 4716SOL    HW225782   1.153   4.495   8.171  2.1274  0.6537 -0.5073
 4717SOL     OW25783   3.319   4.025   7.664 -0.1830  0.0150 -0.7454
 4717SOL    HW125784   3.285   4.107   7.699 -0.3589 -0.2104 -0.3891
 4717SOL    HW225785   3.414   4.026   7.663 -0.1520 -1.8676  0.8701
 4718SOL     OW25786   1.635   4.263   6.216  0.8897 -0.3240 -0.1527
 4718SOL    HW125787   1.713   4.279   6.163  1.8029  1.4212  1.6802
 4718SOL    HW225788   1.647   4.325   6.288  1.2277 -0.4837 -0.0717
 4719SOL     OW25789   0.164   2.210   2.019 -0.1064 -0.5284 -0.5709
 4719SOL    HW125790   0.124   2.214   1.932 -3.0363 -2.8522  0.6949
 4719SOL    HW225791   0.220   2.133   2.012  1.0023  0.1307  0.7925
 4720SOL     OW25792   1.912   4.563  15.205  0.9403  0.0084  0.3026
 4720SOL    HW125793   1.870   4.479  15.224 -0.8583  0.7190 -0.5477
 4720SOL    HW225794   1.914   4.560  15.109  0.4928  1.4658  0.2486
 4721SOL     OW25795   1.749   2.468  12.578  0.0497  0.4607 -0.4886
 4721SOL    HW125796   1.835   2.495  12.545 -0.0904  0.6997 -0.6542
 4721SOL    HW225797   1.697   2.547  12.570  0.9613  1.1408  0.2832
 4722SOL     OW25798   3.010   3.302   3.030 -0.1661  0.3552  0.4298
 4722SOL    HW125799   2.935   3.328   3.083  0.1199  1.6366  0.2056
 4722SOL    HW225800   2.982   3.216   3.000  0.3023 -0.1907  1.5486
 4723SOL     OW25801   0.654   1.286   2.179  0.1958  0.2619 -0.0496
 4723SOL    HW125802   0.622   1.244   2.099 -0.7045  4.1404 -1.7163
 4723SOL    HW225803   0.735   1.322   2.141  0.5649 -1.5370 -0.9658
 4724SOL     OW25804   0.086   0.801   7.051  0.1182 -0.4010 -0.5296
 4724SOL    HW125805   0.157   0.843   7.101 -0.1279 -0.5540 -0.0445
 4724SOL    HW225806   0.061   0.735   7.116 -0.0287  0.0325 -0.1463
 4725SOL     OW25807   1.935   4.278   5.054  0.4523 -0.3874 -0.0757
 4725SOL    HW125808   1.917   4.371   5.070 -0.7868 -0.4149 -1.3079
 4725SOL    HW225809   1.848   4.239   5.061  0.2245  0.1597  0.1124
 4726SOL     OW25810   1.717   3.072  15.533  0.1664 -0.6909  0.5602
 4726SOL    HW125811   1.719   3.168  15.531  3.2927 -0.8102 -1.7654
 4726SOL    HW225812   1.679   3.046  15.617 -2.6378 -1.7001 -1.0550
 4727SOL     OW25813   2.955   1.675   3.687  0.2070  0.2529 -0.2713
 4727SOL    HW125814   2.965   1.689   3.593 -1.4729  1.8178 -0.2217
 4727SOL    HW225815   2.933   1.767   3.706 -0.2910 -0.1957  1.3645
 4728SOL     OW25816   4.209   3.401   1.890  0.1836  0.1863 -0.0136
 4728SOL    HW125817   4.180   3.471   1.947  1.3841  0.8116 -0.1699
 4728SOL    HW225818   4.293   3.374   1.928  0.8168  0.6584 -1.0605
 4729SOL     OW25819   1.488   3.133   2.401  0.1252  0.2632  0.2997
 4729SOL    HW125820   1.419   3.196   2.420  0.3750  0.5947  0.0991
 4729SOL    HW225821   1.497   3.137   2.306 -3.8792  0.6189 -0.0629
 4730SOL     OW25822   1.914   3.158  12.905 -0.3392  0.0138 -0.6939
 4730SOL    HW125823   1.856   3.231  12.927 -0.4459 -0.3203  0.1332
 4730SOL    HW225824   1.987   3.183  12.962 -0.8394 -0.9384  0.3797
 4731SOL     OW25825   3.232   0.477   1.725 -0.3513  0.2930  0.0113
 4731SOL    HW125826   3.230   0.539   1.799  0.8057  1.2692 -0.7702
 4731SOL    HW225827   3.312   0.427   1.744 -1.6121 -1.8051 -0.2809
 4732SOL     OW25828   3.975   3.823   6.719 -0.1268 -0.2727 -0.3907
 4732SOL    HW125829   4.015   3.751   6.768 -1.5375 -0.8811 -0.1609
 4732SOL    HW225830   4.027   3.817   6.638 -1.8668  2.0080 -1.6929
 4733SOL     OW25831   0.281   1.743  15.731  0.1702  0.0885  0.4043
 4733SOL    HW125832   0.344   1.744  15.803  1.0383 -2.3011 -0.3161
 4733SOL    HW225833   0.305   1.822  15.684  0.2444 -0.6107 -0.7362
 4734SOL     OW25834   1.325   2.599   8.359 -0.4198  0.6201 -0.0593
 4734SOL    HW125835   1.379   2.672   8.389 -2.1710  0.8512  2.5191
 4734SOL    HW225836   1.374   2.531   8.405  1.3170  2.2182  0.4360
 4735SOL     OW25837   2.198   2.832   6.745  0.3533  0.0617 -0.3658
 4735SOL    HW125838   2.147   2.829   6.827  0.8310 -0.2453 -0.0790
 4735SOL    HW225839   2.133   2.889   6.704 -1.7394 -1.8489  0.2304
 4736SOL     OW25840   2.381   2.311   3.365  0.1840 -0.7546 -0.0130
 4736SOL    HW125841   2.320   2.359   3.421 -3.2360 -2.5608 -2.2042
 4736SOL    HW225842   2.402   2.371   3.293  0.7081  2.0108  2.4588
 4737SOL     OW25843   1.411   3.804   9.038  0.3346  0.4574 -0.3873
 4737SOL    HW125844   1.382   3.818   9.128 -0.5756 -0.9860 -0.4538
 4737SOL    HW225845   1.467   3.726   9.037 -0.9869 -0.5052 -0.1318
 4738SOL     OW25846   1.880   3.842   6.698  0.3925  0.5494 -0.3042
 4738SOL    HW125847   1.855   3.792   6.776 -0.1982 -1.5401 -1.8404
 4738SOL    HW225848   1.841   3.779   6.639 -1.4361 -0.2930  1.7905
 4739SOL     OW25849   3.444   4.259  13.986 -0.2565 -0.2608 -0.6314
 4739SOL    HW125850   3.349   4.264  13.993 -0.2253 -2.4182  1.3430
 4739SOL    HW225851   3.467   4.352  13.987 -2.6285  0.2902  1.6399
 4740SOL     OW25852   0.015   4.113  17.622  0.3150 -0.0752  0.4746
 4740SOL    HW125853   4.672   4.126  17.579 -0.6496  0.7011  2.5811
 4740SOL    HW225854   0.073   4.162  17.564 -1.0071  0.3826 -0.4710
 4741SOL     OW25855   3.143   4.623   7.128 -0.0907 -0.0010 -0.2502
 4741SOL    HW125856   3.066   4.602   7.180 -0.7559 -1.4119 -1.7813
 4741SOL    HW225857   3.192   4.541   7.133 -2.3787 -1.5123 -2.4169
 4742SOL     OW25858   2.602   3.410   5.104 -0.4127  0.7671 -0.2329
 4742SOL    HW125859   2.550   3.423   5.026  1.4194 -0.7176 -1.7107
 4742SOL    HW225860   2.575   3.476   5.168  1.3022  1.5052 -0.2708
 4743SOL     OW25861   1.174   0.963   7.526 -0.0467 -0.8815 -0.0108
 4743SOL    HW125862   1.105   0.902   7.498  0.2345 -1.2957  0.1927
 4743SOL    HW225863   1.228   0.973   7.448  1.4154  1.9129  1.3660
 4744SOL     OW25864   0.740   2.747   3.184  0.6468  0.2405 -0.5929
 4744SOL    HW125865   0.667   2.726   3.125 -0.2555 -0.2428  0.6942
 4744SOL    HW225866   0.797   2.809   3.138 -0.7531  0.9986 -1.3378
 4745SOL     OW25867   1.220   0.930   2.869  0.4814 -0.0505  0.2477
 4745SOL    HW125868   1.198   0.839   2.890 -0.0979  0.1287  0.4223
 4745SOL    HW225869   1.257   0.904   2.784 -0.2061 -0.8258  0.1869
 4746SOL     OW25870   0.420   0.208   6.595 -0.0628  0.3088  0.4007
 4746SOL    HW125871   0.376   0.207   6.679  1.0188  0.4694  0.9740
 4746SOL    HW225872   0.343   0.216   6.539 -1.2392 -3.4761  1.4623
 4747SOL     OW25873   1.530   0.859   0.459 -0.3191 -0.6191 -0.2428
 4747SOL    HW125874   1.529   0.799   0.384 -2.3739 -0.4394 -0.3580
 4747SOL    HW225875   1.504   0.946   0.427  0.9818  0.3557  1.3764
 4748SOL     OW25876   0.618   2.591  13.086 -0.6341 -0.1579 -0.8181
 4748SOL    HW125877   0.634   2.500  13.061 -0.3275  0.4662 -2.8805
 4748SOL    HW225878   0.552   2.612  13.021 -0.5266  1.9539 -0.2351
 4749SOL     OW25879   2.544   0.266   8.487  0.3602  0.7280 -0.3118
 4749SOL    HW125880   2.563   0.195   8.426  0.6309 -0.1440  0.7825
 4749SOL    HW225881   2.492   0.328   8.436 -0.4745 -1.7876 -2.5053
 4750SOL     OW25882   1.407   3.869   3.240 -0.3530  0.1965 -0.0329
 4750SOL    HW125883   1.449   3.785   3.254 -1.4404 -0.8260 -2.8185
 4750SOL    HW225884   1.434   3.930   3.309  0.4362 -1.1065  0.7967
 4751SOL     OW25885   3.861   3.811  11.771  0.3703 -0.2561  0.9614
 4751SOL    HW125886   3.948   3.820  11.811  0.5394  0.8509  0.3437
 4751SOL    HW225887   3.804   3.861  11.829  1.6409  0.2720  1.7482
 4752SOL     OW25888   1.111   1.152   3.109  0.2186  0.3280  0.1678
 4752SOL    HW125889   1.018   1.167   3.130 -0.3502 -0.6356 -1.7132
 4752SOL    HW225890   1.100   1.099   3.030 -0.1800  0.6491  0.0067
 4753SOL     OW25891   2.968   4.207   2.124 -0.3744  0.1915 -0.6574
 4753SOL    HW125892   2.958   4.171   2.036 -0.8106  0.4961 -0.7347
 4753SOL    HW225893   2.892   4.178   2.174 -0.7397 -0.7929 -1.7872
 4754SOL     OW25894   2.886   4.053  15.222  0.1896 -0.1860  0.2479
 4754SOL    HW125895   2.793   4.037  15.239 -0.3173  2.0620 -0.3984
 4754SOL    HW225896   2.875   4.136  15.175  2.3976  0.5932  1.1197
 4755SOL     OW25897   1.931   0.878   0.599 -0.2047  0.0608 -0.2081
 4755SOL    HW125898   1.906   0.801   0.548  0.2707 -1.1786  1.4620
 4755SOL    HW225899   1.991   0.921   0.538 -3.0104  1.9373 -1.6720
 4756SOL     OW25900   4.719   1.919   4.383  0.3892 -0.1856  0.2541
 4756SOL    HW125901   4.699   1.987   4.447  0.1223  0.6261 -0.6915
 4756SOL    HW225902   0.060   1.881   4.413 -0.0448  0.8185  2.7530
 4757SOL     OW25903   1.413   1.207   9.463 -0.4823  0.0846  0.4629
 4757SOL    HW125904   1.460   1.289   9.447  0.0657 -0.7995 -2.5198
 4757SOL    HW225905   1.331   1.256   9.473  0.3457  1.5088  0.2349
 4758SOL     OW25906   0.041   1.389  17.708  0.0461  0.5822 -0.2013
 4758SOL    HW125907   4.707   1.344  17.671  1.2367 -1.3930 -0.2241
 4758SOL    HW225908   0.067   1.337   0.020  1.8679 -1.5287 -2.2687
 4759SOL     OW25909   2.486   4.576  11.624  0.2714 -0.1969 -0.3389
 4759SOL    HW125910   2.420   4.519  11.584 -0.2723 -0.2650  0.6763
 4759SOL    HW225911   2.448   4.663  11.617 -0.5060 -0.4613  0.5667
 4760SOL     OW25912   1.397   1.266   4.081 -0.2889 -0.8277  0.4695
 4760SOL    HW125913   1.434   1.314   4.155 -2.4411  0.4098  0.7499
 4760SOL    HW225914   1.303   1.269   4.102  0.0557  0.4536  1.8015
 4761SOL     OW25915   4.301   2.385  10.989 -0.5797 -0.0633 -0.6187
 4761SOL    HW125916   4.217   2.415  10.955 -0.2080  0.6984 -0.8677
 4761SOL    HW225917   4.336   2.472  11.007 -0.2935 -0.3613  0.2449
 4762SOL     OW25918   3.363   2.888   5.403  0.0086  0.0391 -0.3099
 4762SOL    HW125919   3.350   2.794   5.392  1.3460  0.0962 -2.4520
 4762SOL    HW225920   3.352   2.921   5.313  1.5713  2.2180  0.3165
 4763SOL     OW25921   2.504   3.026   2.921  0.3467 -0.4775 -0.4439
 4763SOL    HW125922   2.564   3.097   2.943 -0.4377  0.4437 -1.2427
 4763SOL    HW225923   2.428   3.084   2.911  1.2677  0.9715  0.9768
 4764SOL     OW25924   1.617   2.549   3.825 -0.2519  0.0413  0.1010
 4764SOL    HW125925   1.699   2.524   3.868 -0.9205  0.1615  1.4552
 4764SOL    HW225926   1.621   2.644   3.836 -1.5403  0.2074 -0.7513
 4765SOL     OW25927   0.442   2.732  13.642 -0.1941 -0.2130  0.4126
 4765SOL    HW125928   0.361   2.781  13.658  1.1789  2.5551 -1.0159
 4765SOL    HW225929   0.510   2.799  13.632  2.1865 -3.1722 -3.0634
 4766SOL     OW25930   2.706   3.192   1.165  0.7972 -0.1614 -0.3944
 4766SOL    HW125931   2.778   3.202   1.228 -0.5082  1.4030  0.8370
 4766SOL    HW225932   2.738   3.137   1.094 -2.2420 -1.8531 -0.4307
 4767SOL     OW25933   4.237   1.280   4.299  0.1771 -0.6205 -0.2589
 4767SOL    HW125934   4.179   1.316   4.232 -1.5926  1.4746  2.4171
 4767SOL    HW225935   4.167   1.256   4.359  0.9286  0.8280  1.2071
 4768SOL     OW25936   1.168   0.471   9.640 -0.0749  0.3051  0.5257
 4768SOL    HW125937   1.255   0.476   9.679 -0.5858 -2.0712  1.9423
 4768SOL    HW225938   1.120   0.413   9.699  0.2664  1.1566  1.6413
 4769SOL     OW25939   2.757   1.803   4.892  0.6499  0.0148 -0.2286
 4769SOL    HW125940   2.789   1.835   4.976 -1.4182  1.0170  0.1681
 4769SOL    HW225941   2.668   1.773   4.906  1.0415 -0.5820  1.0082
 4770SOL     OW25942   0.034   3.173   5.684 -0.1357 -0.3728  0.3222
 4770SOL    HW125943   0.080   3.133   5.611 -0.3576  0.8904 -0.5217
 4770SOL    HW225944   0.063   3.120   5.757 -0.0568 -1.0247 -0.1863
 4771SOL     OW25945   1.602   4.343  13.883  0.0880  0.5133 -0.2314
 4771SOL    HW125946   1.693   4.320  13.897  0.4405  0.9210 -1.8709
 4771SOL    HW225947   1.572   4.345  13.974  0.3960 -3.3475 -0.0586
 4772SOL     OW25948   0.570   0.407   4.331  0.1883 -0.1859 -0.0184
 4772SOL    HW125949   0.611   0.347   4.393  2.7311 -0.2513 -1.7663
 4772SOL    HW225950   0.477   0.384   4.332 -0.2937  1.7632  0.5416
 4773SOL     OW25951   0.214   1.479   3.792 -0.2788 -0.5437  0.2800
 4773SOL    HW125952   0.159   1.417   3.840 -0.8444 -0.1024  0.2070
 4773SOL    HW225953   0.289   1.421   3.780 -0.1108 -0.0189 -1.1316
 4774SOL     OW25954   2.995   1.099   2.498 -0.1862  0.0264 -0.3166
 4774SOL    HW125955   2.925   1.149   2.540 -0.2941 -1.2168  0.9680
 4774SOL    HW225956   2.969   1.088   2.407  1.2013 -0.6416 -0.6270
 4775SOL     OW25957   4.653   2.253  17.113  0.4834 -0.3276 -0.1970
 4775SOL    HW125958   4.654   2.161  17.136  0.9012 -0.1017  0.6797
 4775SOL    HW225959   4.598   2.242  17.035  1.7445  0.1038 -1.1406
 4776SOL     OW25960   2.234   0.088   1.864  0.1105 -0.1271 -0.2598
 4776SOL    HW125961   2.286   0.100   1.944 -0.8616  0.7905  0.2319
 4776SOL    HW225962   2.223   0.179   1.837  1.6787 -0.2390 -1.3097
 4777SOL     OW25963   2.307   3.998   5.251  0.1300 -0.0529 -0.3697
 4777SOL    HW125964   2.382   3.948   5.284 -1.6233 -1.6463  1.2277
 4777SOL    HW225965   2.238   3.934   5.268  0.7542 -0.4308  0.7217
 4778SOL     OW25966   0.370   2.287   3.297  0.4927 -0.4105 -0.0542
 4778SOL    HW125967   0.321   2.343   3.357 -1.0143  0.0932 -1.7377
 4778SOL    HW225968   0.374   2.203   3.343 -2.6446 -0.1229  0.7243
 4779SOL     OW25969   3.544   0.703   7.954 -0.1763  0.1279  0.0430
 4779SOL    HW125970   3.554   0.612   7.983  0.4470  0.4635  0.8757
 4779SOL    HW225971   3.541   0.743   8.041 -0.5995 -0.5850  0.3597
 4780SOL     OW25972   3.338   3.426   0.743 -0.2305  0.0851 -0.6486
 4780SOL    HW125973   3.423   3.394   0.771 -1.1078 -2.2018 -0.6068
 4780SOL    HW225974   3.319   3.497   0.805  0.7479  1.0619 -1.4766
 4781SOL     OW25975   2.773   3.736   6.577  0.5440 -0.1308  0.0677
 4781SOL    HW125976   2.819   3.802   6.629  1.2085  0.6481 -1.5264
 4781SOL    HW225977   2.702   3.732   6.641  0.1391  0.5747 -0.3315
 4782SOL     OW25978   0.965   0.411   7.859 -0.2772 -0.0414 -0.2911
 4782SOL    HW125979   0.919   0.490   7.888  0.9232  0.6925 -0.3503
 4782SOL    HW225980   1.016   0.448   7.787  0.5975  0.9073  0.8008
 4783SOL     OW25981   2.431   3.140   6.521 -0.5125 -0.1467 -0.1832
 4783SOL    HW125982   2.394   3.065   6.475  0.3726 -0.5215 -0.2851
 4783SOL    HW225983   2.455   3.103   6.606  2.6052 -0.6637 -1.2642
 4784SOL     OW25984   4.694   4.721   7.743 -0.2419  0.2238 -0.3042
 4784SOL    HW125985   4.602   0.006   7.742  0.1159  1.4496 -0.5462
 4784SOL    HW225986   4.726   4.710   7.654 -1.6684 -2.0781 -0.5389
 4785SOL     OW25987   2.257   1.451   8.229  0.0271  0.0963  0.0239
 4785SOL    HW125988   2.293   1.534   8.197 -0.1841  0.6817  1.3274
 4785SOL    HW225989   2.237   1.462   8.322 -0.3593  2.3759 -0.3438
 4786SOL     OW25990   4.213   4.063   6.238  0.0622 -0.6783  0.1969
 4786SOL    HW125991   4.247   4.073   6.149 -0.2575  1.3816  0.2959
 4786SOL    HW225992   4.224   4.152   6.271 -0.4448 -0.4505 -0.2325
 4787SOL     OW25993   1.316   0.276   7.077 -0.2883 -0.1477 -0.7291
 4787SOL    HW125994   1.305   0.198   7.023 -0.9001 -0.5893  0.0389
 4787SOL    HW225995   1.392   0.317   7.035  0.8776  1.0302  2.5568
 4788SOL     OW25996   0.572   3.161  13.018 -0.4644 -0.0566  0.1809
 4788SOL    HW125997   0.618   3.142  13.100  0.0832  2.8308  0.5541
 4788SOL    HW225998   0.488   3.187  13.057 -0.3746 -0.0536  0.3720
 4789SOL     OW25999   0.198   3.580   7.045 -0.3488 -0.2010 -0.3070
 4789SOL    HW126000   0.213   3.660   7.095  0.3244  0.8549 -2.1904
 4789SOL    HW226001   0.281   3.563   7.000  0.3524  0.6435  0.6712
 4790SOL     OW26002   1.054   2.382   4.921 -0.3335 -0.2689  0.3527
 4790SOL    HW126003   1.017   2.327   4.990  2.2241  2.0272  3.5750
 4790SOL    HW226004   1.128   2.414   4.973 -1.8728  2.2945  0.9296
 4791SOL     OW26005   1.021   1.839   3.521 -0.7540  0.0506  0.5379
 4791SOL    HW126006   1.075   1.812   3.447 -0.1322  1.9427  0.2813
 4791SOL    HW226007   1.026   1.934   3.513 -0.4448  0.0357  0.5600
 4792SOL     OW26008   1.259   3.785   0.537  0.0333  0.4624 -0.0696
 4792SOL    HW126009   1.202   3.828   0.473  0.1383 -1.1714 -1.2478
 4792SOL    HW226010   1.343   3.824   0.514  0.6501 -0.6625  0.2777
 4793SOL     OW26011   3.555   3.707   8.558 -0.0889 -0.3501 -0.4836
 4793SOL    HW126012   3.540   3.654   8.480 -1.2583 -0.3767 -0.2403
 4793SOL    HW226013   3.492   3.778   8.543  1.5921  1.2906  0.2827
 4794SOL     OW26014   3.787   0.777  12.231  0.1806 -0.4357  0.1479
 4794SOL    HW126015   3.776   0.685  12.205  1.2684 -0.9186  1.4296
 4794SOL    HW226016   3.844   0.803  12.158 -0.1352  1.4741  0.5841
 4795SOL     OW26017   1.423   0.134   5.829 -0.4041 -0.2792 -0.1687
 4795SOL    HW126018   1.352   0.106   5.887 -0.2998  1.4356  0.7732
 4795SOL    HW226019   1.462   0.053   5.795 -0.8288  0.4210 -2.3360
 4796SOL     OW26020   4.112   4.681   1.911 -0.2856 -0.4220 -0.6893
 4796SOL    HW126021   4.103   4.597   1.955  0.6585  0.0894  0.4932
 4796SOL    HW226022   4.197   4.659   1.874 -1.0919 -1.1111 -2.1015
 4797SOL     OW26023   2.050   3.681   4.141 -0.2977 -0.1294 -0.5610
 4797SOL    HW126024   1.990   3.746   4.177  0.1180  0.0617 -0.2050
 4797SOL    HW226025   2.072   3.727   4.059 -1.5946  0.3819 -0.6196
 4798SOL     OW26026   0.639   4.145   4.034  0.3497  0.1196  0.0687
 4798SOL    HW126027   0.593   4.101   4.105 -1.7059  0.3625 -1.1065
 4798SOL    HW226028   0.571   4.206   4.005  0.9957  0.3012 -1.0805
 4799SOL     OW26029   0.272   3.710   4.978 -0.6213 -0.1761  0.3717
 4799SOL    HW126030   0.182   3.730   5.003 -0.4896 -0.3985  1.0263
 4799SOL    HW226031   0.277   3.700   4.883  1.4596  0.5006  0.3910
 4800SOL     OW26032   0.794   2.133   3.019  0.9933  0.0999  0.7178
 4800SOL    HW126033   0.841   2.163   3.097 -2.2366  0.1807  2.6303
 4800SOL    HW226034   0.855   2.062   2.997  0.3026 -0.1602 -0.3201
 4801SOL     OW26035   0.841   1.584   4.043 -0.7895  0.3865 -0.3658
 4801SOL    HW126036   0.869   1.667   4.005 -3.4058  0.7695 -1.4611
 4801SOL    HW226037   0.761   1.615   4.086 -1.3706 -1.5966  0.0107
 4802SOL     OW26038   4.610   1.227   5.585  0.1577 -0.2356 -0.2198
 4802SOL    HW126039   4.698   1.190   5.588 -0.1944 -1.2147 -1.7564
 4802SOL    HW226040   4.617   1.288   5.658  0.8605  0.0159 -0.4917
 4803SOL     OW26041   0.815   2.856   2.800  0.3824 -0.3571  0.3182
 4803SOL    HW126042   0.835   2.857   2.893 -1.1763 -1.1257  0.6554
 4803SOL    HW226043   0.824   2.947   2.770  2.8981 -1.2138 -1.4917
 4804SOL     OW26044   1.353   3.404  14.310 -0.6388  0.5479 -0.2957
 4804SOL    HW126045   1.445   3.405  14.336 -0.5198  1.5465 -0.7613
 4804SOL    HW226046   1.316   3.333  14.362 -0.7686  1.1274  0.3937
 4805SOL     OW26047   0.625   1.631   6.524  0.6140 -0.0741 -0.3794
 4805SOL    HW126048   0.577   1.606   6.446  0.6876  0.3310 -0.5547
 4805SOL    HW226049   0.699   1.571   6.530  1.2712  0.4873 -3.0427
 4806SOL     OW26050   3.276   0.751   5.556 -0.1458  0.3524 -0.1887
 4806SOL    HW126051   3.190   0.752   5.597  0.5702  0.2361  1.3408
 4806SOL    HW226052   3.262   0.711   5.470  2.0773  2.5360 -1.5526
 4807SOL     OW26053   3.509   0.086   0.450  0.2126  0.0505 -0.1592
 4807SOL    HW126054   3.452   0.143   0.501 -0.8962  1.8195 -3.3901
 4807SOL    HW226055   3.493   0.125   0.365 -5.5670 -1.9577  0.0434
 4808SOL     OW26056   2.119   4.567   1.474 -0.6616 -0.8482  0.7308
 4808SOL    HW126057   2.163   4.555   1.390 -1.9215 -0.5660  0.0341
 4808SOL    HW226058   2.192   4.557   1.535  0.2997 -0.5123 -0.3675
 4809SOL     OW26059   1.777   1.435   6.837 -0.0039  0.5315  0.2341
 4809SOL    HW126060   1.734   1.418   6.753 -2.1728 -0.7121  1.5665
 4809SOL    HW226061   1.745   1.523   6.858 -1.4677  0.1991 -0.5656
 4810SOL     OW26062   1.145   2.348   7.597 -0.3998 -0.2323 -0.4656
 4810SOL    HW126063   1.124   2.434   7.633  1.3217  0.0897 -0.2141
 4810SOL    HW226064   1.240   2.360   7.598 -0.4883  0.4658  0.2127
 4811SOL     OW26065   0.459   2.142   6.571  0.5171 -0.1427 -0.5064
 4811SOL    HW126066   0.536   2.148   6.627  1.8975  0.1638 -2.4210
 4811SOL    HW226067   0.389   2.168   6.631 -2.0891  0.3323 -3.7766
 4812SOL     OW26068   1.232   1.892   6.652  0.2333 -0.1091  0.1542
 4812SOL    HW126069   1.287   1.964   6.622  0.2418 -0.1404  0.0955
 4812SOL    HW226070   1.169   1.892   6.580 -0.3536  1.3468  0.6649
 4813SOL     OW26071   2.073   1.632   5.466  0.4822  0.4494  0.0949
 4813SOL    HW126072   2.092   1.611   5.558 -1.9749 -2.8669 -0.1429
 4813SOL    HW226073   2.163   1.612   5.440 -0.0248 -0.1376 -1.2336
 4814SOL     OW26074   1.799   3.339   8.952  0.7766  0.1849  0.0020
 4814SOL    HW126075   1.771   3.363   8.863  2.4122  1.6059 -0.1458
 4814SOL    HW226076   1.884   3.383   8.958  1.7352 -1.4482 -1.3592
 4815SOL     OW26077   3.774   4.017   6.777 -0.4267 -0.1457 -0.2992
 4815SOL    HW126078   3.818   3.933   6.768 -0.9389 -0.4085 -0.3331
 4815SOL    HW226079   3.842   4.082   6.761 -2.7146  2.1888 -0.5455
 4816SOL     OW26080   1.201   3.262  15.163  0.4490 -0.1416  0.2737
 4816SOL    HW126081   1.225   3.171  15.149  1.5855 -0.0237  1.4501
 4816SOL    HW226082   1.107   3.261  15.149  0.5627 -1.4032 -0.3143
 4817SOL     OW26083   0.429   4.389   4.197  0.4179 -0.5089  0.6129
 4817SOL    HW126084   0.397   4.311   4.151 -1.4465  1.0987 -0.8475
 4817SOL    HW226085   0.475   4.422   4.120 -0.5839  3.4783  1.7142
 4818SOL     OW26086   1.344   1.750  11.537  0.6217 -0.4375 -0.2133
 4818SOL    HW126087   1.372   1.832  11.578  0.0500 -1.0182  1.3488
 4818SOL    HW226088   1.341   1.688  11.609 -0.6682  0.3425  0.4006
 4819SOL     OW26089   1.000   0.844  10.456  0.7163 -0.2527 -0.2906
 4819SOL    HW126090   1.074   0.860  10.397  1.0150 -2.6593 -0.5541
 4819SOL    HW226091   0.943   0.917  10.432 -0.6794 -1.2639 -0.0795
 4820SOL     OW26092   1.475   2.695   5.119 -0.0985  0.0978 -0.0339
 4820SOL    HW126093   1.427   2.778   5.116  0.7699  0.5831 -0.4680
 4820SOL    HW226094   1.506   2.683   5.029 -3.2623  3.0385 -1.5270
 4821SOL     OW26095   0.073   2.745   7.872  0.3497 -0.5602  0.0164
 4821SOL    HW126096   0.074   2.773   7.963  3.2363 -1.1680  0.1517
 4821SOL    HW226097   4.729   2.701   7.874 -0.5310  1.0546 -2.0049
 4822SOL     OW26098   2.789   3.357   3.475  0.3116  0.3756 -0.6351
 4822SOL    HW126099   2.858   3.422   3.466  1.4524 -0.5373  1.3491
 4822SOL    HW226100   2.814   3.309   3.554  1.2099  0.8845 -0.6088
 4823SOL     OW26101   0.944   1.350   7.479 -0.3338 -0.0350 -0.1317
 4823SOL    HW126102   0.930   1.271   7.425 -0.2758  0.1557 -0.4273
 4823SOL    HW226103   0.877   1.346   7.546  0.1572 -0.3873  0.3382
 4824SOL     OW26104   2.233   1.420   1.705 -0.8804  0.5787  0.5028
 4824SOL    HW126105   2.151   1.460   1.676 -1.2978 -2.2011 -2.1631
 4824SOL    HW226106   2.265   1.390   1.620  2.3696  1.8780  1.2623
 4825SOL     OW26107   0.015   4.715  17.465 -0.3230 -0.3250 -0.0087
 4825SOL    HW126108   0.033   4.621  17.468 -1.6656 -0.5019  2.6682
 4825SOL    HW226109   0.018   4.740  17.557  3.1382 -0.1505 -0.1572
 4826SOL     OW26110   0.087   0.749   3.644  0.1793  0.1446  0.4792
 4826SOL    HW126111   0.045   0.668   3.617 -1.3062  0.2200  2.4936
 4826SOL    HW226112   0.173   0.758   3.603 -0.7103  1.5011 -1.0868
 4827SOL     OW26113   4.320   2.488  16.246 -0.3781  0.3856 -0.0123
 4827SOL    HW126114   4.297   2.471  16.154 -0.9335  0.2416  0.1560
 4827SOL    HW226115   4.266   2.422  16.289 -0.8121  0.3891 -0.5452
 4828SOL     OW26116   4.026   1.459  11.924  0.1731  0.2455 -0.3077
 4828SOL    HW126117   4.030   1.398  11.998 -0.5435 -0.0338 -0.4961
 4828SOL    HW226118   3.947   1.506  11.949 -0.1648 -0.9973  0.9882
 4829SOL     OW26119   2.592   3.431   7.397  0.1396  1.0212 -0.5052
 4829SOL    HW126120   2.569   3.523   7.388  0.9437  1.1665 -1.1354
 4829SOL    HW226121   2.595   3.400   7.306 -0.2823  0.6404 -0.3858
 4830SOL     OW26122   1.300   2.422   5.971  0.6445 -0.7222 -0.4916
 4830SOL    HW126123   1.379   2.476   5.977 -0.0219  0.6713 -4.5308
 4830SOL    HW226124   1.231   2.489   5.973  0.7171 -0.6611  0.2566
 4831SOL     OW26125   2.092   0.628  16.977  0.2742 -0.6212  0.3523
 4831SOL    HW126126   2.078   0.621  17.071  0.1365  0.5692  0.4163
 4831SOL    HW226127   2.005   0.657  16.950  0.4163  0.5038  1.0943
 4832SOL     OW26128   4.480   4.623   4.315 -0.4440  0.3332  0.1716
 4832SOL    HW126129   4.453   4.657   4.230  1.5856  0.0364 -0.5904
 4832SOL    HW226130   4.563   4.670   4.325 -0.7657  0.5579  1.8293
 4833SOL     OW26131   4.579   1.343   5.857  0.2522 -0.3143  0.0756
 4833SOL    HW126132   4.487   1.323   5.841  0.2117  0.6594 -0.8894
 4833SOL    HW226133   4.587   1.343   5.952  1.0103  0.8083  0.0168
 4834SOL     OW26134   2.978   2.352   4.558 -0.3120  0.5775  0.4555
 4834SOL    HW126135   3.027   2.280   4.518 -2.4605 -1.1949  1.0237
 4834SOL    HW226136   2.907   2.304   4.601  1.1621  0.7429  3.1087
 4835SOL     OW26137   1.835   3.342   3.177  0.1092  0.3027  0.6206
 4835SOL    HW126138   1.875   3.347   3.090 -2.1443 -0.5496 -0.4736
 4835SOL    HW226139   1.773   3.416   3.178 -0.6782 -0.3929  2.8479
 4836SOL     OW26140   4.417   0.805  12.065 -0.6522  0.0881 -0.1355
 4836SOL    HW126141   4.481   0.847  12.123 -0.6827 -0.1772  0.0884
 4836SOL    HW226142   4.336   0.832  12.108 -0.7259 -2.2979  1.1838
 4837SOL     OW26143   0.781   2.223   4.735  0.3368  0.2169 -0.4558
 4837SOL    HW126144   0.759   2.228   4.642  0.2052 -1.0463 -0.4995
 4837SOL    HW226145   0.821   2.136   4.739  0.4576  0.3868  1.8555
 4838SOL     OW26146   2.797   4.019   8.028 -0.2264 -0.4953 -0.8669
 4838SOL    HW126147   2.839   3.936   8.050 -0.9161 -1.1089 -1.9290
 4838SOL    HW226148   2.839   4.042   7.945  1.6230  1.7238  0.6642
 4839SOL     OW26149   1.297   4.250   4.819  0.0020 -0.3023 -0.2952
 4839SOL    HW126150   1.272   4.187   4.886 -0.1286  0.4389  0.3564
 4839SOL    HW226151   1.254   4.223   4.738  0.4879 -1.2304 -0.2395
 4840SOL     OW26152   2.956   3.983   2.824 -0.0648 -0.6692 -0.2213
 4840SOL    HW126153   3.005   3.951   2.749 -0.5863 -0.0434 -0.8267
 4840SOL    HW226154   2.996   3.921   2.886 -0.0723  0.4797  0.9363
 4841SOL     OW26155   0.249   2.955   2.992 -0.0184 -0.3445 -0.2623
 4841SOL    HW126156   0.253   2.924   3.082  1.4366  1.3068  0.2455
 4841SOL    HW226157   0.157   2.981   2.993  0.7594  2.4482 -0.2102
 4842SOL     OW26158   3.277   3.176  16.604  0.1906  0.0492  0.3481
 4842SOL    HW126159   3.242   3.256  16.643  1.5334 -0.1782  2.0561
 4842SOL    HW226160   3.202   3.116  16.603 -1.0933  1.6564  0.8368
 4843SOL     OW26161   1.256   2.001  16.332 -0.5029 -0.1926  0.2599
 4843SOL    HW126162   1.201   2.056  16.388  0.7267  1.1932  0.0810
 4843SOL    HW226163   1.286   2.061  16.264 -0.7711  0.1009  0.4027
 4844SOL     OW26164   3.088   4.565   9.736  0.2506  0.1838 -0.0403
 4844SOL    HW126165   3.129   4.651   9.726 -1.1838  0.6322 -2.0036
 4844SOL    HW226166   3.096   4.550   9.831  0.9984 -1.4723 -0.3679
 4845SOL     OW26167   2.008   0.271   5.443 -0.3409 -0.2804  0.1731
 4845SOL    HW126168   1.981   0.188   5.481  0.7058 -0.0888  1.3252
 4845SOL    HW226169   1.984   0.332   5.513  1.9840  0.5680  0.2393
 4846SOL     OW26170   2.879   3.258   3.735  0.6696  0.1792  0.3172
 4846SOL    HW126171   2.958   3.232   3.687  0.1650 -3.5774  1.5362
 4846SOL    HW226172   2.851   3.173   3.769 -2.3978  1.2764  0.5593
 4847SOL     OW26173   3.276   2.243   6.021 -0.5500  0.3836  0.2761
 4847SOL    HW126174   3.318   2.213   5.940  0.1005  0.2042  0.6847
 4847SOL    HW226175   3.183   2.227   6.003 -0.4071 -1.2090  0.9418
 4848SOL     OW26176   2.259   1.209   6.158 -0.1232  0.0770  0.1841
 4848SOL    HW126177   2.244   1.280   6.096  1.7887 -0.1545 -0.5423
 4848SOL    HW226178   2.351   1.226   6.178  0.3596 -0.0343 -1.9699
 4849SOL     OW26179   0.979   2.090   0.890  0.1806  0.0412  0.1412
 4849SOL    HW126180   0.956   2.080   0.797 -2.8055 -0.7086  0.9498
 4849SOL    HW226181   0.891   2.082   0.928  0.5413 -0.3443  0.8920
 4850SOL     OW26182   2.616   1.006  16.607  0.6356  0.5034  0.0302
 4850SOL    HW126183   2.665   0.936  16.651  1.7752  1.8018  0.8113
 4850SOL    HW226184   2.567   0.962  16.537 -0.9206  0.5856  1.0756
 4851SOL     OW26185   0.021   2.788   1.681  0.1788  0.0760  0.6216
 4851SOL    HW126186   4.684   2.768   1.732 -1.0646 -0.8648 -1.6827
 4851SOL    HW226187   0.005   2.882   1.669  2.2423  0.4328  0.6981
 4852SOL     OW26188   3.078   3.189   3.559  0.2967 -0.0064  0.2672
 4852SOL    HW126189   3.128   3.132   3.617 -0.4577 -1.6728 -0.7300
 4852SOL    HW226190   3.129   3.193   3.478  0.2683  1.8828  0.3237
 4853SOL     OW26191   0.885   3.256   7.869 -0.2281 -0.3354  0.0139
 4853SOL    HW126192   0.900   3.176   7.920 -2.7725 -0.6252  0.3095
 4853SOL    HW226193   0.790   3.254   7.867 -0.2799  0.7152  1.6190
 4854SOL     OW26194   2.282   2.977  16.382  0.8458 -0.7201 -0.4726
 4854SOL    HW126195   2.256   3.068  16.393 -0.0850 -0.9697 -0.5541
 4854SOL    HW226196   2.241   2.930  16.455 -0.1524 -1.1647 -1.3043
 4855SOL     OW26197   2.923   2.552  11.256 -0.2340  0.2210  0.4129
 4855SOL    HW126198   2.906   2.646  11.266 -0.7646  0.3648 -1.7422
 4855SOL    HW226199   2.991   2.545  11.189  0.6136 -0.0158  1.2950
 4856SOL     OW26200   4.344   2.397  14.658  0.0632  0.2558 -0.3533
 4856SOL    HW126201   4.340   2.434  14.747 -1.4299  2.3976 -1.3220
 4856SOL    HW226202   4.402   2.459  14.613  0.1487  0.4092 -0.0402
 4857SOL     OW26203   0.374   0.300  15.765  0.5123  0.0171 -0.3885
 4857SOL    HW126204   0.388   0.287  15.671  2.7482  1.8098 -0.2906
 4857SOL    HW226205   0.286   0.336  15.773  1.9859  3.6258 -0.3096
 4858SOL     OW26206   2.036   4.064  14.993 -0.1160  0.4375 -0.6093
 4858SOL    HW126207   1.955   4.048  14.944  0.2225  1.7544 -1.5996
 4858SOL    HW226208   2.061   4.149  14.955  2.4513  1.0144  2.4325
 4859SOL     OW26209   4.166   1.592   0.668  0.3114 -0.1918 -0.4297
 4859SOL    HW126210   4.165   1.549   0.582 -3.9919 -0.1711 -0.4152
 4859SOL    HW226211   4.117   1.672   0.651  2.6520  0.9422 -1.7894
 4860SOL     OW26212   3.555   4.290   3.726  0.5344 -0.5229  0.1694
 4860SOL    HW126213   3.593   4.234   3.658 -0.6239 -0.5792 -0.4317
 4860SOL    HW226214   3.487   4.234   3.764 -1.9188  0.7133 -2.4039
 4861SOL     OW26215   4.037   4.622  16.721 -0.6884  0.1339 -0.0500
 4861SOL    HW126216   4.119   4.618  16.770 -0.2360 -0.8669 -0.8720
 4861SOL    HW226217   3.978   4.557  16.759  0.5745 -0.9018  0.1298
 4862SOL     OW26218   2.134   0.581   9.427  0.3924 -0.6694 -0.1936
 4862SOL    HW126219   2.089   0.537   9.355  0.6864  3.1107 -2.6932
 4862SOL    HW226220   2.222   0.591   9.391  0.4521 -1.2448 -0.2033
 4863SOL     OW26221   3.859   1.156   6.176  0.0112  0.1442 -0.0844
 4863SOL    HW126222   3.861   1.214   6.252 -0.3981  0.0733 -0.0232
 4863SOL    HW226223   3.773   1.116   6.178  0.3296 -0.5117  0.4473
 4864SOL     OW26224   1.400   0.870   5.866  0.5572  0.0239 -0.4084
 4864SOL    HW126225   1.450   0.950   5.849 -0.2213  0.3051 -1.4305
 4864SOL    HW226226   1.473   0.815   5.891 -0.6414 -1.2479  0.2754
 4865SOL     OW26227   0.046   4.653   7.500 -0.2275 -0.3192 -0.1924
 4865SOL    HW126228   0.124   4.649   7.445  0.7716 -0.3776  1.2257
 4865SOL    HW226229   4.726   4.675   7.431 -1.6367 -1.4648  0.7007
 4866SOL     OW26230   4.513   3.493   1.702 -0.1252  0.1379  0.0968
 4866SOL    HW126231   4.469   3.571   1.668  1.8036  0.7622 -0.9597
 4866SOL    HW226232   4.568   3.526   1.774  1.6286  0.1311 -1.2584
 4867SOL     OW26233   4.275   0.526  12.549 -0.0548 -0.2478  0.1399
 4867SOL    HW126234   4.342   0.587  12.518 -2.2344  1.8105 -0.5535
 4867SOL    HW226235   4.202   0.567  12.502 -1.5790 -0.6491  2.1575
 4868SOL     OW26236   3.971   0.117   2.220 -0.5076 -0.7631  0.2442
 4868SOL    HW126237   3.909   0.054   2.183 -0.0918  0.2500 -2.1614
 4868SOL    HW226238   4.046   0.057   2.224  0.4737  0.4346 -0.0275
 4869SOL     OW26239   4.162   3.438   6.221  0.0315  0.2757  0.5759
 4869SOL    HW126240   4.236   3.499   6.224 -2.9306  3.8283  1.2553
 4869SOL    HW226241   4.100   3.475   6.283  1.4601  1.3224  1.3924
 4870SOL     OW26242   0.937   0.712   6.676 -0.1162 -0.0559  0.5687
 4870SOL    HW126243   1.001   0.744   6.613  0.7449 -2.3984  0.2895
 4870SOL    HW226244   0.869   0.670   6.623 -1.7384  0.6108  2.1036
 4871SOL     OW26245   2.445   0.516   6.024 -0.1916 -0.0637  0.2526
 4871SOL    HW126246   2.518   0.553   5.975 -0.1178 -0.3913  0.1140
 4871SOL    HW226247   2.487   0.514   6.110 -0.3510 -1.3250  0.3023
 4872SOL     OW26248   3.135   0.527   2.126  0.3237 -0.5847  0.0308
 4872SOL    HW126249   3.152   0.433   2.137 -1.9017 -1.1473 -1.4270
 4872SOL    HW226250   3.169   0.568   2.205  1.5611 -1.5785  0.0247
 4873SOL     OW26251   4.526   4.335  17.411  0.4907 -0.2070  0.0545
 4873SOL    HW126252   4.480   4.255  17.435 -0.5645 -0.1853 -1.9532
 4873SOL    HW226253   4.474   4.367  17.338 -0.8022  0.4606  1.2666
 4874SOL     OW26254   1.187   2.415   2.325 -0.0615  0.6110 -0.6540
 4874SOL    HW126255   1.262   2.356   2.316 -0.5297  0.4162 -3.4017
 4874SOL    HW226256   1.143   2.390   2.244  1.0896 -0.4690 -0.9504
 4875SOL     OW26257   0.867   1.201   3.182 -0.5047  0.1962  0.2836
 4875SOL    HW126258   0.858   1.109   3.209  0.3535  0.2914  0.8916
 4875SOL    HW226259   0.800   1.249   3.231 -0.6589  0.0849  0.1816
 4876SOL     OW26260   0.300   0.683   5.397  0.7595  0.1634 -0.0424
 4876SOL    HW126261   0.279   0.702   5.305  1.3010 -1.2206 -0.4415
 4876SOL    HW226262   0.375   0.626   5.381 -1.0538 -2.3621  0.6112
 4877SOL     OW26263   2.933   1.680  11.425  0.2263 -0.0193 -0.2139
 4877SOL    HW126264   2.840   1.695  11.443 -0.0187 -1.6622 -0.0866
 4877SOL    HW226265   2.961   1.636  11.505  1.1182  1.7069  0.4114
 4878SOL     OW26266   0.709   1.667   4.486  0.0812  0.6314  0.7666
 4878SOL    HW126267   0.792   1.656   4.532 -0.0231  0.6653  0.9636
 4878SOL    HW226268   0.648   1.637   4.554  1.7494  0.3702  2.1525
 4879SOL     OW26269   2.440   1.122   4.283 -0.0478 -0.2481 -0.5344
 4879SOL    HW126270   2.435   1.050   4.220  0.4631 -0.3688 -0.4375
 4879SOL    HW226271   2.353   1.109   4.321 -0.1892  2.2463  0.0004
 4880SOL     OW26272   2.287   1.863   3.062 -0.5497 -0.0811  0.1855
 4880SOL    HW126273   2.367   1.814   3.083  0.1919 -0.2366 -3.0382
 4880SOL    HW226274   2.238   1.847   3.143  0.6484 -2.0208  0.5294
 4881SOL     OW26275   0.641   3.099   9.772  0.1662 -0.4673  0.1015
 4881SOL    HW126276   0.612   3.085   9.682 -1.6029 -0.4669  0.6733
 4881SOL    HW226277   0.658   3.012   9.806  0.0336 -0.2233  0.7950
 4882SOL     OW26278   4.207   0.673   8.107  0.0752 -0.5458 -0.7139
 4882SOL    HW126279   4.300   0.671   8.084  0.2891 -0.4950  0.1524
 4882SOL    HW226280   4.186   0.747   8.049  1.9389  0.5294 -0.0051
 4883SOL     OW26281   2.447   0.812   3.187  0.0635  0.1089  0.2450
 4883SOL    HW126282   2.490   0.886   3.143  1.1311 -1.8719 -2.0266
 4883SOL    HW226283   2.479   0.833   3.275  0.8231  1.2171 -0.2938
 4884SOL     OW26284   1.696   3.104   8.232  0.0012  0.0901 -0.5930
 4884SOL    HW126285   1.774   3.137   8.277 -0.3474 -0.5700  0.5080
 4884SOL    HW226286   1.637   3.171   8.268 -0.2405 -1.0984  1.2145
 4885SOL     OW26287   2.576   2.611   6.799  0.0336  0.6625 -0.6782
 4885SOL    HW126288   2.523   2.669   6.744  2.2518  2.8747 -0.4822
 4885SOL    HW226289   2.634   2.675   6.839  1.7238 -1.9948  1.0576
 4886SOL     OW26290   1.405   0.849   2.103  0.2860 -0.0521  0.1184
 4886SOL    HW126291   1.497   0.870   2.117  0.0669 -0.7595  2.6305
 4886SOL    HW226292   1.409   0.834   2.008 -0.1017  0.3205  0.0414
 4887SOL     OW26293   2.530   1.509   2.013  0.2436  0.1898  0.3062
 4887SOL    HW126294   2.506   1.419   2.036  2.2475 -1.0910 -2.6514
 4887SOL    HW226295   2.445   1.538   1.978  1.4897  0.5404 -2.4150
 4888SOL     OW26296   4.575   0.529   2.060  0.1087 -0.7009  0.4025
 4888SOL    HW126297   4.514   0.539   1.987 -0.7602 -1.9529  0.9693
 4888SOL    HW226298   4.659   0.563   2.029 -0.9164  1.4408 -0.0498
 4889SOL     OW26299   3.313   1.020   4.619  0.0243 -0.0726  0.4468
 4889SOL    HW126300   3.319   0.930   4.650 -0.9117 -0.0129  0.8016
 4889SOL    HW226301   3.342   1.015   4.528  0.4670 -0.3547  0.6031
 4890SOL     OW26302   4.037   2.617   8.817  0.2172  0.8880 -0.0337
 4890SOL    HW126303   4.056   2.568   8.737  4.0650  0.2390  1.2772
 4890SOL    HW226304   3.985   2.555   8.868  1.7421  1.3933  2.1484
 4891SOL     OW26305   1.195   2.839  15.324 -0.1236  0.0445  0.2634
 4891SOL    HW126306   1.134   2.772  15.355 -1.3381  0.2954 -1.6530
 4891SOL    HW226307   1.177   2.902  15.394 -2.4966 -1.0152  0.5880
 4892SOL     OW26308   2.073   0.880   3.844 -0.0762 -0.3163 -0.3139
 4892SOL    HW126309   2.084   0.975   3.836  0.3086 -0.0826  3.1693
 4892SOL    HW226310   2.164   0.851   3.844  0.3104  0.8927 -1.2065
 4893SOL     OW26311   3.139   3.008   2.157 -0.3099 -0.0004 -0.0294
 4893SOL    HW126312   3.068   3.011   2.222 -2.4778  0.1354 -2.3968
 4893SOL    HW226313   3.193   3.079   2.190 -0.0323 -1.1045  1.9069
 4894SOL     OW26314   0.719   4.088   7.627 -0.4684  0.7189  0.8736
 4894SOL    HW126315   0.812   4.069   7.614 -0.4535 -0.2387  2.3850
 4894SOL    HW226316   0.700   4.148   7.555  1.3356  0.6969  0.3779
 4895SOL     OW26317   0.312   2.164   0.655 -0.4672 -0.0206  0.3774
 4895SOL    HW126318   0.235   2.184   0.709 -0.3892  0.3444  0.3577
 4895SOL    HW226319   0.375   2.184   0.724 -0.8778  0.4843  0.6102
 4896SOL     OW26320   3.247   4.172  13.677 -0.3374  0.3798 -0.1666
 4896SOL    HW126321   3.223   4.083  13.703  2.6469 -0.2791  0.3043
 4896SOL    HW226322   3.271   4.202  13.765  0.6616 -0.3219 -0.2121
 4897SOL     OW26323   0.726   3.143  17.064 -0.7485  0.0414  0.9684
 4897SOL    HW126324   0.679   3.211  17.113 -1.0393  0.3461  0.2681
 4897SOL    HW226325   0.733   3.079  17.135  1.2137 -1.4613 -0.5834
 4898SOL     OW26326   0.289   2.902   4.569 -0.1778  0.3122 -0.7172
 4898SOL    HW126327   0.354   2.832   4.580  0.4727  1.1291  0.6750
 4898SOL    HW226328   0.252   2.906   4.657 -1.7963 -0.9623 -1.3393
 4899SOL     OW26329   1.242   4.189   3.877  0.0894  0.6366  0.2135
 4899SOL    HW126330   1.332   4.161   3.898 -0.2057 -1.3238 -1.1466
 4899SOL    HW226331   1.255   4.283   3.889  0.0840  0.6968 -0.2734
 4900SOL     OW26332   3.711   1.593  14.919  0.1985 -0.0888 -0.3711
 4900SOL    HW126333   3.700   1.499  14.910  0.7306 -0.2511  0.7458
 4900SOL    HW226334   3.661   1.602  15.000 -1.0303  0.1091 -1.1369
 4901SOL     OW26335   2.340   3.257   9.132  0.0935 -0.6640  0.9746
 4901SOL    HW126336   2.430   3.253   9.099  0.1427 -2.1172  1.2951
 4901SOL    HW226337   2.341   3.188   9.198  2.4427 -1.3353  0.2598
 4902SOL     OW26338   4.163   2.597  13.469 -0.4898 -0.1679 -0.0719
 4902SOL    HW126339   4.255   2.611  13.494 -1.4272  1.7881  2.3196
 4902SOL    HW226340   4.141   2.549  13.549 -2.0872  1.6099  0.5520
 4903SOL     OW26341   0.834   2.751   8.830 -0.2563 -0.2665 -0.6661
 4903SOL    HW126342   0.784   2.707   8.761 -2.0318  1.1395 -0.2798
 4903SOL    HW226343   0.912   2.698   8.814 -0.3363 -0.3287 -0.8578
 4904SOL     OW26344   0.550   1.265   9.328 -0.3874  0.1887  0.6679
 4904SOL    HW126345   0.631   1.315   9.330  0.0017 -0.4671  0.9973
 4904SOL    HW226346   0.568   1.183   9.281  0.1866  0.6173  0.1474
 4905SOL     OW26347   4.283   4.006   2.689  0.3991  0.2480  0.1039
 4905SOL    HW126348   4.252   4.037   2.774 -1.9347 -0.2950 -0.5729
 4905SOL    HW226349   4.212   4.032   2.632  0.0737  0.9989  0.8640
 4906SOL     OW26350   0.743   0.256   3.820 -0.5264  0.0971  0.0987
 4906SOL    HW126351   0.665   0.311   3.829  0.4853  1.1488  2.5231
 4906SOL    HW226352   0.791   0.292   3.895  2.8875 -0.6559 -1.7511
 4907SOL     OW26353   4.065   4.643   1.568  0.4115 -0.0665 -0.9926
 4907SOL    HW126354   3.972   4.642   1.544  0.1589  1.5866 -0.0934
 4907SOL    HW226355   4.068   4.595   1.650 -1.3384  0.8226 -0.4044
 4908SOL     OW26356   3.398   2.055   6.767 -0.3242 -0.5779 -0.8062
 4908SOL    HW126357   3.316   2.077   6.810 -0.1379 -1.8965  0.2584
 4908SOL    HW226358   3.438   1.996   6.832 -1.3767  0.0740  0.4304
 4909SOL     OW26359   1.800   1.113   7.970 -0.2682 -0.1302 -0.0521
 4909SOL    HW126360   1.718   1.140   8.010 -0.4677  0.2736 -0.7291
 4909SOL    HW226361   1.773   1.034   7.922 -0.3736 -0.6314  0.8188
 4910SOL     OW26362   1.520   1.835   2.428  0.0811  0.2319  0.3508
 4910SOL    HW126363   1.571   1.910   2.396 -0.8834  0.4558 -0.6457
 4910SOL    HW226364   1.430   1.867   2.439  0.9911  3.5179 -1.8599
 4911SOL     OW26365   0.408   3.487   5.086 -0.0647  0.3162  0.1763
 4911SOL    HW126366   0.447   3.492   4.998  2.5299  1.4905  1.3914
 4911SOL    HW226367   0.348   3.560   5.071  0.2702  0.5001 -0.2647
 4912SOL     OW26368   3.748   3.943   9.946 -0.1618 -0.1107  0.3751
 4912SOL    HW126369   3.747   3.902   9.859  1.7595  0.0247  0.2786
 4912SOL    HW226370   3.706   3.880  10.004 -0.4851 -0.5792 -0.3696
 4913SOL     OW26371   0.684   1.258  16.177  0.0519 -0.1543 -0.1451
 4913SOL    HW126372   0.592   1.237  16.195  0.2400  1.7196  3.0464
 4913SOL    HW226373   0.700   1.272  16.084 -1.5563 -0.2497 -0.4365
 4914SOL     OW26374   4.185   2.643   0.190  0.2551  0.2992 -0.4189
 4914SOL    HW126375   4.246   2.569   0.192  1.1811  1.0683 -0.9067
 4914SOL    HW226376   4.155   2.645   0.281  1.8020  0.5939  0.0848
 4915SOL     OW26377   3.424   4.666   5.560  0.9098 -0.1715 -0.3532
 4915SOL    HW126378   3.367   4.641   5.632 -0.9729 -2.0191 -2.5133
 4915SOL    HW226379   3.395   4.597   5.501 -2.0390  2.2239 -1.7560
 4916SOL     OW26380   3.289   4.736   4.638  0.7007 -1.0404  0.3154
 4916SOL    HW126381   3.298   4.645   4.669  2.7336 -0.2620  2.0483
 4916SOL    HW226382   3.327   0.047   4.708 -0.2408 -2.3410  1.8189
 4917SOL     OW26383   1.742   3.563   8.774 -0.2755 -0.0525 -0.4040
 4917SOL    HW126384   1.662   3.615   8.773  1.0352  1.9831  0.0161
 4917SOL    HW226385   1.787   3.596   8.695  0.2921  0.8612  0.3025
 4918SOL     OW26386   4.530   2.005   8.112  0.4305 -0.3627 -0.3528
 4918SOL    HW126387   4.571   2.084   8.145  0.2966 -0.7130  0.6372
 4918SOL    HW226388   4.476   1.969   8.182  0.5923 -2.4440 -1.2925
 4919SOL     OW26389   4.170   1.336  14.358 -0.3718  0.3989 -0.5324
 4919SOL    HW126390   4.190   1.290  14.276  0.3266 -2.0583  1.0047
 4919SOL    HW226391   4.239   1.403  14.363 -0.2612  0.3145 -0.9609
 4920SOL     OW26392   1.414   0.220   4.209 -0.9310  0.1070  0.2262
 4920SOL    HW126393   1.479   0.160   4.243 -0.1428  0.5609 -0.4730
 4920SOL    HW226394   1.364   0.233   4.290 -0.6629  0.2408  0.3671
 4921SOL     OW26395   3.274   2.463   4.312  0.0071 -0.1341  0.1037
 4921SOL    HW126396   3.351   2.425   4.271  1.2222  1.5428  0.8073
 4921SOL    HW226397   3.196   2.421   4.278 -0.4399 -0.1980  1.1879
 4922SOL     OW26398   2.252   3.026   2.344  0.0519  0.2794 -0.0467
 4922SOL    HW126399   2.330   2.983   2.378 -1.2062 -1.2929  0.8446
 4922SOL    HW226400   2.291   3.102   2.301  0.5660  1.0811  1.8732
 4923SOL     OW26401   0.119   2.261   4.821  0.1472  0.1905  0.4547
 4923SOL    HW126402   0.115   2.213   4.903 -0.4022 -0.7807 -0.1478
 4923SOL    HW226403   0.035   2.307   4.824 -1.0054 -1.7956 -1.5064
 4924SOL     OW26404   2.870   3.838   1.117 -0.0513  0.0989 -0.0609
 4924SOL    HW126405   2.944   3.892   1.087  0.8492  0.4233  2.7247
 4924SOL    HW226406   2.816   3.860   1.042  0.9812  0.5543 -0.6608
 4925SOL     OW26407   4.255   2.193   4.607 -0.2251 -0.8336  0.1610
 4925SOL    HW126408   4.206   2.274   4.590  0.8340 -0.0056  1.0503
 4925SOL    HW226409   4.246   2.190   4.703 -1.8920 -0.2363  0.0328
 4926SOL     OW26410   2.567   1.471   4.742  0.1009  0.1714 -0.5791
 4926SOL    HW126411   2.651   1.505   4.711  1.2672 -1.7439  0.5072
 4926SOL    HW226412   2.578   1.379   4.718  1.0555  0.5128 -1.4761
 4927SOL     OW26413   3.199   3.613   6.041 -0.4190  0.0074 -0.3518
 4927SOL    HW126414   3.154   3.587   5.961 -0.9784 -0.1884  0.0233
 4927SOL    HW226415   3.245   3.689   6.007 -0.5921  0.3094  0.0843
 4928SOL     OW26416   1.947   1.217   3.576 -0.1383 -0.1538  0.0556
 4928SOL    HW126417   1.935   1.179   3.489 -1.2768 -1.7964  0.9287
 4928SOL    HW226418   1.861   1.206   3.618 -0.5034  1.3259 -0.2834
 4929SOL     OW26419   3.551   1.940   6.960  0.0558  0.3017 -0.0589
 4929SOL    HW126420   3.615   1.873   6.934 -0.6929  0.1446 -1.4833
 4929SOL    HW226421   3.548   1.930   7.055  1.3500  0.1334 -0.0259
 4930SOL     OW26422   3.979   3.818  16.567  0.2652 -0.3650 -0.1936
 4930SOL    HW126423   3.986   3.842  16.475 -1.6785  0.2159 -0.1930
 4930SOL    HW226424   3.938   3.899  16.598  0.7017  0.1307 -0.8983
 4931SOL     OW26425   3.749   4.395   5.232  0.4678 -0.5535  0.1954
 4931SOL    HW126426   3.665   4.385   5.187  0.2386 -0.1273  0.5253
 4931SOL    HW226427   3.753   4.488   5.251  0.9147 -0.5932  0.3021
 4932SOL     OW26428   4.590   3.315  14.893  0.0366 -0.0013  0.1223
 4932SOL    HW126429   4.509   3.362  14.873  0.2397  0.0856 -0.4972
 4932SOL    HW226430   4.551   3.254  14.957  2.5682 -0.8615  0.8361
 4933SOL     OW26431   0.086   4.698  17.152 -0.2294  0.6296  0.7936
 4933SOL    HW126432   0.002   4.657  17.171 -0.6447  2.1635  2.2642
 4933SOL    HW226433   0.106   4.734  17.239  1.0067  0.4135  0.6000
 4934SOL     OW26434   4.218   0.027   1.375 -0.3167  0.0606 -0.4039
 4934SOL    HW126435   4.156   0.053   1.308  0.3827 -0.9120 -1.4417
 4934SOL    HW226436   4.166   4.721   1.440 -1.5224  0.7184 -0.8939
 4935SOL     OW26437   3.667   0.561  15.690 -0.0384 -0.1060 -0.3100
 4935SOL    HW126438   3.761   0.565  15.671 -0.6257  0.2891 -3.1260
 4935SOL    HW226439   3.645   0.634  15.748 -2.2155 -0.0829 -1.1677
 4936SOL     OW26440   3.423   4.114   3.253 -0.0510 -0.3133  0.2655
 4936SOL    HW126441   3.507   4.068   3.253 -0.3699 -0.8785 -5.3147
 4936SOL    HW226442   3.392   4.066   3.330 -0.3192 -2.0420 -0.9081
 4937SOL     OW26443   1.031   3.162   4.099 -0.2071 -0.0686  0.3116
 4937SOL    HW126444   0.962   3.121   4.151 -1.6954  2.4807  0.3022
 4937SOL    HW226445   1.077   3.090   4.055 -2.4244 -0.7881 -0.8205
 4938SOL     OW26446   4.692   1.754   1.504  0.1422 -0.3769  0.7682
 4938SOL    HW126447   4.732   1.831   1.546 -1.5684  0.7033  0.4185
 4938SOL    HW226448   4.601   1.783   1.493  1.0664  2.4735  0.5208
 4939SOL     OW26449   0.166   3.054   5.346 -0.1138  0.1295  0.4551
 4939SOL    HW126450   0.107   3.068   5.272  0.1347  0.0911  0.2535
 4939SOL    HW226451   0.180   3.144   5.378 -0.8300 -0.5885  2.8244
 4940SOL     OW26452   1.202   2.228   4.728 -0.0474 -0.3297 -0.1048
 4940SOL    HW126453   1.162   2.142   4.745 -1.1334  0.6242  2.2081
 4940SOL    HW226454   1.167   2.269   4.807 -0.8715  0.0888 -0.6883
 4941SOL     OW26455   3.829   1.964   6.437 -0.3544 -0.1935  0.0412
 4941SOL    HW126456   3.808   1.946   6.528  0.1287  0.5331  0.2971
 4941SOL    HW226457   3.829   2.060   6.437  0.7977 -0.1908 -0.0164
 4942SOL     OW26458   1.525   0.276   7.974  0.0014  0.5407 -0.2834
 4942SOL    HW126459   1.454   0.263   8.037  1.9264 -2.9361  1.2115
 4942SOL    HW226460   1.574   0.195   7.989  1.5269  1.1423 -2.1082
 4943SOL     OW26461   3.855   1.052   8.216  0.2182  0.1615  0.1360
 4943SOL    HW126462   3.919   1.110   8.175 -1.0632  0.1570 -1.8766
 4943SOL    HW226463   3.881   1.072   8.306  0.1393 -0.9286  0.4096
 4944SOL     OW26464   3.883   0.386   6.742 -0.0716  0.3929 -0.1839
 4944SOL    HW126465   3.790   0.366   6.739  0.3932 -1.7264 -0.4475
 4944SOL    HW226466   3.897   0.448   6.670 -0.3913  1.4062  0.6251
 4945SOL     OW26467   3.966   0.164   7.543  0.0702  0.3744  0.4663
 4945SOL    HW126468   3.892   0.143   7.600 -0.4220  0.1053 -0.2704
 4945SOL    HW226469   3.927   0.235   7.492  0.7337 -0.0261 -0.5973
 4946SOL     OW26470   1.666   0.851   3.575 -0.1706 -0.0229  0.5841
 4946SOL    HW126471   1.577   0.854   3.610 -0.1670  0.6462  0.5269
 4946SOL    HW226472   1.645   0.865   3.482  3.1500  1.1016  0.0084
 4947SOL     OW26473   3.918   4.512   5.989 -0.4433  0.3805  0.4127
 4947SOL    HW126474   3.853   4.528   6.057 -4.9050  1.9474 -4.2342
 4947SOL    HW226475   3.866   4.528   5.910 -1.7473  0.0660  1.2193
 4948SOL     OW26476   0.774   0.599   8.234  0.1661  0.1618  0.4605
 4948SOL    HW126477   0.696   0.626   8.186  2.8590  2.7744 -2.3405
 4948SOL    HW226478   0.781   0.512   8.194  1.1354 -0.6526  2.3653
 4949SOL     OW26479   3.368   0.276   6.635 -0.7454  0.3548  0.2448
 4949SOL    HW126480   3.305   0.302   6.568 -0.3526 -1.9104 -0.9943
 4949SOL    HW226481   3.308   0.238   6.699 -3.0884  1.3238 -1.3765
 4950SOL     OW26482   2.862   1.363  15.455  0.0036  0.1253 -0.2928
 4950SOL    HW126483   2.774   1.394  15.436 -0.2156  1.2105  2.4918
 4950SOL    HW226484   2.850   1.317  15.538 -1.0055 -1.4150 -1.2991
 4951SOL     OW26485   4.222   2.743   6.310  0.4480  0.3658  0.0376
 4951SOL    HW126486   4.265   2.792   6.240  1.0245  0.7714  0.6799
 4951SOL    HW226487   4.131   2.770   6.298 -0.1095 -1.9071 -0.7643
 4952SOL     OW26488   0.086   0.364  13.295  0.0806  0.1988 -0.3341
 4952SOL    HW126489   0.042   0.447  13.275 -3.1570 -1.3238  0.3596
 4952SOL    HW226490   0.011   0.318  13.332 -0.9199  2.0897  0.0294
 4953SOL     OW26491   3.651   4.046   5.339  0.2397  0.2778  0.4993
 4953SOL    HW126492   3.620   4.107   5.272 -0.1885  1.5906  1.8953
 4953SOL    HW226493   3.588   4.047   5.411  0.6787  2.6637  0.8283
 4954SOL     OW26494   2.961   3.669   0.705 -0.3905  0.4634  0.1891
 4954SOL    HW126495   2.973   3.576   0.721 -4.5464  0.2106  1.7090
 4954SOL    HW226496   3.054   3.691   0.695 -0.5559  0.8070 -0.5810
 4955SOL     OW26497   3.435   1.068   8.658 -0.0205 -0.2516 -0.7201
 4955SOL    HW126498   3.483   1.096   8.736  0.6470  2.0645 -1.9279
 4955SOL    HW226499   3.368   1.135   8.646 -1.0774 -1.5897 -2.3084
 4956SOL     OW26500   2.208   0.626   6.858  0.3108  0.0751  0.8427
 4956SOL    HW126501   2.115   0.614   6.839  0.2152 -3.2134  3.2262
 4956SOL    HW226502   2.250   0.539   6.855  1.3899  0.5017  3.4127
 4957SOL     OW26503   2.952   1.736   1.013  0.0292  0.4397  1.0141
 4957SOL    HW126504   2.880   1.757   1.073  1.1548 -2.1993  3.3141
 4957SOL    HW226505   3.008   1.670   1.053 -0.9722 -0.6932  0.5619
 4958SOL     OW26506   2.632   3.008   9.406  0.2103 -0.0434 -0.1841
 4958SOL    HW126507   2.684   2.965   9.474  2.3091  1.3803 -0.9116
 4958SOL    HW226508   2.599   2.932   9.357 -1.0153 -0.6081  1.5378
 4959SOL     OW26509   0.422   3.062   9.036 -0.5319 -0.7349  0.0253
 4959SOL    HW126510   0.374   3.143   9.017 -2.3048 -1.6072  0.7103
 4959SOL    HW226511   0.507   3.102   9.020 -1.1775  0.4040 -0.5870
 4960SOL     OW26512   0.467   1.145   7.200 -0.1961 -0.8058 -0.2103
 4960SOL    HW126513   0.515   1.130   7.118 -0.2442 -1.6253 -0.0917
 4960SOL    HW226514   0.443   1.233   7.172  2.0953  0.0928  0.6659
 4961SOL     OW26515   1.907   3.553  17.601 -0.7794  0.1492  0.2600
 4961SOL    HW126516   1.972   3.494  17.638 -2.9001 -0.9457  2.1948
 4961SOL    HW226517   1.931   3.543  17.509  2.5950  1.4001  0.9739
 4962SOL     OW26518   2.769   3.312   2.794  0.2490 -0.8871 -0.1064
 4962SOL    HW126519   2.680   3.295   2.825  0.1458 -1.1701 -0.5485
 4962SOL    HW226520   2.759   3.388   2.736 -0.7314 -0.1473  1.0157
 4963SOL     OW26521   1.807   4.302  15.201  0.0432 -0.6963  0.3110
 4963SOL    HW126522   1.713   4.286  15.199 -0.2796  1.4611 -1.0972
 4963SOL    HW226523   1.843   4.218  15.172  0.6250 -0.4024  0.1729
 4964SOL     OW26524   4.037   3.408  13.535 -0.5071 -0.0605  0.2498
 4964SOL    HW126525   4.132   3.403  13.528 -0.6173  0.7242 -1.8300
 4964SOL    HW226526   4.015   3.488  13.486 -0.2220 -0.3085 -0.2820
 4965SOL     OW26527   1.038   2.897   7.467  0.2358  0.5822  0.2626
 4965SOL    HW126528   0.964   2.862   7.517  1.8193  0.0921  2.2647
 4965SOL    HW226529   1.049   2.980   7.513  0.7798  1.0407 -0.7031
 4966SOL     OW26530   4.043   4.102   1.552 -0.0255 -0.1650 -0.3481
 4966SOL    HW126531   4.004   4.144   1.476 -1.0988  0.6867  0.6854
 4966SOL    HW226532   4.119   4.154   1.577 -0.0161 -0.2694 -0.1541
 4967SOL     OW26533   1.226   1.868   4.274 -0.4334  0.2480 -0.1859
 4967SOL    HW126534   1.267   1.839   4.193 -1.2876 -0.2852 -0.4220
 4967SOL    HW226535   1.135   1.840   4.263 -0.5193 -0.3967  2.0967
 4968SOL     OW26536   1.466   0.231  12.002  0.2106 -0.2044 -0.0160
 4968SOL    HW126537   1.394   0.182  11.962  0.1530  0.5149 -0.7816
 4968SOL    HW226538   1.428   0.314  11.974 -2.2086 -0.8029  1.5327
 4969SOL     OW26539   3.856   1.127   3.840  0.0543 -0.3549  0.0977
 4969SOL    HW126540   3.780   1.118   3.784 -0.2669  0.3531  0.4204
 4969SOL    HW226541   3.890   1.208   3.804 -1.8398 -0.8003 -2.6512
 4970SOL     OW26542   0.203   3.702   5.867 -0.2947 -0.3583  0.2973
 4970SOL    HW126543   0.253   3.710   5.949  1.8600  0.8372 -1.1213
 4970SOL    HW226544   0.255   3.752   5.804 -0.9306  0.1021  0.1493
 4971SOL     OW26545   3.586   1.572  10.124  0.6561  0.4767  0.3887
 4971SOL    HW126546   3.675   1.539  10.131  0.2026 -0.7902  0.1357
 4971SOL    HW226547   3.552   1.517  10.195 -0.3105  0.2731 -0.2368
 4972SOL     OW26548   2.989   2.139   8.811 -0.2303 -0.3070  0.1941
 4972SOL    HW126549   3.015   2.057   8.769 -1.9216 -1.0736  0.6288
 4972SOL    HW226550   2.950   2.187   8.738  1.8026  2.5802  1.0034
 4973SOL     OW26551   1.024   1.915   2.297 -0.1101  0.1815 -0.0958
 4973SOL    HW126552   1.072   1.959   2.227 -1.0866  0.0092 -0.8805
 4973SOL    HW226553   0.935   1.939   2.270 -0.2199  0.5595  0.5784
 4974SOL     OW26554   0.605   3.676   8.351  0.0186 -0.1286  0.0269
 4974SOL    HW126555   0.627   3.648   8.440  0.6458 -1.7486 -0.6388
 4974SOL    HW226556   0.576   3.767   8.359 -0.4317 -0.2175 -0.5777
 4975SOL     OW26557   2.046   3.102   7.568 -0.2743 -0.2314  0.3007
 4975SOL    HW126558   2.052   3.193   7.596  0.2382  0.9697 -3.7331
 4975SOL    HW226559   2.123   3.063   7.609  1.0512 -0.0729 -2.0587
 4976SOL     OW26560   0.139   1.091   7.613 -0.1830 -0.3542 -0.2390
 4976SOL    HW126561   0.139   1.092   7.709 -2.6252 -1.3975 -0.2325
 4976SOL    HW226562   0.234   1.102   7.608 -0.2251 -1.1525 -2.9652
 4977SOL     OW26563   0.933   4.688   7.431  0.3265  0.8138  0.2218
 4977SOL    HW126564   0.947   0.036   7.402  0.7823  0.7316  0.1869
 4977SOL    HW226565   0.952   4.692   7.525  1.8668  0.8214 -0.0937
 4978SOL     OW26566   0.746   1.808   6.809 -0.1503 -0.3376 -0.0758
 4978SOL    HW126567   0.805   1.734   6.804 -0.4404 -0.7302  2.1275
 4978SOL    HW226568   0.688   1.796   6.735  0.9235  1.0204 -1.1470
 4979SOL     OW26569   0.546   3.616   8.607  1.0568 -0.2581 -0.4038
 4979SOL    HW126570   0.520   3.524   8.608 -0.6833  0.2516  0.6116
 4979SOL    HW226571   0.571   3.627   8.699  2.1380  1.3702 -0.8893
 4980SOL     OW26572   2.383   3.273   0.941 -0.2217  0.1532  0.1208
 4980SOL    HW126573   2.443   3.288   1.014 -0.2657  0.7077  0.0363
 4980SOL    HW226574   2.296   3.297   0.973 -1.4323 -0.9179 -2.3845
 4981SOL     OW26575   4.278   2.663  12.120  0.5203 -0.1165 -0.7314
 4981SOL    HW126576   4.284   2.653  12.215 -1.7603  0.4636 -0.5233
 4981SOL    HW226577   4.299   2.757  12.116  0.1893 -0.1555 -3.2354
 4982SOL     OW26578   2.876   0.265  12.044 -0.0504 -0.4694 -0.1530
 4982SOL    HW126579   2.941   0.226  12.103  2.3350  0.4984 -2.1111
 4982SOL    HW226580   2.926   0.299  11.970 -1.2232 -2.8389 -2.0620
 4983SOL     OW26581   4.000   2.892   4.210  0.2777 -0.1611  0.0002
 4983SOL    HW126582   4.015   2.890   4.304 -1.8074  0.4362  0.3373
 4983SOL    HW226583   4.001   2.798   4.192 -1.5889 -0.2369  0.3293
 4984SOL     OW26584   0.485   4.047   2.529  0.3856 -0.6156 -0.6779
 4984SOL    HW126585   0.531   4.113   2.478 -2.3456  1.6324 -0.2175
 4984SOL    HW226586   0.529   4.065   2.612 -0.7121  1.6256 -0.6009
 4985SOL     OW26587   0.155   1.143   4.192 -0.1163  0.4690  0.2798
 4985SOL    HW126588   0.200   1.111   4.114  0.3827  0.2901  0.6433
 4985SOL    HW226589   0.065   1.136   4.159  0.2017  0.9701 -0.6578
 4986SOL     OW26590   0.546   0.335   7.629 -0.2700 -0.4449  0.2372
 4986SOL    HW126591   0.615   0.269   7.634 -0.7582 -0.7512  3.0254
 4986SOL    HW226592   0.470   0.287   7.660 -1.6920  1.3015 -0.5240
 4987SOL     OW26593   0.116   4.368   0.394 -0.2043  0.3276 -0.0172
 4987SOL    HW126594   0.140   4.459   0.374  2.6074 -0.5680 -0.6748
 4987SOL    HW226595   0.024   4.370   0.370  0.3331 -1.0208 -2.1452
 4988SOL     OW26596   4.733   0.420  14.008 -0.0529  0.1993 -0.0580
 4988SOL    HW126597   0.054   0.440  13.939  0.2850 -0.5264  0.0472
 4988SOL    HW226598   4.659   0.480  13.994  0.5219  1.1367  0.9145
 4989SOL     OW26599   4.375   2.246  17.285  0.9927  0.2110 -0.1260
 4989SOL    HW126600   4.406   2.325  17.330 -1.7606  0.5946  1.1120
 4989SOL    HW226601   4.288   2.281  17.267  0.0052 -0.1637  3.8354
 4990SOL     OW26602   1.385   1.002   7.336 -0.0927 -0.3243  0.0278
 4990SOL    HW126603   1.385   0.959   7.250 -0.6525 -2.3875  1.0566
 4990SOL    HW226604   1.421   1.088   7.313 -3.1993  1.5964  2.3214
 4991SOL     OW26605   2.214   2.214   7.023 -0.1769 -0.1460 -0.4673
 4991SOL    HW126606   2.245   2.126   7.046 -0.4391  0.0081  0.4714
 4991SOL    HW226607   2.257   2.223   6.938  0.9856  1.1084  0.2625
 4992SOL     OW26608   3.294   4.694   4.361  0.2017 -0.2750 -0.5185
 4992SOL    HW126609   3.333   4.607   4.362 -0.9966 -0.8355 -2.1961
 4992SOL    HW226610   3.317   4.710   4.452  1.0137 -3.9625 -0.0853
 4993SOL     OW26611   2.858   2.120   3.135  0.2208 -0.5104 -0.2636
 4993SOL    HW126612   2.765   2.106   3.119  0.6019 -0.6600 -2.3984
 4993SOL    HW226613   2.863   2.110   3.230 -0.8303  1.4484  0.0106
 4994SOL     OW26614   3.962   2.050   5.711  0.3968 -0.0720 -0.0499
 4994SOL    HW126615   4.021   2.026   5.639 -1.4694  1.3384 -2.0662
 4994SOL    HW226616   3.989   1.983   5.773  3.0327 -1.6120 -2.8646
 4995SOL     OW26617   3.290   1.225   7.767 -0.1395  0.5246  0.4248
 4995SOL    HW126618   3.282   1.149   7.709 -0.8107  1.0383 -0.1487
 4995SOL    HW226619   3.379   1.255   7.748  0.4916 -0.0006  2.4427
 4996SOL     OW26620   0.885   0.906   6.326 -0.6395  0.3777  0.2524
 4996SOL    HW126621   0.964   0.952   6.298  0.9739 -1.9191  1.0769
 4996SOL    HW226622   0.823   0.979   6.336 -0.7201  0.0537  2.2090
 4997SOL     OW26623   2.176   4.583  14.241  0.7951  0.2223 -0.0013
 4997SOL    HW126624   2.110   4.546  14.299  0.8373 -0.1071 -0.1607
 4997SOL    HW226625   2.222   4.503  14.213  1.0829  0.1460  0.6861
 4998SOL     OW26626   0.455   0.747   7.049 -0.7557 -0.1229  0.2786
 4998SOL    HW126627   0.493   0.818   6.997 -1.7015 -1.3376 -2.0712
 4998SOL    HW226628   0.509   0.741   7.128 -0.9786 -1.3187  0.3336
 4999SOL     OW26629   0.160   2.511  11.026 -1.2175  0.6287 -0.0310
 4999SOL    HW126630   0.196   2.598  11.011  1.7555 -0.4149  1.0886
 4999SOL    HW226631   0.232   2.460  10.990 -0.5895  1.5698 -0.0977
 5000SOL     OW26632   1.569   4.232   5.378  0.2881  0.4528  0.8169
 5000SOL    HW126633   1.497   4.205   5.320  1.6517 -2.7988  0.6485
 5000SOL    HW226634   1.557   4.165   5.446 -2.3759  0.3606  0.2656
 5001SOL     OW26635   1.430   1.235   8.772 -0.0227 -0.6277 -0.0329
 5001SOL    HW126636   1.380   1.159   8.742 -1.2014  0.3390 -0.5202
 5001SOL    HW226637   1.484   1.266   8.699  0.9016 -1.3092  0.3604
 5002SOL     OW26638   1.419   0.366   7.726  0.2406 -0.1485 -0.3190
 5002SOL    HW126639   1.444   0.357   7.818  1.6413  0.2399 -0.6696
 5002SOL    HW226640   1.398   0.459   7.721  0.6456  0.0421  1.5580
 5003SOL     OW26641   0.080   1.080   5.658 -0.1966 -0.9651 -0.1109
 5003SOL    HW126642   0.079   0.990   5.627  1.1981 -0.9867 -0.0842
 5003SOL    HW226643   0.172   1.102   5.643 -0.6845  1.5491  0.5129
 5004SOL     OW26644   0.850   4.655  11.072 -0.1654  0.1363 -0.3211
 5004SOL    HW126645   0.822   4.581  11.125  4.0047 -1.5674 -0.5092
 5004SOL    HW226646   0.808   4.640  10.988  0.6785 -1.0842 -0.5181
 5005SOL     OW26647   1.540   3.246   7.542  0.0809  0.4935  0.8116
 5005SOL    HW126648   1.545   3.166   7.490 -1.4092  0.5861  0.5178
 5005SOL    HW226649   1.569   3.214   7.627  2.9094  0.0431 -0.3295
 5006SOL     OW26650   0.212   4.514  14.516  0.0771  0.5160  0.3860
 5006SOL    HW126651   0.183   4.572  14.446  0.1084  1.5265  1.2183
 5006SOL    HW226652   0.125   4.513  14.557 -0.8837 -2.2160 -1.6353
 5007SOL     OW26653   0.735   2.123  14.498  0.5482  0.2210 -0.2538
 5007SOL    HW126654   0.706   2.032  14.502 -0.2465  0.4406 -1.1865
 5007SOL    HW226655   0.822   2.103  14.463  0.3955 -0.7887 -0.0590
 5008SOL     OW26656   3.912   1.171  14.153 -0.0297  0.2358  0.0859
 5008SOL    HW126657   3.872   1.120  14.223 -0.9760  1.8506  0.7321
 5008SOL    HW226658   3.893   1.121  14.074 -2.1573 -0.5188  1.0923
 5009SOL     OW26659   1.848   0.223   1.525 -0.3365  0.3623  0.1885
 5009SOL    HW126660   1.912   0.220   1.453 -0.5093  2.0256 -0.0582
 5009SOL    HW226661   1.898   0.279   1.584  0.1338  1.1237 -0.9123
 5010SOL     OW26662   0.845   2.297   9.156 -0.1054  0.6839 -0.2483
 5010SOL    HW126663   0.865   2.295   9.062  0.1264  0.0195 -0.1852
 5010SOL    HW226664   0.758   2.336   9.159 -0.6517 -0.6189  0.8650
 5011SOL     OW26665   1.290   0.384   5.438  0.3533  0.1645  0.5907
 5011SOL    HW126666   1.307   0.472   5.403  1.2185  0.4627  1.7691
 5011SOL    HW226667   1.356   0.328   5.396  1.3951  1.7124  0.1679
 5012SOL     OW26668   0.966   3.088   6.655  0.6447 -0.4153  0.3583
 5012SOL    HW126669   0.916   3.075   6.736  1.7347 -3.6526  0.4777
 5012SOL    HW226670   1.053   3.101   6.692 -0.0754  0.6254  1.6999
 5013SOL     OW26671   1.134   1.877   5.819  0.3035  0.1802 -0.2580
 5013SOL    HW126672   1.102   1.857   5.731 -1.0790 -1.5157  0.6344
 5013SOL    HW226673   1.148   1.971   5.813 -1.8162  0.4857 -0.0804
 5014SOL     OW26674   2.467   3.228  12.512 -0.3241 -0.2612 -0.2610
 5014SOL    HW126675   2.508   3.220  12.598  0.0108  0.8417 -0.3092
 5014SOL    HW226676   2.513   3.304  12.475  0.5812 -0.8089 -0.2420
 5015SOL     OW26677   1.252   0.109   8.455  0.5436  0.9016 -0.0373
 5015SOL    HW126678   1.234   0.202   8.449 -2.2615  0.1780 -2.6582
 5015SOL    HW226679   1.218   0.103   8.544  0.2320 -2.2184 -0.3715
 5016SOL     OW26680   0.896   0.619   6.923 -0.4803 -0.0249  0.2273
 5016SOL    HW126681   0.834   0.692   6.932 -0.5739 -0.0538 -0.1722
 5016SOL    HW226682   0.920   0.639   6.833  0.5824 -1.7803  0.1403
 5017SOL     OW26683   3.663   2.258   4.544 -0.1732 -0.6709  0.3598
 5017SOL    HW126684   3.614   2.226   4.620 -0.7146 -0.2182  0.2023
 5017SOL    HW226685   3.747   2.219   4.567  1.1419  1.6261 -0.5591
 5018SOL     OW26686   0.122   0.810   3.921  0.0708 -0.2817  0.1762
 5018SOL    HW126687   0.121   0.722   3.959 -1.8898 -0.2204  0.2206
 5018SOL    HW226688   0.120   0.781   3.829  3.1771  2.1865 -0.6690
 5019SOL     OW26689   1.415   3.772   1.026 -0.2712 -0.1076 -0.3179
 5019SOL    HW126690   1.493   3.726   0.995 -0.8260 -0.9068 -0.5234
 5019SOL    HW226691   1.371   3.770   0.941  0.3390  0.4372 -0.6438
 5020SOL     OW26692   0.902   3.712   4.726  0.3793  0.7415  0.0786
 5020SOL    HW126693   0.945   3.796   4.745  0.0619  0.7044  0.9923
 5020SOL    HW226694   0.877   3.698   4.817  1.2819 -1.6890 -0.0581
 5021SOL     OW26695   3.383   0.634  17.141  0.2735 -0.0825 -0.5360
 5021SOL    HW126696   3.353   0.709  17.193 -1.9311 -1.1385 -0.2654
 5021SOL    HW226697   3.353   0.660  17.053  2.2285  1.7085 -0.6470
 5022SOL     OW26698   0.377   2.205  12.714 -0.0277 -0.2489  0.4475
 5022SOL    HW126699   0.294   2.253  12.704  0.2861  0.0917 -0.4676
 5022SOL    HW226700   0.347   2.131  12.661 -3.5164  1.0532  0.5461
 5023SOL     OW26701   0.584   2.900   5.480  0.3398 -0.3182  0.1249
 5023SOL    HW126702   0.594   2.912   5.386  1.5975 -2.5485 -0.0224
 5023SOL    HW226703   0.507   2.954   5.497 -0.0930 -1.0742  0.5488
 5024SOL     OW26704   4.507   3.712   0.833 -0.6746  0.0328  0.5298
 5024SOL    HW126705   4.588   3.668   0.808  0.2884  2.2060 -0.1724
 5024SOL    HW226706   4.442   3.648   0.804 -1.3938  0.1375  1.9120
 5025SOL     OW26707   3.691   4.072   3.961 -0.2348  0.5237  0.6799
 5025SOL    HW126708   3.733   4.062   3.876  0.9425 -0.3421  1.3699
 5025SOL    HW226709   3.726   3.997   4.010  1.9433  0.6579 -0.6926
 5026SOL     OW26710   0.483   2.084   8.130  0.1993  0.1576 -0.2325
 5026SOL    HW126711   0.446   2.160   8.084  0.0868  0.7139  0.7706
 5026SOL    HW226712   0.573   2.106   8.150  0.6865 -0.6615 -1.4717
 5027SOL     OW26713   2.983   0.328  16.842 -0.0914 -0.1756  0.1256
 5027SOL    HW126714   3.054   0.381  16.806  0.7524 -0.7318  0.9728
 5027SOL    HW226715   2.922   0.325  16.768  0.7775  1.4756 -0.6493
 5028SOL     OW26716   1.955   2.688   3.609 -0.0420  0.1241  0.1709
 5028SOL    HW126717   1.890   2.639   3.558 -1.0821  1.7282 -0.0475
 5028SOL    HW226718   1.952   2.772   3.563  0.3235  0.1534  0.1963
 5029SOL     OW26719   0.354   0.243  10.226  0.3393 -0.4638 -0.3291
 5029SOL    HW126720   0.429   0.278  10.178  0.6853 -0.9351 -0.1287
 5029SOL    HW226721   0.299   0.318  10.249 -0.2383 -0.8836 -0.3471
 5030SOL     OW26722   2.775   2.831   6.858 -0.4360  0.7441 -0.0200
 5030SOL    HW126723   2.788   2.809   6.951  1.7896 -1.6613 -0.9175
 5030SOL    HW226724   2.864   2.820   6.825 -1.2709 -0.1069 -1.9293
 5031SOL     OW26725   1.107   3.663  11.513 -0.0965  0.2787  0.1859
 5031SOL    HW126726   1.173   3.684  11.580  0.0218 -0.4707  0.2970
 5031SOL    HW226727   1.022   3.666  11.558 -2.0506  0.0076 -3.5214
 5032SOL     OW26728   1.232   3.959   4.897 -0.4122  0.3255  0.0763
 5032SOL    HW126729   1.234   3.874   4.941 -1.5008  1.4201  2.2407
 5032SOL    HW226730   1.298   3.957   4.828  0.8083 -0.8931  1.2806
 5033SOL     OW26731   0.730   3.994   0.140  0.1340  0.2941  0.3302
 5033SOL    HW126732   0.740   4.050   0.063 -0.5897 -1.7299 -1.2334
 5033SOL    HW226733   0.711   4.055   0.211 -0.1724  0.7051 -0.1063
 5034SOL     OW26734   2.123   1.548   5.726 -0.1324 -0.7253  0.5298
 5034SOL    HW126735   2.130   1.453   5.718  2.7457 -0.6988  2.8336
 5034SOL    HW226736   2.116   1.557   5.822 -1.8042 -0.2303  0.3585
 5035SOL     OW26737   3.817   2.818   1.303 -0.1317 -0.3548 -0.1433
 5035SOL    HW126738   3.866   2.883   1.354 -0.6009  0.4108 -0.6789
 5035SOL    HW226739   3.738   2.809   1.355 -1.6504 -1.9423 -2.7354
 5036SOL     OW26740   0.926   0.615   2.977  0.0788 -0.4020 -0.5665
 5036SOL    HW126741   0.952   0.600   3.068 -0.9058 -1.3227 -0.4387
 5036SOL    HW226742   0.918   0.523   2.949 -2.1277 -0.3316 -0.1691
 5037SOL     OW26743   1.939   4.655   4.782 -0.0492 -0.0640 -0.6354
 5037SOL    HW126744   1.915   4.563   4.772 -1.0181  0.2603 -1.2200
 5037SOL    HW226745   2.025   4.657   4.826 -0.6560  0.1675  0.5475
 5038SOL     OW26746   0.997   1.060   2.267  0.5226  0.0099  0.2466
 5038SOL    HW126747   1.007   1.153   2.283 -2.9491  0.1805  1.4863
 5038SOL    HW226748   1.090   1.037   2.271  0.5316  0.3674  2.2389
 5039SOL     OW26749   3.939   3.039   3.318 -0.4330  0.4899  0.5173
 5039SOL    HW126750   3.943   2.951   3.281  2.7779  1.0312 -0.4125
 5039SOL    HW226751   3.873   3.032   3.387 -0.0829 -1.5250  0.6301
 5040SOL     OW26752   3.768   4.661   0.265 -0.1495  0.1054 -0.3801
 5040SOL    HW126753   3.739   0.010   0.276 -1.8355 -0.5017  0.1977
 5040SOL    HW226754   3.707   4.631   0.197 -0.8924 -0.1368  0.3964
 5041SOL     OW26755   2.765   1.480   6.317  0.1450 -0.4434  0.2919
 5041SOL    HW126756   2.701   1.527   6.263  0.2830 -0.6971 -0.0963
 5041SOL    HW226757   2.750   1.509   6.406 -1.1932 -1.7495  0.4963
 5042SOL     OW26758   0.557   1.879   3.212  0.1822 -0.1447  0.1180
 5042SOL    HW126759   0.525   1.860   3.300  1.0619  0.3893  0.5632
 5042SOL    HW226760   0.501   1.822   3.159 -1.2288  1.7245 -0.3826
 5043SOL     OW26761   3.908   2.010   7.304  0.1593  0.6948 -0.0064
 5043SOL    HW126762   3.992   2.045   7.333 -1.0598  2.7553  1.0957
 5043SOL    HW226763   3.853   2.089   7.308  0.1150  0.7516 -1.5809
 5044SOL     OW26764   2.938   2.432   6.144  0.0162 -0.7177  0.4556
 5044SOL    HW126765   2.858   2.425   6.196 -0.4019  2.9855  0.2928
 5044SOL    HW226766   2.909   2.397   6.059  5.8237 -0.2508 -1.6757
 5045SOL     OW26767   2.553   3.278   4.215 -0.0912  0.0683  0.2118
 5045SOL    HW126768   2.645   3.255   4.218 -0.2617 -0.8004 -1.1664
 5045SOL    HW226769   2.511   3.207   4.166 -1.1840  0.2290  0.9039
 5046SOL     OW26770   0.628   2.518  13.544 -0.0130  0.3646  0.4376
 5046SOL    HW126771   0.562   2.579  13.579  0.1031 -0.0448  1.3780
 5046SOL    HW226772   0.666   2.577  13.479  0.0844 -0.2904 -0.0874
 5047SOL     OW26773   3.518   1.685   9.250  0.4509 -0.4986  0.0860
 5047SOL    HW126774   3.591   1.748   9.252  1.0795 -1.2117 -0.2214
 5047SOL    HW226775   3.552   1.611   9.200 -0.6460 -0.4357 -0.7371
 5048SOL     OW26776   1.950   4.035   9.183  0.3698 -0.0847  0.2355
 5048SOL    HW126777   1.860   4.039   9.217  0.3040 -0.0041  0.0501
 5048SOL    HW226778   1.936   3.992   9.099 -0.8522 -1.1045  0.9537
 5049SOL     OW26779   1.776   1.813   2.565  0.4792  0.0466 -0.4362
 5049SOL    HW126780   1.819   1.897   2.548  1.2865 -0.1161  0.7523
 5049SOL    HW226781   1.815   1.774   2.644 -0.2930 -0.2690 -0.2103
 5050SOL     OW26782   3.070   3.294  10.323 -0.1031  0.6906  0.4695
 5050SOL    HW126783   2.998   3.346  10.359 -1.8898 -2.3420  1.2645
 5050SOL    HW226784   3.021   3.227  10.275  0.7133 -1.2139  2.3351
 5051SOL     OW26785   3.580   3.530   0.190 -0.3258 -0.3564  0.2079
 5051SOL    HW126786   3.617   3.480   0.117  0.9998  1.4961 -0.3767
 5051SOL    HW226787   3.520   3.593   0.150  0.7794  0.1586 -0.6247
 5052SOL     OW26788   3.698   2.859   2.081 -0.6865 -0.4827 -0.5374
 5052SOL    HW126789   3.783   2.877   2.040 -0.2312  0.1623  0.6830
 5052SOL    HW226790   3.641   2.857   2.005  1.4164 -0.8239 -2.1039
 5053SOL     OW26791   3.120   3.782  14.044 -0.5355 -0.5855 -0.2149
 5053SOL    HW126792   3.133   3.696  14.004  0.4696  0.0029 -1.1269
 5053SOL    HW226793   3.104   3.761  14.137  0.9105 -2.5870 -0.4154
 5054SOL     OW26794   3.890   4.169   8.608  0.3971 -0.2007  0.2661
 5054SOL    HW126795   3.894   4.207   8.696 -0.2931  0.4697  0.0115
 5054SOL    HW226796   3.877   4.075   8.618 -0.5800 -0.0844  0.0226
 5055SOL     OW26797   2.336   3.383  14.332  0.2618 -0.3233 -0.2808
 5055SOL    HW126798   2.263   3.441  14.356  0.1756 -0.1466 -0.9604
 5055SOL    HW226799   2.339   3.398  14.237  0.8570 -1.2561 -0.4076
 5056SOL     OW26800   0.555   4.225   5.075 -0.0810 -0.4760 -0.5000
 5056SOL    HW126801   0.575   4.257   4.988 -0.2878  1.6731  0.2571
 5056SOL    HW226802   0.493   4.155   5.054  0.7785 -0.9873 -1.3305
 5057SOL     OW26803   4.642   3.727   7.699  0.4348  0.1614  0.6167
 5057SOL    HW126804   4.674   3.817   7.704 -2.5425  1.3101 -0.9565
 5057SOL    HW226805   4.632   3.704   7.791 -0.7150 -0.7504  0.2610
 5058SOL     OW26806   1.288   1.506  13.448  0.2812 -1.0282 -0.0150
 5058SOL    HW126807   1.252   1.423  13.415 -2.4685 -0.0130  0.3822
 5058SOL    HW226808   1.370   1.519  13.400 -1.1872  3.1673 -1.3997
 5059SOL     OW26809   0.484   0.166  16.852  0.1442  0.1918 -0.4230
 5059SOL    HW126810   0.559   0.177  16.794  1.9224 -0.9548  1.6543
 5059SOL    HW226811   0.472   0.256  16.883  0.5434 -0.1204  0.6456
 5060SOL     OW26812   4.215   3.156  13.162  0.0077  0.1245 -0.1663
 5060SOL    HW126813   4.288   3.218  13.155  0.2283 -0.2196 -0.8550
 5060SOL    HW226814   4.248   3.081  13.113  1.8344  0.8378 -0.0507
 5061SOL     OW26815   0.997   2.781   0.305  0.3305  0.2156 -0.1368
 5061SOL    HW126816   1.027   2.741   0.223 -1.3369 -2.5663  0.6419
 5061SOL    HW226817   0.932   2.718   0.335  0.2937  1.2798  2.0216
 5062SOL     OW26818   1.676   1.098   2.352 -0.6488 -0.2670 -0.5844
 5062SOL    HW126819   1.646   1.171   2.296  2.1249  1.2569 -0.0676
 5062SOL    HW226820   1.761   1.087   2.310 -0.8193  0.1456 -1.0428
 5063SOL     OW26821   0.750   2.532   7.851 -0.6488 -0.0056  0.5309
 5063SOL    HW126822   0.795   2.489   7.924 -0.1634 -2.0188 -0.9737
 5063SOL    HW226823   0.738   2.457   7.793  0.4127 -0.9015  1.4608
 5064SOL     OW26824   3.599   2.842   3.668 -0.2659  0.1221 -0.4130
 5064SOL    HW126825   3.596   2.863   3.761 -0.3880  4.7777 -1.4249
 5064SOL    HW226826   3.518   2.794   3.652  0.3559 -0.5335 -1.5427
 5065SOL     OW26827   2.877   1.463   4.938 -0.8282 -0.0749  0.0733
 5065SOL    HW126828   2.867   1.528   4.869 -0.2281  0.6942  0.7029
 5065SOL    HW226829   2.857   1.505   5.022  1.3837  2.6730 -0.7814
 5066SOL     OW26830   0.088   0.829   5.541  0.7795  0.0065 -0.3909
 5066SOL    HW126831   0.013   0.865   5.494  0.6646 -1.0753 -1.0533
 5066SOL    HW226832   0.115   0.756   5.484 -0.9663 -1.0895  0.1612
 5067SOL     OW26833   2.523   2.954  13.418  0.6040  0.3103  0.1382
 5067SOL    HW126834   2.536   3.044  13.389  0.3164  0.5735  0.8268
 5067SOL    HW226835   2.612   2.922  13.402 -0.1918 -0.9485 -1.6616
 5068SOL     OW26836   1.987   3.824  16.841 -0.0943  0.2242  0.2019
 5068SOL    HW126837   1.896   3.845  16.818  0.5267  0.4332 -2.0348
 5068SOL    HW226838   2.008   3.908  16.883  0.8722 -0.2387  0.6255
 5069SOL     OW26839   1.239   0.582  12.194 -0.2632 -0.1971 -0.2802
 5069SOL    HW126840   1.216   0.514  12.257  0.9300 -2.0409 -1.8141
 5069SOL    HW226841   1.271   0.650  12.252 -0.5344 -0.7810  0.5531
 5070SOL     OW26842   0.521   4.665   3.271  0.1256 -0.4360  0.7342
 5070SOL    HW126843   0.469   4.693   3.196 -0.9329 -1.0738  1.2321
 5070SOL    HW226844   0.563   0.005   3.298  1.6038 -0.9466  0.0019
 5071SOL     OW26845   4.737   0.443   4.308  0.0877 -0.3486 -0.0309
 5071SOL    HW126846   4.713   0.396   4.388 -2.1116  1.4132  0.3624
 5071SOL    HW226847   0.001   0.530   4.349 -0.1794  0.5373 -1.8971
 5072SOL     OW26848   4.139   3.767   2.510 -0.3082 -0.0817  0.2267
 5072SOL    HW126849   4.228   3.750   2.478 -0.3739 -2.5755  1.3760
 5072SOL    HW226850   4.138   3.754   2.604  0.4141  1.5231  0.4454
 5073SOL     OW26851   2.959   2.858  12.290 -0.1072 -0.2866  0.7062
 5073SOL    HW126852   2.975   2.946  12.257 -0.7887 -0.3598  0.1738
 5073SOL    HW226853   3.046   2.819  12.294 -0.0071 -0.0796  0.5461
 5074SOL     OW26854   1.945   1.532   3.812  0.2801  0.0260 -0.0519
 5074SOL    HW126855   1.997   1.611   3.827  1.9604 -1.3393  1.3780
 5074SOL    HW226856   1.862   1.573   3.787  0.0095 -0.1270  0.5966
 5075SOL     OW26857   0.112   1.819   8.369 -0.5016 -0.2427  0.1319
 5075SOL    HW126858   0.173   1.883   8.404  1.2133 -0.3772 -2.5567
 5075SOL    HW226859   0.113   1.831   8.274  1.5974 -0.0950  0.1583
 5076SOL     OW26860   4.077   2.359  16.647  0.1325 -0.3257 -0.0513
 5076SOL    HW126861   4.043   2.281  16.690 -0.4155  0.0892  0.2572
 5076SOL    HW226862   3.992   2.402  16.636  0.1494 -0.3986 -0.4872
 5077SOL     OW26863   1.293   4.116   6.747 -0.0748 -0.3777  0.1676
 5077SOL    HW126864   1.329   4.142   6.831 -2.0404 -1.7620  1.4278
 5077SOL    HW226865   1.373   4.084   6.705 -0.4120  0.3307 -1.0168
 5078SOL     OW26866   3.267   1.368   7.038 -0.2769 -0.3347  0.4501
 5078SOL    HW126867   3.340   1.331   6.989 -1.3654 -1.4129 -0.3440
 5078SOL    HW226868   3.300   1.381   7.127  1.0730 -0.8955  0.0323
 5079SOL     OW26869   0.460   4.620   4.353 -0.1021 -0.3220  0.3529
 5079SOL    HW126870   0.455   4.673   4.273  2.6437 -0.6677 -0.0350
 5079SOL    HW226871   0.453   4.537   4.307 -0.6264 -0.6447  1.0202
 5080SOL     OW26872   1.161   2.999   3.314  0.5627  0.0994  0.0376
 5080SOL    HW126873   1.195   2.922   3.269 -1.0910  0.1165 -1.2208
 5080SOL    HW226874   1.176   3.066   3.248  2.7089  0.7614  1.1837
 5081SOL     OW26875   3.862   2.776  13.912  0.2583 -0.0287 -0.2774
 5081SOL    HW126876   3.849   2.686  13.881 -0.5781 -0.1290  0.3506
 5081SOL    HW226877   3.775   2.816  13.905 -0.2140 -1.2420 -1.3526
 5082SOL     OW26878   2.113   2.525  15.658  0.4805  0.0343  0.1608
 5082SOL    HW126879   2.087   2.542  15.749  1.4187 -0.1856  0.4627
 5082SOL    HW226880   2.082   2.605  15.616 -0.8245 -0.1856  0.6997
 5083SOL     OW26881   4.512   3.512   3.537  0.5886  0.5186 -0.1478
 5083SOL    HW126882   4.558   3.469   3.609 -5.5631 -0.5420  3.1887
 5083SOL    HW226883   4.570   3.586   3.521  0.8271  0.1260 -1.0726
 5084SOL     OW26884   0.687   1.392   7.559 -0.4805 -0.0661  0.5369
 5084SOL    HW126885   0.688   1.386   7.464  0.6766  0.2165  0.5227
 5084SOL    HW226886   0.676   1.487   7.571 -1.7049  0.1162 -2.2038
 5085SOL     OW26887   4.034   4.266   6.479  0.1719  0.1120 -0.1499
 5085SOL    HW126888   4.119   4.265   6.435  0.9789  0.7107  1.3565
 5085SOL    HW226889   4.025   4.361   6.484 -0.0756  0.2179 -3.1411
 5086SOL     OW26890   2.066   2.487   8.634 -0.5042 -0.5390  0.2354
 5086SOL    HW126891   2.134   2.469   8.570  0.3787 -0.0665  1.0509
 5086SOL    HW226892   2.057   2.404   8.682 -1.3680  0.7875  2.3693
 5087SOL     OW26893   3.014   1.533  15.634  0.6623  0.2764 -0.2535
 5087SOL    HW126894   3.072   1.462  15.608  0.1146 -0.6079  0.9538
 5087SOL    HW226895   2.937   1.516  15.580  1.3400 -3.1753 -0.1360
 5088SOL     OW26896   3.021   0.795   3.327 -0.5046  0.2626  0.4770
 5088SOL    HW126897   2.974   0.828   3.403 -0.4752  0.7408  0.2867
 5088SOL    HW226898   2.976   0.716   3.299 -1.8475  0.6320  1.5986
 5089SOL     OW26899   4.507   1.383   4.008  0.3589 -0.0952  0.4292
 5089SOL    HW126900   4.467   1.313   3.956  0.0367  0.8017 -0.5409
 5089SOL    HW226901   4.481   1.358   4.096  1.0262  0.6384  0.8422
 5090SOL     OW26902   3.472   0.074   0.819  0.0633  0.0525  0.0669
 5090SOL    HW126903   3.508   0.068   0.907 -0.1061 -1.7361  0.0158
 5090SOL    HW226904   3.450   0.165   0.800  0.2790 -0.0983 -0.9148
 5091SOL     OW26905   2.230   4.476   8.460  0.0070 -0.5323 -0.1477
 5091SOL    HW126906   2.176   4.510   8.389  1.1966 -0.5932 -1.0970
 5091SOL    HW226907   2.230   4.383   8.437  0.0464  0.0272 -2.4279
 5092SOL     OW26908   1.109   4.058   2.309  1.0889  0.3023  0.7826
 5092SOL    HW126909   1.167   4.083   2.237  2.3675  0.3435  1.8148
 5092SOL    HW226910   1.062   4.139   2.329  0.4311  0.2643 -0.5750
 5093SOL     OW26911   3.809   3.643   3.799  0.3912  0.0648  0.3379
 5093SOL    HW126912   3.891   3.650   3.750 -0.3572 -2.2759 -1.2940
 5093SOL    HW226913   3.836   3.665   3.888  0.2399  0.6316  0.2436
 5094SOL     OW26914   1.448   4.053   2.913 -0.0296  0.1825  0.0169
 5094SOL    HW126915   1.356   4.074   2.902 -0.7354 -1.9368  1.9482
 5094SOL    HW226916   1.461   3.983   2.848 -1.7361 -0.7490  0.6697
 5095SOL     OW26917   3.109   1.209  17.145 -0.1491  0.6637 -0.1314
 5095SOL    HW126918   3.178   1.147  17.119 -1.1788 -0.6410  0.2143
 5095SOL    HW226919   3.161   1.285  17.172  3.0184 -1.4086 -0.4200
 5096SOL     OW26920   1.304   1.761   1.961 -0.1975 -0.0658  0.3953
 5096SOL    HW126921   1.241   1.722   1.900  1.9328 -4.1243  0.7180
 5096SOL    HW226922   1.257   1.752   2.044  1.1564 -1.1991  1.0467
 5097SOL     OW26923   2.052   3.360   6.364  0.4618 -0.3432  0.2716
 5097SOL    HW126924   1.964   3.337   6.393  0.2172 -0.6557 -0.7346
 5097SOL    HW226925   2.098   3.281   6.390  0.9705  0.7467  2.7504
 5098SOL     OW26926   0.064   1.194   3.854  0.2809  0.8965 -0.7138
 5098SOL    HW126927   0.147   1.164   3.889  0.6667  3.2118  0.3255
 5098SOL    HW226928   0.003   1.162   3.920 -1.2904  2.5800 -1.3426
 5099SOL     OW26929   0.010   1.718   6.614 -0.4230 -0.6413  0.3771
 5099SOL    HW126930   4.700   1.799   6.617 -1.0304 -1.1271  2.6616
 5099SOL    HW226931   0.000   1.699   6.520  1.3082 -2.8599  0.6685
 5100SOL     OW26932   1.533   3.561  10.559 -0.1140  0.4688  0.3674
 5100SOL    HW126933   1.561   3.496  10.624  0.2754 -0.9591 -1.2319
 5100SOL    HW226934   1.541   3.641  10.610  0.6292  1.5678 -1.4650
 5101SOL     OW26935   2.476   4.726   8.119  0.7423 -0.2805  0.4249
 5101SOL    HW126936   2.394   0.033   8.126  1.7687  1.7032 -1.0390
 5101SOL    HW226937   2.450   4.654   8.061  0.7055  0.5522 -0.6011
 5102SOL     OW26938   0.812   0.288   5.010 -0.9016 -0.8209 -0.2718
 5102SOL    HW126939   0.785   0.252   5.094  0.2404 -1.2281 -0.0673
 5102SOL    HW226940   0.882   0.226   4.988 -0.0327  0.4237 -1.0720
 5103SOL     OW26941   3.632   4.029  16.309 -0.4415 -0.2177 -0.0811
 5103SOL    HW126942   3.582   4.079  16.244  0.5252 -2.7156 -2.7753
 5103SOL    HW226943   3.724   4.041  16.285 -0.9748  1.5177 -1.2264
 5104SOL     OW26944   3.254   4.359  11.728 -0.0374  0.4253 -0.1081
 5104SOL    HW126945   3.335   4.313  11.749 -0.2677  0.5461  1.0770
 5104SOL    HW226946   3.195   4.296  11.769  0.3807 -0.3611 -0.7071
 5105SOL     OW26947   0.233   0.230  16.950 -0.4397 -0.1619 -0.1195
 5105SOL    HW126948   0.270   0.242  17.038 -1.7276 -0.1288  0.4085
 5105SOL    HW226949   0.303   0.187  16.902  0.3323  0.5049  0.4020
 5106SOL     OW26950   2.704   0.015   0.873 -0.6152  0.3639  0.0414
 5106SOL    HW126951   2.713   0.101   0.833 -0.6057  0.9957  1.4100
 5106SOL    HW226952   2.649   0.037   0.948 -0.4761 -0.8828  0.5083
 5107SOL     OW26953   1.471   3.500  12.914 -1.1445 -0.0060  0.1625
 5107SOL    HW126954   1.534   3.568  12.890 -2.0652  0.2141 -1.6523
 5107SOL    HW226955   1.525   3.423  12.927 -0.1703  0.7674  0.6266
 5108SOL     OW26956   0.380   2.576  12.926 -0.2518  0.6108 -0.1710
 5108SOL    HW126957   0.324   2.501  12.948 -1.1847  0.7830 -1.9597
 5108SOL    HW226958   0.411   2.534  12.845 -0.1624 -1.4630  0.9351
 5109SOL     OW26959   0.493   4.153  14.977  0.7331  0.6776  0.4128
 5109SOL    HW126960   0.410   4.166  15.022  0.8177  0.5858  0.5910
 5109SOL    HW226961   0.548   4.194  15.044  1.6363 -0.3460  0.2879
 5110SOL     OW26962   2.475   1.254   5.469 -0.2619 -0.3356  0.1697
 5110SOL    HW126963   2.530   1.305   5.410 -0.1801  0.6289  1.0794
 5110SOL    HW226964   2.391   1.242   5.425  1.0142  0.6072 -2.5355
 5111SOL     OW26965   2.931   2.598   4.457  0.4767 -0.6764 -0.2549
 5111SOL    HW126966   2.935   2.505   4.478  0.9506 -1.0155 -1.8339
 5111SOL    HW226967   2.837   2.614   4.464  0.6881  0.1782  0.6773
 5112SOL     OW26968   0.296   4.369   3.330  0.1160 -0.1831 -0.3224
 5112SOL    HW126969   0.225   4.372   3.266 -0.4387  0.8907  0.3410
 5112SOL    HW226970   0.359   4.307   3.293 -2.3533 -2.1405 -1.2896
 5113SOL     OW26971   2.488   2.504   8.550  0.0811  0.3486 -0.4889
 5113SOL    HW126972   2.532   2.489   8.633  0.3341 -2.5384 -1.1136
 5113SOL    HW226973   2.493   2.599   8.543 -1.5059  0.4345 -0.5268
 5114SOL     OW26974   2.280   1.484   7.735 -0.0868  0.6647 -0.6349
 5114SOL    HW126975   2.281   1.402   7.686 -2.7054  0.4737 -0.4074
 5114SOL    HW226976   2.337   1.471   7.810  0.8443 -0.8287 -1.6143
 5115SOL     OW26977   2.000   2.293  15.574  0.6055 -0.2445 -0.0794
 5115SOL    HW126978   2.053   2.373  15.571 -0.0912  0.1997 -0.6363
 5115SOL    HW226979   1.918   2.327  15.610  0.6458  0.9709 -1.1111
 5116SOL     OW26980   3.520   4.237   8.204 -0.3650 -0.5791 -0.3106
 5116SOL    HW126981   3.541   4.147   8.181 -1.3279 -0.7519 -0.5079
 5116SOL    HW226982   3.527   4.284   8.121 -1.0456  1.1427  0.6068
 5117SOL     OW26983   1.981   4.182   1.249  0.3317 -0.0002  0.2190
 5117SOL    HW126984   1.962   4.114   1.185  0.5448  0.0625  0.0877
 5117SOL    HW226985   2.076   4.192   1.241 -0.0003  1.5717 -1.5902
 5118SOL     OW26986   3.022   3.546   8.131 -0.1949  0.8071 -0.2171
 5118SOL    HW126987   2.938   3.509   8.105  0.1906 -1.4856  1.7916
 5118SOL    HW226988   3.055   3.567   8.043 -1.5693 -2.5497 -1.5057
 5119SOL     OW26989   2.359   4.253   6.125 -0.0496 -0.1622 -0.3358
 5119SOL    HW126990   2.312   4.194   6.066 -2.4406  1.9563 -0.5475
 5119SOL    HW226991   2.398   4.186   6.181  0.4059  0.0242 -0.4247
 5120SOL     OW26992   0.748   1.907   4.364 -0.3210  0.5894  0.4125
 5120SOL    HW126993   0.829   1.942   4.401 -0.4091  0.7759  0.4315
 5120SOL    HW226994   0.737   1.819   4.400 -2.2425  0.4558 -0.5231
 5121SOL     OW26995   3.833   4.395   8.483  0.5112  0.3650 -0.2605
 5121SOL    HW126996   3.852   4.304   8.508 -1.3185 -0.1577 -0.7125
 5121SOL    HW226997   3.817   4.425   8.573 -0.5994 -1.0913  0.0369
 5122SOL     OW26998   4.398   0.573   5.659 -0.3366  0.0575 -0.0268
 5122SOL    HW126999   4.400   0.613   5.745 -0.2376 -0.7567  0.3502
 5122SOL    HW227000   4.441   0.492   5.689  0.0780  1.5327  3.2605
 5123SOL     OW27001   2.525   3.727   1.389  0.5462  0.2554 -0.0018
 5123SOL    HW127002   2.445   3.766   1.353  0.4908 -0.0424 -0.2002
 5123SOL    HW227003   2.567   3.678   1.318  2.9039  2.6228 -0.2177
 5124SOL     OW27004   1.625   0.536   9.561 -0.4923  0.1705  0.2287
 5124SOL    HW127005   1.668   0.450   9.562 -0.8407  0.0072  1.3669
 5124SOL    HW227006   1.691   0.584   9.512  1.8930 -0.5840  2.7242
 5125SOL     OW27007   2.102   2.325   3.511  0.2806 -0.1484 -0.4731
 5125SOL    HW127008   2.136   2.237   3.498 -1.1871 -0.5715 -1.4193
 5125SOL    HW227009   2.050   2.342   3.432 -0.1504 -1.7094 -0.5215
 5126SOL     OW27010   3.936   3.083   8.184  0.6342  0.3605 -0.4263
 5126SOL    HW127011   3.900   3.120   8.265 -0.9414 -2.1495  0.0640
 5126SOL    HW227012   3.984   3.009   8.221 -1.0846 -0.4362  0.2585
 5127SOL     OW27013   2.402   1.986   7.426  0.1275  0.0537  0.4181
 5127SOL    HW127014   2.492   1.968   7.402 -0.7842 -4.6146  0.5222
 5127SOL    HW227015   2.385   1.899   7.462  0.9989 -0.1018  0.4524
 5128SOL     OW27016   4.205   1.380  12.548 -1.0174 -0.3328  0.0418
 5128SOL    HW127017   4.143   1.337  12.488 -1.6195 -0.0027  0.4262
 5128SOL    HW227018   4.218   1.317  12.619 -3.8122 -0.8817  0.0789
 5129SOL     OW27019   1.718   4.223   7.103  0.0670  0.1632  0.5870
 5129SOL    HW127020   1.675   4.152   7.056  0.0518  0.7081 -0.2236
 5129SOL    HW227021   1.745   4.287   7.037  0.6686  1.2687  1.8849
 5130SOL     OW27022   3.747   3.394   4.935 -0.2279 -0.2906 -0.2541
 5130SOL    HW127023   3.807   3.383   4.861  0.6039 -4.1040  0.9662
 5130SOL    HW227024   3.660   3.384   4.897  0.7998  1.2408 -2.9706
 5131SOL     OW27025   0.236   3.536   1.381  0.1033  0.0129 -0.3167
 5131SOL    HW127026   0.242   3.538   1.285 -1.2968  1.9236 -0.3715
 5131SOL    HW227027   0.143   3.513   1.384 -0.4568  2.5838  1.8341
 5132SOL     OW27028   1.952   3.963   8.421  0.0016  0.1301  0.0952
 5132SOL    HW127029   2.030   3.909   8.432  0.0524  0.0292 -0.7803
 5132SOL    HW227030   1.876   3.907   8.440  1.2628 -0.9257  2.1169
 5133SOL     OW27031   2.776   3.497  15.039 -0.3008  0.2797  0.4462
 5133SOL    HW127032   2.681   3.508  15.047 -0.5056 -0.0301 -1.5144
 5133SOL    HW227033   2.774   3.516  14.945 -2.7085  0.7068  0.5940
 5134SOL     OW27034   1.415   1.670   6.437  0.0133 -0.3250  0.0881
 5134SOL    HW127035   1.332   1.696   6.396  1.6188  2.2088 -1.5911
 5134SOL    HW227036   1.440   1.613   6.364  2.7831 -0.9203  1.5188
 5135SOL     OW27037   1.026   1.338   0.805  0.2533 -0.1208 -0.0861
 5135SOL    HW127038   1.020   1.425   0.766 -0.1495 -0.7514 -1.4394
 5135SOL    HW227039   1.104   1.312   0.757  1.0691  3.5501 -0.7490
 5136SOL     OW27040   2.358   0.906   4.494 -0.1438  0.3147 -0.1352
 5136SOL    HW127041   2.282   0.857   4.465  0.3991 -1.5712  1.5928
 5136SOL    HW227042   2.407   0.827   4.517  1.0086  1.6552  2.0896
 5137SOL     OW27043   0.851   1.025  17.709 -0.5361  0.0794 -0.3901
 5137SOL    HW127044   0.878   1.016   0.036 -1.9043 -0.1969 -0.0153
 5137SOL    HW227045   0.854   0.934  17.682 -0.3286 -0.1428  0.3967
 5138SOL     OW27046   2.781   2.539   5.113  0.4806  0.0625  0.0184
 5138SOL    HW127047   2.710   2.584   5.067 -0.4183 -1.9056 -0.5004
 5138SOL    HW227048   2.760   2.446   5.122  1.7820  0.0462  2.7862
 5139SOL     OW27049   0.587   2.331   8.212  0.1308  0.2909 -0.0480
 5139SOL    HW127050   0.663   2.378   8.247  0.0174 -0.2159  0.8447
 5139SOL    HW227051   0.544   2.415   8.191  0.5552  0.8094  1.1571
 5140SOL     OW27052   1.345   2.920   5.710  0.0255 -0.1015 -0.1125
 5140SOL    HW127053   1.268   2.920   5.767 -0.0768 -0.5909 -0.2502
 5140SOL    HW227054   1.319   2.968   5.631 -1.2703  0.0932  0.4452
 5141SOL     OW27055   3.545   2.002   0.218 -0.2320 -0.2244 -0.1534
 5141SOL    HW127056   3.486   2.008   0.144 -0.0097 -1.7567 -0.4728
 5141SOL    HW227057   3.507   1.927   0.264  0.9438 -0.3975  0.5574
 5142SOL     OW27058   1.028   1.493  17.047 -0.3201 -0.7428 -0.8147
 5142SOL    HW127059   0.938   1.462  17.041 -1.3184  1.8880  0.6392
 5142SOL    HW227060   1.028   1.569  16.988  1.9422  1.3690  1.9307
 5143SOL     OW27061   0.789   4.164   3.518 -0.4828 -0.1566 -0.0843
 5143SOL    HW127062   0.800   4.259   3.521  0.1056 -0.1090 -3.0714
 5143SOL    HW227063   0.739   4.141   3.596 -1.4986 -0.7157 -0.8987
 5144SOL     OW27064   4.590   4.535   5.843  0.1913 -0.4277 -0.3772
 5144SOL    HW127065   4.555   4.615   5.883  1.5079  0.5041 -1.0755
 5144SOL    HW227066   4.654   4.511   5.910  0.4121 -0.3278 -0.5522
 5145SOL     OW27067   3.417   1.400  10.387  0.4099  0.1841 -0.8518
 5145SOL    HW127068   3.473   1.439  10.454 -0.7108 -0.0776  0.2358
 5145SOL    HW227069   3.335   1.386  10.434 -0.9503 -0.4779 -3.4047
 5146SOL     OW27070   1.965   3.007  15.189 -0.1264  0.5283 -0.7618
 5146SOL    HW127071   1.954   2.961  15.106 -0.9562 -2.2979  0.9138
 5146SOL    HW227072   1.872   3.014  15.210 -0.5314 -0.3329 -2.2420
 5147SOL     OW27073   2.066   1.577   3.396 -0.0953  0.5188 -0.0509
 5147SOL    HW127074   2.096   1.546   3.482  0.8572 -0.7314 -0.8161
 5147SOL    HW227075   1.973   1.560   3.405 -0.2011  0.6145 -1.0677
 5148SOL     OW27076   4.126   3.766  11.847 -0.5155 -0.1502  0.5846
 5148SOL    HW127077   4.112   3.691  11.905 -1.5170 -0.7717 -0.4632
 5148SOL    HW227078   4.221   3.763  11.835 -0.4648 -2.0372  1.5020
 5149SOL     OW27079   2.077   1.535  12.918 -0.9939  0.1971  0.6451
 5149SOL    HW127080   2.164   1.498  12.901 -0.2183  1.8410  0.9875
 5149SOL    HW227081   2.086   1.580  13.002  5.2768  2.9699 -1.4437
 5150SOL     OW27082   1.688   4.015   4.826 -0.4711 -0.1044 -1.3267
 5150SOL    HW127083   1.626   3.941   4.832 -1.5846  1.0302  1.2842
 5150SOL    HW227084   1.635   4.084   4.867 -3.6637 -3.2685 -0.0811
 5151SOL     OW27085   3.399   1.914   7.619 -0.0906  0.0417  0.7527
 5151SOL    HW127086   3.461   1.968   7.668  0.4425  0.3190 -0.2294
 5151SOL    HW227087   3.452   1.836   7.607  0.0165  0.6015 -2.5723
 5152SOL     OW27088   4.009   4.538   8.338  0.5270 -0.0457  0.0279
 5152SOL    HW127089   4.084   4.483   8.357  0.1728 -0.3584  0.5209
 5152SOL    HW227090   3.944   4.493   8.393  0.9089  0.3937  0.8340
 5153SOL     OW27091   1.099   3.798   1.990 -0.1666  0.6736 -0.0367
 5153SOL    HW127092   1.148   3.719   2.015  0.0013  0.9425  0.4703
 5153SOL    HW227093   1.126   3.797   1.898 -1.6174 -0.7962 -0.4594
 5154SOL     OW27094   1.501   1.946   8.454 -0.1923  0.2794 -0.2197
 5154SOL    HW127095   1.549   1.998   8.390  2.7420  0.8963  2.4452
 5154SOL    HW227096   1.513   1.994   8.536  3.2001  0.4183 -0.8007
 5155SOL     OW27097   0.880   2.017  10.904  0.4849  0.0142  0.0191
 5155SOL    HW127098   0.880   1.922  10.916  0.9627  0.1267  0.8699
 5155SOL    HW227099   0.865   2.023  10.809  1.8313 -0.0748 -0.2044
 5156SOL     OW27100   4.256   3.167  13.471  0.3905 -0.1639 -0.4165
 5156SOL    HW127101   4.160   3.167  13.476  0.3822  1.7091 -0.6843
 5156SOL    HW227102   4.270   3.113  13.393  0.5126 -1.7862  0.7140
 5157SOL     OW27103   1.770   4.589  12.702 -0.3210  0.0126  0.0447
 5157SOL    HW127104   1.732   4.502  12.690  1.3142 -0.5655 -0.8939
 5157SOL    HW227105   1.822   4.578  12.623  1.1372  0.5572  0.9268
 5158SOL     OW27106   0.690   1.928   1.688  0.1656  0.0964 -0.6758
 5158SOL    HW127107   0.633   1.888   1.623 -1.6785  0.5147  0.6930
 5158SOL    HW227108   0.710   1.857   1.749 -2.4394  1.2704  1.5488
 5159SOL     OW27109   3.538   4.208   4.599 -0.1877  0.2644 -0.6467
 5159SOL    HW127110   3.536   4.201   4.504 -0.1412 -2.5302 -0.4416
 5159SOL    HW227111   3.619   4.258   4.611  0.4286 -0.9099  0.0773
 5160SOL     OW27112   1.587   2.523   5.670  0.1003 -0.0690  0.1120
 5160SOL    HW127113   1.524   2.595   5.661 -0.2259 -0.4616 -0.7047
 5160SOL    HW227114   1.551   2.474   5.743 -1.9001  1.5015  0.1811
 5161SOL     OW27115   0.122   1.339   9.032  0.2766  0.1166  0.1930
 5161SOL    HW127116   0.069   1.364   8.956 -1.8667  0.3308  1.7658
 5161SOL    HW227117   0.059   1.301   9.093 -1.5068 -0.7423 -2.1524
 5162SOL     OW27118   1.375   1.867   7.741  0.2311  0.2507  0.1793
 5162SOL    HW127119   1.403   1.777   7.758  0.2277  0.4641  1.3428
 5162SOL    HW227120   1.283   1.869   7.767 -0.2921 -0.7698 -1.6592
 5163SOL     OW27121   4.284   3.552   2.774 -0.0100  0.0298  0.3141
 5163SOL    HW127122   4.298   3.526   2.683 -0.2462  2.5318 -0.4160
 5163SOL    HW227123   4.345   3.621   2.797 -0.3387  0.3309  0.2759
 5164SOL     OW27124   3.585   4.667  17.303 -0.2199  0.3135 -0.9083
 5164SOL    HW127125   3.672   4.692  17.272  0.4839  0.3168  1.1131
 5164SOL    HW227126   3.529   4.649  17.228 -0.6216 -1.1719 -0.2494
 5165SOL     OW27127   2.922   0.837  12.084 -0.3749 -0.0360 -0.1827
 5165SOL    HW127128   2.959   0.922  12.063  0.3390 -0.7490 -1.7775
 5165SOL    HW227129   2.971   0.781  12.025 -1.5425  1.6460 -2.7537
 5166SOL     OW27130   3.503   0.465   8.103 -0.3641  0.1102 -0.2992
 5166SOL    HW127131   3.414   0.480   8.133 -0.3835  1.5947 -1.0817
 5166SOL    HW227132   3.559   0.437   8.176 -0.2139 -0.0138 -0.4589
 5167SOL     OW27133   0.195   2.581   4.937 -0.3183  0.2648 -0.6731
 5167SOL    HW127134   0.187   2.589   5.032 -3.0590  0.5970 -0.9528
 5167SOL    HW227135   0.257   2.508   4.939  0.0221  0.5740  0.2574
 5168SOL     OW27136   4.092   1.830   8.104  0.6668  0.2700  0.3931
 5168SOL    HW127137   4.088   1.857   8.195  2.1551  0.5436  0.3844
 5168SOL    HW227138   4.067   1.908   8.055 -0.0882 -0.4661 -0.3962
 5169SOL     OW27139   1.962   2.042   4.968 -0.6254 -0.0147 -0.1159
 5169SOL    HW127140   1.997   2.049   4.879  0.1629 -0.0200  0.1994
 5169SOL    HW227141   2.045   2.050   5.015 -0.4315 -0.0172 -0.4582
 5170SOL     OW27142   3.494   0.196   4.100  0.4453  0.4630 -0.2896
 5170SOL    HW127143   3.403   0.207   4.073 -0.2031  0.6133  1.9110
 5170SOL    HW227144   3.504   0.288   4.127  2.7184  0.4526 -1.0705
 5171SOL     OW27145   2.537   3.049   7.067  0.4583  0.4076  0.4324
 5171SOL    HW127146   2.443   3.058   7.047  0.0602  0.7561  2.5202
 5171SOL    HW227147   2.533   3.064   7.161 -0.0351  2.0704  0.1421
 5172SOL     OW27148   0.733   2.669  13.328  0.4068 -0.1362 -0.0811
 5172SOL    HW127149   0.821   2.704  13.318  1.3906 -2.2263  1.2742
 5172SOL    HW227150   0.707   2.650  13.238 -3.1206  0.8791  0.7044
 5173SOL     OW27151   3.236   3.365  17.480  0.1977 -0.0397  0.8518
 5173SOL    HW127152   3.165   3.396  17.537 -0.1026 -1.7918  1.4145
 5173SOL    HW227153   3.310   3.357  17.541 -0.2846 -1.1425  1.2780
 5174SOL     OW27154   0.462   4.112   1.197  0.7114  0.6159  0.3467
 5174SOL    HW127155   0.550   4.145   1.217  0.6618  0.0368  1.5021
 5174SOL    HW227156   0.417   4.182   1.149 -0.0393 -0.2723 -0.2390
 5175SOL     OW27157   2.416   4.267   4.307  0.0338 -0.0109  0.0651
 5175SOL    HW127158   2.376   4.351   4.328 -1.8695 -0.8447 -0.1937
 5175SOL    HW227159   2.509   4.287   4.298 -0.0662  0.2673 -0.3056
 5176SOL     OW27160   2.022   4.193   1.607 -0.1936  0.3911  0.4254
 5176SOL    HW127161   1.981   4.276   1.629 -1.2058 -0.1614  0.6570
 5176SOL    HW227162   2.100   4.226   1.565  0.6864 -2.5822 -0.2848
 5177SOL     OW27163   3.803   4.175   3.132  0.2249 -0.3051 -0.2594
 5177SOL    HW127164   3.763   4.252   3.172 -0.3100 -0.3518 -0.7023
 5177SOL    HW227165   3.783   4.105   3.195  0.6253  0.7830  1.0652
 5178SOL     OW27166   3.337   3.691   0.423  0.3517 -0.6479  0.0098
 5178SOL    HW127167   3.415   3.740   0.396  0.5262 -0.8713  0.1127
 5178SOL    HW227168   3.385   3.617   0.461 -1.1275 -0.6517  1.8548
 5179SOL     OW27169   0.414   0.839  13.535 -0.1279  0.1022 -0.5268
 5179SOL    HW127170   0.379   0.863  13.450 -0.1174  2.6505  0.1926
 5179SOL    HW227171   0.339   0.789  13.565  1.7743 -2.5144 -0.0871
 5180SOL     OW27172   4.110   3.777   0.928  0.2680  0.2548 -0.1360
 5180SOL    HW127173   4.017   3.791   0.944  0.2629  0.5364 -0.4326
 5180SOL    HW227174   4.128   3.868   0.905 -0.6713  0.1157 -1.4027
 5181SOL     OW27175   3.025   4.278   8.459 -0.5490 -0.3010  0.1812
 5181SOL    HW127176   3.022   4.332   8.380 -0.3650 -1.3985 -0.5765
 5181SOL    HW227177   3.026   4.189   8.423  1.9174 -0.5496  0.8135
 5182SOL     OW27178   0.562   3.141  12.508  0.1064  0.0505 -0.4306
 5182SOL    HW127179   0.630   3.084  12.473  2.9974  2.3856  1.2824
 5182SOL    HW227180   0.611   3.221  12.529  0.6944  0.1642 -2.2591
 5183SOL     OW27181   0.996   1.341   2.313  0.2403 -0.0118  0.2833
 5183SOL    HW127182   0.937   1.346   2.389  0.9055  1.3255  0.7180
 5183SOL    HW227183   1.052   1.419   2.310  0.1621  0.0267 -0.1336
 5184SOL     OW27184   2.341   0.088   9.521 -0.4004  0.1465  0.0608
 5184SOL    HW127185   2.408   0.149   9.552 -0.1687 -0.2227  0.2836
 5184SOL    HW227186   2.269   0.147   9.500 -3.0568 -2.5994  1.4621
 5185SOL     OW27187   1.535   4.722   9.209  0.1000 -0.4223  0.2484
 5185SOL    HW127188   1.630   4.732   9.218  0.4511 -0.5986 -3.3559
 5185SOL    HW227189   1.547   4.651   9.147 -0.0656  0.4199 -0.7524
 5186SOL     OW27190   3.812   2.208   2.298  0.4044  0.0451  0.4092
 5186SOL    HW127191   3.814   2.239   2.208 -1.0373  0.5772  0.5600
 5186SOL    HW227192   3.892   2.156   2.299  0.7874  0.6179 -0.3073
 5187SOL     OW27193   3.137   3.644  12.742  0.2972  0.0867  0.1858
 5187SOL    HW127194   3.180   3.684  12.818  0.0472  0.5968  0.0637
 5187SOL    HW227195   3.167   3.706  12.675  2.1458  1.6951  2.4895
 5188SOL     OW27196   3.781   1.921  13.122  0.6393  0.1754 -0.4096
 5188SOL    HW127197   3.688   1.898  13.129  0.7632 -0.3624 -0.4982
 5188SOL    HW227198   3.818   1.842  13.162  0.1189 -0.5729 -1.3945
 5189SOL     OW27199   1.186   3.764   4.155  0.1338 -0.1883 -0.5694
 5189SOL    HW127200   1.183   3.855   4.126  1.0265  0.2138  0.5767
 5189SOL    HW227201   1.114   3.722   4.108 -1.4597  1.3793  0.4909
 5190SOL     OW27202   0.682   3.565   5.363  0.1262  0.4728  0.0732
 5190SOL    HW127203   0.594   3.583   5.329  0.4956 -1.4885 -1.8909
 5190SOL    HW227204   0.737   3.562   5.285 -0.0893 -2.0278  0.0165
 5191SOL     OW27205   4.486   1.730  11.050 -0.5074  0.5402 -0.5046
 5191SOL    HW127206   4.542   1.672  11.102 -2.0060 -0.5407 -0.1303
 5191SOL    HW227207   4.506   1.809  11.100  1.9359  1.0187 -2.2058
 5192SOL     OW27208   3.414   3.053   5.148  0.0462 -0.4287 -0.0561
 5192SOL    HW127209   3.471   3.104   5.091 -1.3290  2.3224  1.0045
 5192SOL    HW227210   3.420   2.967   5.107  1.1293 -0.1570 -0.4472
 5193SOL     OW27211   4.091   2.450   4.679 -0.7404 -0.4917 -0.1803
 5193SOL    HW127212   4.067   2.435   4.770  1.2098  0.7860  0.5444
 5193SOL    HW227213   4.009   2.478   4.637 -0.9332 -1.7817 -0.6508
 5194SOL     OW27214   2.474   3.090   1.783 -0.1882 -0.0204  0.0009
 5194SOL    HW127215   2.502   3.011   1.737  4.5663  0.9875  1.1100
 5194SOL    HW227216   2.394   3.067   1.830 -0.0157 -0.1414  0.2372
 5195SOL     OW27217   0.684   2.734   7.634 -0.5531 -0.1100  0.0200
 5195SOL    HW127218   0.624   2.685   7.690 -0.9110 -1.3951 -1.4890
 5195SOL    HW227219   0.622   2.738   7.562 -0.1684  1.3518 -0.2421
 5196SOL     OW27220   0.467   4.043   1.455 -0.1366  0.1766  0.1482
 5196SOL    HW127221   0.450   4.128   1.495  1.0359  0.6516 -0.3369
 5196SOL    HW227222   0.458   4.066   1.362  0.4061 -1.1918 -0.2339
 5197SOL     OW27223   2.337   1.413   4.325  0.4621  0.1289  0.1157
 5197SOL    HW127224   2.322   1.359   4.247  0.4624  1.0130 -0.4940
 5197SOL    HW227225   2.393   1.359   4.381 -0.8704 -1.8765 -0.4620
 5198SOL     OW27226   2.760   2.020   8.050  0.8434 -0.2896  0.5075
 5198SOL    HW127227   2.724   2.021   7.962 -2.6662  4.3581  2.0030
 5198SOL    HW227228   2.756   1.928   8.079  0.2254 -0.1371  0.9152
 5199SOL     OW27229   2.133   3.916   4.003 -0.7563  0.2658  0.2621
 5199SOL    HW127230   2.194   3.956   4.065  0.1144 -1.9618  0.8398
 5199SOL    HW227231   2.070   3.983   3.977  0.3335  1.0750 -0.2827
 5200SOL     OW27232   1.751   4.182   0.892  0.0911  0.2660  0.0715
 5200SOL    HW127233   1.680   4.147   0.945 -0.3596  1.1369  0.0409
 5200SOL    HW227234   1.762   4.264   0.940  0.6479 -0.2284  0.7912
 5201SOL     OW27235   2.694   2.731  16.630 -0.1139 -0.0564  0.6438
 5201SOL    HW127236   2.603   2.739  16.600 -0.0158  1.7102  0.8038
 5201SOL    HW227237   2.695   2.788  16.707 -0.2189  0.5166  0.2252
 5202SOL     OW27238   1.655   2.297   9.068 -0.5862 -0.4484  0.3783
 5202SOL    HW127239   1.617   2.339   8.991  2.7382  0.8439 -0.5687
 5202SOL    HW227240   1.594   2.330   9.134  1.8812  0.2057  2.3444
 5203SOL     OW27241   0.498   3.321   8.531 -0.1122 -0.2717  0.3023
 5203SOL    HW127242   0.464   3.239   8.566 -1.3857  0.4838  0.8294
 5203SOL    HW227243   0.438   3.336   8.459 -2.1997 -0.4838  1.9929
 5204SOL     OW27244   0.374   0.345   8.391  0.0847 -0.3010  0.6051
 5204SOL    HW127245   0.467   0.324   8.403  0.5536  1.7566  0.5729
 5204SOL    HW227246   0.331   0.317   8.472 -0.0109 -2.0435 -0.0330
 5205SOL     OW27247   1.041   3.668   5.147 -0.3924  0.6697 -0.6605
 5205SOL    HW127248   1.112   3.647   5.086 -2.6673  0.0605 -3.0672
 5205SOL    HW227249   0.990   3.588   5.156 -0.8242  0.7517 -2.3949
 5206SOL     OW27250   1.647   1.085   7.044 -0.7588 -0.6190 -0.1289
 5206SOL    HW127251   1.637   1.160   7.103  0.1112 -1.7873  1.5149
 5206SOL    HW227252   1.731   1.049   7.072 -0.9371  0.5991  2.0280
 5207SOL     OW27253   3.204   0.363   4.692  0.2865  0.1593  0.5110
 5207SOL    HW127254   3.281   0.361   4.637  0.7022 -1.0705  1.1469
 5207SOL    HW227255   3.236   0.352   4.782 -1.6320 -1.4072  1.0176
 5208SOL     OW27256   3.540   2.906   4.472  0.1227  0.8786 -0.5897
 5208SOL    HW127257   3.466   2.853   4.443  0.4228  0.2506 -0.2149
 5208SOL    HW227258   3.561   2.949   4.388 -1.4751  1.1433 -0.8492
 5209SOL     OW27259   1.747   0.127   5.284 -0.5643 -0.1745 -0.3029
 5209SOL    HW127260   1.757   0.209   5.334  0.6556 -0.9266  0.6874
 5209SOL    HW227261   1.800   0.069   5.338 -1.8042 -1.2925 -0.2793
 5210SOL     OW27262   3.669   0.301   7.249 -0.3437  0.3897 -0.1544
 5210SOL    HW127263   3.652   0.208   7.241 -1.0412  0.4482  0.6491
 5210SOL    HW227264   3.582   0.341   7.249 -0.8615 -0.7562  2.3735
 5211SOL     OW27265   3.556   1.255  17.389 -0.7751  0.8991 -0.2578
 5211SOL    HW127266   3.568   1.160  17.379 -3.0287  0.7563 -1.4034
 5211SOL    HW227267   3.627   1.303  17.347  0.7526 -0.2285  1.0178
 5212SOL     OW27268   2.722   1.548   4.304 -0.3447 -0.3135 -0.3724
 5212SOL    HW127269   2.696   1.469   4.256 -0.0742 -0.7752  0.2428
 5212SOL    HW227270   2.813   1.542   4.333  0.1493  0.6040 -1.7497
 5213SOL     OW27271   4.300   3.229   3.920 -0.2181 -0.3553 -0.4597
 5213SOL    HW127272   4.345   3.170   3.980 -0.7725  1.5320  1.7980
 5213SOL    HW227273   4.242   3.174   3.868 -1.1455 -0.5134  0.7445
 5214SOL     OW27274   2.527   0.172   4.781 -0.1694  0.5091 -0.1552
 5214SOL    HW127275   2.438   0.203   4.764  0.4578  0.9038 -2.7129
 5214SOL    HW227276   2.571   0.253   4.806  2.2881 -2.3926  4.9315
 5215SOL     OW27277   2.145   1.607  11.716 -0.0202 -0.3005 -0.0903
 5215SOL    HW127278   2.182   1.540  11.660  0.9246  0.6928 -0.6407
 5215SOL    HW227279   2.104   1.544  11.775  0.7400 -0.4961  0.2307
 5216SOL     OW27280   3.442   1.476   2.641 -0.1424  0.5441 -0.3504
 5216SOL    HW127281   3.362   1.523   2.618 -0.2317 -0.1618 -1.5023
 5216SOL    HW227282   3.426   1.388   2.606  2.1115  0.0326 -0.1035
 5217SOL     OW27283   4.070   2.251   1.709  0.3724  0.3215 -0.2844
 5217SOL    HW127284   4.043   2.198   1.784  0.5574  0.3772 -0.1786
 5217SOL    HW227285   4.008   2.228   1.639  2.2522  0.7337 -2.0924
 5218SOL     OW27286   4.709   3.910   1.770  0.2159  0.5579  0.5262
 5218SOL    HW127287   4.698   3.860   1.690  0.0932 -2.0086  2.1457
 5218SOL    HW227288   4.691   4.001   1.747  2.1473  0.9978  0.7626
 5219SOL     OW27289   2.431   3.305   2.604 -0.4525  0.1239  0.4159
 5219SOL    HW127290   2.379   3.345   2.535  0.6063 -0.8796 -0.9687
 5219SOL    HW227291   2.489   3.248   2.553 -3.4779 -1.9561 -0.6924
 5220SOL     OW27292   1.797   4.719   9.276 -0.1092 -0.2966 -0.1751
 5220SOL    HW127293   1.891   4.737   9.285 -0.1383 -0.3838  0.3108
 5220SOL    HW227294   1.800   4.624   9.289  0.1860 -0.3017 -0.2726
 5221SOL     OW27295   4.179   0.583   4.012 -0.1766  0.5025 -0.4044
 5221SOL    HW127296   4.241   0.621   4.074 -1.8169 -0.2153  1.6994
 5221SOL    HW227297   4.096   0.628   4.032 -0.1334 -0.4712  2.0053
 5222SOL     OW27298   1.944   1.660   0.874  0.5396  0.0577 -0.4253
 5222SOL    HW127299   1.883   1.611   0.928 -0.8397  1.7771 -0.4355
 5222SOL    HW227300   1.902   1.651   0.788 -1.9569  2.6284  0.5328
 5223SOL     OW27301   0.740   3.254   4.342 -0.7849  0.0596 -0.0445
 5223SOL    HW127302   0.828   3.287   4.361 -2.2753  2.3187  2.9250
 5223SOL    HW227303   0.764   3.165   4.316  1.3643  0.2108  1.4171
 5224SOL     OW27304   2.149   3.637   1.021 -0.2288  0.2192  0.4419
 5224SOL    HW127305   2.243   3.643   1.005  0.2721  0.2859  3.3375
 5224SOL    HW227306   2.115   3.693   0.951  0.3503 -1.1178 -0.8882
 5225SOL     OW27307   4.278   4.715   3.553 -0.4309  0.1885  0.3244
 5225SOL    HW127308   4.258   4.694   3.645 -1.3211  2.1860  0.5867
 5225SOL    HW227309   4.187   4.719   3.521 -0.5734 -0.0923  0.6925
 5226SOL     OW27310   1.435   4.330  16.486  0.2202  0.6885  0.1129
 5226SOL    HW127311   1.417   4.238  16.506  0.0599  0.8152  0.5637
 5226SOL    HW227312   1.407   4.338  16.395  1.5221 -1.3998 -0.4583
 5227SOL     OW27313   1.130   2.070  15.335  0.0927  0.5122 -0.2223
 5227SOL    HW127314   1.208   2.057  15.281 -0.5135  2.0075 -1.4519
 5227SOL    HW227315   1.073   2.113  15.271  1.0884 -0.2255 -1.6179
 5228SOL     OW27316   3.655   4.615   5.681  0.0499  0.7322  0.1054
 5228SOL    HW127317   3.647   4.520   5.692 -2.5467  0.8796 -0.3942
 5228SOL    HW227318   3.574   4.625   5.631 -0.5577 -2.0605  0.5526
 5229SOL     OW27319   3.720   3.615   4.221  0.1880 -0.6237  0.2641
 5229SOL    HW127320   3.675   3.572   4.293  0.2579 -0.4144  0.4327
 5229SOL    HW227321   3.775   3.545   4.186  1.5048  1.5166 -1.9493
 5230SOL     OW27322   1.424   3.746   9.318 -0.1316 -0.4551  0.1627
 5230SOL    HW127323   1.386   3.771   9.402  0.0550 -0.6308  0.2983
 5230SOL    HW227324   1.396   3.655   9.318  1.7570 -1.0448 -1.7015
 5231SOL     OW27325   4.450   1.141   3.262 -0.6773 -0.5464  0.6817
 5231SOL    HW127326   4.425   1.188   3.342 -1.5339 -0.3560  0.3015
 5231SOL    HW227327   4.386   1.069   3.258 -1.4875  0.2188 -0.1205
 5232SOL     OW27328   4.685   3.027   3.026 -0.8570  0.0044  0.5176
 5232SOL    HW127329   4.637   3.104   3.057 -1.2995 -0.0608 -0.0070
 5232SOL    HW227330   4.659   2.954   3.083 -1.7864  0.1978  0.3345
 5233SOL     OW27331   1.926   4.120   3.299 -0.4584 -0.6823 -0.0837
 5233SOL    HW127332   2.002   4.157   3.345 -0.7217  1.1369 -1.1297
 5233SOL    HW227333   1.933   4.180   3.225  2.9444  2.2999  2.6251
 5234SOL     OW27334   3.743   1.552   9.134  0.2214 -1.1480  0.0520
 5234SOL    HW127335   3.798   1.623   9.100 -0.6035 -0.7088 -0.3693
 5234SOL    HW227336   3.776   1.540   9.223  0.5979 -1.4588 -0.1290
 5235SOL     OW27337   4.165   2.455  17.166 -0.0289 -0.5869 -0.3814
 5235SOL    HW127338   4.197   2.537  17.129 -2.6141  0.5160 -0.1450
 5235SOL    HW227339   4.170   2.403  17.085  1.0591  0.4252 -0.9655
 5236SOL     OW27340   2.696   0.488   0.754  0.6455 -0.0190  0.0244
 5236SOL    HW127341   2.667   0.577   0.776 -1.8081 -0.4450 -1.4471
 5236SOL    HW227342   2.789   0.496   0.774  0.5140  0.3090  0.4918
 5237SOL     OW27343   4.631   4.631   0.142  0.5240  0.3245 -0.0230
 5237SOL    HW127344   4.644   4.698   0.075  0.6260 -2.0232 -2.3496
 5237SOL    HW227345   4.603   4.682   0.218 -0.3821  1.8492 -1.3768
 5238SOL     OW27346   2.317   2.355  11.245 -0.4037 -0.0490  0.6612
 5238SOL    HW127347   2.247   2.313  11.195 -0.3319  0.7608 -0.1285
 5238SOL    HW227348   2.343   2.283  11.302 -1.1014  0.0530  1.0988
 5239SOL     OW27349   3.692   0.084   8.796  0.5702 -0.1817  1.1185
 5239SOL    HW127350   3.623   0.129   8.747  1.7218  1.1996  0.7740
 5239SOL    HW227351   3.738   0.050   8.719 -1.8833 -1.6320  0.2961
 5240SOL     OW27352   0.118   2.116   8.715 -0.2155 -0.2390 -0.3152
 5240SOL    HW127353   0.061   2.153   8.782  0.8545  2.3288 -0.8043
 5240SOL    HW227354   0.058   2.045   8.694  0.1556 -0.5739 -0.2369
 5241SOL     OW27355   1.974   0.249  12.041 -0.8632 -0.2573 -0.2180
 5241SOL    HW127356   1.948   0.163  12.006 -0.8378  1.0984 -3.5837
 5241SOL    HW227357   1.914   0.258  12.114 -1.0681 -2.9146 -0.0431
 5242SOL     OW27358   1.603   4.570   4.824 -0.5245  0.8263  0.1350
 5242SOL    HW127359   1.610   4.649   4.877  1.3277  0.0751  1.0244
 5242SOL    HW227360   1.512   4.546   4.839 -0.4719 -1.0900 -2.6451
 5243SOL     OW27361   2.457   1.549  16.367 -0.5709  0.1688 -0.8039
 5243SOL    HW127362   2.542   1.541  16.410 -2.4804 -0.7931  2.8180
 5243SOL    HW227363   2.477   1.540  16.274  1.2461 -0.8706 -0.3088
 5244SOL     OW27364   3.927   1.063   5.001  0.3433  0.6813  0.0739
 5244SOL    HW127365   3.996   1.002   4.974  0.1189 -1.2162  3.9247
 5244SOL    HW227366   3.866   1.003   5.043  2.1042 -1.9744 -1.0875
 5245SOL     OW27367   3.027   0.095   6.147 -0.2631  0.3768  0.5599
 5245SOL    HW127368   3.050   0.098   6.054 -0.3053 -0.3608  0.5259
 5245SOL    HW227369   3.050   0.004   6.169  2.3520  0.7134 -0.7011
 5246SOL     OW27370   3.671   4.040   3.346  0.4732  0.2202  0.3918
 5246SOL    HW127371   3.637   4.088   3.422 -1.2521 -2.2137  1.1588
 5246SOL    HW227372   3.710   3.959   3.379  0.1947 -0.5225 -1.1410
 5247SOL     OW27373   3.314   4.304   7.856 -0.3126 -0.2352 -0.1738
 5247SOL    HW127374   3.229   4.337   7.827  0.9179  1.5526 -1.7000
 5247SOL    HW227375   3.331   4.359   7.932 -1.6010  1.5095 -1.1544
 5248SOL     OW27376   1.276   0.098   1.887 -0.3622  0.5667  0.2786
 5248SOL    HW127377   1.228   0.015   1.882 -0.9828  1.1214 -2.7693
 5248SOL    HW227378   1.215   0.161   1.925 -0.2733  0.0767  1.2413
 5249SOL     OW27379   1.751   4.042   5.160  0.2940 -0.3210  0.5798
 5249SOL    HW127380   1.828   4.016   5.109 -0.3605  0.5756 -0.8562
 5249SOL    HW227381   1.775   4.031   5.252  0.1002 -0.1247  0.6528
 5250SOL     OW27382   2.636   2.434   2.450 -0.2514  0.2286  0.1540
 5250SOL    HW127383   2.680   2.489   2.514  0.2599  1.3499 -1.1619
 5250SOL    HW227384   2.639   2.351   2.498 -1.0906  0.9662  1.4708
 5251SOL     OW27385   2.866   3.869   2.416 -0.0258 -0.2290 -0.2392
 5251SOL    HW127386   2.806   3.828   2.353  1.4433 -1.3263 -0.9168
 5251SOL    HW227387   2.862   3.811   2.492  0.1633 -0.5655 -0.4848
 5252SOL     OW27388   3.792   3.246   6.479  0.3917  0.1378  0.5746
 5252SOL    HW127389   3.772   3.330   6.438  2.0003  0.7797  1.1469
 5252SOL    HW227390   3.846   3.205   6.411 -0.6524  0.6270 -0.5505
 5253SOL     OW27391   0.168   4.174   7.629 -0.4917  0.2667 -0.1899
 5253SOL    HW127392   0.156   4.269   7.633  1.1860  0.4491  0.6046
 5253SOL    HW227393   0.263   4.169   7.643 -0.8254 -0.6326  1.5956
 5254SOL     OW27394   3.289   1.381   5.127  0.3268 -0.1727  0.2175
 5254SOL    HW127395   3.345   1.458   5.117 -0.7647  0.5232 -0.4797
 5254SOL    HW227396   3.355   1.319   5.159  0.9480  0.5423  0.3160
 5255SOL     OW27397   1.503   1.627   4.087 -0.0682 -0.7243  0.5652
 5255SOL    HW127398   1.537   1.705   4.042  0.0931 -1.2668 -0.2432
 5255SOL    HW227399   1.412   1.625   4.058  0.2775 -1.1132 -0.4931
 5256SOL     OW27400   3.733   2.171   5.777 -0.1416  0.1124 -0.0541
 5256SOL    HW127401   3.680   2.091   5.782  0.4666 -0.3203 -0.5505
 5256SOL    HW227402   3.819   2.131   5.760  0.7050  1.0266  2.1673
 5257SOL     OW27403   0.715   0.132   2.818 -0.0514 -0.1263  0.5608
 5257SOL    HW127404   0.777   0.062   2.838  1.4806  1.0291 -0.1363
 5257SOL    HW227405   0.671   0.102   2.739  1.0420  0.6314 -0.3386
 5258SOL     OW27406   2.619   4.239   3.710  0.3341  0.6104  0.3220
 5258SOL    HW127407   2.537   4.233   3.758  1.1109  0.6773  1.6543
 5258SOL    HW227408   2.644   4.330   3.725  0.5458  0.4587  0.8840
 5259SOL     OW27409   3.039   0.903   7.716 -0.1961 -0.0036 -0.4514
 5259SOL    HW127410   2.966   0.951   7.678 -0.8998  0.5576  1.6051
 5259SOL    HW227411   3.017   0.913   7.808 -0.2820 -0.5449 -0.4122
 5260SOL     OW27412   3.464   0.765   7.696 -0.2201  0.4061  0.2525
 5260SOL    HW127413   3.481   0.750   7.788  0.1218  0.9631  0.2822
 5260SOL    HW227414   3.464   0.676   7.661  1.3735  1.2399 -1.9015
 5261SOL     OW27415   4.505   2.065   7.219  0.5484 -0.2576 -0.0414
 5261SOL    HW127416   4.575   2.121   7.184 -2.3823  3.4921  0.0808
 5261SOL    HW227417   4.550   1.997   7.269  1.1665  0.9969  1.0788
 5262SOL     OW27418   3.145   0.062  10.034 -0.4757 -0.0716  0.1948
 5262SOL    HW127419   3.118   0.077  10.125 -1.6190  1.9942 -0.4852
 5262SOL    HW227420   3.140   4.708  10.029  0.5002 -0.0809 -0.6998
 5263SOL     OW27421   0.605   2.622   3.514  0.1576 -0.5272  0.1901
 5263SOL    HW127422   0.617   2.581   3.429 -0.3171  0.9856 -0.6087
 5263SOL    HW227423   0.599   2.546   3.572 -4.0222  0.0958  0.5169
 5264SOL     OW27424   0.125   2.492  13.057  0.1875  0.4540 -1.0926
 5264SOL    HW127425   0.164   2.544  13.127 -0.1052  0.2002 -0.7423
 5264SOL    HW227426   0.155   2.405  13.083  2.0130  1.0888 -1.1095
 5265SOL     OW27427   3.474   3.209   7.949 -0.2963 -0.1275 -0.3477
 5265SOL    HW127428   3.379   3.210   7.955 -0.2155  0.1749  0.8242
 5265SOL    HW227429   3.505   3.172   8.032 -1.2135  0.9038  0.4447
 5266SOL     OW27430   3.412   1.542   4.590 -0.3934 -0.0815  0.2657
 5266SOL    HW127431   3.410   1.484   4.666 -1.0416  0.2720  0.5168
 5266SOL    HW227432   3.505   1.563   4.581 -1.0479  2.7867  0.4344
 5267SOL     OW27433   0.522   4.190   4.753 -0.1496 -0.2796 -0.3340
 5267SOL    HW127434   0.464   4.124   4.788 -0.3543 -0.1378 -0.4060
 5267SOL    HW227435   0.609   4.157   4.778 -0.7074 -0.9077  0.7472
 5268SOL     OW27436   2.372   0.513   6.472 -0.2506  0.0513  0.0494
 5268SOL    HW127437   2.445   0.466   6.514 -0.4884 -0.1577  0.2264
 5268SOL    HW227438   2.411   0.596   6.445  0.0216  0.3485  1.3649
 5269SOL     OW27439   3.917   0.426  16.300  0.0103  0.0518  0.1875
 5269SOL    HW127440   3.951   0.373  16.228  0.4700  1.9293 -0.9801
 5269SOL    HW227441   3.996   0.454  16.345 -0.2786 -0.8026  1.2209
 5270SOL     OW27442   1.480   0.139   3.877 -0.5898 -0.3737 -0.4274
 5270SOL    HW127443   1.557   0.162   3.824 -2.1640  0.0349 -2.5523
 5270SOL    HW227444   1.515   0.067   3.929  0.7195 -0.4716 -1.4335
 5271SOL     OW27445   0.795   1.604   2.591 -0.1675  0.0697 -0.0686
 5271SOL    HW127446   0.772   1.652   2.671 -0.7802  0.1327 -0.2818
 5271SOL    HW227447   0.890   1.614   2.591 -0.4004  2.2396 -1.7323
 5272SOL     OW27448   3.489   2.248   7.456  0.9715 -0.2373  0.4735
 5272SOL    HW127449   3.453   2.298   7.383 -0.2237  0.3221  1.4528
 5272SOL    HW227450   3.421   2.181   7.454  1.1717 -0.3949 -1.2425
 5273SOL     OW27451   0.480   0.718   8.165  0.3677  0.2442 -0.4463
 5273SOL    HW127452   0.438   0.740   8.082  1.1170 -2.2372 -1.4822
 5273SOL    HW227453   0.415   0.663   8.209  0.6884 -1.3284 -1.9450
 5274SOL     OW27454   3.317   1.094   3.314  0.0981 -0.0532  0.2534
 5274SOL    HW127455   3.239   1.082   3.261 -0.7610  0.4481  1.3934
 5274SOL    HW227456   3.366   1.158   3.262 -0.4549 -0.9387 -1.3284
 5275SOL     OW27457   4.013   3.376   0.006 -0.1375  0.4124 -0.0172
 5275SOL    HW127458   4.070   3.438  17.725  1.3464  0.3681  1.7850
 5275SOL    HW227459   4.057   3.291   0.000 -1.3050 -0.1651 -0.2944
 5276SOL     OW27460   2.233   1.002   7.494 -0.4424  0.3422 -0.0041
 5276SOL    HW127461   2.213   1.059   7.420 -4.2801 -2.2230 -0.9848
 5276SOL    HW227462   2.219   0.919   7.448  2.9273 -0.3550  0.2582
 5277SOL     OW27463   2.870   0.862   3.870  0.1796  0.4744  0.1104
 5277SOL    HW127464   2.914   0.931   3.819 -0.9098  0.5631 -0.6932
 5277SOL    HW227465   2.915   0.780   3.852  1.6471  1.2815  0.0738
 5278SOL     OW27466   0.225   2.026  13.463 -0.2667 -0.2043  0.7099
 5278SOL    HW127467   0.318   2.028  13.481 -0.4210 -0.1017  1.4810
 5278SOL    HW227468   0.190   1.962  13.525 -1.0003 -1.2251 -0.7419
 5279SOL     OW27469   0.477   3.294   5.347 -0.1047  0.2950  0.1407
 5279SOL    HW127470   0.445   3.255   5.265  0.4148 -0.1039  0.1278
 5279SOL    HW227471   0.391   3.320   5.380 -0.2091 -1.4290  1.2072
 5280SOL     OW27472   3.973   0.081   8.608  0.0712  0.5287  0.1068
 5280SOL    HW127473   3.896   0.039   8.568  0.6016  0.4377 -0.8225
 5280SOL    HW227474   3.940   0.170   8.613 -0.3309  0.4991 -2.2017
 5281SOL     OW27475   1.753   4.313   1.287  0.1137 -0.5054 -0.5739
 5281SOL    HW127476   1.823   4.247   1.290  0.1749 -0.4357 -0.4850
 5281SOL    HW227477   1.797   4.378   1.341 -1.2702 -0.9863  1.1122
 5282SOL     OW27478   3.738   0.518   8.895  0.4359  0.1315  0.9038
 5282SOL    HW127479   3.811   0.559   8.849  0.4151  1.5768  2.1814
 5282SOL    HW227480   3.718   0.585   8.960 -1.5462  2.6135 -2.2406
 5283SOL     OW27481   1.066   2.335   2.845 -0.5183 -0.5927 -0.0232
 5283SOL    HW127482   1.000   2.345   2.777 -2.5525 -1.0343  1.9026
 5283SOL    HW227483   1.135   2.393   2.812  0.3184 -1.3364  0.3881
 5284SOL     OW27484   4.014   2.806  12.198 -0.3064  0.8243  0.0155
 5284SOL    HW127485   4.043   2.729  12.149  1.7114  2.5655 -1.5309
 5284SOL    HW227486   3.981   2.758  12.274 -0.3264 -0.1570 -0.6044
 5285SOL     OW27487   4.252   0.470  17.731  0.6614 -0.4233  0.1682
 5285SOL    HW127488   4.290   0.450   0.053  0.1611 -0.9078  0.2788
 5285SOL    HW227489   4.327   0.516  17.695  0.4285  0.4414  0.7977
 5286SOL     OW27490   3.087   3.740   8.975  0.4463 -0.2623 -0.9386
 5286SOL    HW127491   3.088   3.792   8.894  1.3266  1.7087  0.3385
 5286SOL    HW227492   3.009   3.774   9.020  0.5095  0.7050 -1.5519
 5287SOL     OW27493   4.599   0.893   2.407  0.2214 -0.4192 -0.1314
 5287SOL    HW127494   4.544   0.872   2.483 -1.1270 -2.5101 -1.6785
 5287SOL    HW227495   4.589   0.814   2.353  1.5497 -0.4665 -0.3014
 5288SOL     OW27496   3.065   2.642   6.027 -0.1136  0.3635  0.4558
 5288SOL    HW127497   3.033   2.565   6.074 -0.9031  1.5712  1.8816
 5288SOL    HW227498   3.054   2.710   6.093  1.6444  2.2866 -1.2464
 5289SOL     OW27499   2.643   3.797   5.970  0.0151 -0.4510 -0.1790
 5289SOL    HW127500   2.671   3.720   5.920 -2.8121 -1.3289 -0.3838
 5289SOL    HW227501   2.678   3.767   6.054  3.0484  3.5729 -0.0013
 5290SOL     OW27502   2.054   2.302  16.972  0.3999  0.0366  0.0886
 5290SOL    HW127503   2.081   2.230  17.028  0.7490 -0.2093 -0.3982
 5290SOL    HW227504   1.959   2.297  16.984  0.3423  0.9612  0.0268
 5291SOL     OW27505   2.884   0.021   2.299  0.7086 -0.4137 -0.5092
 5291SOL    HW127506   2.914   0.072   2.223  0.0055 -0.2748 -0.6895
 5291SOL    HW227507   2.937   4.684   2.314 -0.0417 -0.7139  0.5666
 5292SOL     OW27508   3.610   4.276   7.925  0.1175 -0.4866  0.0839
 5292SOL    HW127509   3.615   4.276   7.830  2.4156 -1.6085  0.1897
 5292SOL    HW227510   3.653   4.193   7.947 -0.3439 -0.7332  0.0511
 5293SOL     OW27511   3.057   3.286   7.843 -0.2240 -0.1044 -0.6688
 5293SOL    HW127512   3.144   3.283   7.884 -0.4069  0.1007 -0.2659
 5293SOL    HW227513   3.018   3.212   7.889 -0.3343 -1.2480 -2.6324
 5294SOL     OW27514   2.473   1.250   2.073 -0.3759 -0.2438 -0.7760
 5294SOL    HW127515   2.515   1.184   2.017 -1.1348 -1.5978  0.2530
 5294SOL    HW227516   2.382   1.235   2.048 -0.2654  1.0129 -1.9501
 5295SOL     OW27517   1.343   4.503   5.116  0.1912 -0.6091  0.4995
 5295SOL    HW127518   1.420   4.462   5.156 -0.2513 -1.2638  0.6805
 5295SOL    HW227519   1.332   4.577   5.175  0.3917 -0.0103 -0.2065
 5296SOL     OW27520   0.932   3.100   2.136 -0.0196 -0.4417 -0.1075
 5296SOL    HW127521   0.888   3.181   2.164 -0.5812 -0.5298 -0.7367
 5296SOL    HW227522   0.863   3.035   2.145  0.4033 -0.6864  1.3346
 5297SOL     OW27523   1.805   1.286  13.898 -0.2139  0.1263  0.4610
 5297SOL    HW127524   1.799   1.301  13.804 -0.8068 -0.8444  0.3408
 5297SOL    HW227525   1.883   1.337  13.918  1.7219 -2.1611 -1.3255
 5298SOL     OW27526   3.932   1.192   9.704 -0.3776  0.1448 -0.1352
 5298SOL    HW127527   4.026   1.178   9.696 -0.3421  0.2236  0.1660
 5298SOL    HW227528   3.903   1.109   9.665  0.5404  0.2358 -1.0162
 5299SOL     OW27529   1.201   1.550   5.653  0.3856 -0.1083  0.1497
 5299SOL    HW127530   1.289   1.584   5.638  0.5744 -1.3324 -1.5504
 5299SOL    HW227531   1.146   1.628   5.650 -0.9957 -1.0309  1.2314
 5300SOL     OW27532   4.587   4.444   1.764 -0.2839 -0.8514  0.1428
 5300SOL    HW127533   4.643   4.515   1.796  0.5664 -1.4257 -0.0658
 5300SOL    HW227534   4.628   4.365   1.800 -0.0636 -1.2493 -0.9871
 5301SOL     OW27535   2.803   0.314   1.547 -0.3939  0.2428  0.3104
 5301SOL    HW127536   2.875   0.368   1.579 -1.8994  1.5128  1.5832
 5301SOL    HW227537   2.755   0.376   1.491 -0.0036 -1.1565 -1.5551
 5302SOL     OW27538   0.453   2.852   8.427 -0.4161  0.3993  0.1479
 5302SOL    HW127539   0.457   2.923   8.492 -0.8663  0.6141 -0.0567
 5302SOL    HW227540   0.452   2.771   8.476  2.3435 -0.3580 -1.0239
 5303SOL     OW27541   1.863   1.905   6.557  0.4071 -0.7573  0.1778
 5303SOL    HW127542   1.818   1.985   6.584 -0.7848 -1.0846 -0.8495
 5303SOL    HW227543   1.820   1.893   6.473  0.3547 -1.5878  0.3254
 5304SOL     OW27544   1.720   3.414   6.339  0.6888 -0.5410 -0.3423
 5304SOL    HW127545   1.767   3.354   6.398 -2.1631 -0.9141  1.5743
 5304SOL    HW227546   1.633   3.374   6.348  0.7418 -0.7722 -0.9274
 5305SOL     OW27547   1.511   0.045   6.758  0.0214 -0.2961 -0.1429
 5305SOL    HW127548   1.575   0.070   6.825  0.5170  0.2244 -0.8076
 5305SOL    HW227549   1.551   4.706   6.724 -0.6746  0.5783 -2.9880
 5306SOL     OW27550   2.589   2.122   4.137  0.2582 -0.2719  0.5071
 5306SOL    HW127551   2.571   2.183   4.065 -0.9216 -0.7985  0.3527
 5306SOL    HW227552   2.636   2.175   4.202 -2.1256  1.3099  0.9442
 5307SOL     OW27553   0.600   3.451   7.060 -0.3031 -0.2830  0.3321
 5307SOL    HW127554   0.626   3.519   7.122 -1.0459 -0.9120  1.3353
 5307SOL    HW227555   0.661   3.382   7.088  1.3633  0.7855 -0.6749
 5308SOL     OW27556   0.390   0.031   4.590  0.4072 -0.3204 -0.1798
 5308SOL    HW127557   0.387   4.726   4.507 -3.2895  0.8789 -0.7455
 5308SOL    HW227558   0.479   0.032   4.625  0.7381 -0.7791 -1.0287
 5309SOL     OW27559   2.501   4.212   9.428 -0.6873  0.0791  0.2180
 5309SOL    HW127560   2.458   4.239   9.510  1.3790  1.0550  0.9762
 5309SOL    HW227561   2.431   4.248   9.373 -0.9176  0.5484  0.8234
 5310SOL     OW27562   3.086   1.238   4.051  0.8293  0.0762  0.0138
 5310SOL    HW127563   3.155   1.302   4.067 -0.2070  0.8401  1.4094
 5310SOL    HW227564   3.124   1.169   4.107  0.7660 -0.1961 -0.2783
 5311SOL     OW27565   1.504   1.261   7.331  0.0455 -0.3706  0.3546
 5311SOL    HW127566   1.514   1.325   7.261 -0.2700 -1.1931 -0.4411
 5311SOL    HW227567   1.576   1.293   7.385  0.0627 -1.0933  0.7552
 5312SOL     OW27568   0.351   2.965   7.931  0.0523 -0.2027  0.1433
 5312SOL    HW127569   0.436   3.006   7.949  0.6308 -1.1742 -0.3868
 5312SOL    HW227570   0.328   3.007   7.849  0.4878 -1.3488 -0.5712
 5313SOL     OW27571   0.876   1.543   5.800  0.2683 -0.0894 -0.4127
 5313SOL    HW127572   0.840   1.519   5.714 -1.0884 -1.9440  0.6962
 5313SOL    HW227573   0.805   1.600   5.831 -0.3092 -0.4519 -1.0503
 5314SOL     OW27574   3.642   2.166   6.651 -0.3487 -0.1882 -0.5621
 5314SOL    HW127575   3.698   2.174   6.727  0.1497  2.4366 -1.2097
 5314SOL    HW227576   3.562   2.132   6.692  0.6967 -1.3586  0.4806
 5315SOL     OW27577   2.265   1.316   5.292 -0.1579  0.3711  0.0467
 5315SOL    HW127578   2.172   1.327   5.312  0.1158  0.9870  1.0008
 5315SOL    HW227579   2.296   1.406   5.304  3.5176 -0.7497 -1.0870
 5316SOL     OW27580   4.296   4.633   7.292 -0.0331 -0.1082  0.3447
 5316SOL    HW127581   4.205   4.646   7.268  0.3734  0.2059 -1.0072
 5316SOL    HW227582   4.307   4.539   7.308  0.9269  0.1310  1.1314
 5317SOL     OW27583   0.922   4.604  11.807 -1.0815  0.1600 -0.2042
 5317SOL    HW127584   0.950   4.675  11.865 -1.9908  0.2211  0.1606
 5317SOL    HW227585   0.830   4.608  11.832 -1.0024 -2.3378  0.4397
 5318SOL     OW27586   0.753   2.033   2.581 -0.2679 -0.9021 -0.1951
 5318SOL    HW127587   0.849   2.039   2.574 -0.3974  1.7530  0.4091
 5318SOL    HW227588   0.737   2.112   2.632 -1.3051 -0.5839 -1.0224
 5319SOL     OW27589   4.184   0.981   3.948 -0.1255 -0.2937  0.0837
 5319SOL    HW127590   4.230   0.952   3.869 -0.5075  0.8558 -0.5617
 5319SOL    HW227591   4.111   1.028   3.906 -0.3258 -1.2543 -0.6511
 5320SOL     OW27592   2.657   4.430   2.677 -0.4379 -0.0526 -0.2079
 5320SOL    HW127593   2.602   4.506   2.658 -2.6981 -2.5470 -3.6148
 5320SOL    HW227594   2.684   4.448   2.767  0.0028 -0.0930 -0.3293
 5321SOL     OW27595   0.881   3.060  16.528 -0.0607 -0.3815 -0.2602
 5321SOL    HW127596   0.922   2.976  16.552  2.3648  0.6986 -0.5866
 5321SOL    HW227597   0.787   3.043  16.527  0.0598 -1.0981  1.4379
 5322SOL     OW27598   0.263   4.340  14.978  0.2726 -0.2274 -0.1417
 5322SOL    HW127599   0.271   4.435  14.976 -0.2835 -0.2671 -3.4129
 5322SOL    HW227600   0.215   4.331  14.896  0.6434  0.0868 -0.3961
 5323SOL     OW27601   4.246   4.126   6.939  0.3933 -0.5195  0.3278
 5323SOL    HW127602   4.309   4.193   6.961  0.4902 -0.7744  0.8307
 5323SOL    HW227603   4.246   4.130   6.843  0.9210 -0.6167  0.3285
 5324SOL     OW27604   0.826   2.235   0.261 -0.1119 -0.0879 -0.2550
 5324SOL    HW127605   0.777   2.254   0.341  1.5249 -1.1876  0.9976
 5324SOL    HW227606   0.764   2.260   0.192  0.4358 -0.9074 -1.0435
 5325SOL     OW27607   2.472   3.312   8.511 -0.0893 -0.0837  1.1753
 5325SOL    HW127608   2.430   3.382   8.460 -2.0865 -1.1176  1.3883
 5325SOL    HW227609   2.465   3.359   8.594  0.7248  1.6936  0.2281
 5326SOL     OW27610   0.598   3.814   5.562  0.2743  0.3110  0.3344
 5326SOL    HW127611   0.606   3.766   5.645 -0.9167 -0.3707  0.0611
 5326SOL    HW227612   0.598   3.740   5.501  0.0031  2.5361 -2.3195
 5327SOL     OW27613   3.021   0.129   0.663 -0.1018  0.3112 -0.3384
 5327SOL    HW127614   2.983   0.043   0.644 -2.3101  0.5988  2.7787
 5327SOL    HW227615   3.081   0.110   0.735 -1.2764 -1.7572  0.0845
 5328SOL     OW27616   1.475   3.623  11.155 -0.4139 -0.7433  0.0237
 5328SOL    HW127617   1.379   3.625  11.151 -0.4863  0.4603  2.1385
 5328SOL    HW227618   1.496   3.702  11.204  0.4224 -0.2606 -1.1128
 5329SOL     OW27619   3.253   3.041   1.452 -0.4348  0.1827 -0.2915
 5329SOL    HW127620   3.164   3.010   1.472  0.0204 -0.1209  1.2572
 5329SOL    HW227621   3.291   2.990   1.524  0.0114  0.9780  0.0433
 5330SOL     OW27622   1.481   3.452   9.539 -0.3087  0.2166  0.0923
 5330SOL    HW127623   1.553   3.411   9.589 -1.1440  1.1009  2.0295
 5330SOL    HW227624   1.419   3.379   9.537 -1.5811  1.3026  0.2489
 5331SOL     OW27625   3.639   0.352  17.084  0.1254 -0.9894  0.4548
 5331SOL    HW127626   3.596   0.337  17.000  1.6053 -0.0861 -0.4760
 5331SOL    HW227627   3.687   0.270  17.093  3.9537  1.3328  1.1634
 5332SOL     OW27628   0.933   2.053  10.607  0.5974 -0.2294 -0.7611
 5332SOL    HW127629   0.918   2.140  10.645  2.0073  0.8290 -2.6129
 5332SOL    HW227630   0.850   2.039  10.562  0.5484  0.9039 -1.0351
 5333SOL     OW27631   1.730   0.986   4.433  0.6548 -0.3154 -0.0386
 5333SOL    HW127632   1.720   1.046   4.507  0.3410  0.7934 -0.9587
 5333SOL    HW227633   1.798   1.035   4.386 -1.1105  2.5248  0.3859
 5334SOL     OW27634   3.053   2.690   1.708  0.7815  0.3171 -0.2315
 5334SOL    HW127635   3.033   2.738   1.628 -1.7237 -0.1820  0.1074
 5334SOL    HW227636   3.032   2.755   1.775  0.4776 -1.5140  1.4596
 5335SOL     OW27637   3.212   4.602   3.796 -0.1143  0.5412 -0.0916
 5335SOL    HW127638   3.232   4.511   3.822 -1.3915  0.0230 -0.9638
 5335SOL    HW227639   3.189   4.589   3.705  0.0678 -1.2073  0.0945
 5336SOL     OW27640   1.149   2.210  14.174 -0.3682 -0.1905  0.6201
 5336SOL    HW127641   1.172   2.164  14.093  0.7266  0.8674  0.3351
 5336SOL    HW227642   1.058   2.233  14.156  0.1794  2.1256  0.7717
 5337SOL     OW27643   3.087   2.962   8.179 -0.2119 -0.0499 -0.4939
 5337SOL    HW127644   3.105   3.027   8.247 -0.9809  0.4185 -0.7445
 5337SOL    HW227645   2.995   2.979   8.161 -0.0563  0.3591 -0.9045
 5338SOL     OW27646   3.713   0.582   8.262  0.4299  0.1007 -0.0469
 5338SOL    HW127647   3.781   0.633   8.306 -0.0213 -1.6822  2.6693
 5338SOL    HW227648   3.639   0.642   8.263  0.4833  0.1573  0.2798
 5339SOL     OW27649   1.483   1.644   9.167  0.4665  0.2049  0.1528
 5339SOL    HW127650   1.444   1.652   9.080  0.6166  0.6985  0.1345
 5339SOL    HW227651   1.447   1.725   9.202 -1.0900 -0.8743  1.0494
 5340SOL     OW27652   1.451   0.674   4.023 -0.2078 -0.3325 -0.4447
 5340SOL    HW127653   1.394   0.701   4.095  0.1991 -0.6966  0.0151
 5340SOL    HW227654   1.443   0.579   4.027 -0.5307 -0.2934 -0.1369
 5341SOL     OW27655   4.355   2.778  13.652 -0.3737  0.3622 -0.4006
 5341SOL    HW127656   4.359   2.842  13.581  0.2598  1.8647  0.9848
 5341SOL    HW227657   4.425   2.814  13.706  1.8646 -0.8723 -2.4117
 5342SOL     OW27658   3.101   3.978   2.317 -0.0328 -0.0978  0.2946
 5342SOL    HW127659   3.080   4.062   2.357  0.4274 -0.3957  1.1671
 5342SOL    HW227660   3.035   3.926   2.363 -0.9404  1.4944  0.7990
 5343SOL     OW27661   3.129   1.172   7.432  0.1059 -0.1314  0.1921
 5343SOL    HW127662   3.166   1.103   7.488 -1.6007  0.2208  1.7140
 5343SOL    HW227663   3.111   1.124   7.351  0.1912  1.3925 -0.7264
 5344SOL     OW27664   3.287   2.697  12.879  0.6193  0.5594 -0.0172
 5344SOL    HW127665   3.240   2.616  12.857  2.2244 -0.5417  0.6163
 5344SOL    HW227666   3.344   2.672  12.951  0.6676  2.0124  0.4479
 5345SOL     OW27667   1.018   0.627   4.780 -0.0748  0.4378 -0.8275
 5345SOL    HW127668   0.988   0.657   4.694  1.7722 -0.4847 -1.7848
 5345SOL    HW227669   1.096   0.678   4.804 -0.2112  0.5829 -0.6916
 5346SOL     OW27670   1.507   2.903   8.369  0.3367 -0.4215 -0.0578
 5346SOL    HW127671   1.523   2.849   8.446  1.1893 -1.7988 -1.2054
 5346SOL    HW227672   1.531   2.990   8.400  2.4981 -2.1119  3.0238
 5347SOL     OW27673   0.368   0.981   6.949  0.4760  0.0120  0.1308
 5347SOL    HW127674   0.325   0.922   7.011 -2.4326  4.8654  2.6962
 5347SOL    HW227675   0.312   1.058   6.947  1.0762  0.4094 -1.8495
 5348SOL     OW27676   3.766   1.101   6.485  0.6057  0.3697  0.0457
 5348SOL    HW127677   3.680   1.125   6.452  0.7954 -0.3025 -0.9221
 5348SOL    HW227678   3.779   1.010   6.460  1.0846  0.0022  1.6798
 5349SOL     OW27679   1.632   2.976   4.605 -0.9626 -0.7460 -0.2312
 5349SOL    HW127680   1.696   3.046   4.606 -0.5363 -1.1422  0.1927
 5349SOL    HW227681   1.674   2.901   4.562  0.2893  0.2270 -0.6940
 5350SOL     OW27682   4.555   0.062   0.334 -0.4878  0.4711 -0.6221
 5350SOL    HW127683   4.569   0.139   0.390 -3.3963 -0.1449  0.9844
 5350SOL    HW227684   4.472   0.094   0.298  0.1843  2.2614 -0.5840
 5351SOL     OW27685   1.397   3.202   9.415  0.0777  0.6633  0.2448
 5351SOL    HW127686   1.487   3.195   9.382  0.4578  0.8920  1.2340
 5351SOL    HW227687   1.370   3.110   9.421 -2.4170  1.2023 -2.5759
 5352SOL     OW27688   2.107   2.468   2.358  0.5201  0.1807 -0.0123
 5352SOL    HW127689   2.152   2.550   2.341  0.1919 -0.3590 -3.4446
 5352SOL    HW227690   2.175   2.401   2.371 -0.1046 -0.7033 -1.2803
 5353SOL     OW27691   3.485   4.208   4.325 -0.1361  0.1511  0.0338
 5353SOL    HW127692   3.415   4.150   4.294 -1.3294  0.9708  1.2304
 5353SOL    HW227693   3.557   4.195   4.263 -0.8044 -1.4426 -0.4183
 5354SOL     OW27694   0.162   2.234   1.296 -0.7163  0.3550  0.3662
 5354SOL    HW127695   0.070   2.252   1.277 -1.0531 -0.9103  0.7782
 5354SOL    HW227696   0.187   2.325   1.307  0.6298  0.4110 -3.0455
 5355SOL     OW27697   0.420   3.597   5.613  0.0108 -0.1243 -0.2757
 5355SOL    HW127698   0.434   3.572   5.522 -1.4618  1.2834 -0.8937
 5355SOL    HW227699   0.396   3.690   5.611  0.0508 -0.1307 -1.1537
 5356SOL     OW27700   2.343   1.132  13.889 -0.1263  0.5695  0.5548
 5356SOL    HW127701   2.307   1.083  13.963  0.0360 -0.3919 -0.0040
 5356SOL    HW227702   2.268   1.169  13.842 -1.3345 -2.3841  0.1671
 5357SOL     OW27703   4.446   0.091  16.760 -0.0959 -0.5077  0.1046
 5357SOL    HW127704   4.455   0.080  16.666 -0.8971  1.6248 -0.2221
 5357SOL    HW227705   4.533   0.120  16.785 -1.9049  4.3558  0.7524
 5358SOL     OW27706   1.665   3.240   5.685  0.2126  0.2636  0.0693
 5358SOL    HW127707   1.616   3.161   5.661  1.0343  0.3912 -2.0543
 5358SOL    HW227708   1.755   3.213   5.701  0.3987 -1.1681 -3.5062
 5359SOL     OW27709   0.143   0.159  15.001  0.0981  0.0932  0.0540
 5359SOL    HW127710   0.113   0.131  14.914 -0.4475  0.1634  0.2175
 5359SOL    HW227711   0.118   0.083  15.053  1.7150  1.3490  2.6549
 5360SOL     OW27712   3.757   2.623  14.183 -0.7172  0.2869  0.3368
 5360SOL    HW127713   3.842   2.606  14.144  0.0850  1.2737  1.6584
 5360SOL    HW227714   3.706   2.661  14.112 -1.4287 -2.1375 -0.4728
 5361SOL     OW27715   0.224   1.406   2.500 -0.3084  0.0392  0.0821
 5361SOL    HW127716   0.306   1.371   2.467  0.0944  0.3158  0.8025
 5361SOL    HW227717   0.218   1.363   2.585  0.8105 -1.1585 -0.4570
 5362SOL     OW27718   1.725   1.702   6.864  1.0256  0.2526  0.3403
 5362SOL    HW127719   1.720   1.743   6.950  2.3363  2.1270 -0.4692
 5362SOL    HW227720   1.663   1.755   6.815 -0.1776 -0.3218  1.2577
 5363SOL     OW27721   2.820   3.936   0.623 -0.3447 -0.3911  0.5642
 5363SOL    HW127722   2.895   3.882   0.647 -0.3522 -1.3550 -1.6426
 5363SOL    HW227723   2.793   3.890   0.544 -2.5268 -0.3124  1.2762
 5364SOL     OW27724   3.243   0.662   9.582 -0.5443 -0.1140  0.2780
 5364SOL    HW127725   3.337   0.670   9.600 -0.4815 -0.1307 -0.0458
 5364SOL    HW227726   3.231   0.738   9.526 -1.6134 -1.4630 -1.3070
 5365SOL     OW27727   1.496   2.973  16.435  0.3889 -0.3087 -0.0839
 5365SOL    HW127728   1.461   2.900  16.384  1.1092 -1.7111  1.3941
 5365SOL    HW227729   1.512   2.931  16.520 -1.0475  1.5523  1.1196
 5366SOL     OW27730   2.702   0.882  15.061 -0.0090  0.2618  0.0425
 5366SOL    HW127731   2.657   0.801  15.082  0.6968 -0.2033 -0.2616
 5366SOL    HW227732   2.632   0.946  15.047  0.6785  0.4607 -2.4911
 5367SOL     OW27733   1.915   4.421  16.527 -0.1582 -0.3745 -0.0531
 5367SOL    HW127734   1.973   4.474  16.473 -0.4102  0.3589  0.3907
 5367SOL    HW227735   1.843   4.420  16.464 -0.1566 -3.6357  0.0062
 5368SOL     OW27736   3.841   2.301  12.688  0.2143 -0.1420 -0.3659
 5368SOL    HW127737   3.876   2.214  12.670  1.3130  1.1306 -4.3839
 5368SOL    HW227738   3.917   2.349  12.721  0.0379  0.8966 -1.4636
 5369SOL     OW27739   1.866   1.654   2.777 -0.0451  1.0440 -0.2070
 5369SOL    HW127740   1.921   1.646   2.854 -2.5779 -2.4325  1.2529
 5369SOL    HW227741   1.885   1.568   2.739  1.7967  0.6185  1.7633
 5370SOL     OW27742   1.213   1.257   2.146  0.3682  0.2016 -0.2758
 5370SOL    HW127743   1.196   1.192   2.077 -0.9612 -0.4563  0.6778
 5370SOL    HW227744   1.275   1.210   2.202 -0.4395  1.9663  2.0666
 5371SOL     OW27745   3.207   0.980   2.063  0.1102  0.2953  0.4901
 5371SOL    HW127746   3.230   0.892   2.093  1.0540  0.6588  0.8467
 5371SOL    HW227747   3.293   1.003   2.028 -0.1947 -0.4240 -0.7155
 5372SOL     OW27748   4.011   3.346   5.995  0.0389 -0.0595  0.0220
 5372SOL    HW127749   4.031   3.379   5.907 -0.4751 -0.6930 -0.3293
 5372SOL    HW227750   4.059   3.400   6.059  0.1610 -1.1363  0.8224
 5373SOL     OW27751   0.664   1.236  16.562 -0.2268  0.5681  0.2552
 5373SOL    HW127752   0.581   1.227  16.515 -0.7149  1.2615  0.9986
 5373SOL    HW227753   0.645   1.280  16.644 -1.3738  0.7297 -0.1017
 5374SOL     OW27754   3.746   4.627  12.083 -0.6580  0.4509 -0.3436
 5374SOL    HW127755   3.740   4.649  12.176  1.3020 -1.6844  0.3058
 5374SOL    HW227756   3.677   4.562  12.068 -0.6190  0.2018  0.5197
 5375SOL     OW27757   1.728   1.823  16.038  0.5816  0.1082 -0.3074
 5375SOL    HW127758   1.816   1.851  16.065  0.1510  0.8187  0.3763
 5375SOL    HW227759   1.743   1.735  16.003 -1.6267 -0.2049 -0.4206
 5376SOL     OW27760   4.328   2.434   2.571  0.2788  0.0300 -0.2327
 5376SOL    HW127761   4.374   2.507   2.611  0.6351 -0.2123 -0.2063
 5376SOL    HW227762   4.376   2.425   2.489 -1.5853 -1.6668 -1.1227
 5377SOL     OW27763   0.220   4.183   2.618  0.4424  0.0749 -0.2341
 5377SOL    HW127764   0.235   4.186   2.712 -1.0797 -1.0827  0.0449
 5377SOL    HW227765   0.301   4.217   2.581  1.0189  1.8445  2.6762
 5378SOL     OW27766   1.555   3.665   1.906 -0.1738 -0.3951 -0.5158
 5378SOL    HW127767   1.555   3.747   1.956 -1.5420 -1.0230  0.5060
 5378SOL    HW227768   1.617   3.614   1.957 -0.9316 -0.5206  0.2719
 5379SOL     OW27769   1.888   1.414   1.825  0.3187 -0.0622  0.4177
 5379SOL    HW127770   1.919   1.341   1.770  1.9125 -0.4795  1.8615
 5379SOL    HW227771   1.901   1.485   1.762 -0.9299 -1.0129 -0.9165
 5380SOL     OW27772   2.349   2.079   5.986 -0.0616 -0.1803  0.3147
 5380SOL    HW127773   2.407   2.003   5.990  1.1179  0.6125 -1.4952
 5380SOL    HW227774   2.381   2.135   6.056 -1.1060 -1.2683  1.6533
 5381SOL     OW27775   0.955   4.166   3.850 -0.4323 -0.6222  0.1156
 5381SOL    HW127776   0.944   4.235   3.916  0.3223 -0.5743  0.1847
 5381SOL    HW227777   1.049   4.151   3.853 -0.0599  1.7143 -0.4549
 5382SOL     OW27778   0.952   3.264   5.489  0.0232  0.2731  0.5100
 5382SOL    HW127779   1.027   3.243   5.434  0.0320 -0.5884  0.8455
 5382SOL    HW227780   0.881   3.253   5.426 -0.6838  2.0052  0.9914
 5383SOL     OW27781   0.593   0.460   5.554 -0.4551  0.0980 -0.1361
 5383SOL    HW127782   0.608   0.471   5.648  1.2054  0.1827 -0.4056
 5383SOL    HW227783   0.626   0.546   5.527 -0.3510  0.6903  1.8142
 5384SOL     OW27784   0.120   0.622   5.879 -0.1622 -0.1541  0.2302
 5384SOL    HW127785   0.171   0.575   5.813  2.0963  2.2150  0.2543
 5384SOL    HW227786   0.141   0.713   5.858 -0.7671 -0.3496 -1.2092
 5385SOL     OW27787   3.723   1.411  17.242  0.7093  0.3672  0.0396
 5385SOL    HW127788   3.694   1.453  17.161  0.4238  0.4144  0.1659
 5385SOL    HW227789   3.666   1.468  17.294  1.2069 -0.4718  1.4944
 5386SOL     OW27790   2.739   0.666   2.538  0.0309 -0.0703  0.6914
 5386SOL    HW127791   2.790   0.735   2.580  1.2061 -0.6737  0.2541
 5386SOL    HW227792   2.755   0.684   2.445 -0.0257  0.2649  0.7475
 5387SOL     OW27793   1.865   0.703   1.777 -0.6121 -1.1490 -0.1355
 5387SOL    HW127794   1.779   0.681   1.741  0.6495 -0.7772 -3.3031
 5387SOL    HW227795   1.930   0.670   1.715  0.6252  0.4507  0.3119
 5388SOL     OW27796   3.820   1.703   4.383 -0.4729  0.2751 -0.5484
 5388SOL    HW127797   3.738   1.663   4.355 -1.0386  0.5971  0.6738
 5388SOL    HW227798   3.799   1.746   4.466  1.6403 -0.5637  0.4317
 5389SOL     OW27799   3.368   2.417   9.960 -0.0588  0.1738  0.4783
 5389SOL    HW127800   3.303   2.349   9.979 -1.3910  1.1997 -0.3399
 5389SOL    HW227801   3.306   2.485   9.931  0.6002  1.5363  2.2472
 5390SOL     OW27802   4.078   4.324  12.708  0.0969  0.0371 -0.3464
 5390SOL    HW127803   4.172   4.343  12.706 -0.1434  1.1254 -1.5656
 5390SOL    HW227804   4.098   4.230  12.714  1.4160  0.5421  2.7294
 5391SOL     OW27805   2.346   3.346   7.508 -0.5023 -0.5524 -0.3085
 5391SOL    HW127806   2.432   3.381   7.485  0.3233 -1.1056  2.0154
 5391SOL    HW227807   2.286   3.421   7.501  0.5754  0.0661 -3.2711
 5392SOL     OW27808   3.977   4.446   7.361  0.0063 -0.3249 -0.4763
 5392SOL    HW127809   3.988   4.522   7.305  0.9587  0.0327  0.1967
 5392SOL    HW227810   3.932   4.381   7.307  1.1760 -1.2614 -0.3384
 5393SOL     OW27811   1.111   0.225   6.471 -0.0013 -0.5300  0.8316
 5393SOL    HW127812   1.205   0.208   6.459 -0.3358 -1.5249 -0.4384
 5393SOL    HW227813   1.106   0.315   6.439 -0.0352 -0.3165  1.4353
 5394SOL     OW27814   3.729   4.486   8.084 -0.0594 -0.0290 -0.0467
 5394SOL    HW127815   3.675   4.435   8.024 -0.3102  0.6109 -0.3653
 5394SOL    HW227816   3.690   4.473   8.171 -0.8311 -0.2728 -0.4266
 5395SOL     OW27817   1.572   0.522   1.998 -0.2211  0.0533  0.3343
 5395SOL    HW127818   1.488   0.508   1.955  0.5068 -1.8553 -0.4637
 5395SOL    HW227819   1.603   0.573   1.923 -0.3081 -0.6396 -0.1730
 5396SOL     OW27820   1.615   0.287   3.202  0.8158  0.3740  0.3863
 5396SOL    HW127821   1.661   0.338   3.135  0.9011  1.9877  1.6526
 5396SOL    HW227822   1.673   0.211   3.205  0.3225  0.0177  0.8356
 5397SOL     OW27823   3.894   4.122   5.947  0.0393  0.1641  0.8156
 5397SOL    HW127824   3.883   4.077   6.031  1.3623 -1.7927 -0.0526
 5397SOL    HW227825   3.921   4.049   5.891 -0.0905  1.2088 -0.6023
 5398SOL     OW27826   1.886   2.031  17.663  0.4540 -0.6511  0.3638
 5398SOL    HW127827   1.969   1.985  17.648  0.4971 -1.1133  2.0753
 5398SOL    HW227828   1.886   2.034  17.758  1.5847 -1.6890  0.3994
 5399SOL     OW27829   3.194   3.421   3.894 -0.1116 -0.2218 -0.2629
 5399SOL    HW127830   3.173   3.376   3.976  0.4099 -3.1613 -1.7477
 5399SOL    HW227831   3.267   3.366   3.867  0.3814  0.7370 -0.8842
 5400SOL     OW27832   1.932   2.474  10.494 -0.0025  0.2748  0.0928
 5400SOL    HW127833   1.964   2.560  10.522 -1.5869  0.5716  0.9897
 5400SOL    HW227834   2.008   2.416  10.492  1.9999  2.8688  0.9619
 5401SOL     OW27835   4.568   0.794  11.829  0.2741  0.8425  0.0790
 5401SOL    HW127836   4.644   0.744  11.860  0.1079  0.0081 -0.8423
 5401SOL    HW227837   4.522   0.813  11.910 -0.2361  0.3431 -0.0851
 5402SOL     OW27838   3.488   1.109   7.401  0.2734 -0.3143  0.2162
 5402SOL    HW127839   3.472   1.104   7.495  0.4819 -1.4683  0.1989
 5402SOL    HW227840   3.580   1.084   7.392  0.0976 -0.8252 -0.1720
 5403SOL     OW27841   2.052   0.526   2.520  0.0582 -0.5468  0.0451
 5403SOL    HW127842   2.052   0.621   2.531 -0.7774 -0.6964  1.4708
 5403SOL    HW227843   1.993   0.512   2.446  1.1090 -0.5871 -0.7685
 5404SOL     OW27844   0.455   1.118   6.141  0.0757 -0.3295 -0.0508
 5404SOL    HW127845   0.461   1.147   6.232  0.0183 -1.1115  0.2035
 5404SOL    HW227846   0.438   1.026   6.161 -0.3784 -0.2368 -0.0213
 5405SOL     OW27847   0.253   2.437  10.047 -0.5007  0.4048  0.5735
 5405SOL    HW127848   0.269   2.405   9.958 -1.3810 -1.1810  0.9905
 5405SOL    HW227849   0.327   2.389  10.084  0.0447  0.1446 -0.8559
 5406SOL     OW27850   1.888   1.742  12.527 -0.0019 -0.2452  0.2248
 5406SOL    HW127851   1.937   1.788  12.459 -2.4892  0.7088 -0.9075
 5406SOL    HW227852   1.954   1.733  12.596  0.1792 -2.2332 -0.2171
 5407SOL     OW27853   2.168   1.498  14.174 -0.6707 -0.9598 -0.1339
 5407SOL    HW127854   2.203   1.491  14.085 -1.4004 -0.8067 -0.4323
 5407SOL    HW227855   2.148   1.406  14.188 -0.8176 -0.7881  0.7905
 5408SOL     OW27856   0.033   4.132   7.323 -0.5989 -0.3156  0.6292
 5408SOL    HW127857   0.090   4.105   7.395 -0.6696 -0.3724  0.6639
 5408SOL    HW227858   4.684   4.122   7.350 -0.4162  2.5324  2.2760
 5409SOL     OW27859   4.557   0.588  15.835  0.3278  0.1032  0.5762
 5409SOL    HW127860   4.559   0.552  15.924  1.1505 -1.3518 -0.0317
 5409SOL    HW227861   4.539   0.515  15.776  0.8119  0.1474  0.3728
 5410SOL     OW27862   2.125   2.707  12.280  0.4411  0.1701 -0.0038
 5410SOL    HW127863   2.127   2.762  12.202  0.2844  0.6504  0.3319
 5410SOL    HW227864   2.203   2.739  12.324 -0.1841  0.0957  1.1544
 5411SOL     OW27865   1.926   0.629   6.560  0.3128  0.2966  0.3309
 5411SOL    HW127866   1.906   0.607   6.651 -2.2997  0.5963 -0.1753
 5411SOL    HW227867   1.960   0.719   6.562 -4.2308  1.9462  2.3773
 5412SOL     OW27868   2.639   0.882   6.052 -0.3635  0.0914 -0.1875
 5412SOL    HW127869   2.732   0.878   6.074 -0.4971  2.3864  0.7810
 5412SOL    HW227870   2.636   0.812   5.987 -0.7548  0.5556 -0.6717
 5413SOL     OW27871   3.579   0.281  17.721 -0.1237 -0.3671  0.2448
 5413SOL    HW127872   3.561   0.238  17.638  1.3107  2.2069 -1.4081
 5413SOL    HW227873   3.626   0.358  17.688  0.8316 -0.9053  0.3744
 5414SOL     OW27874   1.430   4.294  12.495 -0.3856  0.0429 -0.2873
 5414SOL    HW127875   1.406   4.205  12.470 -1.7372 -0.0026  1.1866
 5414SOL    HW227876   1.518   4.289  12.533  1.4841  0.4326 -4.5099
 5415SOL     OW27877   0.239   1.968   3.164  0.4076  0.1789  0.3195
 5415SOL    HW127878   0.319   1.952   3.113 -0.7833  0.5624 -1.6884
 5415SOL    HW227879   0.227   1.880   3.200  1.7998  0.1096  0.6117
 5416SOL     OW27880   2.537   1.865   1.109  0.1203  0.4609  0.5249
 5416SOL    HW127881   2.568   1.956   1.113 -2.8109  1.4990 -0.1934
 5416SOL    HW227882   2.607   1.825   1.161  0.8423 -0.3945 -1.1070
 5417SOL     OW27883   4.339   1.660   4.142  0.3187 -0.0901  0.5019
 5417SOL    HW127884   4.258   1.637   4.187  0.4371  2.1383  1.8440
 5417SOL    HW227885   4.383   1.723   4.199 -0.5778  0.5976  0.4437
 5418SOL     OW27886   4.186   4.124  10.250  0.0341 -0.3789 -0.1681
 5418SOL    HW127887   4.121   4.173  10.200  0.9878 -0.1158 -1.1523
 5418SOL    HW227888   4.189   4.195  10.314 -0.5370 -2.5000  2.1982
 5419SOL     OW27889   0.352   1.441   6.038  0.2837  0.0612  0.4857
 5419SOL    HW127890   0.304   1.482   5.965  0.5408 -0.0268  0.2664
 5419SOL    HW227891   0.280   1.407   6.090 -1.5152 -0.7880 -2.5412
 5420SOL     OW27892   2.575   0.999   6.324  0.3174  0.0058 -0.1588
 5420SOL    HW127893   2.621   1.079   6.301 -2.7782  1.8010 -0.0507
 5420SOL    HW227894   2.560   0.973   6.233  2.4224 -4.2377  0.6813
 5421SOL     OW27895   4.281   3.386   7.931 -0.1990  0.6249 -0.5828
 5421SOL    HW127896   4.262   3.371   7.838 -1.2667  0.7084 -0.3779
 5421SOL    HW227897   4.194   3.376   7.969 -0.1606 -0.2903 -0.7226
 5422SOL     OW27898   2.152   3.708   6.926  0.0660 -0.4860  0.3484
 5422SOL    HW127899   2.169   3.786   6.873 -2.1043  0.0148  0.3978
 5422SOL    HW227900   2.132   3.653   6.850  0.1052 -0.8623  0.6121
 5423SOL     OW27901   1.291   4.633  12.089 -0.0492 -0.1462  0.3755
 5423SOL    HW127902   1.289   4.679  12.173 -1.8338  0.3641  0.0615
 5423SOL    HW227903   1.300   4.542  12.116  0.6367  0.4133  2.0389
 5424SOL     OW27904   0.419   1.716   2.249 -0.4047 -0.3471 -0.6133
 5424SOL    HW127905   0.356   1.701   2.320 -1.7911 -0.1575 -1.8127
 5424SOL    HW227906   0.391   1.646   2.191 -1.2251 -0.9052  0.4491
 5425SOL     OW27907   2.498   3.545  15.076  0.2462  0.8062  0.0457
 5425SOL    HW127908   2.446   3.542  15.156 -0.6465 -0.0889 -0.5690
 5425SOL    HW227909   2.514   3.639  15.070  0.8816  0.7453  0.8083
 5426SOL     OW27910   4.271   2.161   2.609 -0.4073  0.0901 -0.1307
 5426SOL    HW127911   4.361   2.133   2.628 -0.4560  0.9639  1.3706
 5426SOL    HW227912   4.285   2.256   2.608  2.1448 -0.2696  1.0949
 5427SOL     OW27913   3.310   2.583   1.612 -0.6675  0.4248  0.0263
 5427SOL    HW127914   3.379   2.584   1.678  0.7156 -0.5405 -1.4053
 5427SOL    HW227915   3.234   2.593   1.669  1.4859  4.6082  2.2194
 5428SOL     OW27916   1.301   0.304  16.862  0.2146 -0.1033  0.3108
 5428SOL    HW127917   1.376   0.254  16.894 -0.0076  0.5628  1.8269
 5428SOL    HW227918   1.354   0.357  16.803  1.4184  1.0790  2.4630
 5429SOL     OW27919   4.702   1.902   6.069  0.0885 -0.3318  0.5911
 5429SOL    HW127920   4.679   1.987   6.030 -1.7249 -0.9371  0.3194
 5429SOL    HW227921   4.734   1.860   5.990 -0.6277  0.7499 -0.2803
 5430SOL     OW27922   2.329   0.908   4.132  0.3535 -0.0289  0.0390
 5430SOL    HW127923   2.316   0.918   4.038  3.1419 -1.6501 -0.4820
 5430SOL    HW227924   2.243   0.938   4.163 -0.0194 -0.4873 -0.5601
 5431SOL     OW27925   3.127   2.379  13.888  0.3565  0.3388 -0.4860
 5431SOL    HW127926   3.206   2.433  13.882  1.0933 -0.5787  0.9744
 5431SOL    HW227927   3.143   2.334  13.971 -1.5613  1.1180  0.2995
 5432SOL     OW27928   4.589   2.857   7.129  0.2746 -0.4681 -0.4507
 5432SOL    HW127929   4.565   2.943   7.093 -1.0547  0.1341  1.8252
 5432SOL    HW227930   4.516   2.803   7.100 -0.8031  1.0320 -0.5659
 5433SOL     OW27931   2.894   2.152   6.467  0.1940  0.0570  0.4011
 5433SOL    HW127932   2.851   2.106   6.539 -4.7456 -0.1356 -2.6666
 5433SOL    HW227933   2.954   2.084   6.436  0.5808  0.4364  0.3108
 5434SOL     OW27934   0.233   0.708   5.141 -0.4654 -0.0645  0.6905
 5434SOL    HW127935   0.157   0.766   5.136 -0.5578 -0.2391  0.0928
 5434SOL    HW227936   0.194   0.629   5.104  2.1756 -0.8147 -0.5028
 5435SOL     OW27937   4.167   1.207   4.761 -0.2751 -0.3919 -0.0459
 5435SOL    HW127938   4.127   1.126   4.793  1.2111 -0.8750  0.5456
 5435SOL    HW227939   4.253   1.193   4.799 -0.4325 -1.4708 -0.1024
 5436SOL     OW27940   4.281   1.065   7.388  0.0613  0.4134  0.3496
 5436SOL    HW127941   4.208   1.127   7.390  0.1127  0.4363  1.4927
 5436SOL    HW227942   4.295   1.046   7.295  0.9197 -0.9448  0.7538
 5437SOL     OW27943   3.052   0.742  15.736  0.6130 -0.3082  0.0185
 5437SOL    HW127944   3.055   0.824  15.785 -2.8052 -0.0032 -0.3087
 5437SOL    HW227945   3.125   0.697  15.777  1.7279  0.7298 -0.8306
 5438SOL     OW27946   1.089   0.487   9.040 -0.4801 -0.1118  0.1739
 5438SOL    HW127947   1.032   0.506   9.115  0.3949  1.3412  0.4623
 5438SOL    HW227948   1.153   0.558   9.043  0.9009 -1.2918 -1.3021
 5439SOL     OW27949   3.399   2.081   6.204 -0.1391 -0.0825 -0.1920
 5439SOL    HW127950   3.485   2.123   6.201  0.8570 -1.9125  2.7655
 5439SOL    HW227951   3.354   2.128   6.134 -0.4174 -0.4534 -0.2620
 5440SOL     OW27952   2.509   0.583  12.716  0.3931 -0.3941 -0.1777
 5440SOL    HW127953   2.482   0.503  12.671 -0.2800 -1.1489  1.5537
 5440SOL    HW227954   2.577   0.554  12.776  2.0263 -1.1274 -2.4110
 5441SOL     OW27955   2.281   0.762  12.787  0.0420  0.2980 -0.2091
 5441SOL    HW127956   2.332   0.822  12.732  1.6537 -0.3943  0.5116
 5441SOL    HW227957   2.349   0.695  12.795  1.0954  1.5999  1.8584
 5442SOL     OW27958   3.964   0.629   8.712  0.4815  0.4268  0.0814
 5442SOL    HW127959   3.955   0.705   8.770  0.3955  1.1806 -0.9182
 5442SOL    HW227960   4.058   0.627   8.699 -0.1080 -0.8894 -4.0060
 5443SOL     OW27961   0.862   3.561   5.573 -0.4330  0.2209  0.4892
 5443SOL    HW127962   0.813   3.543   5.493  0.9325  1.8133 -0.7012
 5443SOL    HW227963   0.877   3.469   5.594 -2.7164 -0.1556  0.5004
 5444SOL     OW27964   3.623   4.581   7.420 -0.6905 -0.6679 -0.1372
 5444SOL    HW127965   3.713   4.553   7.407 -0.4515 -1.3896  3.2669
 5444SOL    HW227966   3.606   4.558   7.511 -0.8282 -1.8382 -0.4610
 5445SOL     OW27967   3.016   2.629   7.581  0.0977 -0.4998  0.6383
 5445SOL    HW127968   3.024   2.642   7.675 -1.7216  2.8202  0.3453
 5445SOL    HW227969   2.987   2.540   7.564 -0.5510 -0.2512  0.4321
 5446SOL     OW27970   1.219   2.053   9.073  0.0059  0.0289  0.1596
 5446SOL    HW127971   1.188   2.099   9.152 -0.8621 -1.5289  0.7337
 5446SOL    HW227972   1.133   2.055   9.031 -1.2120  0.2320  2.6355
 5447SOL     OW27973   2.313   1.557  13.903  0.3448 -0.0948 -0.2581
 5447SOL    HW127974   2.255   1.594  13.836  0.1656 -1.6119 -0.9340
 5447SOL    HW227975   2.391   1.544  13.849 -0.1408 -0.6007 -0.8383
 5448SOL     OW27976   2.713   2.127  12.033  0.1735  0.5088  0.0360
 5448SOL    HW127977   2.728   2.182  11.956  1.9648  1.2035  0.8976
 5448SOL    HW227978   2.617   2.120  12.028  0.3167  1.4590 -3.4771
 5449SOL     OW27979   3.735   3.447  14.764 -0.6570  0.4898 -0.4371
 5449SOL    HW127980   3.673   3.481  14.828 -0.5583  0.5760 -0.3872
 5449SOL    HW227981   3.811   3.495  14.797 -0.3642 -0.0207 -0.3633
 5450SOL     OW27982   2.015   3.382  16.156 -0.2638  0.4563  0.2460
 5450SOL    HW127983   2.017   3.382  16.061 -0.8566  1.4304  0.2369
 5450SOL    HW227984   2.057   3.468  16.168 -0.5155  0.5528  0.4427
 5451SOL     OW27985   3.910   1.932   2.093  0.1025 -0.2280  0.0183
 5451SOL    HW127986   3.949   1.848   2.114 -0.9193 -0.9602 -0.9796
 5451SOL    HW227987   3.837   1.927   2.155  1.1872  0.6242  1.3552
 5452SOL     OW27988   3.813   0.360   1.144 -0.3300  0.0468 -0.4387
 5452SOL    HW127989   3.751   0.300   1.184  0.5659  0.1089  1.0303
 5452SOL    HW227990   3.887   0.362   1.205 -0.9107  1.7909  0.2139
 5453SOL     OW27991   1.723   0.701   7.362 -0.6462  0.4299  0.3427
 5453SOL    HW127992   1.691   0.744   7.442  1.4295 -0.8503  1.8466
 5453SOL    HW227993   1.699   0.764   7.294  1.5709 -2.0850 -2.7788
 5454SOL     OW27994   0.504   3.090  11.624  0.0785  0.0887 -0.2002
 5454SOL    HW127995   0.442   3.163  11.628  0.8522  0.8465 -2.0931
 5454SOL    HW227996   0.446   3.017  11.648 -0.0526  0.7966  1.6704
 5455SOL     OW27997   2.298   4.127   4.985  0.1093 -0.3024 -0.6566
 5455SOL    HW127998   2.325   4.064   4.919 -1.9877 -2.7634  0.8413
 5455SOL    HW227999   2.301   4.075   5.066 -0.4373  0.6486 -0.0226
 5456SOL     OW28000   2.755   3.174   6.937  0.4506  0.3117  0.3453
 5456SOL    HW128001   2.838   3.126   6.934  0.7177  0.6086  3.3484
 5456SOL    HW228002   2.696   3.120   6.989 -0.1522  1.3393  0.7400
 5457SOL     OW28003   1.622   2.690   4.882  0.5910 -0.3138 -0.2473
 5457SOL    HW128004   1.602   2.712   4.791 -0.4460 -0.8903 -0.1573
 5457SOL    HW228005   1.715   2.706   4.896  1.1649 -2.8891 -1.2149
 5458SOL     OW28006   2.087   2.419   4.268  0.6331 -0.5057  0.6207
 5458SOL    HW128007   2.172   2.457   4.247  0.5242 -0.8354 -0.4020
 5458SOL    HW228008   2.062   2.397   4.178 -0.4847 -2.2910  1.3688
 5459SOL     OW28009   1.042   3.090   2.941 -0.1253 -0.7679  0.0163
 5459SOL    HW128010   1.133   3.095   2.972  0.7514 -0.0371 -2.6267
 5459SOL    HW228011   1.056   3.010   2.890 -0.7832  0.5691 -2.2885
 5460SOL     OW28012   3.761   0.701   2.811 -0.1921 -0.0165 -0.0592
 5460SOL    HW128013   3.793   0.788   2.835  1.0206 -0.4405 -0.1275
 5460SOL    HW228014   3.668   0.712   2.796  0.4382  0.0575 -3.7630
 5461SOL     OW28015   3.284   2.074   7.439  0.6882 -0.1393 -0.2174
 5461SOL    HW128016   3.308   2.006   7.502 -0.0848 -0.2146 -0.0120
 5461SOL    HW228017   3.277   2.018   7.362 -1.7347  0.3213 -0.3358
 5462SOL     OW28018   3.850   2.743   3.620  0.1601 -0.1001 -0.1580
 5462SOL    HW128019   3.757   2.744   3.642 -0.1207 -0.0769 -1.3618
 5462SOL    HW228020   3.878   2.833   3.640  2.0365 -0.4809 -1.1225
 5463SOL     OW28021   1.632   0.203   8.587  0.0310 -0.0782 -0.1027
 5463SOL    HW128022   1.567   0.220   8.655 -0.9945  1.6646 -1.5158
 5463SOL    HW228023   1.669   0.117   8.606  1.2122  0.3822 -0.3448
 5464SOL     OW28024   0.871   3.145   7.557  0.0401  0.0568  0.1673
 5464SOL    HW128025   0.816   3.099   7.620 -2.0679  1.1057 -0.9136
 5464SOL    HW228026   0.859   3.238   7.577  0.4074  0.4744 -1.5900
 5465SOL     OW28027   3.852   0.418   5.562  0.4421  0.5303 -0.4637
 5465SOL    HW128028   3.932   0.468   5.579  0.1070  0.5277  1.1083
 5465SOL    HW228029   3.811   0.471   5.494 -4.9483  0.9589  3.1010
 5466SOL     OW28030   2.575   1.661   7.841  0.1124  0.5467 -0.5767
 5466SOL    HW128031   2.645   1.691   7.900 -0.6653 -2.1927  1.7296
 5466SOL    HW228032   2.500   1.641   7.896  0.1748  0.5048 -0.5066
 5467SOL     OW28033   2.878   0.667   9.461 -0.1687  0.3990 -0.4900
 5467SOL    HW128034   2.957   0.650   9.411 -1.2730 -0.1174 -2.0698
 5467SOL    HW228035   2.832   0.738   9.414 -2.2305 -0.3581  0.3703
 5468SOL     OW28036   0.233   3.941   4.170  0.0357  0.2434  0.1524
 5468SOL    HW128037   0.287   3.891   4.230 -0.6388 -0.4288  0.1936
 5468SOL    HW228038   0.202   4.005   4.234 -1.2498  1.3496 -1.5661
 5469SOL     OW28039   4.258   1.337  17.426 -0.2186 -0.2835  0.6431
 5469SOL    HW128040   4.219   1.306  17.507  1.3010 -0.7618  1.1727
 5469SOL    HW228041   4.182   1.389  17.399  2.0451  2.5034 -0.3750
 5470SOL     OW28042   1.616   2.068   9.747  0.2453  0.1842  0.9009
 5470SOL    HW128043   1.554   1.998   9.725 -0.4762  0.7509  1.1226
 5470SOL    HW228044   1.679   2.028   9.807 -1.1893 -2.7741  0.4181
 5471SOL     OW28045   0.724   4.068   5.954 -0.1501  0.0705  0.0830
 5471SOL    HW128046   0.704   4.151   5.911  2.8233  0.1922 -1.1109
 5471SOL    HW228047   0.812   4.098   5.975 -0.2921  0.3015  0.3324
 5472SOL     OW28048   1.757   3.669   6.204  0.1822 -0.7455 -0.5944
 5472SOL    HW128049   1.802   3.594   6.165  1.5840  0.5270 -1.4051
 5472SOL    HW228050   1.713   3.617   6.271  1.0093 -0.5089  0.1231
 5473SOL     OW28051   1.800   1.405  16.657  0.3867 -0.2797  0.2208
 5473SOL    HW128052   1.710   1.420  16.688 -0.0579 -2.2321 -0.1319
 5473SOL    HW228053   1.797   1.411  16.561  4.5236  1.6777  0.2455
 5474SOL     OW28054   3.016   0.489   1.555  0.9940  0.2274  0.1128
 5474SOL    HW128055   3.094   0.472   1.608 -0.2828  1.9484  2.5319
 5474SOL    HW228056   2.988   0.572   1.593 -1.1786 -0.0171 -0.9609
 5475SOL     OW28057   3.533   4.455   6.654 -0.3202 -0.2409  0.4558
 5475SOL    HW128058   3.629   4.453   6.663 -0.3202  2.2084  1.0279
 5475SOL    HW228059   3.504   4.388   6.717  0.3231 -1.2425 -0.3142
 5476SOL     OW28060   0.081   0.472   1.218 -0.4533 -0.6447 -0.0861
 5476SOL    HW128061   0.074   0.520   1.301  1.1822 -0.0245 -0.3124
 5476SOL    HW228062   0.067   0.383   1.253 -0.3227 -0.9410 -0.7985
 5477SOL     OW28063   1.636   2.852   9.046 -0.4503  0.1317 -0.2230
 5477SOL    HW128064   1.672   2.938   9.023  1.2245 -0.2924  0.7578
 5477SOL    HW228065   1.623   2.860   9.140  1.0777 -0.9952  0.1058
 5478SOL     OW28066   1.385   4.031   1.902  0.0944  0.3948  0.2919
 5478SOL    HW128067   1.291   4.027   1.889  0.2987 -0.0598 -0.9990
 5478SOL    HW228068   1.407   4.028   1.809  1.1689 -0.4765  0.5732
 5479SOL     OW28069   3.972   3.588  15.388 -0.3512 -0.0460  0.0910
 5479SOL    HW128070   3.883   3.622  15.393 -1.0099 -1.4113 -2.1668
 5479SOL    HW228071   3.970   3.576  15.293  1.5109  3.7803 -0.4805
 5480SOL     OW28072   4.197   3.884   8.679  0.1624 -0.1359 -0.6456
 5480SOL    HW128073   4.181   3.955   8.742 -0.9550 -0.3543 -0.6942
 5480SOL    HW228074   4.174   3.811   8.735 -1.5749 -1.8751 -3.6283
 5481SOL     OW28075   2.403   1.831   5.362 -0.0537  0.3017 -0.2800
 5481SOL    HW128076   2.479   1.875   5.324  0.7950 -0.3955  0.5915
 5481SOL    HW228077   2.362   1.895   5.420  1.3021  0.8371  0.1071
 5482SOL     OW28078   2.810   3.993   6.361 -0.3134 -0.0706 -0.0160
 5482SOL    HW128079   2.812   3.930   6.289  0.0745  0.2990 -0.3269
 5482SOL    HW228080   2.751   3.964   6.430 -0.6993 -1.1109 -0.7768
 5483SOL     OW28081   2.722   1.421   3.208  0.1716  0.3826 -0.4673
 5483SOL    HW128082   2.714   1.326   3.210  1.9733  0.2566  0.9205
 5483SOL    HW228083   2.668   1.442   3.285 -0.2819 -1.4591 -0.2965
 5484SOL     OW28084   2.455   1.311   2.960  0.2617 -0.6130  0.0992
 5484SOL    HW128085   2.376   1.272   2.920 -0.3883  1.1572 -0.3222
 5484SOL    HW228086   2.408   1.369   3.019 -0.3947 -0.0491 -0.9798
 5485SOL     OW28087   4.471   1.914   4.334 -0.2412  0.7101 -0.0399
 5485SOL    HW128088   4.564   1.924   4.357  0.2991 -1.0221 -1.4512
 5485SOL    HW228089   4.472   1.991   4.278 -0.4604  0.0328 -0.9726
 5486SOL     OW28090   2.112   1.040  12.480  0.3697  0.2487 -0.0289
 5486SOL    HW128091   2.038   1.036  12.419 -0.7886  0.3870  1.3766
 5486SOL    HW228092   2.175   1.036  12.408  0.7390  1.2309  0.2302
 5487SOL     OW28093   3.486   3.614   9.797  0.1507  0.2978 -0.0377
 5487SOL    HW128094   3.434   3.599   9.718 -0.4364  1.0237  0.2057
 5487SOL    HW228095   3.573   3.624   9.758  0.4831 -1.6258  0.2237
 5488SOL     OW28096   3.569   2.324   4.957  0.1957 -0.6961  0.0112
 5488SOL    HW128097   3.603   2.285   5.038 -0.2006 -0.1988  0.4168
 5488SOL    HW228098   3.564   2.246   4.903  0.4195 -0.2018 -0.7167
 5489SOL     OW28099   0.012   2.222   7.162 -0.1535 -0.0271 -0.1456
 5489SOL    HW128100   0.029   2.309   7.126  0.3630  0.0747  0.3530
 5489SOL    HW228101   0.023   2.247   7.254  0.8238  3.6460 -1.2549
 5490SOL     OW28102   1.149   3.875  14.881  0.3940 -0.5877 -0.5274
 5490SOL    HW128103   1.121   3.872  14.973  1.3612 -1.9202 -0.2835
 5490SOL    HW228104   1.122   3.964  14.857 -0.7993 -1.1940 -1.4467
 5491SOL     OW28105   2.308   0.753  15.722 -0.0187 -0.4487 -0.3877
 5491SOL    HW128106   2.249   0.791  15.656  1.3938 -2.1917 -2.6455
 5491SOL    HW228107   2.380   0.815  15.712 -0.6047  0.2380 -0.3875
 5492SOL     OW28108   0.536   2.328  13.351  0.1178 -0.6524  0.2794
 5492SOL    HW128109   0.577   2.397  13.403 -0.7342  0.3993 -0.4340
 5492SOL    HW228110   0.477   2.383  13.300  0.6942 -1.6693 -1.4847
 5493SOL     OW28111   1.752   1.552   3.019  0.5099  0.2962 -0.1368
 5493SOL    HW128112   1.741   1.604   2.940 -0.5992 -2.3502 -1.7424
 5493SOL    HW228113   1.739   1.621   3.084  1.3826  0.2418  0.1010
 5494SOL     OW28114   1.732   2.353  10.338  0.4335  0.0092 -0.4803
 5494SOL    HW128115   1.649   2.317  10.369  0.8051  0.2836  0.8252
 5494SOL    HW228116   1.784   2.390  10.409 -1.0718 -0.4496  0.8397
 5495SOL     OW28117   0.951   3.446   9.272  0.2333 -0.2683  0.3259
 5495SOL    HW128118   0.948   3.474   9.364 -1.8335  0.2027  0.1090
 5495SOL    HW228119   0.950   3.530   9.225 -0.7360 -0.2771  0.3385
 5496SOL     OW28120   1.192   3.796   6.001 -0.2885  0.1208  0.2673
 5496SOL    HW128121   1.181   3.885   6.034 -0.0476 -0.3750  1.6702
 5496SOL    HW228122   1.278   3.771   6.034 -1.0864 -2.1271  0.6265
 5497SOL     OW28123   0.282   4.199   6.874 -0.1805 -0.3111  0.1170
 5497SOL    HW128124   0.252   4.150   6.797  0.2960 -0.8444  0.2679
 5497SOL    HW228125   0.236   4.148   6.941  0.5255  0.9052  1.5038
 5498SOL     OW28126   2.377   2.964   6.307 -0.4498 -0.0918  0.0419
 5498SOL    HW128127   2.404   2.874   6.323 -0.4622  0.0592  0.9133
 5498SOL    HW228128   2.416   2.976   6.220 -0.9860 -0.8371 -0.3031
 5499SOL     OW28129   1.612   2.802   2.293  0.1363 -0.4998 -0.2528
 5499SOL    HW128130   1.624   2.774   2.202  2.3296 -3.4502  0.9457
 5499SOL    HW228131   1.694   2.850   2.305 -0.1462 -0.5250  1.8013
 5500SOL     OW28132   0.392   4.169   9.202 -0.5710 -0.3632 -0.3407
 5500SOL    HW128133   0.446   4.149   9.125 -2.1626 -1.4852 -1.1593
 5500SOL    HW228134   0.351   4.083   9.217  0.4379 -0.9337 -0.8369
 5501SOL     OW28135   3.576   1.355  14.844 -0.1979 -0.0995 -0.3865
 5501SOL    HW128136   3.602   1.339  14.753 -1.4235  0.6217 -0.8749
 5501SOL    HW228137   3.488   1.393  14.839  0.5075  1.7433  1.2792
 5502SOL     OW28138   3.199   2.808   8.655 -0.2651 -0.2061 -0.3596
 5502SOL    HW128139   3.158   2.813   8.569  0.6556  0.0237 -0.7815
 5502SOL    HW228140   3.172   2.895   8.684  0.4518  0.2004 -0.9385
 5503SOL     OW28141   1.703   3.001   2.733 -0.4352  0.3115  0.4808
 5503SOL    HW128142   1.782   2.948   2.729 -0.1283  0.7309  0.9067
 5503SOL    HW228143   1.655   2.973   2.655 -1.0280  2.4862  0.0527
 5504SOL     OW28144   1.995   0.187   4.510  0.7252  0.1147 -1.0019
 5504SOL    HW128145   2.032   0.119   4.455  0.9150  1.5597 -2.6736
 5504SOL    HW228146   1.926   0.139   4.557  0.9519  0.4437 -0.3263
 5505SOL     OW28147   2.240   2.123  16.431  0.2460 -0.2538 -0.3074
 5505SOL    HW128148   2.257   2.173  16.510 -2.1112 -0.4889  0.3495
 5505SOL    HW228149   2.306   2.054  16.441  1.3728  0.7455 -0.8944
 5506SOL     OW28150   1.149   2.939   2.136  0.5740 -0.0496 -1.1379
 5506SOL    HW128151   1.068   2.990   2.125 -1.0483 -2.1563  1.0047
 5506SOL    HW228152   1.119   2.849   2.149 -0.5822  0.2539 -1.6365
 5507SOL     OW28153   1.866   4.322   4.509 -0.0739  0.3354  0.4061
 5507SOL    HW128154   1.901   4.319   4.598  0.2560  1.2206  0.3003
 5507SOL    HW228155   1.773   4.312   4.530 -0.1972 -0.8577 -0.6851
 5508SOL     OW28156   4.014   3.212   6.308 -0.5371  0.1093 -0.2431
 5508SOL    HW128157   3.959   3.200   6.231  1.5472  0.9557 -1.8423
 5508SOL    HW228158   4.060   3.295   6.297 -0.1274 -0.3301 -1.8502
 5509SOL     OW28159   3.726   1.382   9.664  0.1072 -0.3478  0.5787
 5509SOL    HW128160   3.791   1.320   9.698  1.8095  0.4724 -1.1448
 5509SOL    HW228161   3.689   1.329   9.594 -0.0758  2.0982 -1.1589
 5510SOL     OW28162   3.648   2.547   4.813  0.3727 -0.6924 -0.3341
 5510SOL    HW128163   3.590   2.536   4.737 -1.7697 -1.4341  1.4351
 5510SOL    HW228164   3.630   2.472   4.869  1.0253 -0.0105  0.7727
 5511SOL     OW28165   1.341   2.876  10.794 -0.2025 -0.0718  0.4751
 5511SOL    HW128166   1.423   2.911  10.830  1.2970 -1.0717 -2.0247
 5511SOL    HW228167   1.303   2.956  10.758  1.9210  1.5009  1.7022
 5512SOL     OW28168   1.320   0.403   5.991  0.3543 -0.2515 -0.1244
 5512SOL    HW128169   1.335   0.496   5.976 -1.5351  0.5955  3.3312
 5512SOL    HW228170   1.255   0.386   5.922 -0.0554  1.6320 -0.2110
 5513SOL     OW28171   3.770   1.696   5.209  0.7193 -0.0163 -0.0999
 5513SOL    HW128172   3.811   1.614   5.183  0.1823  0.4033 -2.2254
 5513SOL    HW228173   3.693   1.671   5.261  1.0851 -1.2172 -0.1227
 5514SOL     OW28174   0.017   4.600   8.163  0.2051  0.2861 -0.0744
 5514SOL    HW128175   4.677   4.645   8.138 -0.5479  0.5564  2.8096
 5514SOL    HW228176   0.051   4.669   8.221 -3.4556  1.1598  1.0454
 5515SOL     OW28177   4.198   4.158   3.944 -0.1889 -0.2920  0.0289
 5515SOL    HW128178   4.288   4.180   3.967 -1.1411  1.6048  1.9414
 5515SOL    HW228179   4.158   4.243   3.962 -1.8777 -1.4862  1.8797
 5516SOL     OW28180   1.410   1.595   8.891  0.2107  0.5694  0.0598
 5516SOL    HW128181   1.396   1.687   8.869  1.3258  0.4667 -1.0678
 5516SOL    HW228182   1.369   1.548   8.819 -1.3136  0.4511  1.0120
 5517SOL     OW28183   2.497   0.647  11.003 -0.2481  0.2754 -0.5095
 5517SOL    HW128184   2.464   0.672  11.089 -0.6471  1.4599 -0.9993
 5517SOL    HW228185   2.448   0.705  10.945 -2.1841 -1.2138 -0.3371
 5518SOL     OW28186   3.179   2.384   9.714 -0.4104 -0.0356  0.1379
 5518SOL    HW128187   3.175   2.333   9.795  0.1571  1.6777  1.2575
 5518SOL    HW228188   3.174   2.477   9.736  0.0559 -0.0350  0.2456
 5519SOL     OW28189   1.958   1.200   5.971  0.1389  0.0098  0.4002
 5519SOL    HW128190   1.925   1.118   6.008  1.9002  0.0573  2.0648
 5519SOL    HW228191   1.878   1.237   5.932 -0.4855 -0.5717  1.1149
 5520SOL     OW28192   4.078   2.501   2.742 -0.0484  0.2265 -0.0006
 5520SOL    HW128193   4.156   2.467   2.698 -0.2986  1.3884 -1.3321
 5520SOL    HW228194   4.014   2.511   2.672  1.1115 -1.9389 -1.3935
 5521SOL     OW28195   0.698   2.894   9.321  0.6117 -0.0932 -0.7035
 5521SOL    HW128196   0.680   2.804   9.350  2.0889 -0.1315  0.1137
 5521SOL    HW228197   0.780   2.888   9.273  0.9277 -2.4366  0.1288
 5522SOL     OW28198   3.461   4.725   7.979  0.4723  0.3630  0.3073
 5522SOL    HW128199   3.405   0.061   7.977 -0.0237 -0.0094 -0.3021
 5522SOL    HW228200   3.510   0.003   8.060  0.2783  0.6814  0.3479
 5523SOL     OW28201   4.672   3.545   6.017  0.5222 -0.3526  0.3025
 5523SOL    HW128202   4.607   3.615   6.013 -1.2269 -1.8010  3.8143
 5523SOL    HW228203   4.706   3.549   5.927 -1.7132 -0.0279 -0.5448
 5524SOL     OW28204   1.226   1.399   6.975 -0.0993 -0.0085  0.5737
 5524SOL    HW128205   1.166   1.444   7.034  0.4037  0.1596  0.9663
 5524SOL    HW228206   1.287   1.472   6.965 -1.1721  0.7748 -0.1468
 5525SOL     OW28207   2.390   1.188  13.160 -0.4126 -0.1517  0.2599
 5525SOL    HW128208   2.382   1.112  13.103 -1.2722 -1.1065  1.6485
 5525SOL    HW228209   2.476   1.218  13.130 -1.2773  2.5390  0.4785
 5526SOL     OW28210   1.113   0.472   4.028  0.1443 -0.2796  0.1295
 5526SOL    HW128211   1.147   0.540   4.086  2.5398 -0.2845 -1.2470
 5526SOL    HW228212   1.198   0.446   3.991 -0.5618 -0.3237 -1.4697
 5527SOL     OW28213   0.760   0.206   4.417 -0.1561 -0.1633 -0.4475
 5527SOL    HW128214   0.759   0.112   4.435  1.5024 -0.3595 -1.3396
 5527SOL    HW228215   0.793   0.242   4.499 -1.8372  1.6996 -0.6017
 5528SOL     OW28216   1.248   2.331   6.969  0.6208  0.5552 -0.1992
 5528SOL    HW128217   1.255   2.389   6.893  0.0877  2.1129  0.9514
 5528SOL    HW228218   1.167   2.364   7.007 -0.1387 -0.6214 -0.7980
 5529SOL     OW28219   0.023   3.264  13.017  0.0022  0.0848 -0.4105
 5529SOL    HW128220   0.051   3.196  12.955 -1.5655  0.4449 -1.5186
 5529SOL    HW228221   4.691   3.307  12.974 -1.5086 -1.2682  0.8458
 5530SOL     OW28222   4.139   0.020   5.494  0.5909 -0.0062  0.0190
 5530SOL    HW128223   4.105   4.693   5.435  0.0600 -1.1282  1.6400
 5530SOL    HW228224   4.068   0.082   5.509 -0.2867 -1.0990  0.3721
 5531SOL     OW28225   2.422   0.039   4.258  0.1085  0.6723 -0.3040
 5531SOL    HW128226   2.370   0.034   4.178 -1.6957 -1.1563  0.9699
 5531SOL    HW228227   2.503   4.735   4.235 -0.2617  0.6232 -1.5171
 5532SOL     OW28228   4.173   0.748   7.251  0.6074 -0.4072  0.2035
 5532SOL    HW128229   4.224   0.820   7.215 -1.1032  1.8861  2.3271
 5532SOL    HW228230   4.102   0.735   7.188  0.1354 -1.1303  0.8857
 5533SOL     OW28231   4.613   4.301  10.377 -0.5876  0.4493 -0.4125
 5533SOL    HW128232   4.522   4.327  10.394 -1.0430 -0.6158 -1.2574
 5533SOL    HW228233   4.661   4.346  10.446 -1.4256  0.5158  0.1338
 5534SOL     OW28234   0.597   2.572  16.098  0.0552 -0.4163 -0.6907
 5534SOL    HW128235   0.620   2.508  16.031 -1.1356 -0.7858 -0.7584
 5534SOL    HW228236   0.620   2.515  16.171  1.0936  0.4327 -0.3570
 5535SOL     OW28237   4.300   1.592   2.677 -0.2120  0.4963 -0.0403
 5535SOL    HW128238   4.376   1.542   2.706  0.5104  0.5132 -1.9697
 5535SOL    HW228239   4.228   1.539   2.712  0.6547 -0.6860 -0.0323
 5536SOL     OW28240   0.126   0.715   2.641  0.4246 -0.1279 -0.3817
 5536SOL    HW128241   0.084   0.633   2.666  1.0673 -0.3104  0.0952
 5536SOL    HW228242   0.208   0.708   2.689  0.1143  2.0601  0.4716
 5537SOL     OW28243   3.964   3.529  15.110  0.0837 -0.2599 -0.2289
 5537SOL    HW128244   4.052   3.541  15.075 -0.3358  2.4325 -0.3560
 5537SOL    HW228245   3.938   3.445  15.073 -0.0649 -0.3083 -0.0140
 5538SOL     OW28246   0.786   1.973   8.247  0.0957  0.2176  0.2353
 5538SOL    HW128247   0.703   1.977   8.294  0.3854 -2.5711  1.0106
 5538SOL    HW228248   0.850   1.998   8.314  1.7562  0.9624 -1.6175
 5539SOL     OW28249   4.315   4.704   1.088 -0.1090  0.2908  0.8486
 5539SOL    HW128250   4.241   4.742   1.136 -1.0047 -1.4023  0.7840
 5539SOL    HW228251   4.378   4.674   1.154  0.6845 -0.5065 -0.2772
 5540SOL     OW28252   0.903   4.402  16.282  0.2353 -0.3247  0.5830
 5540SOL    HW128253   0.829   4.352  16.319  0.9742 -1.3307  0.7018
 5540SOL    HW228254   0.966   4.330  16.288  0.9311  0.2075 -0.4448
 5541SOL     OW28255   3.076   0.523  17.049 -0.2962 -0.5943 -0.2671
 5541SOL    HW128256   3.014   0.582  17.092 -0.0592  0.5311 -1.4821
 5541SOL    HW228257   3.019   0.457  17.009 -0.0592  0.0159 -1.5903
 5542SOL     OW28258   3.789   1.593   6.133 -0.4252 -0.5018 -0.2548
 5542SOL    HW128259   3.873   1.593   6.087 -0.9531 -0.6138 -1.2119
 5542SOL    HW228260   3.814   1.609   6.224 -1.3173  0.4907 -0.1848
 5543SOL     OW28261   0.279   2.326   9.782 -0.4275  0.0300  0.2285
 5543SOL    HW128262   0.243   2.244   9.748  0.6779  0.5916 -2.3047
 5543SOL    HW228263   0.265   2.388   9.711  0.4183  0.5048  0.4714
 5544SOL     OW28264   3.230   0.579   7.237  0.5628  0.0211 -1.0415
 5544SOL    HW128265   3.155   0.563   7.295 -0.0373 -1.0075 -2.0932
 5544SOL    HW228266   3.183   0.601   7.157  0.3029  0.3020 -0.8161
 5545SOL     OW28267   1.138   1.755   9.103  0.6008  0.5086 -0.2418
 5545SOL    HW128268   1.219   1.807   9.106  1.0497 -0.1277 -1.4450
 5545SOL    HW228269   1.115   1.762   9.195 -2.1609 -1.5680 -0.7994
 5546SOL     OW28270   1.502   1.444   4.280 -0.0356 -0.1926  0.4804
 5546SOL    HW128271   1.497   1.511   4.348  1.4057  1.4470 -1.0474
 5546SOL    HW228272   1.512   1.502   4.205  0.6880 -0.8543  0.0652
 5547SOL     OW28273   0.212   2.877   4.836  0.3955  0.1646  0.2102
 5547SOL    HW128274   0.220   2.789   4.876 -2.0955  0.0448  0.3960
 5547SOL    HW228275   0.276   2.918   4.895  0.7131 -0.3295  0.2113
 5548SOL     OW28276   3.184   0.378   2.862 -0.2782  0.8708  0.1516
 5548SOL    HW128277   3.223   0.419   2.940  2.1596 -2.4542  0.6944
 5548SOL    HW228278   3.093   0.370   2.891 -0.0862 -0.7517  0.3249
 5549SOL     OW28279   2.323   3.169   5.367  0.1467  0.3788  0.5932
 5549SOL    HW128280   2.329   3.210   5.281  0.0472 -0.6007  0.1151
 5549SOL    HW228281   2.228   3.157   5.375 -0.1022  0.2013 -2.7912
 5550SOL     OW28282   2.549   1.509   6.141 -0.2104  0.6901  0.4709
 5550SOL    HW128283   2.475   1.551   6.186 -0.5309 -0.8630  1.3979
 5550SOL    HW228284   2.528   1.538   6.053  0.4452 -1.4441 -0.3763
 5551SOL     OW28285   4.135   4.715   4.481  0.3219  0.1049  0.2928
 5551SOL    HW128286   4.043   4.721   4.453 -0.0366 -1.0132  1.2466
 5551SOL    HW228287   4.142   0.058   4.526 -0.6113  0.5210 -0.3360
 5552SOL     OW28288   2.571   3.832   5.333 -0.0377 -0.1434 -0.1292
 5552SOL    HW128289   2.571   3.871   5.420  0.3096 -2.0570  0.7300
 5552SOL    HW228290   2.626   3.893   5.283 -1.6878 -0.0347 -1.8243
 5553SOL     OW28291   4.109   4.367   1.466 -0.3729  0.4350  0.0078
 5553SOL    HW128292   4.096   4.455   1.430  1.7069 -0.1683 -2.2646
 5553SOL    HW228293   4.096   4.389   1.558 -0.5368 -1.6838  0.4820
 5554SOL     OW28294   1.567   1.375   7.061 -0.3374  0.0280 -0.4789
 5554SOL    HW128295   1.644   1.380   7.005  0.1054  0.8717  0.1807
 5554SOL    HW228296   1.524   1.458   7.038 -0.1195 -0.0725 -1.2321
 5555SOL     OW28297   1.535   4.070   1.058 -0.3920 -0.3568  0.1144
 5555SOL    HW128298   1.555   3.996   1.001  2.0835 -0.8148  1.5619
 5555SOL    HW228299   1.490   4.026   1.130  1.2313 -1.6543  0.3354
 5556SOL     OW28300   3.117   3.812  12.480  0.4722 -0.4032 -0.7529
 5556SOL    HW128301   3.104   3.904  12.459  1.7694  0.0723  0.5256
 5556SOL    HW228302   3.208   3.794  12.458  0.3050 -1.8759 -0.2264
 5557SOL     OW28303   4.222   3.747  15.916 -0.8776 -0.1400  0.1941
 5557SOL    HW128304   4.139   3.704  15.939 -0.7868 -1.3150 -1.7300
 5557SOL    HW228305   4.194   3.837  15.932 -0.1056 -0.0095  0.8154
 5558SOL     OW28306   1.089   0.369  16.172  0.7029 -0.1280  0.1909
 5558SOL    HW128307   1.013   0.354  16.116  1.6923 -1.1159 -0.8961
 5558SOL    HW228308   1.092   0.291  16.227 -1.6895  1.3129  2.3315
 5559SOL     OW28309   3.963   3.041  16.203  0.3795  0.3090 -0.4252
 5559SOL    HW128310   3.897   3.003  16.144 -0.6713  0.0935  0.9030
 5559SOL    HW228311   4.002   3.100  16.138 -0.7232 -0.1146 -1.4928
 5560SOL     OW28312   1.416   0.455   1.268  0.1648  0.0492 -0.6761
 5560SOL    HW128313   1.469   0.385   1.307 -1.4361 -1.0098 -0.3879
 5560SOL    HW228314   1.347   0.404   1.224 -0.0236 -0.9101  0.7527
 5561SOL     OW28315   0.541   3.506   5.905  0.0931  0.4203  0.2420
 5561SOL    HW128316   0.632   3.527   5.884 -0.6357  1.0608 -2.3658
 5561SOL    HW228317   0.529   3.549   5.989 -0.5407  0.1444  0.2920
 5562SOL     OW28318   3.064   4.189   0.806 -0.1180 -0.0824  0.5070
 5562SOL    HW128319   2.986   4.211   0.755  0.1598 -1.1389 -0.3797
 5562SOL    HW228320   3.095   4.270   0.844  1.3020 -0.6066  0.4515
 5563SOL     OW28321   4.099   1.723   3.391  0.0291 -0.3559 -0.1415
 5563SOL    HW128322   4.173   1.735   3.330  0.2739 -0.5051  0.1245
 5563SOL    HW228323   4.101   1.804   3.441 -1.0494  0.7275 -1.8472
 5564SOL     OW28324   0.058   0.338   6.849  0.2014  0.8205  0.5103
 5564SOL    HW128325   0.150   0.319   6.831 -0.1953 -0.1166 -0.5435
 5564SOL    HW228326   0.048   0.258   6.900  2.4292  2.1920  3.0670
 5565SOL     OW28327   3.137   3.901   1.306  0.0144 -0.3130  0.3600
 5565SOL    HW128328   3.108   3.921   1.217 -1.2560 -1.9519  0.4171
 5565SOL    HW228329   3.188   3.823   1.286  1.3005  0.0424  2.1970
 5566SOL     OW28330   4.404   2.684   1.400 -0.4324  0.3097 -1.0195
 5566SOL    HW128331   4.367   2.704   1.486  2.6302  2.5987 -0.2279
 5566SOL    HW228332   4.321   2.654   1.364  0.0446 -1.5546 -0.5712
 5567SOL     OW28333   0.841   4.341  14.513  0.1050 -0.1458  1.0079
 5567SOL    HW128334   0.766   4.374  14.562 -1.4385  1.6414 -2.6104
 5567SOL    HW228335   0.914   4.347  14.574  0.4509 -0.6545  0.6405
 5568SOL     OW28336   1.215   3.094  14.613  0.2279  0.6079 -0.0082
 5568SOL    HW128337   1.155   3.020  14.607  0.5112  0.2453  1.5496
 5568SOL    HW228338   1.195   3.125  14.701 -0.8230  0.8642 -0.3370
 5569SOL     OW28339   0.537   1.016  11.858  0.0433 -0.0677  0.2102
 5569SOL    HW128340   0.616   1.046  11.904 -0.7418  2.0087  0.2093
 5569SOL    HW228341   0.525   1.082  11.789 -0.1029 -1.9177 -1.5109
 5570SOL     OW28342   2.120   2.609   7.074 -0.1866 -0.1839 -1.0362
 5570SOL    HW128343   2.027   2.630   7.081 -0.5151 -1.6549 -0.8180
 5570SOL    HW228344   2.109   2.548   7.001  2.0386 -2.3884  0.4735
 5571SOL     OW28345   0.413   0.405  14.929 -0.3205  0.3837 -0.2332
 5571SOL    HW128346   0.500   0.444  14.921 -0.0238 -0.6426 -2.0732
 5571SOL    HW228347   0.361   0.467  14.878 -0.8461  0.4061  0.3317
 5572SOL     OW28348   0.109   2.065   6.959 -0.0580  0.0921  0.0058
 5572SOL    HW128349   0.117   1.979   7.000  1.1784  0.2872  0.1682
 5572SOL    HW228350   0.068   2.114   7.030  1.7265 -1.2362  1.9296
 5573SOL     OW28351   0.314   2.693   9.367  0.3247 -0.5691 -0.5708
 5573SOL    HW128352   0.235   2.684   9.314  0.2373 -0.4108 -0.4657
 5573SOL    HW228353   0.330   2.785   9.345 -2.3060 -0.5628 -2.5377
 5574SOL     OW28354   2.657   1.231   6.698 -0.3677 -0.0573  0.4018
 5574SOL    HW128355   2.604   1.235   6.618  0.6536  0.3657 -0.2533
 5574SOL    HW228356   2.585   1.231   6.762 -1.8149  0.2234 -1.2340
 5575SOL     OW28357   4.433   0.002   4.554 -0.2814 -0.2736 -0.4112
 5575SOL    HW128358   4.434   4.675   4.486 -1.5867 -0.1668 -0.5477
 5575SOL    HW228359   4.441   0.085   4.507 -0.2210  0.7815  1.4895
 5576SOL     OW28360   1.590   2.132   4.108  0.1900  0.1135 -0.1552
 5576SOL    HW128361   1.571   2.110   4.017 -0.1689  0.8151 -0.2538
 5576SOL    HW228362   1.518   2.096   4.159  1.2049 -0.4550  0.8574
 5577SOL     OW28363   2.483   2.751  16.472 -0.1170 -0.8342  0.2058
 5577SOL    HW128364   2.429   2.679  16.440 -2.2723  0.9498 -0.2142
 5577SOL    HW228365   2.480   2.807  16.394  0.6877 -1.0497  0.0267
 5578SOL     OW28366   0.774   3.769   6.247  0.3815 -0.1840  0.0146
 5578SOL    HW128367   0.712   3.841   6.231 -0.8904 -0.5958  3.1330
 5578SOL    HW228368   0.731   3.694   6.205 -1.9714 -0.0869  2.2560
 5579SOL     OW28369   4.733   3.733   5.630 -0.3977  0.4124  0.2451
 5579SOL    HW128370   4.693   3.816   5.607 -0.1102 -0.0030 -1.8045
 5579SOL    HW228371   0.047   3.749   5.706  1.0278 -0.1799 -0.6516
 5580SOL     OW28372   3.146   2.227   5.266 -0.0587  0.0586  0.8418
 5580SOL    HW128373   3.107   2.173   5.197  0.9703  2.4724 -1.5820
 5580SOL    HW228374   3.191   2.297   5.221 -0.6278  0.5641  1.0554
 5581SOL     OW28375   2.169   3.102   8.004  0.2578 -0.6070 -0.3346
 5581SOL    HW128376   2.139   3.014   8.025  1.3824 -0.8719  0.1772
 5581SOL    HW228377   2.258   3.089   7.972  1.1681 -1.3174  2.4446
 5582SOL     OW28378   2.546   2.735   3.085  0.1146  0.5279  0.4279
 5582SOL    HW128379   2.631   2.701   3.112  0.8121  2.5543  0.7892
 5582SOL    HW228380   2.553   2.828   3.107 -0.6342  0.2821  1.6756
 5583SOL     OW28381   4.687   0.765  16.157  0.2769 -0.2115  0.1521
 5583SOL    HW128382   4.634   0.687  16.142  0.5572 -0.1818 -0.9891
 5583SOL    HW228383   0.006   0.735  16.225  1.4998  0.6133 -0.5848
 5584SOL     OW28384   3.588   3.018   0.818 -0.3442 -0.6580 -0.1490
 5584SOL    HW128385   3.513   3.049   0.768 -0.5820 -0.7928  0.1225
 5584SOL    HW228386   3.624   3.095   0.862  1.5432 -1.3662 -0.4527
 5585SOL     OW28387   3.699   2.561   8.737  0.3239  0.7645  0.8260
 5585SOL    HW128388   3.621   2.588   8.786  0.5711  0.8888  1.1552
 5585SOL    HW228389   3.662   2.545   8.650 -2.2250 -0.5638  2.1555
 5586SOL     OW28390   1.698   2.502   9.427  0.0008  0.2312 -0.3866
 5586SOL    HW128391   1.645   2.495   9.506  2.3086  1.0275  1.2186
 5586SOL    HW228392   1.759   2.572   9.452 -0.0532 -0.1361  0.7509
 5587SOL     OW28393   1.271   0.770  12.415  0.2684  0.5802  0.5110
 5587SOL    HW128394   1.176   0.778  12.418  0.2116 -0.0168  0.2858
 5587SOL    HW228395   1.307   0.786  12.502 -2.6605  1.0924  1.6213
 5588SOL     OW28396   4.104   2.163  15.825 -0.2364 -0.0358  0.0029
 5588SOL    HW128397   4.190   2.176  15.786 -0.7778  0.1349 -1.1384
 5588SOL    HW228398   4.129   2.126  15.910 -2.6483  1.4542  1.3685
 5589SOL     OW28399   2.664   3.226  17.538 -0.4009  0.1685  0.8522
 5589SOL    HW128400   2.754   3.202  17.517 -0.3906  0.1428  0.9240
 5589SOL    HW228401   2.671   3.259  17.628 -1.9815  1.2555  0.5766
 5590SOL     OW28402   0.765   1.343   4.188  0.6928  0.1084 -0.1384
 5590SOL    HW128403   0.816   1.362   4.267 -0.1260  2.1117 -0.0774
 5590SOL    HW228404   0.810   1.401   4.126  1.6788 -1.6704 -1.0775
 5591SOL     OW28405   3.326   0.243   7.964  0.3344  0.0320  0.6968
 5591SOL    HW128406   3.256   0.308   7.962 -0.4715 -0.8524  0.4490
 5591SOL    HW228407   3.403   0.299   7.975  1.6239 -1.3125 -1.7222
 5592SOL     OW28408   1.363   0.846   1.019 -0.7210  0.3662 -0.1303
 5592SOL    HW128409   1.296   0.812   0.960 -1.5813 -0.7555  1.4977
 5592SOL    HW228410   1.328   0.827   1.106  0.2125  0.5353  0.2893
 5593SOL     OW28411   1.293   2.917   8.210  0.4777 -0.1746 -0.0157
 5593SOL    HW128412   1.315   2.969   8.133 -2.0279  1.8204  0.6172
 5593SOL    HW228413   1.379   2.914   8.251  2.0331  0.1912 -3.2669
 5594SOL     OW28414   2.328   3.258  11.014 -0.5086 -0.0144  0.1076
 5594SOL    HW128415   2.294   3.347  11.005 -0.8885 -0.2418 -0.6591
 5594SOL    HW228416   2.379   3.257  10.933 -0.1360 -0.3957  0.3456
 5595SOL     OW28417   2.439   0.944   8.986 -0.8217 -0.8187  0.3174
 5595SOL    HW128418   2.381   0.951   8.910  1.2441 -0.8490 -1.2817
 5595SOL    HW228419   2.431   0.853   9.011 -0.4657 -0.9452 -0.0150
 5596SOL     OW28420   3.139   3.035   5.842 -0.0717 -0.0391  0.0481
 5596SOL    HW128421   3.171   3.085   5.767 -1.6314  1.0751  0.1204
 5596SOL    HW228422   3.204   2.964   5.843  0.8027  0.7286 -1.7876
 5597SOL     OW28423   1.688   3.192   3.614 -0.5428  0.0274 -0.5899
 5597SOL    HW128424   1.617   3.237   3.660  0.6143  0.7448  0.5072
 5597SOL    HW228425   1.657   3.210   3.526 -2.0955 -0.0863 -0.0667
 5598SOL     OW28426   4.494   3.636   4.636 -0.4813  0.3332  0.1697
 5598SOL    HW128427   4.466   3.659   4.725  0.5259 -1.5160  0.9615
 5598SOL    HW228428   4.432   3.568   4.612  0.1333 -0.8761  1.9977
 5599SOL     OW28429   3.628   2.644   5.397 -0.6139  0.4615 -0.5294
 5599SOL    HW128430   3.540   2.614   5.374 -1.1983  1.8718 -0.1779
 5599SOL    HW228431   3.623   2.739   5.407 -0.1108  0.4630 -0.3045
 5600SOL     OW28432   4.348   3.138   4.613  0.3193 -0.4804  0.0001
 5600SOL    HW128433   4.375   3.050   4.638 -0.5953 -1.0067 -0.8529
 5600SOL    HW228434   4.299   3.155   4.694  1.1462  0.4908  0.2911
 5601SOL     OW28435   0.960   0.570   1.887  0.2737  0.2002  0.2833
 5601SOL    HW128436   1.026   0.637   1.905  0.1027  0.0623  1.4126
 5601SOL    HW228437   0.980   0.513   1.961  3.0397  1.7630  0.7269
 5602SOL     OW28438   0.412   3.588   5.340 -0.0218 -0.3247  0.1555
 5602SOL    HW128439   0.399   3.511   5.285 -2.8754 -1.5646  2.5526
 5602SOL    HW228440   0.338   3.637   5.304 -0.4569 -1.1662 -0.1041
 5603SOL     OW28441   3.869   4.480  17.642 -0.4022  0.1999 -0.3309
 5603SOL    HW128442   3.964   4.476  17.632 -0.5193  1.4625 -2.0102
 5603SOL    HW228443   3.868   4.444  17.730  0.6026 -0.8369 -0.7417
 5604SOL     OW28444   1.980   3.599   7.096  0.3099  0.1942 -0.2493
 5604SOL    HW128445   2.033   3.632   7.023 -3.2283  0.4485 -2.7261
 5604SOL    HW228446   2.000   3.663   7.165 -1.3572  0.7875 -0.3107
 5605SOL     OW28447   2.701   2.506   7.204  0.3431 -0.4098  0.1688
 5605SOL    HW128448   2.638   2.471   7.141  0.7674 -2.0543  0.6394
 5605SOL    HW228449   2.713   2.597   7.178  2.5308 -0.5344  0.7341
 5606SOL     OW28450   4.658   0.053   5.099 -0.5082  0.0862 -0.1540
 5606SOL    HW128451   4.704   0.131   5.131 -0.0866  0.5159 -1.8129
 5606SOL    HW228452   4.620   0.016   5.179  0.6718 -1.1216 -0.1616
 5607SOL     OW28453   4.338   0.065   8.987  0.5289 -0.1979  0.1432
 5607SOL    HW128454   4.273   0.133   9.000 -0.4232 -1.0327 -0.2974
 5607SOL    HW228455   4.411   0.126   8.970  0.4916 -0.6867 -1.7920
 5608SOL     OW28456   0.450   4.399   2.600 -0.3356 -0.0959  0.1112
 5608SOL    HW128457   0.421   4.490   2.611 -0.3933 -0.1331  0.2593
 5608SOL    HW228458   0.513   4.415   2.529  0.0692 -0.6262  0.3588
 5609SOL     OW28459   3.792   2.754   1.740  1.0339 -0.5135  0.0773
 5609SOL    HW128460   3.827   2.805   1.668 -1.4470 -1.4513 -1.7676
 5609SOL    HW228461   3.711   2.803   1.755  0.9275  0.6971 -4.7494
 5610SOL     OW28462   2.285   3.803   3.229 -0.2120  0.2194 -0.0070
 5610SOL    HW128463   2.204   3.775   3.272 -0.1589 -0.1799 -0.1647
 5610SOL    HW228464   2.261   3.807   3.136 -1.2129 -1.4828  0.1605
 5611SOL     OW28465   1.716   1.659   9.451 -0.0825 -0.5464  0.3740
 5611SOL    HW128466   1.699   1.744   9.411 -1.0383 -0.5095  0.8511
 5611SOL    HW228467   1.805   1.676   9.482  0.8332 -3.0798 -0.8392
 5612SOL     OW28468   0.301   0.790   0.214  0.0865 -0.5725 -0.1563
 5612SOL    HW128469   0.293   0.776   0.308  0.2223  0.4703  0.0094
 5612SOL    HW228470   0.287   0.705   0.172  0.4741 -0.8416  0.2622
 5613SOL     OW28471   1.475   1.283   9.063 -0.3553  0.4411 -0.1310
 5613SOL    HW128472   1.467   1.280   8.968  2.8430  0.6711 -0.4065
 5613SOL    HW228473   1.415   1.356   9.081  0.6743  0.7303  2.1542
 5614SOL     OW28474   2.115   1.478   8.946 -0.9485  0.0041  0.0844
 5614SOL    HW128475   2.107   1.392   8.905  2.9142  1.0709 -2.9492
 5614SOL    HW228476   2.202   1.474   8.985 -0.0273  1.5688 -1.7986
 5615SOL     OW28477   2.730   1.226   5.189  0.0743 -0.5550 -0.0412
 5615SOL    HW128478   2.778   1.149   5.217 -0.7894 -0.3837  1.9221
 5615SOL    HW228479   2.785   1.292   5.231  0.2405 -0.1064 -0.9613
 5616SOL     OW28480   0.872   2.996   8.968  0.0858 -0.5300  0.5424
 5616SOL    HW128481   0.841   2.919   8.921  1.0914 -0.3900 -0.3792
 5616SOL    HW228482   0.900   2.960   9.052  0.4595 -1.0430  0.1987
 5617SOL     OW28483   1.225   3.006  15.066  0.1066  0.0556  0.6593
 5617SOL    HW128484   1.294   2.942  15.053  0.3950  0.2793  1.1350
 5617SOL    HW228485   1.148   2.949  15.064  0.5599 -0.6239  2.9183
 5618SOL     OW28486   3.468   1.173   2.392  0.1441  0.4027 -0.2749
 5618SOL    HW128487   3.431   1.207   2.311  0.6059 -0.4754 -0.8436
 5618SOL    HW228488   3.521   1.097   2.370  0.7021  0.7559 -0.1403
 5619SOL     OW28489   2.466   1.709   9.695 -0.0024 -0.1427 -0.3181
 5619SOL    HW128490   2.507   1.763   9.763 -0.2318 -0.2244 -0.1158
 5619SOL    HW228491   2.388   1.761   9.676  1.4495  2.0379 -0.2697
 5620SOL     OW28492   0.632   3.030   8.003  0.0919 -0.1759  0.1630
 5620SOL    HW128493   0.657   3.007   8.093  1.0296 -1.2553 -0.3628
 5620SOL    HW228494   0.650   2.947   7.959 -1.5374 -1.6992  2.3783
 5621SOL     OW28495   3.485   1.120   6.448  0.2898  0.4009 -0.1502
 5621SOL    HW128496   3.436   1.080   6.376  1.3139 -0.2410 -0.4901
 5621SOL    HW228497   3.421   1.109   6.518  0.0300  1.1313 -0.2738
 5622SOL     OW28498   2.585   3.306   9.492 -0.3951 -0.3693  0.2070
 5622SOL    HW128499   2.576   3.337   9.582  0.8700 -1.3232  0.6605
 5622SOL    HW228500   2.612   3.216   9.511  2.6935  0.3210 -0.9904
 5623SOL     OW28501   1.861   1.377   9.003 -0.5159  0.0726 -0.6049
 5623SOL    HW128502   1.935   1.438   8.998 -1.7846  1.7182  0.6095
 5623SOL    HW228503   1.798   1.420   8.944 -1.2060 -0.9762 -0.6402
 5624SOL     OW28504   0.446   1.143   3.186 -0.6581  0.4679 -0.0244
 5624SOL    HW128505   0.359   1.130   3.223 -0.1678 -0.2616  0.8531
 5624SOL    HW228506   0.456   1.066   3.131 -0.7254 -1.3196  2.4975
 5625SOL     OW28507   0.198   0.130   7.667  0.3588  0.2984 -0.2698
 5625SOL    HW128508   0.150   0.129   7.750 -0.8072  2.7817 -0.9361
 5625SOL    HW228509   0.123   0.123   7.609  0.4004  0.7140 -0.3729
 5626SOL     OW28510   3.377   2.050   8.055  0.5942  0.3529 -0.1396
 5626SOL    HW128511   3.371   2.052   8.150  1.6010 -1.7366 -0.0409
 5626SOL    HW228512   3.382   2.143   8.031  0.1059  0.3020 -0.4461
 5627SOL     OW28513   2.586   1.511   1.025 -0.6198 -0.2196  0.2086
 5627SOL    HW128514   2.656   1.498   0.960  0.8849 -0.2296  1.8362
 5627SOL    HW228515   2.627   1.502   1.111 -0.0447 -3.2128 -0.3777
 5628SOL     OW28516   4.735   2.799   3.972  0.0938  0.4177  0.4515
 5628SOL    HW128517   4.652   2.756   3.997 -0.6973  1.2998 -0.6770
 5628SOL    HW228518   4.741   2.853   4.050 -2.4536 -0.0367  0.9754
 5629SOL     OW28519   4.444   0.564   6.194 -0.2393 -0.5606  0.5703
 5629SOL    HW128520   4.514   0.573   6.258  0.6906  0.6171 -0.6147
 5629SOL    HW228521   4.372   0.619   6.225 -0.4110 -1.6921  2.1616
 5630SOL     OW28522   0.272   1.565  17.327 -0.0090 -0.4423 -0.2125
 5630SOL    HW128523   0.328   1.607  17.262 -2.6192  3.2542 -0.0874
 5630SOL    HW228524   0.190   1.538  17.286  0.8604 -0.8973 -1.6293
 5631SOL     OW28525   1.938   4.016   4.714 -0.2050  0.1530  0.5669
 5631SOL    HW128526   1.946   4.111   4.706  2.3472 -0.2061 -0.8762
 5631SOL    HW228527   1.852   3.998   4.753  0.8049 -3.2472  1.1390
 5632SOL     OW28528   3.602   3.766  16.374  0.1211 -0.2902 -0.2492
 5632SOL    HW128529   3.599   3.856  16.343 -1.3184 -0.2142  0.0709
 5632SOL    HW228530   3.638   3.711  16.304  0.2667  0.7256 -0.9635
 5633SOL     OW28531   1.383   4.121  15.064  0.1482 -0.3522 -0.0781
 5633SOL    HW128532   1.434   4.104  14.985 -0.5085  0.2780 -0.6273
 5633SOL    HW228533   1.451   4.147  15.127  0.2997  0.1071 -0.4292
 5634SOL     OW28534   3.096   3.702   6.979  0.4692  0.4373  0.4017
 5634SOL    HW128535   3.017   3.666   6.941  2.7087 -0.8932 -2.9497
 5634SOL    HW228536   3.082   3.694   7.074 -0.3908  1.8351  0.3871
 5635SOL     OW28537   3.054   0.312   3.707 -0.2224 -0.0875  0.7023
 5635SOL    HW128538   3.004   0.258   3.646 -2.2502 -0.3352  2.5876
 5635SOL    HW228539   3.058   0.258   3.786  0.6294 -1.3176 -0.1776
 5636SOL     OW28540   3.534   2.401   2.473  0.5036 -0.0254 -0.1077
 5636SOL    HW128541   3.600   2.449   2.523  0.6745 -0.7594  0.3703
 5636SOL    HW228542   3.552   2.322   2.524  0.7209 -1.8258 -2.9322
 5637SOL     OW28543   4.097   4.195   8.417 -0.2784  0.1244  0.7520
 5637SOL    HW128544   4.158   4.255   8.460 -0.4445 -0.2236  1.4799
 5637SOL    HW228545   4.028   4.180   8.481 -1.3746 -0.5668 -0.5872
 5638SOL     OW28546   0.812   1.927   3.273 -0.0450 -0.5325  0.8989
 5638SOL    HW128547   0.867   1.856   3.238 -0.2004 -0.8092  1.2151
 5638SOL    HW228548   0.732   1.921   3.221  0.4265 -0.5398  0.1768
 5639SOL     OW28549   0.629   0.023   2.571 -0.4753  0.8451 -0.2499
 5639SOL    HW128550   0.639   0.097   2.512  0.8094 -0.6445 -1.9138
 5639SOL    HW228551   0.718   4.729   2.569  0.1147  2.3033 -0.2510
 5640SOL     OW28552   3.680   2.042   4.949 -0.4322  0.8512  0.3510
 5640SOL    HW128553   3.698   2.026   5.041 -0.9505  0.4237  0.3793
 5640SOL    HW228554   3.765   2.023   4.909  0.5717  1.4286  2.2380
 5641SOL     OW28555   3.659   3.372   5.187  0.4816  0.5089 -0.7541
 5641SOL    HW128556   3.692   3.432   5.254  0.0180 -0.1725  0.0865
 5641SOL    HW228557   3.712   3.395   5.111 -0.6872  2.4090 -1.0054
 5642SOL     OW28558   1.157   1.555   2.414  0.3607 -0.0464 -0.0987
 5642SOL    HW128559   1.247   1.545   2.445  0.2262 -0.3724  0.1742
 5642SOL    HW228560   1.108   1.588   2.489  1.8808  0.1683  0.8031
 5643SOL     OW28561   3.393   4.610   1.140 -0.3553  0.2709 -0.2541
 5643SOL    HW128562   3.433   4.523   1.133  0.4150  0.5531  0.6527
 5643SOL    HW228563   3.343   4.628   1.060 -0.6102  0.3698 -0.0706
 5644SOL     OW28564   3.166   3.784  17.075 -0.2362  0.0338  0.1809
 5644SOL    HW128565   3.144   3.691  17.066  1.0078 -0.3327  1.0038
 5644SOL    HW228566   3.124   3.825  16.999  0.8818 -1.6708 -1.3625
 5645SOL     OW28567   4.372   4.599  10.861  0.3898 -0.1894  0.3176
 5645SOL    HW128568   4.445   4.540  10.874  0.7395 -0.0305 -1.0145
 5645SOL    HW228569   4.422   4.668  10.817  0.8345 -0.0107  1.0942
 5646SOL     OW28570   2.761   2.709   9.239 -0.3700  0.6173 -0.0230
 5646SOL    HW128571   2.784   2.616   9.241  1.3174  1.0395  0.2443
 5646SOL    HW228572   2.840   2.738   9.194  0.9128 -2.0690  0.4520
 5647SOL     OW28573   1.136   0.355   8.786  0.0178  0.8419 -0.7668
 5647SOL    HW128574   1.118   0.405   8.866  0.5753 -1.0296  0.5286
 5647SOL    HW228575   1.158   0.425   8.724  2.1226  0.6628 -0.2117
 5648SOL     OW28576   4.687   0.073   2.573 -0.5615  0.1005 -0.2795
 5648SOL    HW128577   4.718   0.053   2.661  0.7791 -0.1232 -0.7938
 5648SOL    HW228578   0.002   0.009   2.529  0.5394  1.1501 -0.3880
 5649SOL     OW28579   4.096   3.580  11.506 -0.0782 -0.3332  0.2743
 5649SOL    HW128580   4.112   3.673  11.489 -0.0458 -0.4057 -0.1002
 5649SOL    HW228581   4.182   3.546  11.529 -0.3776 -2.7358 -2.1552
 5650SOL     OW28582   4.462   2.765  16.614  0.2335  0.5419 -0.7283
 5650SOL    HW128583   4.485   2.672  16.613  0.3996  0.6101 -2.3805
 5650SOL    HW228584   4.402   2.768  16.540 -0.7549  1.5761  0.1070
 5651SOL     OW28585   0.468   4.154   2.200 -1.1139 -0.2034 -0.1867
 5651SOL    HW128586   0.426   4.219   2.144  0.0856  2.1741  1.6772
 5651SOL    HW228587   0.503   4.097   2.131  0.1112 -1.0768  1.1487
 5652SOL     OW28588   3.918   2.629   6.192 -0.2131 -0.2852 -0.0226
 5652SOL    HW128589   3.894   2.589   6.276  1.0804  0.4408  0.7004
 5652SOL    HW228590   3.930   2.717   6.229 -1.0789  0.4263 -1.4375
 5653SOL     OW28591   2.125   1.167  13.258 -0.3436 -0.1969  0.0717
 5653SOL    HW128592   2.072   1.162  13.178 -0.1020 -2.2590  0.0342
 5653SOL    HW228593   2.210   1.140  13.223 -0.4660 -1.1373  0.4944
 5654SOL     OW28594   1.770   3.526  13.687  0.3282 -0.0228 -0.1689
 5654SOL    HW128595   1.787   3.604  13.633 -2.8457 -0.1935 -1.4067
 5654SOL    HW228596   1.739   3.569  13.766 -1.0675  0.3686 -0.9245
 5655SOL     OW28597   3.508   0.786   8.271 -0.3400  0.9401 -0.1970
 5655SOL    HW128598   3.566   0.835   8.330  0.5252  1.3425 -1.3632
 5655SOL    HW228599   3.429   0.795   8.324  0.2597 -0.4826  0.9452
 5656SOL     OW28600   4.485   4.197   2.589  0.7312  0.3884 -0.3444
 5656SOL    HW128601   4.455   4.171   2.502  3.1690 -1.3757 -0.6552
 5656SOL    HW228602   4.408   4.162   2.634  0.4311  2.1081  0.5121
 5657SOL     OW28603   1.208   0.276   7.528 -0.1637  0.0292  0.0385
 5657SOL    HW128604   1.228   0.184   7.543 -1.8108 -0.5875 -1.5759
 5657SOL    HW228605   1.274   0.323   7.579 -1.7854 -0.4722  2.5888
 5658SOL     OW28606   0.721   4.490  15.629 -0.0575 -0.4811 -0.6456
 5658SOL    HW128607   0.669   4.505  15.708 -0.0929 -0.7538 -0.6154
 5658SOL    HW228608   0.809   4.480  15.666  0.1684  0.1999 -1.0009
 5659SOL     OW28609   1.693   1.515   5.499 -0.0160 -0.0195  0.3592
 5659SOL    HW128610   1.677   1.439   5.554 -0.0967 -0.0338  0.3165
 5659SOL    HW228611   1.702   1.467   5.417 -1.7616  0.7376 -0.2825
 5660SOL     OW28612   4.233   4.595   0.361 -0.1764  0.5342  0.0860
 5660SOL    HW128613   4.221   4.660   0.292  0.8659  1.0772  0.4176
 5660SOL    HW228614   4.163   4.616   0.422 -1.5903 -1.6907 -0.7441
 5661SOL     OW28615   4.375   2.187   5.598  0.1710 -0.3168  0.6563
 5661SOL    HW128616   4.344   2.099   5.622 -0.4729 -0.5131 -0.9272
 5661SOL    HW228617   4.295   2.228   5.630 -0.9656 -0.6905 -1.6970
 5662SOL     OW28618   1.877   2.971   7.822  0.3435  0.4383 -0.5134
 5662SOL    HW128619   1.893   3.011   7.737  1.0789  2.3131  0.5103
 5662SOL    HW228620   1.901   2.879   7.813 -0.7921  0.0464  0.3683
 5663SOL     OW28621   0.106   1.036   8.292 -0.1614  0.4848 -0.0857
 5663SOL    HW128622   0.124   1.098   8.221 -0.9209  0.2291 -0.5026
 5663SOL    HW228623   0.117   1.090   8.370 -1.9925 -2.5757  2.2937
 5664SOL     OW28624   0.552   3.839   5.872 -0.1662  0.3938  0.2333
 5664SOL    HW128625   0.638   3.811   5.902 -0.3594 -2.0257 -1.4474
 5664SOL    HW228626   0.559   3.933   5.886 -1.7898  0.3523  1.3640
 5665SOL     OW28627   1.164   0.073   1.472 -0.1747  0.4564 -0.4350
 5665SOL    HW128628   1.109   0.067   1.550  0.0771  1.4210 -0.1874
 5665SOL    HW228629   1.246   0.048   1.514 -0.6431  1.2078  0.9313
 5666SOL     OW28630   4.659   1.473   8.066 -0.1541  0.4949  0.4128
 5666SOL    HW128631   4.615   1.558   8.061  0.0215  0.5806  0.3493
 5666SOL    HW228632   0.004   1.502   8.093  0.5707 -2.0986  0.8731
 5667SOL     OW28633   0.299   2.581   1.539 -0.1954 -0.2597 -0.3061
 5667SOL    HW128634   0.364   2.521   1.504  0.9037  0.5645  0.3206
 5667SOL    HW228635   0.237   2.566   1.468  0.8600  2.5813 -1.8035
 5668SOL     OW28636   2.467   3.875  17.237  0.3803  0.7127  0.1286
 5668SOL    HW128637   2.457   3.966  17.266 -3.2090 -0.4779  2.6387
 5668SOL    HW228638   2.525   3.894  17.163 -1.0996  2.0532 -0.6830
 5669SOL     OW28639   1.468   2.260   1.842  0.4629 -0.9764  0.5875
 5669SOL    HW128640   1.460   2.284   1.749  1.4755  0.0375  0.7691
 5669SOL    HW228641   1.420   2.331   1.883  0.8243  0.4386 -1.4354
 5670SOL     OW28642   1.663   2.988   6.459  0.0573  0.3091  0.5875
 5670SOL    HW128643   1.683   2.905   6.416  0.8802 -0.7620  3.0500
 5670SOL    HW228644   1.685   2.967   6.550  2.3972  1.2971  0.2570
 5671SOL     OW28645   2.591   0.881  11.204  0.0611 -0.2122  0.0741
 5671SOL    HW128646   2.505   0.839  11.208 -1.3920  2.7654  0.8583
 5671SOL    HW228647   2.643   0.811  11.244  2.6870 -0.0961 -3.1819
 5672SOL     OW28648   3.182   3.336  16.817  0.8383  0.1493  0.5120
 5672SOL    HW128649   3.241   3.297  16.880  1.0002 -0.5213 -0.0591
 5672SOL    HW228650   3.101   3.285  16.824 -0.9378  2.5278 -2.8135
 5673SOL     OW28651   1.033   4.630   3.287 -0.2992  0.3960  0.2101
 5673SOL    HW128652   1.050   4.544   3.325  0.9110  0.2301 -0.7056
 5673SOL    HW228653   0.993   4.679   3.359 -0.7860  0.8415 -0.3649
 5674SOL     OW28654   3.386   0.556   5.084 -0.2145  0.0668 -0.7175
 5674SOL    HW128655   3.359   0.615   5.013 -0.4125 -0.4217 -1.0429
 5674SOL    HW228656   3.349   0.471   5.060  0.6218 -0.4996  0.0010
 5675SOL     OW28657   0.355   2.683   5.258  0.2414 -0.4090 -0.5449
 5675SOL    HW128658   0.303   2.602   5.253 -0.8794  0.0417  3.2953
 5675SOL    HW228659   0.433   2.646   5.299  0.7404 -1.2902 -2.3030
 5676SOL     OW28660   2.966   1.159   5.936  0.6246 -0.1457  0.0502
 5676SOL    HW128661   3.041   1.165   5.995  0.5596  3.5723 -0.2558
 5676SOL    HW228662   2.904   1.210   5.988  0.6802 -0.3861  0.3505
 5677SOL     OW28663   4.682   1.043   7.046  0.4399 -0.0437  0.1825
 5677SOL    HW128664   0.002   0.971   7.052  1.4109  0.6482 -1.8615
 5677SOL    HW228665   4.647   1.029   6.958  0.1732 -0.7856  0.4071
 5678SOL     OW28666   2.388   2.235   7.852  0.1666  0.2428 -0.1702
 5678SOL    HW128667   2.426   2.323   7.858 -1.3497  0.8161  0.7984
 5678SOL    HW228668   2.309   2.246   7.800  0.4410  0.5559 -0.5217
 5679SOL     OW28669   4.598   2.608   7.482  0.2986  0.2787 -0.2409
 5679SOL    HW128670   4.603   2.701   7.461 -0.1500  0.5765  0.9451
 5679SOL    HW228671   4.503   2.596   7.479  0.7300 -2.3698 -2.9046
 5680SOL     OW28672   3.612   2.449   4.349 -0.0285 -0.1538 -0.2485
 5680SOL    HW128673   3.602   2.410   4.436  1.4565  1.2043  0.5221
 5680SOL    HW228674   3.676   2.391   4.308  0.5098  1.0944 -1.1883
 5681SOL     OW28675   0.943   1.992   9.775  0.4254 -0.1920  0.7357
 5681SOL    HW128676   0.863   1.948   9.747  0.5788 -0.0244  0.0218
 5681SOL    HW228677   0.921   2.027   9.861  4.1596 -1.3211  2.1564
 5682SOL     OW28678   2.795   4.056  17.363  0.3015  0.8745  0.1789
 5682SOL    HW128679   2.841   3.975  17.342 -0.5707  0.6423 -0.8447
 5682SOL    HW228680   2.803   4.095  17.276 -1.6135  1.9973  0.5059
 5683SOL     OW28681   0.298   0.613   3.500  0.6965 -0.0232  0.8020
 5683SOL    HW128682   0.277   0.558   3.425 -2.3040  0.1264  1.5517
 5683SOL    HW228683   0.393   0.616   3.488  0.1394  2.0167 -2.8587
 5684SOL     OW28684   1.767   1.874   8.083  0.7194 -0.3931  0.3612
 5684SOL    HW128685   1.696   1.939   8.086  2.2323  1.2294  0.5914
 5684SOL    HW228686   1.733   1.820   8.010  2.6038 -0.8930 -0.1381
 5685SOL     OW28687   0.839   3.279   1.796 -0.0713 -0.2061  0.3355
 5685SOL    HW128688   0.813   3.347   1.858 -0.3344 -0.0584  0.0661
 5685SOL    HW228689   0.852   3.340   1.723  0.9986 -0.5390  0.2441
 5686SOL     OW28690   0.468   1.709   9.225  0.0721  0.6044  0.2756
 5686SOL    HW128691   0.563   1.704   9.232  0.0999  2.6295  1.5027
 5686SOL    HW228692   0.436   1.619   9.223 -1.3966  1.1278 -0.1266
 5687SOL     OW28693   2.164   2.841   9.417  0.0323 -0.0132 -0.1381
 5687SOL    HW128694   2.089   2.856   9.474  0.8341 -0.7641  1.1191
 5687SOL    HW228695   2.186   2.749   9.435 -1.1755  0.2139  2.4273
 5688SOL     OW28696   4.209   3.048   3.585  0.2271  0.5864  0.3815
 5688SOL    HW128697   4.279   3.113   3.572  0.3041  0.1287 -1.3969
 5688SOL    HW228698   4.195   3.039   3.491  3.6522 -0.4388 -0.0338
 5689SOL     OW28699   4.527   4.457   2.418 -0.0853 -0.5282 -0.3121
 5689SOL    HW128700   4.548   4.364   2.411  1.1644 -0.3640  1.3549
 5689SOL    HW228701   4.598   4.487   2.474  1.7414 -2.0952 -1.8106
 5690SOL     OW28702   4.609   2.244  13.637 -0.4604  0.2482 -0.1718
 5690SOL    HW128703   4.541   2.230  13.572 -0.9438 -0.5270  0.4860
 5690SOL    HW228704   4.674   2.306  13.605  0.1331 -0.5597 -0.5541
 5691SOL     OW28705   2.836   4.356   0.355 -0.2742 -0.0391 -0.0020
 5691SOL    HW128706   2.846   4.377   0.262 -0.7957  1.7319  0.3448
 5691SOL    HW228707   2.777   4.426   0.382 -0.9709 -0.3054 -0.8005
 5692SOL     OW28708   2.094   3.239   7.319  0.5996  0.2188  0.1110
 5692SOL    HW128709   2.076   3.224   7.411  0.3586  1.7170  0.3106
 5692SOL    HW228710   2.009   3.268   7.286  0.2915  0.2579  0.9614
 5693SOL     OW28711   0.162   4.494   2.182 -0.0323  0.0445 -0.3638
 5693SOL    HW128712   0.210   4.556   2.127 -0.0656 -2.4293 -3.1540
 5693SOL    HW228713   0.154   4.542   2.264  1.3871 -1.4524  0.6655
 5694SOL     OW28714   3.680   3.261   1.204 -0.2591 -0.7676  0.1419
 5694SOL    HW128715   3.634   3.203   1.144 -0.8576 -2.6342  2.3835
 5694SOL    HW228716   3.758   3.276   1.150  0.8227 -1.0894  1.6041
 5695SOL     OW28717   3.446   1.557   8.789  0.1183 -0.0543  0.3667
 5695SOL    HW128718   3.482   1.492   8.849  0.0512 -0.0021  0.4628
 5695SOL    HW228719   3.375   1.506   8.751  0.0076 -0.6605  1.3990
 5696SOL     OW28720   2.572   1.228  16.903  0.5579  0.1095  0.2140
 5696SOL    HW128721   2.631   1.154  16.888 -0.3612 -1.5041  4.6995
 5696SOL    HW228722   2.511   1.223  16.828  0.4636  2.0260  0.1734
 5697SOL     OW28723   3.646   0.108  15.133 -0.2694  0.5464 -0.6089
 5697SOL    HW128724   3.565   0.141  15.094 -0.3531  0.4687 -0.5005
 5697SOL    HW228725   3.710   0.131  15.065 -2.0514 -1.5411 -2.9553
 5698SOL     OW28726   3.108   1.856   6.778  0.1213  0.2859 -0.4943
 5698SOL    HW128727   3.113   1.810   6.694 -1.0763  1.3609 -1.1615
 5698SOL    HW228728   3.168   1.800   6.827 -1.9774  0.0885  1.8320
 5699SOL     OW28729   3.705   3.868  15.186  0.6750 -0.0181 -0.6687
 5699SOL    HW128730   3.665   3.919  15.257 -0.2359 -1.3228 -0.2406
 5699SOL    HW228731   3.677   3.927  15.115  1.7516 -0.8248 -1.7459
 5700SOL     OW28732   3.514   3.992   6.879 -0.8895 -0.4420 -0.5071
 5700SOL    HW128733   3.444   3.991   6.813 -0.9272 -1.2004 -0.4608
 5700SOL    HW228734   3.588   3.976   6.821 -1.4226  1.9475 -1.8608
 5701SOL     OW28735   1.746   2.751   4.445  0.5974  0.1104 -0.1255
 5701SOL    HW128736   1.683   2.717   4.380  3.4197 -1.8656 -1.8393
 5701SOL    HW228737   1.828   2.741   4.397 -0.0859 -0.6035 -1.1560
 5702SOL     OW28738   4.480   4.069  13.556 -0.2556  0.1727  0.1935
 5702SOL    HW128739   4.523   4.090  13.638  1.7994 -0.9709 -0.5899
 5702SOL    HW228740   4.554   4.080  13.496  1.2787  1.4967  2.3685
 5703SOL     OW28741   2.442   1.539   9.499 -0.5154  0.4285  0.4869
 5703SOL    HW128742   2.350   1.522   9.517 -0.8543 -0.1398 -1.8097
 5703SOL    HW228743   2.474   1.594   9.570  1.3372  2.2778 -1.7968
 5704SOL     OW28744   4.360   3.526   7.039 -0.1331 -0.2239 -0.5614
 5704SOL    HW128745   4.428   3.591   7.024  1.7089 -1.6340  1.6044
 5704SOL    HW228746   4.282   3.581   7.045  0.2732  0.4489 -1.4112
 5705SOL     OW28747   2.203   0.676  10.470 -0.1456 -0.3198 -0.2146
 5705SOL    HW128748   2.274   0.624  10.508 -0.9479 -0.2880  1.3243
 5705SOL    HW228749   2.187   0.644  10.382 -1.2336 -1.3503  0.3452
 5706SOL     OW28750   0.083   2.246   2.552 -0.1097 -0.6637  0.1938
 5706SOL    HW128751   0.139   2.324   2.548  0.8010 -1.3817 -1.1306
 5706SOL    HW228752   0.097   2.216   2.462  1.9038  0.4909  0.1155
 5707SOL     OW28753   4.033   0.369   7.787 -1.0845 -0.1699  0.7391
 5707SOL    HW128754   4.009   0.282   7.756 -0.4185 -0.6137  1.4999
 5707SOL    HW228755   4.013   0.356   7.880 -0.3240  1.3545  1.1197
 5708SOL     OW28756   0.014   2.263   0.767  0.4672 -0.0397 -0.0557
 5708SOL    HW128757   0.020   2.170   0.743 -0.4609 -0.4049  1.1079
 5708SOL    HW228758   0.082   2.257   0.834 -1.3472 -1.1110  1.6842
 5709SOL     OW28759   0.842   2.214   7.184  0.2360  0.0136  0.5299
 5709SOL    HW128760   0.891   2.133   7.169 -1.5672 -0.4154 -3.0518
 5709SOL    HW228761   0.864   2.243   7.273 -1.8951  2.5659  0.2298
 5710SOL     OW28762   4.006   1.066   3.452 -0.5133  0.7387 -0.4780
 5710SOL    HW128763   3.924   1.040   3.412  0.6845  0.0325 -2.4982
 5710SOL    HW228764   4.026   1.152   3.416 -3.4227  1.3351 -0.6505
 5711SOL     OW28765   1.509   2.364  12.476  0.0303 -0.2537  0.3157
 5711SOL    HW128766   1.574   2.428  12.505 -0.6878  0.4936  0.2922
 5711SOL    HW228767   1.508   2.356  12.380 -1.1262  0.7126  0.2395
 5712SOL     OW28768   2.021   4.638  10.069 -0.5507  0.2913 -0.4983
 5712SOL    HW128769   2.007   4.657  10.162 -0.8245  0.7024 -0.6271
 5712SOL    HW228770   2.086   4.568  10.079 -1.6570 -0.5506  0.8897
 5713SOL     OW28771   0.641   2.099   6.166 -0.4018  0.5455  1.0215
 5713SOL    HW128772   0.683   2.053   6.094 -0.9778 -0.4409  1.3218
 5713SOL    HW228773   0.551   2.108   6.135 -0.3046 -0.3702  0.4810
 5714SOL     OW28774   1.174   3.382   3.446 -0.3209 -0.2333  0.5031
 5714SOL    HW128775   1.103   3.383   3.382 -0.0255  0.9624  0.1923
 5714SOL    HW228776   1.147   3.316   3.509  0.7143 -2.3670 -1.2904
 5715SOL     OW28777   0.918   3.794   9.736  0.6095 -0.1537 -0.1279
 5715SOL    HW128778   0.867   3.862   9.781  0.8068 -0.3357  0.3740
 5715SOL    HW228779   0.911   3.724   9.802 -2.2384  0.9939  0.7806
 5716SOL     OW28780   1.076   3.817   2.410  0.0864 -0.0360  0.0413
 5716SOL    HW128781   1.080   3.755   2.337 -0.3067  0.2884 -0.2558
 5716SOL    HW228782   1.084   3.904   2.372 -0.8360 -0.0083 -0.1014
 5717SOL     OW28783   0.965   3.942   4.429 -0.5963 -0.3627 -0.4011
 5717SOL    HW128784   1.009   3.929   4.345  0.2990  1.3433 -0.1969
 5717SOL    HW228785   0.887   3.983   4.392 -0.4144 -0.5059 -0.9376
 5718SOL     OW28786   0.326   2.455   8.273 -0.3319 -0.1880 -0.6793
 5718SOL    HW128787   0.248   2.400   8.268 -0.1893 -0.3516 -1.0706
 5718SOL    HW228788   0.284   2.542   8.268  2.2467  1.0177 -1.3292
 5719SOL     OW28789   2.471   0.938   6.986 -0.1537 -0.1365 -0.3899
 5719SOL    HW128790   2.392   0.973   6.946  0.8084  1.8495 -0.5772
 5719SOL    HW228791   2.523   0.931   6.906  3.8469  3.1439  1.9268
 5720SOL     OW28792   1.376   3.555  17.729 -0.1679  0.2086 -0.2142
 5720SOL    HW128793   1.371   3.608  17.650  1.9267 -1.0653 -1.2007
 5720SOL    HW228794   1.367   3.463  17.701 -2.3178 -0.3042  2.1736
 5721SOL     OW28795   2.887   0.264   6.830  0.1619 -0.2854 -0.9872
 5721SOL    HW128796   2.974   0.234   6.855 -0.5292 -1.6690 -0.2589
 5721SOL    HW228797   2.852   0.197   6.770 -0.4265 -1.9633  1.2291
 5722SOL     OW28798   3.855   3.110   8.438 -0.1838 -0.0124  0.1538
 5722SOL    HW128799   3.775   3.122   8.490 -1.9821  0.3082 -2.6423
 5722SOL    HW228800   3.883   3.201   8.443 -1.1515  0.3461 -0.7406
 5723SOL     OW28801   4.129   4.027   0.804  0.2669 -0.2798  0.1627
 5723SOL    HW128802   4.194   4.004   0.737 -0.2526  1.4345 -0.9077
 5723SOL    HW228803   4.160   4.112   0.836 -2.3564  0.3289  1.1161
 5724SOL     OW28804   4.325   3.607   9.144 -0.3647  0.0705 -0.2137
 5724SOL    HW128805   4.405   3.601   9.195 -1.2022 -0.3707  1.0442
 5724SOL    HW228806   4.305   3.698   9.169 -0.6442  0.2426 -1.0614
 5725SOL     OW28807   1.987   2.871   6.927 -0.8057 -0.2068 -0.6079
 5725SOL    HW128808   2.012   2.910   7.011  2.9315  0.2153 -1.9164
 5725SOL    HW228809   1.927   2.800   6.948 -0.7068 -0.5404 -1.4316
 5726SOL     OW28810   3.752   1.829   7.430  0.2677  0.0229 -0.0096
 5726SOL    HW128811   3.789   1.819   7.518  1.6494 -1.7114 -0.7677
 5726SOL    HW228812   3.818   1.893   7.403  1.0498 -0.6711  0.2440
 5727SOL     OW28813   3.590   3.872   1.886  1.0831  0.3836  0.0853
 5727SOL    HW128814   3.631   3.838   1.965 -1.2011 -2.9785 -0.1817
 5727SOL    HW228815   3.662   3.908   1.834  1.4615 -0.5321 -0.0147
 5728SOL     OW28816   2.295   0.386   6.933 -0.3691 -0.2662 -0.5768
 5728SOL    HW128817   2.321   0.296   6.914 -0.5834 -0.6338  0.8829
 5728SOL    HW228818   2.296   0.385   7.028  2.3698 -1.6101 -0.6294
 5729SOL     OW28819   1.438   2.377  10.179 -0.0681 -0.2686  0.2520
 5729SOL    HW128820   1.438   2.287  10.148 -2.4205  0.0832 -0.7537
 5729SOL    HW228821   1.393   2.373  10.264 -1.4359 -3.0333 -0.6231
 5730SOL     OW28822   1.607   3.603   2.873  0.0216  0.1055  0.5447
 5730SOL    HW128823   1.583   3.539   2.941  1.2602 -0.0816  0.7958
 5730SOL    HW228824   1.673   3.651   2.922  2.8402  0.6495 -3.7233
 5731SOL     OW28825   1.631   0.017  14.712  0.1473  0.4759 -0.3606
 5731SOL    HW128826   1.626   0.058  14.798  0.8886 -1.1124  0.4402
 5731SOL    HW228827   1.562   4.693  14.723  0.7411  0.0385  0.6546
 5732SOL     OW28828   3.233   2.337   3.140  0.6597  0.3450  0.2808
 5732SOL    HW128829   3.183   2.392   3.079 -0.2401 -1.6321 -0.7443
 5732SOL    HW228830   3.179   2.352   3.218  2.9629  2.0462  1.5529
 5733SOL     OW28831   3.948   4.315   2.945 -0.0209  0.1058 -0.3814
 5733SOL    HW128832   3.870   4.278   2.988 -0.2714  0.2602 -0.6997
 5733SOL    HW228833   4.014   4.296   3.011 -1.2614  1.0475  1.1373
 5734SOL     OW28834   3.607   0.425   8.493 -0.2872 -0.1241  0.4439
 5734SOL    HW128835   3.686   0.447   8.444 -0.2963 -0.8213  0.1175
 5734SOL    HW228836   3.531   0.462   8.448 -0.1871  0.6153  0.8636
 5735SOL     OW28837   1.160   0.893   1.504 -0.8416  0.1442 -0.3919
 5735SOL    HW128838   1.155   0.800   1.482 -2.4003  0.2600 -0.4802
 5735SOL    HW228839   1.255   0.905   1.496 -0.6530 -1.5120 -0.6461
 5736SOL     OW28840   3.313   2.839   8.081  0.4162  0.4120  0.2530
 5736SOL    HW128841   3.240   2.844   8.143  2.6046  3.5065  2.6399
 5736SOL    HW228842   3.374   2.900   8.124  1.5766  0.7918 -1.9599
 5737SOL     OW28843   4.194   1.533   3.568  0.2246  0.1636 -0.0777
 5737SOL    HW128844   4.142   1.572   3.498 -0.7498  1.5623  1.4113
 5737SOL    HW228845   4.248   1.604   3.603 -1.5575  1.1709  0.6609
 5738SOL     OW28846   1.931   0.712   9.743  0.8913  0.2175  0.3503
 5738SOL    HW128847   1.956   0.799   9.712  1.9351 -0.0546  0.4403
 5738SOL    HW228848   1.880   0.742   9.818  0.3628  1.9384 -0.6833
 5739SOL     OW28849   2.203   0.760   7.365  0.3898 -0.4689  0.1226
 5739SOL    HW128850   2.232   0.771   7.275 -1.6559  1.2564 -0.3260
 5739SOL    HW228851   2.131   0.701   7.344  1.0966 -0.9553 -0.9251
 5740SOL     OW28852   3.018   1.751  11.182  0.0447 -0.0325 -0.4766
 5740SOL    HW128853   2.988   1.707  11.261  2.6067 -0.5006  0.2283
 5740SOL    HW228854   2.960   1.718  11.113  1.2054 -1.8811 -0.5661
 5741SOL     OW28855   1.982   3.990   5.001 -0.1439  0.1196 -0.6679
 5741SOL    HW128856   1.999   3.973   4.909  0.4500 -1.7493 -0.2054
 5741SOL    HW228857   1.998   4.084   5.010  1.6069 -0.0859 -1.6210
 5742SOL     OW28858   2.281   1.890  17.442 -0.4462 -0.0131  0.7815
 5742SOL    HW128859   2.257   1.940  17.520  1.1280 -1.4467  2.2157
 5742SOL    HW228860   2.194   1.881  17.402 -1.4956  3.3890  2.3297
 5743SOL     OW28861   1.335   4.265   5.932  0.5868 -0.4944 -0.1766
 5743SOL    HW128862   1.428   4.259   5.950  0.1009 -1.0556  2.1447
 5743SOL    HW228863   1.306   4.350   5.965 -0.2103  0.2955 -2.9047
 5744SOL     OW28864   0.239   1.772   6.835  0.3452  0.1479  0.4035
 5744SOL    HW128865   0.243   1.721   6.754 -2.7589 -0.5643  0.6910
 5744SOL    HW228866   0.330   1.799   6.850  0.3781  1.4668 -2.1494
 5745SOL     OW28867   1.566   0.192  11.249  0.0813  0.0681 -0.0822
 5745SOL    HW128868   1.505   0.245  11.300 -0.5108 -2.2345  1.5861
 5745SOL    HW228869   1.510   0.161  11.178  1.4915 -1.5298 -0.4951
 5746SOL     OW28870   4.337   4.257   1.775  0.5403  0.6980  0.0410
 5746SOL    HW128871   4.408   4.237   1.713  1.0772 -0.5566  1.0527
 5746SOL    HW228872   4.357   4.185   1.835  1.8593  0.9680 -0.0679
 5747SOL     OW28873   4.423   1.035   0.493 -0.1261  0.1036  0.2682
 5747SOL    HW128874   4.354   0.969   0.497  1.1852 -1.1796  1.7548
 5747SOL    HW228875   4.459   1.039   0.582 -1.0674  0.4305  0.6387
 5748SOL     OW28876   3.620   3.777  11.300 -0.2046  0.3125 -0.3854
 5748SOL    HW128877   3.665   3.842  11.354 -2.6421  1.0810  0.7262
 5748SOL    HW228878   3.643   3.805  11.212  0.1579 -0.1687 -0.4397
 5749SOL     OW28879   4.544   3.825   2.856  0.0746  0.0281 -0.1641
 5749SOL    HW128880   4.609   3.866   2.798 -0.1986  0.4386 -0.1785
 5749SOL    HW228881   4.477   3.891   2.875 -0.2193 -1.1117  2.7410
 5750SOL     OW28882   1.410   4.363   6.585  0.5283 -0.2440  0.4397
 5750SOL    HW128883   1.427   4.271   6.601  0.5403 -0.4173 -0.5583
 5750SOL    HW228884   1.332   4.387   6.634  1.4897 -0.8247  2.2446
 5751SOL     OW28885   2.076   4.004   2.805 -0.3076 -0.2830 -0.7548
 5751SOL    HW128886   2.145   4.011   2.740  2.0918 -2.1647  1.5330
 5751SOL    HW228887   2.065   4.095   2.831  0.0337 -0.4420 -0.0316
 5752SOL     OW28888   3.667   0.754   9.017 -0.0693 -0.3540 -0.0256
 5752SOL    HW128889   3.643   0.742   9.109 -0.0693  1.3473  0.1922
 5752SOL    HW228890   3.752   0.796   9.031 -0.2687 -0.2375  0.8388
 5753SOL     OW28891   3.256   0.527   5.880 -0.3828 -0.6343 -0.1373
 5753SOL    HW128892   3.207   0.601   5.915  0.4060 -0.8381  1.3932
 5753SOL    HW228893   3.194   0.467   5.838  0.4404 -1.0463 -0.7611
 5754SOL     OW28894   3.197   2.812  14.511  0.6376 -0.9043 -0.2292
 5754SOL    HW128895   3.199   2.886  14.573 -1.1777  0.3718 -1.6772
 5754SOL    HW228896   3.225   2.731  14.554  2.9284 -1.1576 -2.2369
 5755SOL     OW28897   3.219   2.244   2.748  0.2604 -0.4493 -0.1000
 5755SOL    HW128898   3.126   2.222   2.753  0.8913 -2.8430  1.3485
 5755SOL    HW228899   3.248   2.198   2.827 -2.4724 -0.4300  0.9063
 5756SOL     OW28900   1.158   3.924  13.361  0.3276 -0.1068 -0.0474
 5756SOL    HW128901   1.099   3.944  13.288  2.1242 -0.6806 -1.6730
 5756SOL    HW228902   1.233   3.980  13.339  1.4595 -1.9979 -1.0672
 5757SOL     OW28903   3.947   0.282  16.766  0.0750  0.0056 -0.3829
 5757SOL    HW128904   4.039   0.258  16.769  0.4163  1.4073  0.2550
 5757SOL    HW228905   3.947   0.349  16.835  2.9938  0.5854 -0.9502
 5758SOL     OW28906   3.271   3.311   4.623 -0.2129 -0.6239  0.5099
 5758SOL    HW128907   3.270   3.387   4.680  0.0280 -0.7583  0.6934
 5758SOL    HW228908   3.295   3.351   4.540 -2.2741 -1.4154 -0.4759
 5759SOL     OW28909   2.565   0.789   2.148 -0.5050 -0.0447 -0.2004
 5759SOL    HW128910   2.574   0.807   2.054 -1.4342  0.5219 -0.1876
 5759SOL    HW228911   2.626   0.850   2.188 -0.5590 -0.8675  1.1321
 5760SOL     OW28912   3.602   4.518   1.765 -0.8666  0.2633 -0.0858
 5760SOL    HW128913   3.531   4.580   1.780 -0.5070 -0.0335  2.9635
 5760SOL    HW228914   3.673   4.579   1.785 -0.7335  0.4299 -1.0971
 5761SOL     OW28915   1.685   3.828   8.397  0.1879  0.5627  0.5418
 5761SOL    HW128916   1.629   3.905   8.391 -0.3592  0.1435  0.3326
 5761SOL    HW228917   1.614   3.767   8.382  0.0209  1.0703 -0.6982
 5762SOL     OW28918   4.138   3.727   7.044 -0.0413  0.0801 -0.1122
 5762SOL    HW128919   4.081   3.715   7.119 -0.4319  2.0296 -0.0855
 5762SOL    HW228920   4.110   3.811   7.008 -0.6274 -1.0528 -2.3184
 5763SOL     OW28921   4.302   2.139  11.966 -0.2979  0.3223 -0.5186
 5763SOL    HW128922   4.289   2.231  11.987 -0.4151  0.3978 -0.9177
 5763SOL    HW228923   4.367   2.150  11.896  1.3728  0.1655  1.0273
 5764SOL     OW28924   3.341   0.853  15.231 -0.5803 -0.2160  0.2615
 5764SOL    HW128925   3.397   0.917  15.186  0.8784 -2.5384 -1.2815
 5764SOL    HW228926   3.254   0.890  15.216 -0.3285  0.3662  0.2437
 5765SOL     OW28927   3.254   2.159   1.546  0.6170  0.6213 -0.0099
 5765SOL    HW128928   3.165   2.126   1.561  1.3789 -1.3482  0.2125
 5765SOL    HW228929   3.238   2.189   1.457  0.1429  0.4734  0.0248
 5766SOL     OW28930   1.908   2.260   1.192 -0.0088 -0.4191 -0.8612
 5766SOL    HW128931   1.823   2.216   1.185 -0.6808  0.6951  0.2722
 5766SOL    HW228932   1.965   2.185   1.172  0.1650 -0.0950 -1.5964
 5767SOL     OW28933   1.932   2.632   5.865  0.1153 -0.1235  0.4615
 5767SOL    HW128934   1.897   2.643   5.953  0.9966 -0.3608  0.8370
 5767SOL    HW228935   2.022   2.649   5.891  0.3996 -0.0392 -0.5579
 5768SOL     OW28936   2.752   2.843  13.607  0.0129 -1.0111  0.6008
 5768SOL    HW128937   2.770   2.905  13.678  1.5669 -2.0878  1.1396
 5768SOL    HW228938   2.808   2.888  13.544  0.7761 -2.1845  0.4442
 5769SOL     OW28939   4.451   3.341   1.989  0.2576  0.0286 -0.2572
 5769SOL    HW128940   4.483   3.415   1.938 -1.7242  1.0092 -0.0707
 5769SOL    HW228941   4.530   3.290   2.011 -0.7161 -1.8280 -1.0527
 5770SOL     OW28942   2.239   0.040   4.055  0.2193 -0.3618 -0.0739
 5770SOL    HW128943   2.149   0.058   4.028  0.2100 -2.2096 -1.3114
 5770SOL    HW228944   2.246   4.687   4.051 -0.5998 -0.3714 -1.5324
 5771SOL     OW28945   3.803   4.656   0.799 -0.3715  0.7287 -0.3207
 5771SOL    HW128946   3.874   4.711   0.766 -0.2640  0.4649 -0.5359
 5771SOL    HW228947   3.730   4.656   0.737  0.2302  0.8555 -1.0267
 5772SOL     OW28948   3.877   3.389   8.425 -0.1898  0.3378  0.5049
 5772SOL    HW128949   3.956   3.444   8.427  1.4974 -2.1820  2.8686
 5772SOL    HW228950   3.837   3.453   8.366 -1.4240 -0.5161  0.4292
 5773SOL     OW28951   0.132   2.223   3.130 -0.1642 -0.1935 -0.3601
 5773SOL    HW128952   0.157   2.133   3.149 -1.9098 -0.4838  0.5766
 5773SOL    HW228953   0.211   2.261   3.091  0.4225 -0.6202  0.4212
 5774SOL     OW28954   3.009   3.438   0.821  0.0621 -0.1923 -0.6164
 5774SOL    HW128955   3.076   3.394   0.875 -0.3176  1.5972  1.3242
 5774SOL    HW228956   2.935   3.408   0.873 -0.3395  0.8043 -0.6048
 5775SOL     OW28957   4.149   2.669   2.360  0.0145  0.5140 -0.0589
 5775SOL    HW128958   4.071   2.689   2.411 -0.6344 -1.6793 -0.1972
 5775SOL    HW228959   4.185   2.602   2.418 -1.1999  0.5581  0.7465
 5776SOL     OW28960   4.499   2.016   2.847 -0.2030  0.8556  0.0299
 5776SOL    HW128961   4.549   2.075   2.791  1.0347  1.0881  1.3794
 5776SOL    HW228962   4.477   1.950   2.782  0.3632  0.7929 -0.0950
 5777SOL     OW28963   3.538   0.463   4.103 -0.7132  0.2561 -0.2687
 5777SOL    HW128964   3.587   0.545   4.108  1.4015 -0.9742 -0.9077
 5777SOL    HW228965   3.516   0.463   4.010 -2.3481 -0.7514  0.1022
 5778SOL     OW28966   4.632   1.202   2.786  0.3812  0.8271  0.0879
 5778SOL    HW128967   4.684   1.206   2.867 -1.8969  1.9106  1.5240
 5778SOL    HW228968   4.672   1.125   2.748  1.3543  0.5575  1.6437
 5779SOL     OW28969   3.457   3.546   2.480  0.1400 -0.7152  0.2912
 5779SOL    HW128970   3.419   3.589   2.557 -0.1765 -1.3682  0.4930
 5779SOL    HW228971   3.550   3.542   2.504  0.5089  0.6691 -0.9213
 5780SOL     OW28972   0.933   4.190   0.645 -0.2207 -0.6919 -0.1948
 5780SOL    HW128973   0.992   4.181   0.570 -1.7236 -0.6960 -1.3793
 5780SOL    HW228974   0.977   4.151   0.720  0.7410 -1.5191 -1.1939
 5781SOL     OW28975   4.215   0.148   2.764  0.0722 -0.5270  0.0829
 5781SOL    HW128976   4.127   0.120   2.790  0.3581 -0.2959  1.3095
 5781SOL    HW228977   4.199   0.242   2.760 -1.1689 -0.7693 -0.8362
 5782SOL     OW28978   0.419   3.072  14.641  0.7786  0.2891 -0.4350
 5782SOL    HW128979   0.383   3.155  14.609 -1.9107 -0.8822 -0.5079
 5782SOL    HW228980   0.482   3.113  14.699  0.2450  0.9940 -0.3515
 5783SOL     OW28981   3.232   4.143   2.086 -0.2465 -0.0572  0.3000
 5783SOL    HW128982   3.277   4.069   2.126 -1.1128 -0.6052  0.2512
 5783SOL    HW228983   3.154   4.149   2.141 -0.7833 -0.3491 -0.4319
 5784SOL     OW28984   2.957   2.357  14.258  0.4039  0.0343  0.4386
 5784SOL    HW128985   2.891   2.353  14.189  0.5447  0.0830  0.3017
 5784SOL    HW228986   3.032   2.337  14.204  0.9162  0.6215  0.9280
 5785SOL     OW28987   4.149   4.676  13.201 -0.0406  0.0402 -0.0390
 5785SOL    HW128988   4.199   0.016  13.200 -0.4600  0.2692 -2.5511
 5785SOL    HW228989   4.059   4.702  13.221  0.5968  1.9357  0.3553
 5786SOL     OW28990   3.361   4.077  13.425  0.1950  0.4709 -0.5105
 5786SOL    HW128991   3.283   4.093  13.372 -0.6011 -0.4061  0.3922
 5786SOL    HW228992   3.358   4.136  13.500 -3.0270 -0.8163  0.3534
 5787SOL     OW28993   2.005   0.906   7.633 -0.0124  0.0919 -0.0666
 5787SOL    HW128994   2.013   0.988   7.681  0.5920  1.2733 -2.1697
 5787SOL    HW228995   2.085   0.924   7.584  1.3431 -0.7736  1.8367
 5788SOL     OW28996   0.449   3.823   2.727 -0.5537 -0.4336  0.2106
 5788SOL    HW128997   0.456   3.862   2.640  2.2665  1.0236  1.0973
 5788SOL    HW228998   0.404   3.901   2.761 -0.4733 -1.1344  1.9335
 5789SOL     OW28999   1.426   0.275   0.711 -0.1894 -0.1105  0.1127
 5789SOL    HW129000   1.416   0.326   0.631 -0.1916 -1.6597 -0.8690
 5789SOL    HW229001   1.472   0.195   0.687 -0.1703 -0.4560  1.2932
 5790SOL     OW29002   2.808   4.609   6.072  0.1074 -0.3538  0.1029
 5790SOL    HW129003   2.860   4.538   6.034  0.2373 -0.5038  0.5571
 5790SOL    HW229004   2.860   4.651   6.140  2.2467 -0.2501 -1.6105
 5791SOL     OW29005   4.523   0.548   6.501  0.4583  0.4090 -0.0744
 5791SOL    HW129006   4.612   0.557   6.533  0.3196  0.1887  0.3683
 5791SOL    HW229007   4.510   0.454   6.495  1.3545  0.4125 -2.0518
 5792SOL     OW29008   4.655   3.106   7.924 -0.3078  0.2413  0.1383
 5792SOL    HW129009   4.673   3.188   7.878  2.7696 -0.8662 -0.6553
 5792SOL    HW229010   4.733   3.102   7.979 -0.9750  0.3446  1.0786
 5793SOL     OW29011   4.340   2.105  16.606 -0.0191 -0.2397  0.1068
 5793SOL    HW129012   4.349   2.039  16.675  0.2560  2.4674  2.6563
 5793SOL    HW229013   4.355   2.055  16.526  0.6577  3.4336 -2.0829
 5794SOL     OW29014   2.689   2.655   7.522 -0.3829  0.1344 -0.6193
 5794SOL    HW129015   2.722   2.568   7.501 -2.3324 -0.2987 -1.8621
 5794SOL    HW229016   2.664   2.639   7.613 -1.4053  1.2262 -0.7038
 5795SOL     OW29017   2.082   1.573  13.191  0.2158 -0.6145  0.7539
 5795SOL    HW129018   1.999   1.590  13.236 -0.1707  1.7678 -0.9083
 5795SOL    HW229019   2.128   1.516  13.252  2.4420  0.9873  0.5619
 5796SOL     OW29020   4.290   1.480  16.111 -0.1442 -0.0798  0.3509
 5796SOL    HW129021   4.341   1.404  16.138 -1.3096 -1.2078 -0.6349
 5796SOL    HW229022   4.249   1.451  16.029 -1.7162 -0.3526  1.2278
 5797SOL     OW29023   2.020   2.630  10.224  0.4730 -0.6958  0.4929
 5797SOL    HW129024   2.009   2.601  10.134 -0.0891  0.5358  0.1665
 5797SOL    HW229025   1.960   2.572  10.273 -1.9616  1.8433  0.5067
 5798SOL     OW29026   1.522   4.599   2.266  0.0892  0.1207  0.1728
 5798SOL    HW129027   1.541   4.542   2.340 -1.5709  1.3701  1.5655
 5798SOL    HW229028   1.611   4.600   2.230 -0.4562 -2.5463 -1.2349
 5799SOL     OW29029   4.182   2.496   5.760  0.0798  0.2523 -0.2555
 5799SOL    HW129030   4.114   2.537   5.813  0.1371  0.9137 -0.6843
 5799SOL    HW229031   4.162   2.405   5.780 -0.1605 -0.2659 -2.8302
 5800SOL     OW29032   0.192   1.110   3.273  0.3063 -0.0007 -0.0264
 5800SOL    HW129033   0.189   1.061   3.355  0.4420 -0.4513 -0.2929
 5800SOL    HW229034   0.153   1.196   3.290  1.5668  0.4711  0.4808
 5801SOL     OW29035   1.994   1.781   3.607  0.3517  0.0963  0.5125
 5801SOL    HW129036   1.944   1.712   3.650  0.3232 -0.2843 -0.1196
 5801SOL    HW229037   2.078   1.786   3.653  1.1806  0.0006 -0.9887
 5802SOL     OW29038   2.238   3.524   1.756  0.1727  0.4011  0.0805
 5802SOL    HW129039   2.284   3.451   1.714  1.1250  1.2571 -0.3533
 5802SOL    HW229040   2.153   3.504   1.719  0.7865 -0.3803 -0.9127
 5803SOL     OW29041   4.313   3.175  15.963  0.4652  0.6786  0.1151
 5803SOL    HW129042   4.371   3.245  15.934  1.9075 -1.0987 -1.2810
 5803SOL    HW229043   4.304   3.180  16.058 -1.0011 -1.8385  0.1150
 5804SOL     OW29044   0.821   2.486  16.818  0.0743  0.3504 -0.0845
 5804SOL    HW129045   0.911   2.466  16.844  0.4268  1.3938 -0.4879
 5804SOL    HW229046   0.788   2.552  16.879 -2.2660 -0.3482 -0.6083
 5805SOL     OW29047   3.987   1.568   2.928 -0.3096 -0.1009 -0.2635
 5805SOL    HW129048   4.002   1.532   2.841 -1.1604 -1.2452  0.0698
 5805SOL    HW229049   4.022   1.656   2.914  1.5375 -0.5905  1.2542
 5806SOL     OW29050   0.365   1.918   9.033  0.0368 -0.1167  0.0634
 5806SOL    HW129051   0.379   1.908   9.127  1.7681 -2.0333 -0.4114
 5806SOL    HW229052   0.453   1.893   9.004 -0.5645  0.6982 -2.4550
 5807SOL     OW29053   3.026   0.549   9.672 -0.0137 -0.3451 -0.3965
 5807SOL    HW129054   3.107   0.595   9.650 -0.7216  0.7481 -0.7191
 5807SOL    HW229055   2.983   0.557   9.587  0.2797  0.5066 -0.4626
 5808SOL     OW29056   0.017   4.502  16.592  0.1848  0.0914  0.4022
 5808SOL    HW129057   4.668   4.523  16.610  0.5304  2.1730 -0.3335
 5808SOL    HW229058   0.033   4.522  16.500 -0.9892 -0.0525  0.1772
 5809SOL     OW29059   3.026   0.759   4.951 -0.3559  0.1997  0.2767
 5809SOL    HW129060   2.964   0.713   5.006 -0.6209 -0.4078 -0.5290
 5809SOL    HW229061   3.018   0.849   4.982  2.7284  1.1699 -1.7115
 5810SOL     OW29062   3.443   2.930   2.877  0.2415 -0.1321 -0.3744
 5810SOL    HW129063   3.531   2.956   2.850  0.9187 -0.9122  1.1058
 5810SOL    HW229064   3.396   2.995   2.825 -0.5096 -1.0655 -0.8647
 5811SOL     OW29065   1.386   4.460  16.731 -0.1047  0.0449 -0.1424
 5811SOL    HW129066   1.387   4.411  16.649 -0.1597  0.8126 -0.5957
 5811SOL    HW229067   1.297   4.435  16.753 -0.5458  0.5790 -1.3452
 5812SOL     OW29068   0.706   0.460  17.254 -0.0627 -0.6308  0.1824
 5812SOL    HW129069   0.636   0.406  17.291  0.7090 -1.2293  0.7738
 5812SOL    HW229070   0.744   0.478  17.340 -0.0763 -0.5711  0.1760
 5813SOL     OW29071   3.339   3.553   9.560 -0.0700  0.2352  0.2014
 5813SOL    HW129072   3.309   3.643   9.550  0.7190  0.2685 -1.8754
 5813SOL    HW229073   3.381   3.534   9.476 -0.6493 -0.4894  0.0753
 5814SOL     OW29074   0.480   1.211   4.834  0.1155  0.3598  0.3782
 5814SOL    HW129075   0.419   1.147   4.796  1.7776 -1.6726  1.1626
 5814SOL    HW229076   0.420   1.257   4.893  0.8717  2.2018 -0.3037
 5815SOL     OW29077   2.235   3.642   7.502  0.7532 -0.1346  0.0738
 5815SOL    HW129078   2.326   3.630   7.474  0.5049 -0.9296 -0.3991
 5815SOL    HW229079   2.196   3.669   7.419  1.2304  1.6144  0.4210
 5816SOL     OW29080   0.341   3.068   7.692 -0.3612 -0.0442 -0.4631
 5816SOL    HW129081   0.318   3.159   7.706  2.4751  0.8118 -1.4283
 5816SOL    HW229082   0.335   3.061   7.596 -2.1629 -0.3575 -0.3177
 5817SOL     OW29083   1.792   2.523   4.265 -0.1685 -0.0255  0.1961
 5817SOL    HW129084   1.774   2.563   4.180 -0.7336  1.5658  1.0782
 5817SOL    HW229085   1.885   2.506   4.256  0.1294  1.3297  0.7334
 5818SOL     OW29086   3.012   4.256  12.005 -0.4158 -0.5785 -0.7870
 5818SOL    HW129087   3.092   4.228  11.959  0.4505  0.9891 -0.2312
 5818SOL    HW229088   3.019   4.201  12.083 -0.1391 -0.7333 -0.9197
 5819SOL     OW29089   4.532   2.141  10.322 -0.0545 -0.0468  0.2498
 5819SOL    HW129090   4.444   2.178  10.331 -0.8988 -1.4679 -2.1064
 5819SOL    HW229091   4.585   2.218  10.301 -1.9073  0.7428 -1.4888
 5820SOL     OW29092   2.766   4.533   2.921  0.1829  0.1204  0.1387
 5820SOL    HW129093   2.842   4.573   2.880  1.6944 -0.5067  2.3887
 5820SOL    HW229094   2.766   4.585   3.001  2.0526  0.3267  0.0070
 5821SOL     OW29095   1.494   0.233   5.336  0.4930  0.0560  0.5432
 5821SOL    HW129096   1.587   0.227   5.355  1.2762  0.4302 -3.0350
 5821SOL    HW229097   1.474   0.141   5.316 -1.5113  0.8975 -1.3149
 5822SOL     OW29098   3.146   0.446   3.453 -0.1027 -0.4706  0.0403
 5822SOL    HW129099   3.068   0.441   3.398 -0.4117 -0.5176  0.4822
 5822SOL    HW229100   3.128   0.386   3.525  0.3880  0.1583  0.6826
 5823SOL     OW29101   3.827   0.351   6.298 -0.0884  0.1390 -0.0745
 5823SOL    HW129102   3.872   0.273   6.331 -0.6868  0.3504  1.2302
 5823SOL    HW229103   3.737   0.332   6.326  1.0698 -0.3988  3.3213
 5824SOL     OW29104   2.659   1.559   6.812 -0.7598  0.0187  0.0012
 5824SOL    HW129105   2.653   1.496   6.884 -0.0768 -1.4737 -1.2355
 5824SOL    HW229106   2.597   1.534   6.743 -2.0231  1.6810  0.5432
 5825SOL     OW29107   2.231   1.377  10.472 -0.1828  0.9394  0.2346
 5825SOL    HW129108   2.209   1.467  10.449 -2.3442  0.3580  0.0619
 5825SOL    HW229109   2.166   1.316  10.437  0.1886  0.7909 -0.1980
 5826SOL     OW29110   2.771   0.574   6.680 -0.4715  0.2261  0.3560
 5826SOL    HW129111   2.683   0.571   6.718 -0.4352 -1.3422  0.2925
 5826SOL    HW229112   2.818   0.624   6.747 -0.5452  1.0881 -0.2442
 5827SOL     OW29113   2.781   4.404  11.986  0.3227 -0.2790 -0.2482
 5827SOL    HW129114   2.828   4.479  12.024  2.1056 -1.9444  0.8559
 5827SOL    HW229115   2.847   4.335  11.990 -0.7770 -1.2365  2.0558
 5828SOL     OW29116   4.551   0.870   7.906  0.0111  0.0376 -0.0993
 5828SOL    HW129117   4.600   0.842   7.983  0.0637  0.0675 -0.1219
 5828SOL    HW229118   4.526   0.956   7.939  0.2185  0.4191 -0.9360
 5829SOL     OW29119   3.027   3.327   6.272  0.4538  0.1664 -0.0014
 5829SOL    HW129120   2.980   3.403   6.305 -1.6737 -0.4789 -1.4841
 5829SOL    HW229121   3.015   3.267   6.345  0.5968  0.3708  0.1880
 5830SOL     OW29122   4.079   2.645   4.107 -0.3510  0.9613  0.4340
 5830SOL    HW129123   4.084   2.562   4.059 -2.7783  1.0222  0.0873
 5830SOL    HW229124   4.104   2.700   4.033  0.1603 -0.7073 -0.6412
 5831SOL     OW29125   3.192   0.195   6.830  0.2616  0.6193  0.3779
 5831SOL    HW129126   3.140   0.117   6.812  0.0592  0.1858  2.8961
 5831SOL    HW229127   3.224   0.164   6.915  0.8144 -1.6050 -0.6416
 5832SOL     OW29128   2.790   0.189   4.381 -0.0119 -0.1984  0.1975
 5832SOL    HW129129   2.827   0.151   4.300 -0.8528  3.0830 -1.7256
 5832SOL    HW229130   2.839   0.147   4.452  0.3303 -0.0509  0.0531
 5833SOL     OW29131   1.144   2.675   2.955 -0.5114 -0.0783 -0.7681
 5833SOL    HW129132   1.153   2.739   2.884  1.6724  3.1561  2.4407
 5833SOL    HW229133   1.173   2.724   3.032 -0.0508 -0.6320 -0.5880
 5834SOL     OW29134   2.139   0.307   8.229  0.0373  0.0202  0.4275
 5834SOL    HW129135   2.059   0.284   8.275 -0.7745  2.1180  0.0844
 5834SOL    HW229136   2.098   0.322   8.143 -1.0134 -0.1873  0.8871
 5835SOL     OW29137   4.063   3.394   7.250  0.0667  0.0564  0.4190
 5835SOL    HW129138   4.098   3.478   7.280  0.0787 -0.4169  1.7124
 5835SOL    HW229139   3.977   3.419   7.216  0.3207 -0.5565 -0.6754
 5836SOL     OW29140   1.949   0.471   6.871  0.2966  0.2025 -0.2143
 5836SOL    HW129141   1.972   0.414   6.944  0.0031  2.3274  1.5079
 5836SOL    HW229142   1.875   0.428   6.827 -0.4304 -0.3832  1.5696
 5837SOL     OW29143   2.371   4.029  12.171  0.2222 -0.3219  0.0371
 5837SOL    HW129144   2.397   3.960  12.232  2.4522  1.3772  1.0078
 5837SOL    HW229145   2.278   4.013  12.185  0.2171  0.2930  0.6619
 5838SOL     OW29146   4.647   0.888   1.953  1.0922 -0.3590  0.5626
 5838SOL    HW129147   4.715   0.826   1.928  1.6198  1.0698 -1.5613
 5838SOL    HW229148   4.571   0.872   1.897  0.8276  0.8252  0.5890
 5839SOL     OW29149   4.051   2.112   2.416  0.7626 -0.0597  0.3740
 5839SOL    HW129150   4.039   2.163   2.496  0.1039  0.8510 -0.3008
 5839SOL    HW229151   4.086   2.033   2.457 -0.3078 -0.9697 -0.4800
 5840SOL     OW29152   0.302   4.481   5.394  0.1215  0.3930  0.4002
 5840SOL    HW129153   0.389   4.464   5.359 -1.1843 -1.6440 -1.9212
 5840SOL    HW229154   0.254   4.399   5.382 -0.2133  0.4531  1.3230
 5841SOL     OW29155   3.259   1.894   7.235  0.0761  0.6441 -0.3740
 5841SOL    HW129156   3.355   1.895   7.233  0.0983  1.4126  0.7658
 5841SOL    HW229157   3.238   1.866   7.146  1.8309 -0.2672 -0.4870
 5842SOL     OW29158   2.448   2.737   5.560  0.2328  0.1108 -0.5060
 5842SOL    HW129159   2.358   2.730   5.527  0.2052  3.1274 -1.1011
 5842SOL    HW229160   2.463   2.652   5.600 -2.2372  1.4841  3.3309
 5843SOL     OW29161   1.616   0.431  14.517 -0.4407  0.1511 -0.6537
 5843SOL    HW129162   1.553   0.489  14.473  1.1949  1.6844 -0.9820
 5843SOL    HW229163   1.643   0.369  14.449  0.3823  1.6248 -1.6721
 5844SOL     OW29164   2.038   1.156   8.954  0.0659  0.2123  0.3253
 5844SOL    HW129165   1.967   1.216   8.978  0.8498  0.3993  2.1378
 5844SOL    HW229166   1.997   1.071   8.938 -1.2596  1.3488 -2.3792
 5845SOL     OW29167   2.186   1.309   9.233 -0.2004 -0.3108  0.1210
 5845SOL    HW129168   2.160   1.366   9.305  2.0297  0.4676  0.2895
 5845SOL    HW229169   2.269   1.340   9.197 -0.2554  0.1393  0.3860
 5846SOL     OW29170   2.240   3.372  11.450  0.1244 -0.0833 -0.1746
 5846SOL    HW129171   2.285   3.457  11.452  1.2795 -0.7684  2.2127
 5846SOL    HW229172   2.300   3.313  11.404 -0.1310  0.6371 -1.4464
 5847SOL     OW29173   1.141   2.600   6.490 -0.2826  0.3265  0.5733
 5847SOL    HW129174   1.222   2.619   6.444  0.6753  0.0951  2.1650
 5847SOL    HW229175   1.120   2.682   6.535  1.1696 -0.3474  2.4493
 5848SOL     OW29176   1.545   2.711   8.572 -0.0890 -0.4769 -0.6144
 5848SOL    HW129177   1.618   2.651   8.587  1.2172  1.5323  0.9349
 5848SOL    HW229178   1.509   2.732   8.658 -0.8618  0.6945 -1.2282
 5849SOL     OW29179   3.306   1.866   1.673  0.5636  0.0479  0.5987
 5849SOL    HW129180   3.266   1.936   1.621  0.8821  0.3663  0.7828
 5849SOL    HW229181   3.396   1.898   1.665  0.9998 -1.3632  0.0297
 5850SOL     OW29182   0.348   0.203  14.703  0.4712 -0.2478  0.0009
 5850SOL    HW129183   0.367   0.268  14.770  2.3415 -0.7858 -0.0092
 5850SOL    HW229184   0.269   0.156  14.730  0.6900 -0.3711  0.4123
 5851SOL     OW29185   1.508   3.006   6.123  0.2133 -0.1729 -0.0787
 5851SOL    HW129186   1.470   3.045   6.045  0.3505 -2.7463 -1.4394
 5851SOL    HW229187   1.445   3.024   6.192 -1.1720  0.1417 -1.4414
 5852SOL     OW29188   2.342   2.973  16.905  0.7401  0.0548  0.8784
 5852SOL    HW129189   2.391   3.052  16.926 -0.0339  0.3240  1.6737
 5852SOL    HW229190   2.326   2.990  16.812 -2.3361 -1.9519  1.0237
 5853SOL     OW29191   0.329   1.372  12.224 -0.0960 -0.4377 -0.0258
 5853SOL    HW129192   0.379   1.290  12.217 -1.7117 -1.3028 -1.2816
 5853SOL    HW229193   0.243   1.331  12.222  0.4428 -1.7133  2.1344
 5854SOL     OW29194   4.552   1.361   0.713 -0.5409 -0.6027 -0.0051
 5854SOL    HW129195   4.578   1.431   0.654 -0.2433 -0.6687  0.0482
 5854SOL    HW229196   4.629   1.306   0.722  0.4038  0.6577 -0.3918
 5855SOL     OW29197   2.288   3.025   9.616  0.1940 -0.2535 -0.4450
 5855SOL    HW129198   2.327   2.944   9.583  1.1323 -0.4652  1.2108
 5855SOL    HW229199   2.354   3.045   9.681  1.3219 -0.5978 -1.4834
 5856SOL     OW29200   0.965   2.874  13.597 -0.3270  0.0344 -0.0572
 5856SOL    HW129201   1.013   2.952  13.625 -1.5819  0.9204 -0.3501
 5856SOL    HW229202   0.988   2.811  13.666  0.1899  1.5239  1.1360
 5857SOL     OW29203   0.124   0.994   2.340 -0.3521  0.0056 -0.1924
 5857SOL    HW129204   0.038   0.951   2.346  0.2023 -1.2488 -1.1874
 5857SOL    HW229205   0.107   1.077   2.296 -0.4413 -0.2770 -0.6925
 5858SOL     OW29206   4.023   4.076   9.941 -0.1717 -0.1144  0.2366
 5858SOL    HW129207   3.928   4.081   9.933  0.0967  3.5291 -0.5611
 5858SOL    HW229208   4.057   3.987   9.942  0.8717  0.2814 -0.2610
 5859SOL     OW29209   3.195   3.180  13.646  0.3190 -0.1750 -0.6713
 5859SOL    HW129210   3.154   3.211  13.727 -2.0909 -1.4747 -1.3905
 5859SOL    HW229211   3.170   3.088  13.653  0.1855  0.0371  1.6438
 5860SOL     OW29212   2.407   2.152   1.000 -0.2085 -0.1530 -0.0794
 5860SOL    HW129213   2.330   2.098   0.986 -0.1506 -1.0399  3.2082
 5860SOL    HW229214   2.385   2.219   0.934  0.9708  0.6859  0.3709
 5861SOL     OW29215   3.655   2.158   9.049  0.0717 -0.2392 -0.7412
 5861SOL    HW129216   3.670   2.236   9.101 -2.2958  0.0509 -0.5095
 5861SOL    HW229217   3.574   2.120   9.083 -0.1157  1.0050  0.2009
 5862SOL     OW29218   0.654   2.558  17.245 -0.1229 -0.5016  0.2075
 5862SOL    HW129219   0.567   2.523  17.266 -1.4370  2.4512 -0.2380
 5862SOL    HW229220   0.638   2.581  17.153  1.2823  2.6052  0.7372
 5863SOL     OW29221   2.615   4.189   5.369 -0.4309 -0.4668  0.0148
 5863SOL    HW129222   2.633   4.282   5.378  0.2458 -0.6707  0.7549
 5863SOL    HW229223   2.666   4.164   5.292  0.6347  0.1751  0.5103
 5864SOL     OW29224   2.411   0.160   6.458 -0.0461 -0.0210  0.4890
 5864SOL    HW129225   2.457   0.244   6.453 -0.1335  0.0636  1.0550
 5864SOL    HW229226   2.435   0.142   6.367 -1.0008  1.3267 -0.0133
 5865SOL     OW29227   1.286   0.062  11.905 -0.2491  0.2653  0.0680
 5865SOL    HW129228   1.232   0.012  11.844 -3.4309  0.6749  2.5685
 5865SOL    HW229229   1.255   0.023  11.986  0.1443 -1.1668 -0.4625
 5866SOL     OW29230   4.088   4.109   3.376 -0.2671  0.2118 -0.2993
 5866SOL    HW129231   4.116   4.167   3.446 -0.2560 -3.0600  2.4026
 5866SOL    HW229232   4.076   4.026   3.421 -1.2556  0.5660  0.0907
 5867SOL     OW29233   2.426   2.541   4.396 -0.8411 -0.0861 -0.1303
 5867SOL    HW129234   2.352   2.514   4.450 -0.5835  1.3089  0.9202
 5867SOL    HW229235   2.382   2.589   4.326  0.8050  0.0124 -1.0910
 5868SOL     OW29236   4.117   0.697   7.593 -0.5103 -0.5568 -0.7178
 5868SOL    HW129237   4.074   0.769   7.546  0.0137  0.7195  0.7486
 5868SOL    HW229238   4.120   0.730   7.683 -0.4812  3.1497 -2.0746
 5869SOL     OW29239   1.258   3.139  11.580  0.2173 -0.3153 -0.1213
 5869SOL    HW129240   1.211   3.210  11.623  1.1687 -1.0934  2.1806
 5869SOL    HW229241   1.347   3.144  11.613  0.3266  1.1116 -0.6559
 5870SOL     OW29242   4.690   4.620   3.444 -0.0326  0.0607  0.0245
 5870SOL    HW129243   0.005   4.668   3.384  0.0396  0.6521  0.5643
 5870SOL    HW229244   4.604   4.643   3.411  0.8241  1.1752 -1.3913
 5871SOL     OW29245   0.853   0.706   7.653  0.0844 -0.6657 -0.3355
 5871SOL    HW129246   0.901   0.675   7.576 -0.0854  0.6973 -0.9786
 5871SOL    HW229247   0.806   0.781   7.616  1.1350 -0.6845 -1.7099
 5872SOL     OW29248   4.174   4.575   6.302  0.1222 -0.2832  0.2759
 5872SOL    HW129249   4.182   4.564   6.207 -1.0555 -1.0050  0.2626
 5872SOL    HW229250   4.154   4.668   6.317 -0.6453 -0.7219  1.9784
 5873SOL     OW29251   2.741   2.024  12.359  0.2887  0.4051 -0.2153
 5873SOL    HW129252   2.755   2.058  12.271  4.3748 -2.3607 -0.6778
 5873SOL    HW229253   2.751   2.108  12.404 -2.6062  1.1505 -1.0111
 5874SOL     OW29254   4.128   3.858   1.258 -0.2899 -0.5840 -0.2445
 5874SOL    HW129255   4.206   3.895   1.217 -1.6728  3.4962  0.8619
 5874SOL    HW229256   4.062   3.927   1.257  0.5859  0.2643  2.1319
 5875SOL     OW29257   3.955   2.452   8.615 -0.3380 -0.4675  0.5396
 5875SOL    HW129258   3.974   2.521   8.551  2.5736 -2.1373 -0.3836
 5875SOL    HW229259   3.882   2.492   8.663 -0.1575  1.6405 -0.9102
 5876SOL     OW29260   0.377   3.368   3.675 -0.4487 -0.1364  0.1968
 5876SOL    HW129261   0.292   3.328   3.656 -1.0211  0.5630  1.2656
 5876SOL    HW229262   0.429   3.295   3.709  1.9865  1.1717 -0.7544
 5877SOL     OW29263   2.607   3.570   1.196 -0.3468  0.2668  0.6023
 5877SOL    HW129264   2.692   3.529   1.177 -0.1388  0.2682  1.5684
 5877SOL    HW229265   2.556   3.491   1.213 -0.2333 -0.8269 -3.9512
 5878SOL     OW29266   1.106   0.311   6.183 -0.3329 -0.1777  0.3872
 5878SOL    HW129267   1.144   0.371   6.119  0.8443  0.6255  1.8393
 5878SOL    HW229268   1.090   0.365   6.260  0.0391 -0.2651  0.5274
 5879SOL     OW29269   4.050   2.769   2.834 -0.4090  0.4035  0.1672
 5879SOL    HW129270   4.063   2.696   2.773  0.8334  1.0765 -0.3695
 5879SOL    HW229271   3.988   2.825   2.786  1.1788  0.3822 -1.9008
 5880SOL     OW29272   1.114   0.236  15.708 -0.2422 -0.0924 -0.5796
 5880SOL    HW129273   1.087   0.198  15.792  0.5134 -0.5732 -0.5557
 5880SOL    HW229274   1.131   0.325  15.739  2.6077 -0.7172 -0.3847
 5881SOL     OW29275   4.550   0.360   5.755  0.3961  0.4586 -0.4881
 5881SOL    HW129276   4.627   0.342   5.809 -0.7804  1.8039  1.6588
 5881SOL    HW229277   4.510   0.275   5.736 -1.0698  0.7343  1.3915
 5882SOL     OW29278   2.578   0.502  13.246  0.2605  0.3218  0.2633
 5882SOL    HW129279   2.492   0.526  13.211 -1.3876 -3.9491  1.3921
 5882SOL    HW229280   2.560   0.514  13.339  2.3481 -0.6909  0.8010
 5883SOL     OW29281   3.414   3.304  17.669  0.4121 -0.1773  0.3996
 5883SOL    HW129282   3.477   3.234  17.685 -1.0246 -1.6730 -0.4454
 5883SOL    HW229283   3.382   3.314  17.759 -0.2070 -0.3197  0.2012
 5884SOL     OW29284   1.890   4.246   6.444  0.4286 -0.2177  0.1896
 5884SOL    HW129285   1.840   4.244   6.526 -0.5965  0.4474 -0.4076
 5884SOL    HW229286   1.835   4.309   6.397 -0.3664 -1.1334 -0.1071
 5885SOL     OW29287   1.657   3.868   3.693  0.4303 -0.1887 -0.0043
 5885SOL    HW129288   1.708   3.844   3.770  0.3473 -1.5504 -0.3745
 5885SOL    HW229289   1.671   3.801   3.626  2.1512 -0.2695  0.4437
 5886SOL     OW29290   3.986   2.189   8.326  0.3563 -0.2758  0.1029
 5886SOL    HW129291   3.913   2.202   8.387  0.1007  0.8871 -0.4448
 5886SOL    HW229292   4.014   2.279   8.310  0.2212 -0.6854 -2.3282
 5887SOL     OW29293   3.246   1.702   6.941  0.3646  0.0804 -0.1042
 5887SOL    HW129294   3.327   1.650   6.934  0.5555  0.5659 -1.4096
 5887SOL    HW229295   3.212   1.670   7.025  0.4391  0.1235 -0.0567
 5888SOL     OW29296   0.088   3.249   4.892 -0.1188 -0.1378 -0.0582
 5888SOL    HW129297   0.006   3.286   4.860  1.1742 -0.0351 -3.2439
 5888SOL    HW229298   0.153   3.319   4.882 -0.3731 -0.2370 -2.3036
 5889SOL     OW29299   4.036   4.738   3.401  0.2630  0.5279  0.5231
 5889SOL    HW129300   4.025   0.080   3.357  0.3009  0.3412  0.1563
 5889SOL    HW229301   4.007   4.679   3.331  2.0141  0.3152 -0.0168
 5890SOL     OW29302   1.691   1.909   9.357  0.4964 -0.4208 -0.3902
 5890SOL    HW129303   1.749   1.948   9.291 -0.1524  1.5071  0.1657
 5890SOL    HW229304   1.665   1.986   9.408  1.8289 -0.2187 -0.0015
 5891SOL     OW29305   1.973   0.582   3.987 -0.2741 -0.1900 -0.8509
 5891SOL    HW129306   1.932   0.618   3.909  0.4343  0.2468 -1.0256
 5891SOL    HW229307   2.056   0.627   4.004  0.4171 -1.2257 -1.4567
 5892SOL     OW29308   1.111   4.136   5.070 -0.2715 -0.4098  0.6928
 5892SOL    HW129309   1.106   4.064   5.133  2.0054 -1.1504  0.0116
 5892SOL    HW229310   1.119   4.080   4.993 -0.5530  1.3395 -0.6209
 5893SOL     OW29311   4.361   0.065  11.254  0.5418 -0.4416  0.0198
 5893SOL    HW129312   4.322   0.143  11.294 -0.3340 -1.3889  1.0235
 5893SOL    HW229313   4.391   0.013  11.329  0.2350 -0.9131 -0.1895
 5894SOL     OW29314   0.525   0.108  12.696  0.0022 -0.5376  0.0260
 5894SOL    HW129315   0.524   0.038  12.762 -0.4588  1.1660  1.8403
 5894SOL    HW229316   0.432   0.118  12.676  1.0042  1.3108 -3.6640
 5895SOL     OW29317   0.891   2.996   4.842 -0.3897 -0.3203  0.1552
 5895SOL    HW129318   0.951   3.028   4.775 -0.4770 -0.0557  0.1996
 5895SOL    HW229319   0.936   2.914   4.863 -0.3105 -0.7889 -1.9165
 5896SOL     OW29320   1.034   3.626   4.477 -0.0130  0.0767 -0.1592
 5896SOL    HW129321   1.004   3.678   4.552 -0.9076 -0.5112 -0.1036
 5896SOL    HW229322   1.112   3.674   4.451 -0.9150  0.7288 -1.6615
 5897SOL     OW29323   4.247   1.204   6.182 -0.2547 -0.2450  0.2183
 5897SOL    HW129324   4.204   1.279   6.223 -2.9379 -2.2511  1.0933
 5897SOL    HW229325   4.245   1.229   6.089 -1.1353 -2.1840 -0.3007
 5898SOL     OW29326   0.565   3.442  13.246 -0.2735 -0.1618  0.5353
 5898SOL    HW129327   0.628   3.511  13.266 -0.3368  0.0021  0.1630
 5898SOL    HW229328   0.502   3.493  13.196  0.0134  1.8365  2.1849
 5899SOL     OW29329   3.529   3.650   4.742  0.0627 -0.3338 -0.3312
 5899SOL    HW129330   3.439   3.622   4.724  0.2414 -2.4868  2.0589
 5899SOL    HW229331   3.534   3.624   4.834 -2.0968 -1.0812 -0.4291
 5900SOL     OW29332   1.668   2.101   7.754  0.6703 -0.2210  0.0013
 5900SOL    HW129333   1.759   2.097   7.783  0.9572  2.0419 -0.5834
 5900SOL    HW229334   1.646   2.017   7.713  0.1826 -0.4120  0.6381
 5901SOL     OW29335   3.474   4.137   0.383  0.5453 -0.2955 -0.0439
 5901SOL    HW129336   3.522   4.158   0.463 -1.2123  1.2502  0.6278
 5901SOL    HW229337   3.386   4.136   0.422  0.5422  1.0892 -0.0172
 5902SOL     OW29338   3.000   0.121   4.602 -0.1339 -0.1038  0.2299
 5902SOL    HW129339   3.005   0.031   4.634 -2.4265 -0.1434  0.4536
 5902SOL    HW229340   3.091   0.144   4.620  0.0294 -0.8395  0.3222
 5903SOL     OW29341   0.737   3.880  15.096  0.0381  0.4647  0.1631
 5903SOL    HW129342   0.720   3.786  15.083 -0.1258 -0.1745  4.9168
 5903SOL    HW229343   0.824   3.900  15.062 -0.0983 -2.1105 -1.7472
 5904SOL     OW29344   0.960   1.045   7.056  0.3354  0.0556  0.0983
 5904SOL    HW129345   0.975   1.103   6.982 -0.2263  0.2616  0.1435
 5904SOL    HW229346   1.052   1.032   7.077  1.0302  3.0860 -1.1615
 5905SOL     OW29347   4.352   0.799   6.573 -0.1608 -0.0381 -0.0322
 5905SOL    HW129348   4.310   0.757   6.498 -1.8212  0.4600  0.6275
 5905SOL    HW229349   4.435   0.751   6.572 -0.3013 -0.2622 -0.6255
 5906SOL     OW29350   3.997   1.286  11.567 -0.2969 -0.0660 -0.3905
 5906SOL    HW129351   4.036   1.204  11.535  0.6306  0.7687 -1.4079
 5906SOL    HW229352   4.073   1.331  11.605 -0.7850 -1.3142  2.0915
 5907SOL     OW29353   3.194   0.451  16.717  0.3383  0.0603  0.4250
 5907SOL    HW129354   3.266   0.388  16.727 -0.1650 -0.5919 -0.0570
 5907SOL    HW229355   3.198   0.485  16.628 -0.3659 -3.9150 -1.1519
 5908SOL     OW29356   4.475   4.055  15.704  0.4489 -0.1075  0.5056
 5908SOL    HW129357   4.560   4.061  15.748  0.8416 -1.1658 -0.0894
 5908SOL    HW229358   4.449   4.141  15.735 -0.7643 -0.3272  0.1001
 5909SOL     OW29359   1.402   3.587   8.767 -0.5470  0.5122  0.6113
 5909SOL    HW129360   1.452   3.634   8.700 -0.3436  0.8976  1.0332
 5909SOL    HW229361   1.435   3.618   8.851  0.7828  0.0691  0.2580
 5910SOL     OW29362   0.983   2.190   8.565  0.1562  0.3293 -0.3591
 5910SOL    HW129363   1.039   2.206   8.641 -0.1811 -0.1315 -0.0147
 5910SOL    HW229364   1.045   2.191   8.493  1.8553 -1.5961  1.0865
 5911SOL     OW29365   4.059   3.807   2.178  0.2906 -0.7997  0.2454
 5911SOL    HW129366   4.113   3.732   2.202  1.8760  0.6213  1.1579
 5911SOL    HW229367   4.119   3.863   2.129 -2.2095  0.3734 -1.4475
 5912SOL     OW29368   2.163   1.887   5.909 -0.7579 -0.4778 -0.2913
 5912SOL    HW129369   2.131   1.871   5.998 -2.1277 -1.8145 -1.0236
 5912SOL    HW229370   2.210   1.970   5.919 -1.2128 -0.5133  2.2363
 5913SOL     OW29371   2.842   2.377  15.863 -0.0564 -0.5513  0.4227
 5913SOL    HW129372   2.770   2.321  15.891 -0.6870 -0.5415 -1.1897
 5913SOL    HW229373   2.803   2.422  15.788 -0.0541 -0.0066  0.7414
 5914SOL     OW29374   2.835   3.589   4.766 -0.1466  0.0811 -0.7816
 5914SOL    HW129375   2.898   3.635   4.711  0.1087  2.8020  1.8105
 5914SOL    HW229376   2.893   3.531   4.817 -1.4011 -1.0800 -0.6659
 5915SOL     OW29377   1.819   2.595   2.673 -0.2559  0.0273  0.3348
 5915SOL    HW129378   1.885   2.635   2.730  0.4708  1.3686 -1.4696
 5915SOL    HW229379   1.824   2.649   2.594  1.7273 -0.9868 -0.2015
 5916SOL     OW29380   0.670   2.146   8.882  0.1202  0.2638  0.4737
 5916SOL    HW129381   0.607   2.076   8.866 -0.7142  1.8084 -2.9765
 5916SOL    HW229382   0.619   2.217   8.843 -1.1390 -0.7160  0.3577
 5917SOL     OW29383   1.769   2.774   5.689  0.1084  0.0649  0.4281
 5917SOL    HW129384   1.845   2.816   5.730 -0.9308  2.0008  0.3774
 5917SOL    HW229385   1.769   2.686   5.726  1.7577 -0.4891 -0.8531
 5918SOL     OW29386   0.689   3.841  16.948  0.2392  0.1998 -0.7450
 5918SOL    HW129387   0.754   3.772  16.961 -1.2072 -0.8301  1.0212
 5918SOL    HW229388   0.644   3.831  17.032 -1.0869 -1.7549 -1.7069
 5919SOL     OW29389   3.488   0.994   7.007 -0.5429  0.7848  0.3458
 5919SOL    HW129390   3.548   0.942   7.061  2.0424  1.6951 -1.6425
 5919SOL    HW229391   3.401   0.963   7.033 -0.5151  0.1545 -0.3111
 5920SOL     OW29392   1.202   4.690   9.541  0.1559 -0.2428  0.2295
 5920SOL    HW129393   1.245   4.611   9.576 -1.7940 -2.0941 -1.5397
 5920SOL    HW229394   1.234   0.015   9.601  1.0889 -0.0493 -0.4862
 5921SOL     OW29395   2.541   0.042   5.671  0.4536  0.5113 -0.0528
 5921SOL    HW129396   2.521   0.044   5.578 -0.5495  2.3690  0.2049
 5921SOL    HW229397   2.630   0.008   5.663 -0.2317 -1.1200 -0.8871
 5922SOL     OW29398   3.070   2.864   0.833  0.2708  0.4276  0.0911
 5922SOL    HW129399   3.067   2.937   0.771 -1.7723  0.2774  0.0176
 5922SOL    HW229400   3.058   2.784   0.782 -1.2625  0.3013  0.6558
 5923SOL     OW29401   1.678   3.146   4.343 -0.3754  0.1973 -0.1261
 5923SOL    HW129402   1.696   3.079   4.409  0.2339  1.1835  0.7186
 5923SOL    HW229403   1.661   3.217   4.405 -1.8539 -1.0762  0.9443
 5924SOL     OW29404   2.220   0.838   6.498  0.4206 -0.2071 -0.6772
 5924SOL    HW129405   2.160   0.827   6.424 -0.4239 -3.4168  0.4790
 5924SOL    HW229406   2.305   0.800   6.476  1.5099  0.9513  1.5131
 5925SOL     OW29407   2.331   2.827  13.217 -0.1741  0.2348 -0.2951
 5925SOL    HW129408   2.388   2.888  13.264 -0.9910  2.8913 -2.8031
 5925SOL    HW229409   2.307   2.882  13.143  1.2977 -0.5366 -1.3441
 5926SOL     OW29410   4.367   0.184  12.841  0.1277  0.9692 -0.2923
 5926SOL    HW129411   4.326   0.266  12.814  1.0655  1.6856  0.4987
 5926SOL    HW229412   4.325   0.119  12.784  0.7459 -0.9262  1.3843
 5927SOL     OW29413   4.230   4.734   6.988  0.1980 -0.1110 -0.2042
 5927SOL    HW129414   4.309   0.020   7.034 -0.2591  2.1264 -0.7735
 5927SOL    HW229415   4.196   0.072   6.948  0.1135  1.5746  3.3128
 5928SOL     OW29416   0.436   4.043   7.658  0.1107 -0.0330  0.4760
 5928SOL    HW129417   0.530   4.054   7.645  0.7251 -1.4478  3.7488
 5928SOL    HW229418   0.419   3.969   7.600 -2.2114  1.8868 -1.2704
 5929SOL     OW29419   2.332   3.811   1.241 -0.4476 -0.1539 -0.1638
 5929SOL    HW129420   2.273   3.865   1.189 -3.6194 -2.8226  0.6732
 5929SOL    HW229421   2.264   3.758   1.282 -0.1668  1.6973  2.7167
 5930SOL     OW29422   4.467   1.669  17.395  0.6582 -0.4287 -0.5047
 5930SOL    HW129423   4.495   1.591  17.442 -0.5650 -0.5754 -0.0313
 5930SOL    HW229424   4.377   1.655  17.368 -0.1410  1.2875  1.2114
 5931SOL     OW29425   0.392   4.291  16.880  0.2376  0.7193  0.4526
 5931SOL    HW129426   0.447   4.332  16.813 -1.0172 -1.1088 -1.7235
 5931SOL    HW229427   0.307   4.320  16.849 -0.1142  0.5349  1.2498
 5932SOL     OW29428   0.355   4.156   4.045  0.0365 -0.6736  0.2535
 5932SOL    HW129429   0.326   4.150   3.954  0.1599 -0.6371  0.2130
 5932SOL    HW229430   0.324   4.070   4.073 -1.4515  0.1705  1.2074
 5933SOL     OW29431   3.100   2.232   7.527 -0.1162  0.2492 -0.0364
 5933SOL    HW129432   3.165   2.193   7.468 -0.5209 -1.2065  0.4943
 5933SOL    HW229433   3.153   2.308   7.550 -1.6683  1.3164  0.0166
 5934SOL     OW29434   1.283   1.632   7.948  0.1668  0.7448  0.0007
 5934SOL    HW129435   1.235   1.645   8.029  0.9228 -0.1370  0.5984
 5934SOL    HW229436   1.252   1.542   7.934  1.3962  0.7422 -2.6857
 5935SOL     OW29437   2.881   0.786  14.906 -0.7723  0.2911  0.0421
 5935SOL    HW129438   2.825   0.826  14.972 -1.3293 -0.6711  0.1573
 5935SOL    HW229439   2.819   0.774  14.834 -1.5504 -1.1957  0.9470
 5936SOL     OW29440   1.080   4.035   0.056  0.6660  0.4937  0.3178
 5936SOL    HW129441   1.158   4.008   0.008  0.5942 -0.1170  0.5390
 5936SOL    HW229442   1.102   4.041   0.149 -1.3535  3.4372  0.6195
 5937SOL     OW29443   0.568   2.552   2.585 -0.6208 -0.0781 -0.1790
 5937SOL    HW129444   0.490   2.501   2.608 -0.8756  1.7139  2.9294
 5937SOL    HW229445   0.629   2.543   2.658 -1.6747 -1.3896  0.5431
 5938SOL     OW29446   2.433   2.533  15.879 -0.0530  0.2351  0.4311
 5938SOL    HW129447   2.495   2.604  15.867 -0.6828  1.3028  3.6104
 5938SOL    HW229448   2.500   2.467  15.901  0.4796  2.0406  4.1979
 5939SOL     OW29449   3.959   4.734  15.393  0.1886  0.1658 -0.0584
 5939SOL    HW129450   3.938   0.055  15.463 -0.8640  2.6545 -2.5769
 5939SOL    HW229451   3.871   4.702  15.376  0.2831 -0.2989  0.3308
 5940SOL     OW29452   2.821   3.313  10.012  0.0040  0.3278  0.1228
 5940SOL    HW129453   2.852   3.245  10.071 -1.7251 -2.7672 -2.5199
 5940SOL    HW229454   2.803   3.374  10.084 -1.7739 -1.0319  0.8387
 5941SOL     OW29455   3.758   1.116   6.739  0.4548  0.2481  0.0261
 5941SOL    HW129456   3.760   1.109   6.644  2.7362 -0.8744  0.1512
 5941SOL    HW229457   3.725   1.028   6.759 -1.2980  1.1319  1.0128
 5942SOL     OW29458   0.968   1.299   3.799 -0.4134  0.3390 -0.3573
 5942SOL    HW129459   0.903   1.230   3.783  0.6227 -0.7446  0.1358
 5942SOL    HW229460   1.003   1.276   3.885 -1.6119 -0.2050 -0.0111
 5943SOL     OW29461   0.931   4.620  14.802  0.1478  0.1060 -0.2171
 5943SOL    HW129462   0.925   4.676  14.725 -1.1424 -0.4636 -0.5450
 5943SOL    HW229463   0.860   4.557  14.789 -0.7448  1.0056  0.3375
 5944SOL     OW29464   2.048   3.406   9.209  0.4361  0.4809 -0.5955
 5944SOL    HW129465   2.074   3.343   9.142 -1.2008 -0.6500 -0.1663
 5944SOL    HW229466   2.082   3.360   9.286 -1.2761  0.3122  0.0571
 5945SOL     OW29467   1.558   3.895   2.060  0.5958 -0.2984 -0.0772
 5945SOL    HW129468   1.495   3.854   2.118 -0.2033 -1.0547 -1.4808
 5945SOL    HW229469   1.500   3.942   1.999 -0.7488 -2.6317 -0.6032
 5946SOL     OW29470   3.867   1.273   1.912 -0.8376 -0.7910  0.5112
 5946SOL    HW129471   3.879   1.356   1.958  0.0002 -1.0727  0.8054
 5946SOL    HW229472   3.783   1.243   1.947 -0.4765 -2.3287  0.0446
 5947SOL     OW29473   4.037   2.021  13.118 -0.1419 -0.3246  0.4607
 5947SOL    HW129474   3.950   1.987  13.100 -0.0850 -0.5815  0.6734
 5947SOL    HW229475   4.036   2.114  13.096 -1.4262 -0.4737 -0.0768
 5948SOL     OW29476   2.491   4.683   5.368  0.8644 -0.0976 -0.1679
 5948SOL    HW129477   2.425   4.639   5.422 -0.5887  1.6560 -0.5093
 5948SOL    HW229478   2.508   4.610   5.310  0.0796 -0.2979 -0.1498
 5949SOL     OW29479   0.882   2.785  10.535 -0.4288 -0.6378 -0.2024
 5949SOL    HW129480   0.906   2.818  10.621 -2.0323 -1.8198  0.6892
 5949SOL    HW229481   0.788   2.771  10.540 -0.4396  0.0361  1.4381
 5950SOL     OW29482   3.871   4.138  16.786  0.2622 -0.3344 -0.1044
 5950SOL    HW129483   3.829   4.068  16.735  0.4356 -0.6055  0.1222
 5950SOL    HW229484   3.940   4.087  16.827  3.3919  2.6187 -1.6960
 5951SOL     OW29485   0.179   1.272   7.293 -0.4609  0.2513 -0.3402
 5951SOL    HW129486   0.085   1.263   7.308 -0.3434 -1.1064 -0.4161
 5951SOL    HW229487   0.182   1.235   7.204  0.7778 -1.5209  0.4303
 5952SOL     OW29488   1.927   0.353   8.919  0.3664 -0.2550  0.5680
 5952SOL    HW129489   1.930   0.283   8.983  1.3456 -0.2510  0.5295
 5952SOL    HW229490   1.876   0.421   8.963  0.9672 -1.3854  2.9995
 5953SOL     OW29491   3.976   1.689   2.198 -0.0524  0.1427 -0.2513
 5953SOL    HW129492   4.005   1.601   2.173  0.3472  0.7422 -1.9173
 5953SOL    HW229493   3.955   1.678   2.291 -0.2197 -0.5919 -0.3761
 5954SOL     OW29494   0.662   3.140  11.872 -0.5368  0.8589  0.3002
 5954SOL    HW129495   0.567   3.130  11.877 -0.3104 -0.5188  1.7926
 5954SOL    HW229496   0.701   3.063  11.913 -0.6628  0.3587 -0.5095
 5955SOL     OW29497   3.202   0.256   2.195  0.2219 -0.4358 -0.0059
 5955SOL    HW129498   3.293   0.236   2.175  0.5541  0.5160  0.5458
 5955SOL    HW229499   3.154   0.196   2.137  2.1737 -0.3053 -1.7456
 5956SOL     OW29500   1.885   3.949   7.506 -0.1914 -0.3724 -0.3896
 5956SOL    HW129501   1.810   3.971   7.451  1.2175  3.1029 -0.9321
 5956SOL    HW229502   1.903   4.033   7.547 -0.6684 -0.7535  0.6038
 5957SOL     OW29503   1.131   3.366   4.218 -0.1537 -0.3117  0.4171
 5957SOL    HW129504   1.122   3.277   4.184  0.3090 -0.3240  0.3218
 5957SOL    HW229505   1.074   3.409   4.154 -1.9320 -2.7974  0.3283
 5958SOL     OW29506   1.547   3.544  11.497  0.2516 -0.0452 -0.0833
 5958SOL    HW129507   1.551   3.599  11.575 -2.6941  0.2179 -0.1512
 5958SOL    HW229508   1.462   3.566  11.460  0.5801 -0.3142 -1.0158
 5959SOL     OW29509   2.853   4.677   0.309  0.3773  0.3280 -0.2100
 5959SOL    HW129510   2.804   4.706   0.386 -0.4674  1.0883 -1.0273
 5959SOL    HW229511   2.941   4.685   0.344 -0.8570  1.3886  2.6312
 5960SOL     OW29512   2.876   4.440   6.402 -0.2631  0.5047  0.1104
 5960SOL    HW129513   2.784   4.443   6.377  0.1265 -1.2337 -1.5659
 5960SOL    HW229514   2.863   4.474   6.490  0.2013  0.2788  0.2664
 5961SOL     OW29515   4.641   1.102   4.078  0.5018  0.0522  0.4643
 5961SOL    HW129516   4.615   1.030   4.021  0.0513  1.6451 -1.3202
 5961SOL    HW229517   4.555   1.120   4.117  0.0619 -1.0552 -0.0029
 5962SOL     OW29518   1.214   2.947  16.607 -0.0626 -0.0762 -0.4005
 5962SOL    HW129519   1.206   2.968  16.700 -1.6530  0.5024 -0.6684
 5962SOL    HW229520   1.261   2.864  16.613  1.3189  0.8482  1.3493
 5963SOL     OW29521   1.925   1.736   5.802  0.3287 -0.2422 -0.2143
 5963SOL    HW129522   1.996   1.794   5.829 -0.4154 -0.5128  2.3808
 5963SOL    HW229523   1.929   1.741   5.707 -2.5652 -0.2553 -0.3525
 5964SOL     OW29524   1.582   0.059   2.695 -0.5736  0.1771  0.3768
 5964SOL    HW129525   1.610   0.033   2.607 -0.9542  1.5391 -0.1455
 5964SOL    HW229526   1.665   0.097   2.724 -1.4395  2.1497  0.2715
 5965SOL     OW29527   1.685   1.985   0.766  0.8558  0.3265  0.2622
 5965SOL    HW129528   1.645   2.070   0.783  0.0408 -0.1108  0.5398
 5965SOL    HW229529   1.758   1.980   0.828  1.2265  1.3072 -0.1040
 5966SOL     OW29530   3.240   1.655   8.471  0.7878  0.8429 -0.3057
 5966SOL    HW129531   3.191   1.574   8.456  0.9093  0.4258  1.5733
 5966SOL    HW229532   3.182   1.688   8.540  1.6733 -0.2022  0.9198
 5967SOL     OW29533   2.854   3.347   5.160 -0.6929  0.3966 -0.1788
 5967SOL    HW129534   2.762   3.374   5.151 -0.6099  1.3230  1.7298
 5967SOL    HW229535   2.892   3.395   5.087  1.9502 -0.8187  0.3939
 5968SOL     OW29536   2.257   4.179   7.558  0.7178  0.4117 -0.1875
 5968SOL    HW129537   2.181   4.187   7.500 -0.0892 -2.8381  0.4154
 5968SOL    HW229538   2.224   4.215   7.640 -1.2428  1.0588 -1.2558
 5969SOL     OW29539   1.387   3.832   7.893  0.3990  0.3628  0.2784
 5969SOL    HW129540   1.366   3.923   7.914  0.1210  0.7935 -1.8375
 5969SOL    HW229541   1.340   3.781   7.958 -1.1477  1.0716 -0.2782
 5970SOL     OW29542   1.270   2.768   3.193  0.3084  0.3787  0.0192
 5970SOL    HW129543   1.239   2.688   3.236 -0.4011 -0.1451 -1.4384
 5970SOL    HW229544   1.344   2.728   3.147 -1.1162 -2.9333  0.5576
 5971SOL     OW29545   2.944   0.877   1.911 -0.7569  0.2086  0.5475
 5971SOL    HW129546   2.899   0.960   1.898  0.3731  0.5048 -1.4666
 5971SOL    HW229547   3.011   0.901   1.975 -0.6182  0.7833  0.1861
 5972SOL     OW29548   3.399   2.977   9.581 -0.0011  0.0984  0.4273
 5972SOL    HW129549   3.464   3.046   9.569  3.7286 -3.5407 -0.0592
 5972SOL    HW229550   3.403   2.973   9.677 -1.8045 -0.3691  0.4920
 5973SOL     OW29551   4.335   2.384   7.822  0.0178 -0.9661  0.0315
 5973SOL    HW129552   4.271   2.349   7.884 -0.2489 -0.3508  0.0986
 5973SOL    HW229553   4.318   2.340   7.738 -3.7868 -1.0735  0.8830
 5974SOL     OW29554   3.401   0.372   8.961  0.1342 -0.0969  0.0418
 5974SOL    HW129555   3.439   0.353   8.875  0.0735  0.3260 -0.0749
 5974SOL    HW229556   3.472   0.370   9.024 -0.6447  1.2386  0.9562
 5975SOL     OW29557   0.002   4.644   3.150 -0.0622  0.2630  0.1828
 5975SOL    HW129558   0.048   4.565   3.124 -1.9050 -0.6225 -0.4350
 5975SOL    HW229559   4.670   4.656   3.090  0.0647 -1.8375 -0.3838
 5976SOL     OW29560   3.925   4.610   3.141 -0.2617 -0.5603  0.1299
 5976SOL    HW129561   3.848   4.560   3.166  0.6992 -1.3378  1.5209
 5976SOL    HW229562   3.888   4.668   3.074 -1.5412 -0.6398  0.7729
 5977SOL     OW29563   4.359   1.197   2.840 -0.3156 -0.3229  0.7398
 5977SOL    HW129564   4.371   1.230   2.929 -1.0693 -1.3128  1.2055
 5977SOL    HW229565   4.448   1.186   2.808 -0.8639  0.0819 -0.9228
 5978SOL     OW29566   2.199   0.710   3.124 -0.1045 -0.3066  0.5346
 5978SOL    HW129567   2.284   0.685   3.159 -0.5174  0.9741  2.4482
 5978SOL    HW229568   2.198   0.792   3.174  0.3692  0.5511 -0.8631
 5979SOL     OW29569   0.290   3.948   6.094 -0.4439  0.6495 -0.2453
 5979SOL    HW129570   0.343   4.015   6.049  1.7546  0.3000  1.8673
 5979SOL    HW229571   0.198   3.962   6.068 -0.1921  2.2158 -0.3146
 5980SOL     OW29572   3.826   3.801   3.484  0.1240  0.7617 -0.5108
 5980SOL    HW129573   3.833   3.725   3.426 -1.2523  0.9830 -0.9747
 5980SOL    HW229574   3.915   3.837   3.485  0.2211  0.3796  2.4612
 5981SOL     OW29575   0.945   1.597   1.899 -0.5473 -0.4844  0.2659
 5981SOL    HW129576   0.906   1.631   1.980 -0.4067 -2.0773  0.9887
 5981SOL    HW229577   0.970   1.682   1.861 -1.4231 -1.0195 -1.4974
 5982SOL     OW29578   3.266   3.698   1.178  0.5945  0.2299  0.7604
 5982SOL    HW129579   3.280   3.688   1.084  1.0584 -0.0928  0.8660
 5982SOL    HW229580   3.239   3.610   1.202 -1.3977  0.6644  0.1818
 5983SOL     OW29581   4.231   0.748   3.071 -0.0594  0.0434  0.1516
 5983SOL    HW129582   4.301   0.753   3.006  0.2591 -1.2702  0.4043
 5983SOL    HW229583   4.270   0.692   3.137  0.4832 -1.9326 -1.8521
 5984SOL     OW29584   2.761   0.749   7.593 -0.1622 -0.3923 -0.2062
 5984SOL    HW129585   2.793   0.837   7.570 -1.0918 -0.1650 -0.6394
 5984SOL    HW229586   2.687   0.736   7.533  0.3233 -1.2988 -0.6086
 5985SOL     OW29587   4.265   4.445   2.479  0.3559 -0.4296 -0.4449
 5985SOL    HW129588   4.286   4.360   2.517  1.6584  0.5832  1.1083
 5985SOL    HW229589   4.351   4.475   2.451  0.9087 -1.8794 -0.3019
 5986SOL     OW29590   3.167   0.403   4.008 -0.3173  0.4060  0.0233
 5986SOL    HW129591   3.185   0.497   4.018  2.0001 -0.1277  0.9399
 5986SOL    HW229592   3.080   0.403   4.049 -0.0044 -1.8799  0.6930
 5987SOL     OW29593   3.339   3.042   9.023 -0.2662  0.2876  0.7361
 5987SOL    HW129594   3.430   3.036   8.996  0.2847  0.6869  2.5183
 5987SOL    HW229595   3.305   2.953   9.026 -1.6575  0.7974  0.3513
 5988SOL     OW29596   4.034   3.865  13.569 -0.0587 -0.3475  0.2781
 5988SOL    HW129597   4.007   3.839  13.657 -1.5772  3.4282  0.9248
 5988SOL    HW229598   4.096   3.937  13.579 -0.5613  0.0962  0.2230
 5989SOL     OW29599   3.730   4.731  14.089 -0.1000  0.5036  0.0585
 5989SOL    HW129600   3.810   4.704  14.132 -0.0190  1.3864  0.4506
 5989SOL    HW229601   3.766   0.028  14.009  0.7694  0.1065  0.2630
 5990SOL     OW29602   2.515   0.589   5.136 -0.7545  0.3169  0.3474
 5990SOL    HW129603   2.486   0.501   5.159  0.2075 -0.0684  0.0950
 5990SOL    HW229604   2.460   0.604   5.059  0.3943 -0.3072 -0.6075
 5991SOL     OW29605   3.425   0.393   7.246 -0.0699  0.2780 -0.2354
 5991SOL    HW129606   3.369   0.469   7.258  1.0451  0.7690  1.8954
 5991SOL    HW229607   3.389   0.333   7.311  0.8433 -1.4508 -1.3045
 5992SOL     OW29608   3.861   4.223   4.294 -0.0686  0.5546  0.0131
 5992SOL    HW129609   3.931   4.176   4.248  0.4397  1.2215  0.1106
 5992SOL    HW229610   3.902   4.251   4.376 -1.8790 -0.4638  1.2802
 5993SOL     OW29611   4.626   1.234   3.651  0.0132 -0.1215 -0.7548
 5993SOL    HW129612   4.680   1.232   3.730 -0.7809  0.4469 -0.1902
 5993SOL    HW229613   4.651   1.150   3.613  0.9587 -0.1505 -0.0765
 5994SOL     OW29614   1.089   0.676   5.400  0.0393  0.1698  0.2818
 5994SOL    HW129615   1.043   0.597   5.371 -0.3310  0.6194 -0.3529
 5994SOL    HW229616   1.037   0.693   5.478 -1.5590  2.8325 -1.3930
 5995SOL     OW29617   4.104   0.241   4.549  0.5352  0.2640 -0.4209
 5995SOL    HW129618   4.088   0.300   4.476 -1.0921 -0.7638 -0.8862
 5995SOL    HW229619   4.045   0.278   4.614  0.0644 -0.7616 -0.2601
 5996SOL     OW29620   0.338   1.945  15.581 -0.1588  0.1778 -0.4035
 5996SOL    HW129621   0.322   2.010  15.513  1.1334  2.6362  1.6672
 5996SOL    HW229622   0.427   1.918  15.558 -0.0685  2.7334 -3.0184
 5997SOL     OW29623   0.369   3.022   0.318  0.2953 -0.0866 -0.0943
 5997SOL    HW129624   0.395   2.968   0.243 -2.1046 -3.4510  1.4768
 5997SOL    HW229625   0.452   3.059   0.348 -0.1171  1.4512 -0.8550
 5998SOL     OW29626   2.282   3.558  12.429 -0.2490  0.3224 -0.4151
 5998SOL    HW129627   2.372   3.552  12.397  0.0877  0.8213  0.4255
 5998SOL    HW229628   2.297   3.515  12.513  1.8752  0.6468 -0.6193
 5999SOL     OW29629   0.572   2.356   6.219 -0.3084  0.3426  0.2665
 5999SOL    HW129630   0.617   2.272   6.228 -0.2572  0.4879  1.2890
 5999SOL    HW229631   0.553   2.382   6.309  0.1669 -1.1184  0.7839
 6000SOL     OW29632   0.300   0.198   4.899 -0.8933  0.2122 -0.3534
 6000SOL    HW129633   0.314   0.215   4.992 -2.0868  1.1941 -0.3453
 6000SOL    HW229634   0.255   0.114   4.905 -1.7569  0.5834 -1.5635
 6001SOL     OW29635   2.905   0.555   9.140 -0.7456 -0.1830 -0.4670
 6001SOL    HW129636   2.974   0.597   9.190 -0.6306 -0.3832 -0.4555
 6001SOL    HW229637   2.856   0.510   9.209  1.2827 -1.7482 -0.0418
 6002SOL     OW29638   0.480   3.009  12.811 -0.2407  0.4073  0.2006
 6002SOL    HW129639   0.484   3.064  12.888  1.1558 -0.6040  0.8490
 6002SOL    HW229640   0.415   2.941  12.829  0.4205  0.2209  1.7904
 6003SOL     OW29641   4.714   0.830  15.781  0.3400  0.1084  0.6037
 6003SOL    HW129642   4.652   0.759  15.801  1.7122 -1.1310  0.4636
 6003SOL    HW229643   4.730   0.810  15.689  3.1182 -0.9120  1.2993
 6004SOL     OW29644   3.952   0.257   1.668  0.1933  0.0123  0.3677
 6004SOL    HW129645   3.990   0.335   1.708  1.6811 -1.3016  1.5478
 6004SOL    HW229646   3.975   0.204   1.745  1.7652 -0.9130 -0.7471
 6005SOL     OW29647   2.980   4.388   3.640  0.0345  0.2273  0.1167
 6005SOL    HW129648   2.921   4.462   3.626  0.2420  0.0862 -1.5800
 6005SOL    HW229649   3.031   4.400   3.560  0.2262  0.1374  0.2261
 6006SOL     OW29650   3.990   0.180   1.931 -0.3879  0.2783 -0.0342
 6006SOL    HW129651   4.035   0.096   1.942  1.2524  1.1326 -0.1673
 6006SOL    HW229652   3.947   0.187   2.016 -0.7303 -2.4333  0.0192
 6007SOL     OW29653   2.851   3.076   5.069 -0.5604 -0.0348  0.1472
 6007SOL    HW129654   2.843   3.169   5.092  2.4629  0.2699 -0.0453
 6007SOL    HW229655   2.777   3.036   5.115 -0.9884 -0.6515 -1.0733
 6008SOL     OW29656   0.041   1.178   3.000  0.6253 -0.6937 -0.1752
 6008SOL    HW129657   0.117   1.201   3.053 -0.3258  2.2355 -0.0810
 6008SOL    HW229658   4.734   1.117   3.057 -0.2010  0.1883  0.0653
 6009SOL     OW29659   4.199   4.410  13.024 -0.2650 -0.1103 -0.0676
 6009SOL    HW129660   4.132   4.346  13.000  0.1393 -0.0983 -1.2179
 6009SOL    HW229661   4.150   4.490  13.003 -0.7359 -0.3340  0.1685
 6010SOL     OW29662   4.419   1.515  12.440 -0.1305 -0.7861  0.1678
 6010SOL    HW129663   4.408   1.588  12.501 -1.4128  1.3472 -2.6222
 6010SOL    HW229664   4.352   1.453  12.468 -0.5586 -1.9286 -3.4824
 6011SOL     OW29665   2.625   1.626   1.782  0.1653  0.2976  0.5344
 6011SOL    HW129666   2.641   1.719   1.798  0.8517  0.4291 -0.9261
 6011SOL    HW229667   2.591   1.587   1.863 -1.7454  1.6557  0.4054
 6012SOL     OW29668   1.641   4.545  16.456  0.2693  0.3526 -0.5869
 6012SOL    HW129669   1.577   4.474  16.455  2.0097 -1.2005 -0.3790
 6012SOL    HW229670   1.682   4.537  16.370  2.4628 -2.4471  0.7431
 6013SOL     OW29671   4.056   1.118   9.262  0.0058 -0.3113  0.3890
 6013SOL    HW129672   4.098   1.198   9.231 -1.2968 -0.1790 -1.0227
 6013SOL    HW229673   4.134   1.086   9.308  1.1221  0.6411 -0.8569
 6014SOL     OW29674   4.198   2.569   6.560  0.6603  0.2119  0.1715
 6014SOL    HW129675   4.254   2.493   6.541 -0.2890 -0.6976  0.9898
 6014SOL    HW229676   4.178   2.605   6.474  0.3979  0.1282  0.1991
 6015SOL     OW29677   0.628   4.313  16.403 -0.3527 -0.2030 -0.9283
 6015SOL    HW129678   0.561   4.340  16.339 -0.1166 -1.0770 -1.5525
 6015SOL    HW229679   0.671   4.392  16.435  1.6607 -2.4568  1.8766
 6016SOL     OW29680   2.988   3.882   0.144 -0.0771 -0.0147 -0.2938
 6016SOL    HW129681   2.999   3.903   0.052  3.7855 -1.4065 -0.1642
 6016SOL    HW229682   2.927   3.946   0.179  0.3855  1.2583 -1.8540
 6017SOL     OW29683   3.598   1.153   1.696 -0.3693 -0.1837  0.2239
 6017SOL    HW129684   3.648   1.090   1.748  1.5118  2.2120  1.3708
 6017SOL    HW229685   3.510   1.142   1.733 -1.0408  1.0163 -0.9892
 6018SOL     OW29686   2.213   0.822   1.219  0.2785 -0.8718  0.6673
 6018SOL    HW129687   2.132   0.854   1.178  0.3283 -0.9813  0.4852
 6018SOL    HW229688   2.178   0.758   1.280 -1.7247  2.4510  3.0110
 6019SOL     OW29689   0.660   3.169   1.179  0.8791 -0.1994  0.1847
 6019SOL    HW129690   0.679   3.175   1.085  1.5165 -2.0176  0.1845
 6019SOL    HW229691   0.632   3.259   1.191  4.0807  1.0696 -1.7151
 6020SOL     OW29692   0.723   4.192   1.916 -1.0098 -0.2138  0.3029
 6020SOL    HW129693   0.642   4.142   1.906 -2.0346  1.5154 -0.1217
 6020SOL    HW229694   0.787   4.135   1.873 -0.8536 -0.9102  1.4721
 6021SOL     OW29695   2.203   2.111  15.720 -0.3428 -0.0312 -0.4217
 6021SOL    HW129696   2.245   2.156  15.647 -0.9619  0.1959 -0.6369
 6021SOL    HW229697   2.119   2.157  15.720 -1.3558 -1.8806 -0.2279
 6022SOL     OW29698   2.607   2.369   4.286 -0.0133  0.4611 -0.1172
 6022SOL    HW129699   2.528   2.410   4.321 -0.6925 -0.1307 -0.9716
 6022SOL    HW229700   2.643   2.450   4.250 -0.5061 -0.1718 -2.0267
 6023SOL     OW29701   1.124   2.931   3.955  0.0725  0.2766  0.1409
 6023SOL    HW129702   1.059   2.860   3.945  1.3561 -0.6495 -1.6542
 6023SOL    HW229703   1.187   2.912   3.886  0.8617  0.0040  0.9473
 6024SOL     OW29704   4.674   1.734   9.725  0.1799 -0.2732  0.6842
 6024SOL    HW129705   4.630   1.664   9.771 -1.9779  1.2206  0.8860
 6024SOL    HW229706   4.682   1.688   9.641  0.4284 -0.7012  0.9478
 6025SOL     OW29707   3.105   1.608   7.163  0.3597 -0.1173  0.3797
 6025SOL    HW129708   3.074   1.520   7.139 -0.5297  0.0940  0.7873
 6025SOL    HW229709   3.168   1.586   7.232  1.1802 -3.1331 -1.3123
 6026SOL     OW29710   3.429   2.456   5.325  0.3475  0.7160 -0.0667
 6026SOL    HW129711   3.385   2.436   5.242  2.3250  4.0931 -1.8858
 6026SOL    HW229712   3.350   2.453   5.380  1.1116  1.2500  1.0427
 6027SOL     OW29713   4.244   1.434   6.514 -0.3776  0.0291 -0.4662
 6027SOL    HW129714   4.320   1.454   6.461 -0.3529  0.8518 -0.1266
 6027SOL    HW229715   4.271   1.491   6.586 -1.1676 -0.9845  0.6420
 6028SOL     OW29716   0.323   0.316  15.166  0.2289 -0.2247  0.0980
 6028SOL    HW129717   0.273   0.255  15.112  4.5400 -2.5966 -1.1494
 6028SOL    HW229718   0.374   0.355  15.095 -1.0221  2.0871  0.4896
 6029SOL     OW29719   3.788   1.942   8.907 -0.1719  0.4041  0.6344
 6029SOL    HW129720   3.798   1.870   8.969  0.4858 -1.2588 -1.4114
 6029SOL    HW229721   3.765   2.016   8.964  0.1553  0.2099  1.0135
 6030SOL     OW29722   0.050   2.795   6.512  0.0451 -0.0165  0.8852
 6030SOL    HW129723   4.699   2.772   6.507  0.0068  0.8295 -2.0931
 6030SOL    HW229724   0.079   2.760   6.428 -0.0373  1.6554  0.1614
 6031SOL     OW29725   0.015   0.523   8.134  0.2644 -0.0725 -0.5716
 6031SOL    HW129726   4.714   0.491   8.054 -1.8304  0.7409  0.2263
 6031SOL    HW229727   4.734   0.448   8.190 -0.7148  0.9565  0.3964
 6032SOL     OW29728   0.701   0.380   5.317 -0.4684  0.1305 -0.5806
 6032SOL    HW129729   0.640   0.441   5.275 -0.5791  0.0443 -0.5440
 6032SOL    HW229730   0.667   0.379   5.406 -1.2006 -0.1528 -0.8590
 6033SOL     OW29731   3.227   2.083   4.831  0.3528  0.0310 -0.1735
 6033SOL    HW129732   3.212   2.177   4.840 -2.6374 -0.4883  0.2258
 6033SOL    HW229733   3.247   2.070   4.739  1.5658  2.2671 -0.2207
 6034SOL     OW29734   0.291   3.158   1.937 -0.2223  0.2025  0.1895
 6034SOL    HW129735   0.298   3.212   1.858 -2.8112  1.8374  1.0541
 6034SOL    HW229736   0.322   3.072   1.911  0.5188  0.4181  0.3736
 6035SOL     OW29737   0.016   0.605  10.221  0.2424 -0.1155 -0.0879
 6035SOL    HW129738   4.704   0.660  10.278 -2.1602 -2.8405  0.2775
 6035SOL    HW229739   4.687   0.569  10.168 -0.6509  1.1865  0.2018
 6036SOL     OW29740   3.963   0.046   4.844 -0.4359 -0.4593  0.4042
 6036SOL    HW129741   3.961   0.098   4.924  2.3282  0.2097  0.0315
 6036SOL    HW229742   4.027   0.085   4.786 -1.1611 -2.3289 -1.6474
 6037SOL     OW29743   0.242   2.001  12.569 -0.6810  0.3665  0.9348
 6037SOL    HW129744   0.232   2.028  12.478 -1.8019 -0.1518  0.9087
 6037SOL    HW229745   0.168   1.942  12.578 -1.8948  1.9303  1.1321
 6038SOL     OW29746   0.811   1.605   1.598  0.1372  0.2318 -0.5231
 6038SOL    HW129747   0.812   1.515   1.633 -1.0286  1.2014  1.9918
 6038SOL    HW229748   0.720   1.620   1.572 -0.0014 -2.4952 -1.6657
 6039SOL     OW29749   1.415   3.548   4.401 -0.4216 -1.3006  0.0878
 6039SOL    HW129750   1.424   3.560   4.307  0.7218  2.8521  0.7479
 6039SOL    HW229751   1.352   3.618   4.420  0.4018 -0.3965 -0.5826
 6040SOL     OW29752   3.456   3.286   5.647  0.0222 -0.1443 -0.7033
 6040SOL    HW129753   3.538   3.259   5.605  2.4007 -0.0564  3.7914
 6040SOL    HW229754   3.485   3.266   5.737 -0.5551 -1.1704 -0.7462
 6041SOL     OW29755   4.167   0.930   5.958  0.0645  0.1928 -0.0505
 6041SOL    HW129756   4.162   0.948   6.052  1.0864 -4.0566  0.8435
 6041SOL    HW229757   4.192   1.014   5.920 -0.1139  0.5173  0.5616
 6042SOL     OW29758   2.139   3.188   6.112  0.0200  0.2790  0.0793
 6042SOL    HW129759   2.120   3.178   6.205 -2.2165 -0.5984 -0.4604
 6042SOL    HW229760   2.235   3.189   6.112  0.0364 -1.1974 -0.0136
 6043SOL     OW29761   1.562   2.465  14.124 -0.0141  0.1611  0.0400
 6043SOL    HW129762   1.551   2.415  14.043 -2.0943  1.7592 -0.6622
 6043SOL    HW229763   1.483   2.442  14.173 -1.2001 -2.4213 -3.0515
 6044SOL     OW29764   0.919   3.666   2.691  0.2669  0.2652  0.1599
 6044SOL    HW129765   0.895   3.592   2.635 -0.4264  0.9590 -0.4611
 6044SOL    HW229766   0.835   3.689   2.731  0.1957 -1.4284  1.0214
 6045SOL     OW29767   2.756   4.205   7.099  0.2193  0.0501 -0.0865
 6045SOL    HW129768   2.723   4.201   7.009  0.4512 -0.9669 -0.1313
 6045SOL    HW229769   2.852   4.205   7.090  0.3229 -0.1155  0.9579
 6046SOL     OW29770   4.269   1.444   7.522 -0.4784 -0.3566  0.3265
 6046SOL    HW129771   4.256   1.469   7.430 -1.0414 -1.1909  0.1763
 6046SOL    HW229772   4.331   1.371   7.512  0.1844  0.1641  0.6374
 6047SOL     OW29773   2.115   1.539  10.778 -0.2707 -0.2357  0.4515
 6047SOL    HW129774   2.171   1.600  10.826 -1.5475  1.4375 -0.1924
 6047SOL    HW229775   2.097   1.599  10.705  0.1108  0.5821  1.0301
 6048SOL     OW29776   3.756   4.575   2.933  0.1516 -0.1981  0.5592
 6048SOL    HW129777   3.805   4.493   2.932 -0.9279 -0.8407  1.3825
 6048SOL    HW229778   3.691   4.569   2.863  1.1809  0.6762 -0.4850
 6049SOL     OW29779   1.400   0.690   2.484  0.3206  0.6435  0.0186
 6049SOL    HW129780   1.351   0.634   2.423  0.1853 -0.0534  0.7730
 6049SOL    HW229781   1.476   0.714   2.430  0.8538  1.0955  0.9771
 6050SOL     OW29782   0.347   0.349   5.421 -0.1602  0.6789 -0.1243
 6050SOL    HW129783   0.265   0.337   5.469  0.4183 -0.3725  0.5918
 6050SOL    HW229784   0.385   0.421   5.471  0.2207  0.4052 -0.0206
 6051SOL     OW29785   0.254   2.783   7.159 -0.3243 -0.0299  0.1536
 6051SOL    HW129786   0.230   2.848   7.093  1.9668  1.3752  0.6775
 6051SOL    HW229787   0.191   2.715   7.134  0.4575 -0.9032  0.5434
 6052SOL     OW29788   1.921   2.381  14.998 -0.5356 -0.0556  0.1808
 6052SOL    HW129789   1.891   2.290  14.997 -0.7800  0.0227  0.3387
 6052SOL    HW229790   1.948   2.379  14.906 -1.0462 -1.8051  0.0652
 6053SOL     OW29791   2.567   4.571  11.257  0.1200 -0.9676 -0.1880
 6053SOL    HW129792   2.640   4.595  11.313 -0.6208 -1.1101  0.8318
 6053SOL    HW229793   2.572   4.641  11.192 -1.5730 -0.9160 -0.2740
 6054SOL     OW29794   3.050   3.513   2.609 -0.2070  0.1799 -0.2662
 6054SOL    HW129795   3.108   3.489   2.682 -1.0887 -0.3052  0.2737
 6054SOL    HW229796   3.033   3.424   2.578  1.9947 -0.0676 -0.7563
 6055SOL     OW29797   3.871   1.718  11.554 -0.0309  0.2928 -0.7558
 6055SOL    HW129798   3.808   1.646  11.558  0.6484 -0.1782  1.6055
 6055SOL    HW229799   3.870   1.762  11.639 -1.9137 -0.8145 -0.2035
 6056SOL     OW29800   1.748   2.070  17.426 -0.3639  0.5995  0.4913
 6056SOL    HW129801   1.792   2.055  17.510  0.2689  3.0072  0.5910
 6056SOL    HW229802   1.821   2.114  17.384  0.7648 -0.1191  1.7084
 6057SOL     OW29803   4.163   0.422   2.891  1.0771  0.3178  0.0157
 6057SOL    HW129804   4.089   0.366   2.915  2.2808 -0.4395  1.9837
 6057SOL    HW229805   4.222   0.404   2.964  2.3109  2.0616 -0.5693
 6058SOL     OW29806   4.366   1.130   4.093 -0.0419  0.1068 -0.0984
 6058SOL    HW129807   4.290   1.110   4.038 -1.3830 -0.2690  1.8690
 6058SOL    HW229808   4.327   1.174   4.169 -0.5015 -1.3601  0.5176
 6059SOL     OW29809   2.152   1.142   2.639 -0.2931 -0.3969  0.0476
 6059SOL    HW129810   2.064   1.179   2.633  0.4254  1.0232 -1.8104
 6059SOL    HW229811   2.167   1.143   2.734 -0.5274  1.0065  0.0745
 6060SOL     OW29812   1.241   4.514   3.834 -0.2807  0.1045  0.0286
 6060SOL    HW129813   1.230   4.604   3.865  1.7073 -0.0925  1.2901
 6060SOL    HW229814   1.204   4.524   3.746  0.9060 -0.1323 -0.4973
 6061SOL     OW29815   0.691   3.283   9.350 -0.2359  0.3663 -0.1333
 6061SOL    HW129816   0.753   3.356   9.343 -1.4363  1.0574 -3.6101
 6061SOL    HW229817   0.684   3.260   9.257  0.5757 -1.5416  0.2674
 6062SOL     OW29818   3.049   0.132  17.027 -0.0746  0.5530  0.1606
 6062SOL    HW129819   3.059   0.098  16.938  0.1503  1.3357 -0.1068
 6062SOL    HW229820   2.990   0.205  17.009 -1.5811 -0.9809 -1.0810
 6063SOL     OW29821   0.104   4.436   7.674  0.0594 -0.9402 -0.7233
 6063SOL    HW129822   0.091   4.520   7.631  1.4032 -0.0322  0.6440
 6063SOL    HW229823   0.018   4.400   7.652 -1.6868  3.2218 -0.8360
 6064SOL     OW29824   4.283   1.037  15.586 -0.5192 -0.4242 -0.0464
 6064SOL    HW129825   4.373   1.048  15.617 -0.8300 -0.1297  0.7443
 6064SOL    HW229826   4.289   1.068  15.496  2.9100  1.1267  0.6947
 6065SOL     OW29827   0.900   0.883  13.903 -0.3569 -0.5565  0.2559
 6065SOL    HW129828   0.950   0.950  13.856  2.4063 -1.1666  2.3448
 6065SOL    HW229829   0.925   0.807  13.851  0.5812 -0.6441  0.8319
 6066SOL     OW29830   2.686   4.473   5.024  0.2137 -0.8268  0.2369
 6066SOL    HW129831   2.632   4.535   4.974  1.0048  0.1899  0.6272
 6066SOL    HW229832   2.743   4.451   4.950  2.1464 -0.8330  1.7111
 6067SOL     OW29833   2.737   1.488   5.402  0.0922 -0.1384 -0.4386
 6067SOL    HW129834   2.791   1.566   5.415 -0.1387  0.2386 -1.7939
 6067SOL    HW229835   2.797   1.415   5.418 -1.2982 -1.5132 -1.5471
 6068SOL     OW29836   4.452   2.926   0.534 -0.3763  0.1283 -0.2601
 6068SOL    HW129837   4.498   2.975   0.466  0.6620  1.7816  1.6326
 6068SOL    HW229838   4.499   2.843   0.534  1.1928  1.0128  0.5705
 6069SOL     OW29839   4.387   3.873   7.335 -0.1115  0.5673 -0.7261
 6069SOL    HW129840   4.339   3.790   7.341  1.0074  0.0841  1.3043
 6069SOL    HW229841   4.380   3.891   7.241 -2.5881  3.0421 -0.0730
 6070SOL     OW29842   0.631   4.072   9.000 -0.0041  0.0585  0.6157
 6070SOL    HW129843   0.665   4.149   9.044  0.7032  0.5367 -0.7601
 6070SOL    HW229844   0.696   4.008   9.030  0.0364 -0.1190  0.1531
 6071SOL     OW29845   1.202   1.342  10.611 -0.3896 -0.0051 -0.2067
 6071SOL    HW129846   1.258   1.301  10.678 -1.4130 -2.4521 -0.8460
 6071SOL    HW229847   1.262   1.381  10.548  0.1682  0.0812  0.3812
 6072SOL     OW29848   2.256   3.012   4.109 -0.1847  0.4970 -0.5934
 6072SOL    HW129849   2.214   2.940   4.062 -3.1213  1.8153  0.0180
 6072SOL    HW229850   2.334   3.026   4.055  0.9892 -0.4934  0.8574
 6073SOL     OW29851   3.587   0.540  12.651  0.1852  0.8002 -0.1441
 6073SOL    HW129852   3.661   0.490  12.686 -1.1717  0.7859  2.7202
 6073SOL    HW229853   3.520   0.535  12.719  0.5608 -0.1713  0.1421
 6074SOL     OW29854   1.586   3.883   2.760 -0.3647 -0.4525 -0.4335
 6074SOL    HW129855   1.671   3.922   2.739 -0.2598 -0.1043  0.6688
 6074SOL    HW229856   1.609   3.791   2.770 -1.4711 -0.7663 -0.7799
 6075SOL     OW29857   1.279   3.539   3.633 -0.0622  0.4698 -0.3021
 6075SOL    HW129858   1.247   3.503   3.550 -0.4739  0.7088 -0.2446
 6075SOL    HW229859   1.372   3.542   3.611  0.6023 -0.5936  2.3762
 6076SOL     OW29860   1.080   0.163   5.030  0.2502  0.2932 -0.2576
 6076SOL    HW129861   1.082   0.200   5.117  0.3945  0.7161 -0.4436
 6076SOL    HW229862   1.170   0.130   5.022  0.0174 -0.4455  0.1014
 6077SOL     OW29863   2.948   0.638   7.303 -0.0404  0.0449 -0.1450
 6077SOL    HW129864   2.925   0.593   7.222 -1.8150 -0.7175  0.7818
 6077SOL    HW229865   2.939   0.572   7.371 -1.4939  0.3395 -0.0568
 6078SOL     OW29866   3.462   3.610   8.336 -0.3806 -0.3509 -0.0164
 6078SOL    HW129867   3.376   3.586   8.299  1.0623 -0.9131 -3.0643
 6078SOL    HW229868   3.520   3.604   8.260  0.4133 -0.5790  0.6085
 6079SOL     OW29869   2.271   3.578   0.644  0.6185 -0.2844  0.1479
 6079SOL    HW129870   2.355   3.608   0.610  0.7010  0.4501  1.0061
 6079SOL    HW229871   2.299   3.488   0.661  3.4933  0.5756 -0.0476
 6080SOL     OW29872   2.387   0.418   8.307 -0.0342 -0.1394 -0.1699
 6080SOL    HW129873   2.300   0.386   8.284 -0.8117  1.2861  0.7972
 6080SOL    HW229874   2.360   0.509   8.318 -0.7929 -0.2298 -1.2709
 6081SOL     OW29875   1.137   1.375   6.359  0.0407 -0.0698  0.4760
 6081SOL    HW129876   1.215   1.391   6.412  0.4415  3.4799 -1.1718
 6081SOL    HW229877   1.140   1.280   6.364 -1.6298 -0.2277 -1.3268
 6082SOL     OW29878   0.755   0.143  12.878 -0.8578  0.7223 -0.1010
 6082SOL    HW129879   0.744   0.072  12.816  1.1399  1.1436 -0.9454
 6082SOL    HW229880   0.675   0.196  12.881 -1.9425 -0.8734 -0.7315
 6083SOL     OW29881   0.748   2.625  12.172 -0.4390  0.0212 -0.0355
 6083SOL    HW129882   0.715   2.642  12.084  0.9466 -3.0856 -1.1565
 6083SOL    HW229883   0.724   2.695  12.233  1.6196  2.6638 -2.2424
 6084SOL     OW29884   1.584   3.770   7.141 -0.1767  0.1654 -0.0705
 6084SOL    HW129885   1.497   3.800   7.115  0.1784  0.4929 -0.8953
 6084SOL    HW229886   1.618   3.847   7.188 -3.0085  1.1087  0.4354
 6085SOL     OW29887   3.681   1.962   2.308  0.2753 -0.1930  0.1694
 6085SOL    HW129888   3.716   2.050   2.320 -0.1594 -0.1860  1.3592
 6085SOL    HW229889   3.595   1.986   2.272 -0.2262 -1.3881  0.5771
 6086SOL     OW29890   2.910   2.473  11.716  0.4610  0.5152  0.1630
 6086SOL    HW129891   2.904   2.555  11.667 -0.1503  0.0033 -0.6159
 6086SOL    HW229892   2.975   2.490  11.784 -0.3263  1.8988  0.5745
 6087SOL     OW29893   3.837   0.600  12.509  0.8300  0.2720 -0.3493
 6087SOL    HW129894   3.744   0.618  12.497  0.9829  0.2193 -1.7087
 6087SOL    HW229895   3.853   0.624  12.600  1.0675  0.2477 -0.3849
 6088SOL     OW29896   1.191   3.559   2.627 -0.5790 -0.0174  0.2694
 6088SOL    HW129897   1.125   3.629   2.625  0.0783  0.5685 -0.8261
 6088SOL    HW229898   1.246   3.591   2.699  0.9512 -0.1384 -0.8414
 6089SOL     OW29899   4.174   2.167   7.178 -0.3433 -0.3269 -0.0595
 6089SOL    HW129900   4.215   2.237   7.127 -0.9729  2.3548  3.1452
 6089SOL    HW229901   4.089   2.165   7.132  0.6171  1.4688 -1.9155
 6090SOL     OW29902   0.090   0.002   4.902  0.1485 -0.1276  0.5406
 6090SOL    HW129903   0.122   4.657   4.926  0.3038 -0.0414  0.6405
 6090SOL    HW229904   0.028   0.019   4.973 -0.5814 -0.3251 -0.0525
 6091SOL     OW29905   0.360   4.651   8.293 -0.0796 -0.0669  0.0820
 6091SOL    HW129906   0.369   4.582   8.358  0.9404 -1.7015 -1.7845
 6091SOL    HW229907   0.454   4.665   8.309 -0.4358  1.3013  0.9729
 6092SOL     OW29908   4.468   0.010   2.270 -0.0485  0.1732 -0.0128
 6092SOL    HW129909   4.531   4.680   2.278  0.3764  0.6494  1.0026
 6092SOL    HW229910   4.509   0.065   2.337 -2.5453  1.5582  0.3340
 6093SOL     OW29911   0.797   4.509  17.532  0.2095 -0.3420 -0.2000
 6093SOL    HW129912   0.863   4.549  17.588 -0.5224  0.8947 -0.1994
 6093SOL    HW229913   0.719   4.514  17.587  0.2310 -2.0287 -0.0157
 6094SOL     OW29914   1.979   1.529   1.185  0.2529  0.5416 -0.0901
 6094SOL    HW129915   1.909   1.522   1.250  1.0740  1.5566  0.8809
 6094SOL    HW229916   1.934   1.498   1.106  1.2143  0.8611 -0.7499
 6095SOL     OW29917   0.743   4.522  10.861  0.1838  0.3735 -1.0616
 6095SOL    HW129918   0.775   4.432  10.856 -2.4457 -0.5229 -1.9086
 6095SOL    HW229919   0.697   4.533  10.778 -0.8653 -1.5890 -0.7598
 6096SOL     OW29920   2.500   2.104   6.483 -0.5538 -0.2712  0.0247
 6096SOL    HW129921   2.509   2.009   6.477  1.3927 -0.0449 -0.5572
 6096SOL    HW229922   2.572   2.112   6.545  1.9194 -1.5166 -2.6642
 6097SOL     OW29923   0.506   2.585   8.455 -0.3495 -0.0047  0.2291
 6097SOL    HW129924   0.492   2.490   8.451 -1.7518  0.1439  1.7546
 6097SOL    HW229925   0.499   2.602   8.361 -2.5575 -0.4976  0.3061
 6098SOL     OW29926   0.559   4.693  16.005 -0.2203 -0.2655  0.3863
 6098SOL    HW129927   0.581   0.038  15.970 -0.4049 -0.1526  0.5508
 6098SOL    HW229928   0.530   4.649  15.926 -2.7737 -0.0198  1.1801
 6099SOL     OW29929   4.329   4.566   7.594 -0.0080  0.5041 -0.5486
 6099SOL    HW129930   4.283   4.555   7.511  0.1272 -0.0292 -0.5533
 6099SOL    HW229931   4.255   4.569   7.654 -0.7682 -2.1473 -1.3552
 6100SOL     OW29932   1.911   1.340   2.268  0.2369 -0.5416 -0.2965
 6100SOL    HW129933   1.884   1.360   2.357  2.9159  1.5923  0.0367
 6100SOL    HW229934   1.876   1.416   2.223  2.2772 -0.5583 -1.9163
 6101SOL     OW29935   3.239   0.911   7.054  0.3242  0.0276  0.3185
 6101SOL    HW129936   3.226   0.818   7.070  1.5294 -0.0544  0.8346
 6101SOL    HW229937   3.187   0.939   7.130  1.6584  1.0691  0.8535
 6102SOL     OW29938   0.550   0.030   9.954 -0.3252 -0.1819  0.2375
 6102SOL    HW129939   0.612   0.101   9.970 -1.7669  1.5122 -1.7005
 6102SOL    HW229940   0.550   0.022   9.858 -0.8279 -1.0736  0.3129
 6103SOL     OW29941   4.701   3.502   1.363  0.1159  0.0774  0.4599
 6103SOL    HW129942   4.669   3.511   1.273  0.0762 -1.1623  0.3513
 6103SOL    HW229943   4.616   3.486   1.403 -1.2057  0.0284 -2.3785
 6104SOL     OW29944   3.407   0.641   6.880  0.2713  0.4038  0.4796
 6104SOL    HW129945   3.409   0.547   6.861  1.2174  0.4836  0.2041
 6104SOL    HW229946   3.493   0.662   6.917  0.5736  1.2941 -0.7241
 6105SOL     OW29947   3.180   3.811   7.438 -0.1879  0.1866  0.3839
 6105SOL    HW129948   3.272   3.836   7.436 -0.1401 -0.1315 -1.5672
 6105SOL    HW229949   3.140   3.894   7.462  0.0259  0.1281  0.9411
 6106SOL     OW29950   3.065   3.613   7.866 -0.4645 -0.6756  0.3626
 6106SOL    HW129951   3.028   3.700   7.851  0.9308 -0.3588 -1.2559
 6106SOL    HW229952   3.124   3.606   7.790 -2.1515 -0.1677 -0.9800
 6107SOL     OW29953   1.781   2.841   1.938  0.1136 -0.5268  0.4862
 6107SOL    HW129954   1.814   2.844   2.027  1.1693 -0.4664  0.0910
 6107SOL    HW229955   1.849   2.793   1.890  0.0632  0.7310 -0.8357
 6108SOL     OW29956   0.834   2.550   7.471  0.1689  0.4868  0.0911
 6108SOL    HW129957   0.821   2.595   7.388  2.5304 -0.5183 -0.8200
 6108SOL    HW229958   0.770   2.598   7.524  0.6718 -1.0022  2.0851
 6109SOL     OW29959   0.673   2.206   6.767  0.2419  0.2895 -0.1445
 6109SOL    HW129960   0.672   2.264   6.843 -1.0219  2.2335 -1.6166
 6109SOL    HW229961   0.731   2.142   6.807  0.6360 -0.1458 -1.4076
 6110SOL     OW29962   0.660   2.357   6.994  0.1677 -0.3741  0.2880
 6110SOL    HW129963   0.693   2.313   7.073  2.2096  1.6526  0.5690
 6110SOL    HW229964   0.589   2.405   7.037  0.3791  0.0979  0.1076
 6111SOL     OW29965   3.635   2.665  16.053 -0.3206  0.1336 -0.3574
 6111SOL    HW129966   3.697   2.635  16.120 -0.7442 -0.4744 -0.2343
 6111SOL    HW229967   3.562   2.696  16.105  1.1336  3.1300 -0.1274
 6112SOL     OW29968   0.314   2.430   9.006 -0.2034 -0.1727 -0.2284
 6112SOL    HW129969   0.286   2.339   9.008  1.4895 -0.7136 -0.5750
 6112SOL    HW229970   0.363   2.439   8.924  1.5385 -2.8871  0.5360
 6113SOL     OW29971   2.015   0.493   8.552  0.8418 -0.2570  0.0200
 6113SOL    HW129972   2.029   0.462   8.462 -0.1303  1.9685 -0.9155
 6113SOL    HW229973   1.956   0.425   8.585 -2.0903  2.6709  0.8540
 6114SOL     OW29974   0.820   0.236   3.545  0.5303  0.9522 -0.5432
 6114SOL    HW129975   0.866   0.320   3.545  0.6206  0.8927 -2.9829
 6114SOL    HW229976   0.806   0.238   3.640  0.5620 -0.5491 -0.5143
 6115SOL     OW29977   3.451   1.850  15.177 -0.1671  0.4679 -0.1457
 6115SOL    HW129978   3.431   1.866  15.269  0.9115  1.5857 -0.1129
 6115SOL    HW229979   3.466   1.938  15.143  0.4712  0.8683  1.1750
 6116SOL     OW29980   3.005   3.771  15.952 -0.2392  0.5258 -0.7578
 6116SOL    HW129981   3.011   3.841  16.017  0.2856 -0.1839 -0.0493
 6116SOL    HW229982   3.003   3.809  15.864 -1.4023  2.4001  0.0698
 6117SOL     OW29983   1.835   3.824   9.059 -0.1090 -0.3630  0.0996
 6117SOL    HW129984   1.775   3.797   9.129  0.2904  1.4216  1.1532
 6117SOL    HW229985   1.911   3.768   9.073  0.1237  0.9042  4.0310
 6118SOL     OW29986   1.671   2.958   7.203 -0.2915 -0.1944 -0.2677
 6118SOL    HW129987   1.730   2.897   7.247 -0.8377 -2.3798 -2.5113
 6118SOL    HW229988   1.611   2.974   7.276 -0.8413 -1.0292 -0.5316
 6119SOL     OW29989   2.111   3.261   8.280  0.1974 -0.1863 -0.1968
 6119SOL    HW129990   2.075   3.273   8.368  1.4427  0.4343  0.2388
 6119SOL    HW229991   2.142   3.171   8.279 -2.2913 -1.0344 -1.7152
 6120SOL     OW29992   0.973   0.680   1.439  0.4107 -0.3100 -0.2463
 6120SOL    HW129993   0.965   0.589   1.468  0.1587 -0.6015 -1.2145
 6120SOL    HW229994   0.906   0.720   1.494  0.1790 -2.0718  0.7242
 6121SOL     OW29995   0.141   3.711   5.308 -0.4697 -0.0165  0.0267
 6121SOL    HW129996   0.092   3.755   5.239 -0.6118 -0.3850 -0.1105
 6121SOL    HW229997   0.166   3.790   5.356 -0.5944 -0.7416  1.2852
 6122SOL     OW29998   2.947   2.605   7.873 -0.0383 -0.0657 -0.5735
 6122SOL    HW129999   3.005   2.529   7.873 -0.6246 -0.5130  0.5969
 6122SOL    HW230000   3.010   2.677   7.862  1.2641 -1.0540  0.5433
 6123SOL     OW30001   3.909   0.939   2.279  0.3217 -0.4602  0.4100
 6123SOL    HW130002   3.965   0.968   2.352 -1.2811 -1.7011  2.1372
 6123SOL    HW230003   3.983   0.929   2.219  1.1280  0.2899  1.2893
 6124SOL     OW30004   2.948   1.903  13.016 -0.2471 -0.2989 -0.7091
 6124SOL    HW130005   2.941   1.988  12.971  1.8096  0.1567 -0.1749
 6124SOL    HW230006   2.863   1.866  12.991 -0.0384 -0.0806 -1.7373
 6125SOL     OW30007   0.726   0.368   8.089 -0.0877  0.4114  0.3195
 6125SOL    HW130008   0.808   0.325   8.068 -0.2312  0.1468  0.3106
 6125SOL    HW230009   0.660   0.323   8.036  1.6913 -3.0204  1.0238
 6126SOL     OW30010   1.634   2.303   7.585  0.0824 -0.5273 -0.2239
 6126SOL    HW130011   1.647   2.221   7.631  0.3832  1.0778  2.5492
 6126SOL    HW230012   1.614   2.271   7.497  2.6574  1.4180 -1.5278
 6127SOL     OW30013   3.420   0.786  14.942 -0.4041 -0.2274  0.0550
 6127SOL    HW130014   3.491   0.737  14.901  0.1936  2.8878 -2.6901
 6127SOL    HW230015   3.440   0.876  14.914 -1.0271 -0.8266 -2.2975
 6128SOL     OW30016   0.133   3.371   2.273  0.4291 -0.4113 -0.3421
 6128SOL    HW130017   0.161   3.340   2.359  0.1988  1.4127  0.3741
 6128SOL    HW230018   0.094   3.455   2.295  3.2686  0.8243 -0.0422
 6129SOL     OW30019   2.060   2.628  15.895  0.0781  0.5218  0.1619
 6129SOL    HW130020   2.136   2.656  15.946  1.0857  0.0376 -1.0595
 6129SOL    HW230021   2.032   2.548  15.937 -2.6109  0.8035 -1.0924
 6130SOL     OW30022   1.374   2.995   9.784 -0.3300  0.1490 -0.6065
 6130SOL    HW130023   1.410   3.037   9.706 -0.6828  1.7623  0.0879
 6130SOL    HW230024   1.378   2.900   9.774  0.7275  0.0025  1.3257
 6131SOL     OW30025   0.271   0.490  12.802 -0.4475  0.3875 -0.7918
 6131SOL    HW130026   0.226   0.426  12.747  0.5579 -2.2087  1.4377
 6131SOL    HW230027   0.262   0.452  12.889 -1.8191  1.3388 -0.5174
 6132SOL     OW30028   3.618   3.987   8.394 -0.2713 -0.3144  0.3743
 6132SOL    HW130029   3.607   4.077   8.424 -1.4416 -0.0880 -0.7724
 6132SOL    HW230030   3.584   3.943   8.472  0.4290 -1.2549  0.1541
 6133SOL     OW30031   1.118   1.569  12.992 -0.2326  0.1921  0.2811
 6133SOL    HW130032   1.139   1.607  13.077  1.9668 -1.5547  0.5091
 6133SOL    HW230033   1.043   1.514  13.017  0.8103 -2.2086 -1.8899
 6134SOL     OW30034   0.644   2.617   8.691 -0.1715 -0.3894 -0.4228
 6134SOL    HW130035   0.589   2.611   8.614 -0.3968 -1.5123 -0.1680
 6134SOL    HW230036   0.652   2.524   8.710  1.4614 -0.2123 -0.1514
 6135SOL     OW30037   4.372   3.093   6.865 -0.4513  0.2060  0.3470
 6135SOL    HW130038   4.446   3.034   6.851 -0.5920 -0.2662  1.5681
 6135SOL    HW230039   4.417   3.156   6.921  1.7665 -1.2013  0.1729
 6136SOL     OW30040   1.804   4.686   1.909 -0.0802  0.3096 -0.1462
 6136SOL    HW130041   1.720   4.708   1.950  0.2588  2.7520 -0.7470
 6136SOL    HW230042   1.804   0.001   1.832  2.0916  0.7585  0.1572
 6137SOL     OW30043   2.474   0.910   4.763  0.1834  0.3912  0.0503
 6137SOL    HW130044   2.548   0.852   4.748 -0.0730  0.8742 -3.1187
 6137SOL    HW230045   2.509   0.999   4.756 -0.6797  0.9773  3.3487
 6138SOL     OW30046   4.220   2.601   8.065  0.2902 -0.3324 -0.0066
 6138SOL    HW130047   4.220   2.511   8.032 -0.7903 -0.5725  0.6597
 6138SOL    HW230048   4.244   2.657   7.991  2.2487  1.1475  1.7191
 6139SOL     OW30049   0.823   4.353   6.773 -0.4849  0.2341 -0.3893
 6139SOL    HW130050   0.736   4.393   6.779  0.1361  1.6529 -0.7627
 6139SOL    HW230051   0.855   4.359   6.863  0.2222  1.7074 -0.7327
 6140SOL     OW30052   1.550   2.364   4.232  0.4146 -0.4028  0.0708
 6140SOL    HW130053   1.638   2.403   4.237  0.5012 -0.4000 -1.4808
 6140SOL    HW230054   1.565   2.276   4.197  1.1225  0.3663 -1.5408
 6141SOL     OW30055   3.043   1.863   9.004 -0.2612 -0.2168 -0.0486
 6141SOL    HW130056   3.013   1.916   9.078 -0.3504  1.0484 -0.9913
 6141SOL    HW230057   3.134   1.888   8.994 -0.5166  0.5635 -0.3724
 6142SOL     OW30058   2.163   1.209   4.759  0.2615 -0.0308 -0.6874
 6142SOL    HW130059   2.163   1.116   4.781 -1.7377 -0.3491 -2.0224
 6142SOL    HW230060   2.244   1.214   4.708  0.1894  0.4674 -0.7518
 6143SOL     OW30061   0.854   1.527   6.348  0.1876 -0.1427 -0.0331
 6143SOL    HW130062   0.839   1.465   6.419  0.2414  0.5832  0.6147
 6143SOL    HW230063   0.949   1.519   6.345  0.1855  0.1765 -0.9959
 6144SOL     OW30064   4.142   0.161   6.229  0.0120  0.1813 -0.1217
 6144SOL    HW130065   4.145   0.180   6.136  0.7301  0.1959 -0.0978
 6144SOL    HW230066   4.206   0.217   6.274  1.0248 -1.0420 -0.0208
 6145SOL     OW30067   0.650   4.277   8.726 -0.2335  0.2117  0.2303
 6145SOL    HW130068   0.669   4.193   8.686 -0.9479 -0.4658  1.3044
 6145SOL    HW230069   0.739   4.292   8.759  0.0958  2.9049 -1.8707
 6146SOL     OW30070   0.294   0.154   6.870 -0.3646 -0.2127  0.1219
 6146SOL    HW130071   0.333   0.159   6.956 -2.6676  1.2375  1.0860
 6146SOL    HW230072   0.262   0.064   6.872 -0.9244 -0.0796 -2.2568
 6147SOL     OW30073   1.451   1.620   6.962 -0.3532 -0.2211  0.1318
 6147SOL    HW130074   1.501   1.698   6.986 -2.5866  1.0940  0.4570
 6147SOL    HW230075   1.411   1.656   6.883 -1.4578  0.8546  1.1966
 6148SOL     OW30076   3.227   4.591   2.870  0.0120 -0.2703  0.4136
 6148SOL    HW130077   3.270   4.673   2.894  2.5318 -1.4366 -0.1097
 6148SOL    HW230078   3.139   4.629   2.874 -0.2254 -0.6918 -0.6978
 6149SOL     OW30079   0.002   4.485  15.743 -0.6208 -0.1699  0.7345
 6149SOL    HW130080   0.082   4.529  15.774  1.0197 -1.4926 -1.6502
 6149SOL    HW230081   4.708   4.561  15.698 -0.2043  0.9801  2.3022
 6150SOL     OW30082   0.102   3.015   2.458  0.7162 -0.8149  0.0480
 6150SOL    HW130083   0.079   2.984   2.546 -1.6793 -0.0064 -0.2897
 6150SOL    HW230084   0.077   3.107   2.466 -0.1456 -1.2977  2.8527
 6151SOL     OW30085   4.444   1.454  15.295 -0.1894 -0.5727  0.5299
 6151SOL    HW130086   4.524   1.438  15.245 -0.3186  3.7423 -1.0732
 6151SOL    HW230087   4.386   1.421  15.226 -1.7958 -1.9298  2.5169
 6152SOL     OW30088   0.532   0.416   2.604  0.3086  0.3875 -0.3334
 6152SOL    HW130089   0.611   0.395   2.554 -1.1174  1.3293 -2.9677
 6152SOL    HW230090   0.464   0.407   2.538 -1.2211  0.2488  1.2590
 6153SOL     OW30091   3.007   1.065   2.205  0.2651  0.2926 -0.1536
 6153SOL    HW130092   3.088   1.034   2.165  1.7873  2.3518  1.3378
 6153SOL    HW230093   3.004   1.152   2.164  1.5032  0.5319  0.2697
 6154SOL     OW30094   2.546   1.256   6.224 -0.2381  0.1680 -0.4728
 6154SOL    HW130095   2.579   1.215   6.144  2.2179  1.1228  0.0731
 6154SOL    HW230096   2.559   1.348   6.199  1.2704  0.0044 -0.2615
 6155SOL     OW30097   0.647   1.412   7.281  0.0431 -0.0829 -0.3536
 6155SOL    HW130098   0.704   1.374   7.214 -1.2750  0.1718 -1.6113
 6155SOL    HW230099   0.672   1.504   7.272 -1.5267  0.2554 -1.3327
 6156SOL     OW30100   4.246   3.205   1.309 -0.1364 -0.7788  0.2232
 6156SOL    HW130101   4.162   3.229   1.347  0.0783 -1.5615  1.1830
 6156SOL    HW230102   4.311   3.260   1.353 -1.0704 -0.1734  0.8254
 6157SOL     OW30103   2.370   2.532   2.519  0.1715 -0.1356  0.0404
 6157SOL    HW130104   2.319   2.465   2.565  0.5561 -1.2506 -1.1699
 6157SOL    HW230105   2.442   2.478   2.489  0.0357 -0.3005  0.0079
 6158SOL     OW30106   0.934   0.290   4.603 -0.5774  0.2313 -0.0565
 6158SOL    HW130107   0.921   0.208   4.651 -1.3854  0.2588 -0.2343
 6158SOL    HW230108   1.016   0.324   4.640 -0.0357 -0.8995 -0.1973
 6159SOL     OW30109   2.175   1.232   7.325 -0.2605 -0.3244 -0.3873
 6159SOL    HW130110   2.180   1.324   7.352 -0.7258 -0.6421  0.8157
 6159SOL    HW230111   2.144   1.235   7.235 -2.8504  2.5500  0.6221
 6160SOL     OW30112   1.189   4.026   4.111 -0.0172  0.0603 -0.6137
 6160SOL    HW130113   1.211   4.065   4.027  0.7243  0.3056 -0.3149
 6160SOL    HW230114   1.208   4.100   4.168 -2.2764  2.2844 -2.7533
 6161SOL     OW30115   3.224   0.561   0.937  0.3366 -0.1809  0.3766
 6161SOL    HW130116   3.229   0.465   0.932  0.7107 -0.1403 -0.0322
 6161SOL    HW230117   3.312   0.588   0.962  0.3248 -1.2556  1.6321
 6162SOL     OW30118   3.835   3.751   7.822  0.0245  0.3803  0.4234
 6162SOL    HW130119   3.865   3.841   7.836  0.0418  0.4948 -0.3464
 6162SOL    HW230120   3.919   3.707   7.807 -0.1224  0.0399  0.6095
 6163SOL     OW30121   0.721   3.275  10.293  0.2238  0.2904 -0.2906
 6163SOL    HW130122   0.758   3.214  10.357  1.5833  0.6644 -0.7248
 6163SOL    HW230123   0.693   3.340  10.358 -0.2088  0.3249 -0.5134
 6164SOL     OW30124   3.990   4.500   4.955 -0.4933  0.1846 -0.1124
 6164SOL    HW130125   4.064   4.557   4.975 -1.0684  0.7134  0.5548
 6164SOL    HW230126   3.968   4.520   4.864  1.5097  1.0004 -0.4127
 6165SOL     OW30127   3.042   3.154   8.949  0.2994 -0.7276 -0.0193
 6165SOL    HW130128   2.994   3.233   8.924 -0.6338 -0.7128  1.9018
 6165SOL    HW230129   3.046   3.169   9.043 -2.3076  0.3749 -0.0950
 6166SOL     OW30130   2.780   0.982   4.104 -0.2837  0.3793  0.3559
 6166SOL    HW130131   2.702   0.941   4.142 -1.8485  0.9257 -2.2259
 6166SOL    HW230132   2.808   0.927   4.031 -1.2982  1.3246 -0.7509
 6167SOL     OW30133   4.013   2.592  14.642  0.3578  0.3669  1.0497
 6167SOL    HW130134   3.969   2.586  14.557 -1.4879  0.7952  1.9536
 6167SOL    HW230135   4.005   2.498  14.659  1.6529  0.0565 -0.1621
 6168SOL     OW30136   4.625   2.396  11.713 -0.0714 -0.0442 -0.1927
 6168SOL    HW130137   4.627   2.301  11.703  0.4023  0.1341 -1.8104
 6168SOL    HW230138   4.692   2.424  11.651 -0.7455 -0.7395 -1.2279
 6169SOL     OW30139   2.879   3.122   8.450 -0.7723 -0.0307 -0.6463
 6169SOL    HW130140   2.801   3.154   8.404 -1.4435  1.1844  1.3576
 6169SOL    HW230141   2.871   3.163   8.535 -0.3094  1.4343 -1.3181
 6170SOL     OW30142   2.166   3.579   0.366  0.1054 -0.5040  0.1114
 6170SOL    HW130143   2.173   3.590   0.461  3.9170  0.1633 -0.2523
 6170SOL    HW230144   2.076   3.545   0.372 -0.3816  0.3561 -2.6515
 6171SOL     OW30145   1.311   1.653   9.758  0.0347 -0.1181  0.0363
 6171SOL    HW130146   1.369   1.616   9.824 -0.1400  0.1563  0.3421
 6171SOL    HW230147   1.240   1.592   9.776 -0.1943  0.1653  0.1104
 6172SOL     OW30148   4.631   4.075   5.092  0.9055  0.2433  0.0957
 6172SOL    HW130149   4.682   4.098   5.015 -0.2121 -0.4521 -0.8530
 6172SOL    HW230150   4.669   4.145   5.145  0.4289  0.6703 -0.1237
 6173SOL     OW30151   3.751   4.317  10.240 -0.5420 -0.2746 -0.5043
 6173SOL    HW130152   3.706   4.288  10.320  1.0731  1.6227  1.0704
 6173SOL    HW230153   3.844   4.324  10.263 -0.8238 -0.3655  0.7020
 6174SOL     OW30154   1.949   1.580  16.253  0.0084 -0.3675 -0.0900
 6174SOL    HW130155   2.043   1.570  16.236  0.1588 -1.3053  1.2895
 6174SOL    HW230156   1.909   1.528  16.184 -0.8481  1.0883 -0.6992
 6175SOL     OW30157   0.796   1.715  10.587  0.5811  0.3965 -0.2519
 6175SOL    HW130158   0.743   1.639  10.563 -0.9212 -0.2254  5.0257
 6175SOL    HW230159   0.759   1.797  10.552 -2.0866 -0.2231  1.0566
 6176SOL     OW30160   2.228   0.105   8.762 -0.1970  0.3111 -0.4870
 6176SOL    HW130161   2.175   0.135   8.689 -0.7120 -0.3629 -0.3910
 6176SOL    HW230162   2.252   0.014   8.747 -1.0674 -0.2251  1.3161
 6177SOL     OW30163   0.508   4.405   6.615 -0.4446 -0.0269 -0.8064
 6177SOL    HW130164   0.518   4.323   6.567  2.2585  0.8184 -1.6497
 6177SOL    HW230165   0.419   4.422   6.586 -0.2712  1.4266 -0.4965
 6178SOL     OW30166   4.735   2.440   2.975 -0.2858 -0.9246 -0.3306
 6178SOL    HW130167   0.047   2.452   2.896 -0.6823 -0.4331 -0.5235
 6178SOL    HW230168   0.000   2.345   2.986  0.4928 -0.7876  0.3736
 6179SOL     OW30169   4.674   4.057  13.768  0.1965 -0.0230 -0.0058
 6179SOL    HW130170   4.736   4.129  13.753 -0.0435  0.4999  1.4719
 6179SOL    HW230171   4.715   3.980  13.730  0.4392 -0.0568  0.3237
 6180SOL     OW30172   2.297   4.406   5.007  0.4067  0.0458  0.1417
 6180SOL    HW130173   2.259   4.439   5.089  2.9137  0.7387  1.0337
 6180SOL    HW230174   2.248   4.325   4.993  0.4224  0.2446 -1.0241
 6181SOL     OW30175   4.341   0.451  14.300 -0.8479  0.7891 -0.6126
 6181SOL    HW130176   4.248   0.447  14.322 -0.3019 -0.6978  1.4824
 6181SOL    HW230177   4.381   0.472  14.385 -0.0552 -1.3560 -0.4507
 6182SOL     OW30178   3.069   4.626   1.855 -0.0996  0.4203 -0.4647
 6182SOL    HW130179   3.030   4.559   1.911  1.5797  0.0464  0.2592
 6182SOL    HW230180   3.007   4.612   1.783 -0.4751  0.2937 -0.1138
 6183SOL     OW30181   0.982   1.804   4.233  0.2175 -0.2652 -0.1975
 6183SOL    HW130182   0.992   1.826   4.140 -1.0387  1.5730  0.1153
 6183SOL    HW230183   0.887   1.813   4.243  0.1479 -1.1535 -0.0341
 6184SOL     OW30184   4.361   1.594   6.711  0.0340  0.0483  0.3249
 6184SOL    HW130185   4.331   1.682   6.733  0.9422  0.0119  1.7095
 6184SOL    HW230186   4.453   1.599   6.736  0.3694 -0.7537 -0.7754
 6185SOL     OW30187   3.123   2.552  17.452 -0.0187  0.1435 -0.2806
 6185SOL    HW130188   3.130   2.491  17.525 -2.2441  1.2486  0.8313
 6185SOL    HW230189   3.078   2.502  17.384 -0.6046 -0.2783  0.4205
 6186SOL     OW30190   0.346   0.067  14.246  0.3622  0.1999 -0.1140
 6186SOL    HW130191   0.309   0.152  14.220 -2.9397 -0.0248  4.0854
 6186SOL    HW230192   0.316   0.026  14.165 -2.2040  0.7373  0.5621
 6187SOL     OW30193   0.423   1.209   1.269 -0.1989 -0.7371 -0.4631
 6187SOL    HW130194   0.434   1.114   1.276  1.5878 -0.4904 -0.0704
 6187SOL    HW230195   0.504   1.259   1.279 -1.0717  0.7373 -0.8155
 6188SOL     OW30196   2.079   0.683   2.064 -0.0466  0.0105  0.1482
 6188SOL    HW130197   2.010   0.724   2.012 -0.8183 -0.2463  0.9719
 6188SOL    HW230198   2.148   0.749   2.066 -2.0760  2.1640 -0.6976
 6189SOL     OW30199   4.049   3.910  11.050 -0.4324  0.7311 -0.6027
 6189SOL    HW130200   4.089   3.988  11.090 -0.3609  0.2088  0.3210
 6189SOL    HW230201   4.078   3.838  11.106  0.4540  1.7649  0.2746
 6190SOL     OW30202   3.665   0.204   8.217  0.6571  0.0689 -0.2774
 6190SOL    HW130203   3.728   0.254   8.269  0.7146  0.0542 -0.3332
 6190SOL    HW230204   3.720   0.126   8.209 -0.3525 -0.8793  1.8293
 6191SOL     OW30205   0.605   1.577   9.821 -0.5829  0.2671  0.5706
 6191SOL    HW130206   0.514   1.605   9.815 -0.7625 -0.5874 -0.6729
 6191SOL    HW230207   0.595   1.483   9.835 -1.7872  0.3094 -0.0520
 6192SOL     OW30208   3.481   1.737   2.326 -0.5284 -0.2781 -0.3234
 6192SOL    HW130209   3.507   1.657   2.280  3.0685 -0.2094  1.5792
 6192SOL    HW230210   3.564   1.765   2.365 -0.6241 -1.2400  0.5673
 6193SOL     OW30211   2.883   0.845   3.556  0.3589  0.3612  0.1266
 6193SOL    HW130212   2.808   0.791   3.532  1.2002 -0.7301 -0.0382
 6193SOL    HW230213   2.871   0.872   3.647  1.9372  1.1688  0.1022
 6194SOL     OW30214   1.443   2.929   2.109 -0.5383 -0.2487  0.0771
 6194SOL    HW130215   1.349   2.934   2.120 -0.2738 -0.1298  2.2402
 6194SOL    HW230216   1.468   2.940   2.201 -0.9902  2.7230 -0.1543
 6195SOL     OW30217   3.411   1.375   1.688  0.4798 -0.4323  0.1237
 6195SOL    HW130218   3.500   1.365   1.655 -0.2386 -1.3787 -1.5019
 6195SOL    HW230219   3.428   1.453   1.741  1.5708 -1.7357  1.6826
 6196SOL     OW30220   1.999   0.246   6.284 -0.4857  0.4497 -0.1763
 6196SOL    HW130221   2.013   0.319   6.346 -0.3724  1.7658 -1.7545
 6196SOL    HW230222   2.089   0.219   6.265 -1.0631 -1.5379 -0.0926
 6197SOL     OW30223   2.535   2.862   9.190 -0.2900 -0.5444 -0.6344
 6197SOL    HW130224   2.621   2.823   9.171  0.3086 -0.1001  1.1217
 6197SOL    HW230225   2.492   2.779   9.209  0.5402 -0.7819  0.2487
 6198SOL     OW30226   2.447   2.205   9.493  0.3996 -0.0340 -0.2760
 6198SOL    HW130227   2.538   2.189   9.517 -0.4215  1.1681  3.5866
 6198SOL    HW230228   2.399   2.123   9.504  1.6402 -1.0574 -2.3429
 6199SOL     OW30229   4.677   2.319   9.695  0.0892 -0.5299  0.2768
 6199SOL    HW130230   4.609   2.267   9.652  0.3723 -0.3052 -0.4369
 6199SOL    HW230231   4.706   2.257   9.762 -1.3605 -1.1853  0.3047
 6200SOL     OW30232   4.296   4.401   3.750 -0.2530 -0.0845 -0.3464
 6200SOL    HW130233   4.373   4.386   3.804 -0.0806 -1.4678 -0.9959
 6200SOL    HW230234   4.256   4.473   3.800  2.3415  0.2307  1.2569
 6201SOL     OW30235   3.667   0.958   2.628  0.3820 -0.2549  0.0317
 6201SOL    HW130236   3.691   0.873   2.592 -0.9384 -0.0617 -1.3424
 6201SOL    HW230237   3.572   0.949   2.616  0.3329  1.5505 -0.9812
 6202SOL     OW30238   1.935   3.988   7.122  0.0346  0.2987  0.1050
 6202SOL    HW130239   2.008   4.012   7.179 -1.1211 -0.3010  1.8287
 6202SOL    HW230240   1.965   3.907   7.080 -0.3230 -0.1187  0.6544
 6203SOL     OW30241   4.187   1.112   3.681 -0.6141  0.4508 -0.1497
 6203SOL    HW130242   4.148   1.199   3.684 -3.0074 -0.6167 -0.2753
 6203SOL    HW230243   4.120   1.079   3.621 -0.4450  1.1699 -0.7418
 6204SOL     OW30244   1.650   4.415   6.443 -0.1366 -0.0998  0.1281
 6204SOL    HW130245   1.670   4.489   6.500 -2.5861 -0.3079  1.2353
 6204SOL    HW230246   1.561   4.395   6.472 -0.4460 -1.2033 -1.5510
 6205SOL     OW30247   3.270   1.798   3.765  0.3840 -0.3780  0.1357
 6205SOL    HW130248   3.320   1.716   3.770  1.5517  0.2888 -0.6496
 6205SOL    HW230249   3.232   1.811   3.852  0.8965 -0.1202  0.3190
 6206SOL     OW30250   3.791   3.580  11.647  0.0691  0.2491  1.2416
 6206SOL    HW130251   3.801   3.665  11.690 -1.3956 -0.3630  2.7872
 6206SOL    HW230252   3.696   3.573  11.634  0.0937 -0.8268  1.6284
 6207SOL     OW30253   2.928   3.023   0.258  0.2920  0.4817 -0.4739
 6207SOL    HW130254   2.834   3.036   0.263  0.3144  0.8511 -0.9907
 6207SOL    HW230255   2.953   2.961   0.327 -0.7913 -0.6889 -1.1288
 6208SOL     OW30256   1.875   1.629   6.588  0.6051 -0.2136 -0.1005
 6208SOL    HW130257   1.812   1.603   6.656  0.7373  2.0046  0.8714
 6208SOL    HW230258   1.857   1.723   6.589 -0.9368 -0.5121  0.4080
 6209SOL     OW30259   3.632   3.979  12.731 -0.0508  0.2272 -0.0925
 6209SOL    HW130260   3.723   3.998  12.754  0.0437  0.2235 -0.4672
 6209SOL    HW230261   3.631   3.884  12.743  0.5231  0.0996 -1.0698
 6210SOL     OW30262   1.576   2.692  13.961 -0.4579 -0.5219  0.0428
 6210SOL    HW130263   1.563   2.615  14.017 -1.4669 -0.4927 -0.1517
 6210SOL    HW230264   1.666   2.706  13.990 -0.5692  0.4109 -0.0711
 6211SOL     OW30265   4.106   2.499   6.050 -0.0464  0.2008  0.0632
 6211SOL    HW130266   4.172   2.567   6.041  0.0609  0.2551  1.2426
 6211SOL    HW230267   4.042   2.544   6.105 -0.7289  1.3856 -1.7038
 6212SOL     OW30268   2.009   3.732  10.313 -0.5506 -0.1937 -0.5276
 6212SOL    HW130269   2.037   3.714  10.402  1.6095  1.5711 -0.8349
 6212SOL    HW230270   1.990   3.645  10.276  0.7121 -1.1465  1.0861
 6213SOL     OW30271   3.074   0.354   7.341 -0.1094 -0.4056  0.3668
 6213SOL    HW130272   3.125   0.273   7.336  1.4995  0.5333  1.2590
 6213SOL    HW230273   2.996   0.326   7.293  0.0478  0.2477 -0.2835
 6214SOL     OW30274   3.050   4.057   7.494  0.1003  0.1151  0.7022
 6214SOL    HW130275   2.985   4.091   7.432  0.7155  1.7384  0.9379
 6214SOL    HW230276   3.083   4.142   7.523 -0.3237  0.0380  1.4137
 6215SOL     OW30277   1.901   4.595  17.077  0.2643 -0.3380 -0.1816
 6215SOL    HW130278   1.853   4.556  17.150  0.2756 -2.4987 -1.3215
 6215SOL    HW230279   1.918   4.514  17.030  0.5534 -0.4634  0.1351
 6216SOL     OW30280   2.506   3.337   1.928  0.0925  0.4840 -0.1489
 6216SOL    HW130281   2.491   3.427   1.901  1.7457  0.5876 -0.6852
 6216SOL    HW230282   2.486   3.294   1.845  1.4069 -3.0357  1.3264
 6217SOL     OW30283   1.173   3.757   3.824 -0.6205 -0.3024 -0.1420
 6217SOL    HW130284   1.223   3.679   3.799  2.7196  1.7308  0.1907
 6217SOL    HW230285   1.213   3.829   3.775  0.2432 -1.7747 -1.6194
 6218SOL     OW30286   0.838   2.585   1.717  0.3336 -0.1063 -0.0294
 6218SOL    HW130287   0.748   2.568   1.746 -0.1918 -0.8860 -2.0890
 6218SOL    HW230288   0.830   2.662   1.661  1.8285  1.1416  1.5120
 6219SOL     OW30289   0.277   2.271   8.524  0.1386 -0.0317  0.3365
 6219SOL    HW130290   0.251   2.241   8.437  0.5510 -0.8623  0.5012
 6219SOL    HW230291   0.190   2.271   8.565  0.4735  2.8433  1.0254
 6220SOL     OW30292   3.296   2.130   2.981  0.0794 -0.4896 -0.6610
 6220SOL    HW130293   3.241   2.066   3.025 -3.1509  1.3131 -2.0805
 6220SOL    HW230294   3.290   2.204   3.042 -1.0134  1.0136 -2.5804
 6221SOL     OW30295   2.227   2.326   4.476 -0.1727  0.0339  0.8359
 6221SOL    HW130296   2.302   2.282   4.436  1.6492  2.9239  1.0828
 6221SOL    HW230297   2.169   2.346   4.403  1.9475  0.5697 -0.6772
 6222SOL     OW30298   4.359   2.451   8.872  0.5100 -0.4302  0.3072
 6222SOL    HW130299   4.310   2.373   8.844 -0.5079  1.1805 -2.4386
 6222SOL    HW230300   4.359   2.504   8.792  2.7087 -0.1120  0.5154
 6223SOL     OW30301   1.181   0.630  11.611 -0.3128 -0.4730 -0.0052
 6223SOL    HW130302   1.193   0.629  11.516  0.2298 -0.1225  0.0592
 6223SOL    HW230303   1.254   0.687  11.635  1.0612 -1.6226 -1.4102
 6224SOL     OW30304   4.246   0.313  15.462  0.0707 -0.6889 -0.0752
 6224SOL    HW130305   4.339   0.293  15.450  0.1363  0.9880 -2.4966
 6224SOL    HW230306   4.249   0.333  15.555 -0.6040 -1.1787  0.0535
 6225SOL     OW30307   2.084   3.803  15.886  0.0470 -0.4170  0.2015
 6225SOL    HW130308   2.145   3.861  15.840 -0.4316  0.2763  0.4300
 6225SOL    HW230309   2.017   3.855  15.931  0.6343 -1.2405  2.0228
 6226SOL     OW30310   2.754   0.981   2.202 -0.4531  0.9182 -0.4181
 6226SOL    HW130311   2.710   1.064   2.220  1.7038  1.6309  1.6916
 6226SOL    HW230312   2.845   1.010   2.198  0.1508 -0.7201  1.3283
 6227SOL     OW30313   3.843   0.102   2.806 -0.1135  0.1059 -0.2407
 6227SOL    HW130314   3.835   0.011   2.835  1.0744 -0.1220 -0.6257
 6227SOL    HW230315   3.894   0.084   2.727 -1.4262 -2.2365 -0.5659
 6228SOL     OW30316   4.510   3.708  16.918  0.3115  0.4802 -0.6307
 6228SOL    HW130317   4.460   3.634  16.884 -0.0736  1.0671 -1.3372
 6228SOL    HW230318   4.483   3.709  17.010  0.1545 -1.1010 -0.6545
 6229SOL     OW30319   2.569   4.442   5.264  0.0726  0.1547  0.0310
 6229SOL    HW130320   2.502   4.382   5.231  0.6145 -1.2614  1.5115
 6229SOL    HW230321   2.606   4.479   5.184  1.4723 -0.3390  0.4573
 6230SOL     OW30322   0.286   1.954   8.543  0.1349 -0.2604  0.0309
 6230SOL    HW130323   0.276   2.048   8.554  1.1357 -0.0171 -1.1636
 6230SOL    HW230324   0.296   1.939   8.637 -1.2455 -1.7764 -0.0674
 6231SOL     OW30325   4.578   3.870   0.001 -0.3377 -0.4047 -0.1463
 6231SOL    HW130326   4.659   3.915   0.024  0.4385 -2.1879  0.6597
 6231SOL    HW230327   4.508   3.936   0.004  1.2420  1.1722  1.9485
 6232SOL     OW30328   4.174   4.049  17.317  0.7721  0.2795  0.3919
 6232SOL    HW130329   4.177   4.066  17.411 -1.5832 -0.2445  0.5670
 6232SOL    HW230330   4.095   3.995  17.313  0.0902  1.4069 -1.4723
 6233SOL     OW30331   4.137   1.342   0.752  0.4343  0.2725  0.1223
 6233SOL    HW130332   4.126   1.304   0.665  1.1159 -0.1238  0.2098
 6233SOL    HW230333   4.127   1.433   0.724 -0.2935  0.3087  0.4969
 6234SOL     OW30334   3.149   3.866   3.001 -0.5847  0.0090  0.0597
 6234SOL    HW130335   3.095   3.930   3.048  0.0846  2.1571 -2.0563
 6234SOL    HW230336   3.227   3.918   2.983  0.3578 -2.3197 -2.4582
 6235SOL     OW30337   3.370   3.869   8.427  0.5626  0.1517  0.6045
 6235SOL    HW130338   3.356   3.964   8.424  3.1478  0.5747  1.9027
 6235SOL    HW230339   3.373   3.856   8.332 -0.8715  1.4415  0.3692
 6236SOL     OW30340   2.416   1.018   5.741 -0.0547  0.3159  0.0498
 6236SOL    HW130341   2.411   0.933   5.696 -1.6672  0.8581 -0.8031
 6236SOL    HW230342   2.337   1.027   5.793 -0.3009 -0.0831 -0.2519
 6237SOL     OW30343   1.514   4.625   5.804  0.1222  0.4726 -0.0159
 6237SOL    HW130344   1.593   4.596   5.758  0.2559 -0.0394  0.5468
 6237SOL    HW230345   1.515   4.568   5.880  0.5858  2.2673  1.3081
 6238SOL     OW30346   4.046   0.031  14.463 -0.2071 -0.1123 -0.1989
 6238SOL    HW130347   4.010   0.008  14.548 -0.8711  0.2821 -0.3761
 6238SOL    HW230348   4.100   0.102  14.497  0.0447 -0.1682 -0.4862
 6239SOL     OW30349   3.636   0.091   1.937  0.3921  0.0498 -0.6326
 6239SOL    HW130350   3.587   0.127   1.862  0.4507 -0.1644 -0.7734
 6239SOL    HW230351   3.705   0.030   1.914  1.4903  1.1817 -0.3383
 6240SOL     OW30352   4.408   3.422   3.008 -0.4894  0.0102  0.1687
 6240SOL    HW130353   4.481   3.473   2.972 -1.6335  1.0819 -0.6294
 6240SOL    HW230354   4.345   3.433   2.937 -1.8326 -2.6400  0.9617
 6241SOL     OW30355   1.837   1.254   5.679  0.3853  0.1239 -0.3019
 6241SOL    HW130356   1.812   1.162   5.668 -1.1141  0.7615 -2.2904
 6241SOL    HW230357   1.932   1.262   5.682  0.2501  1.3239  1.0338
 6242SOL     OW30358   2.272   0.323   2.173  0.3062 -0.2205  0.4606
 6242SOL    HW130359   2.210   0.320   2.100 -1.8760  0.2969  2.3189
 6242SOL    HW230360   2.292   0.416   2.184  2.6592 -0.4204 -1.7978
 6243SOL     OW30361   1.743   3.946   5.442  0.1812 -0.2718  0.2028
 6243SOL    HW130362   1.746   3.854   5.468 -1.0452 -0.3526  0.0739
 6243SOL    HW230363   1.755   3.992   5.525 -0.9915 -1.9683  1.2959
 6244SOL     OW30364   0.273   2.691   4.039 -0.0298 -0.7573 -0.2516
 6244SOL    HW130365   0.242   2.663   4.126  0.5207  0.8903  0.4737
 6244SOL    HW230366   0.198   2.740   4.005  0.2408 -0.3107 -0.1966
 6245SOL     OW30367   4.093   1.945   5.140 -0.0520 -0.0459 -0.4970
 6245SOL    HW130368   4.079   2.035   5.111 -1.9334 -0.0602  0.3782
 6245SOL    HW230369   4.053   1.902   5.065  0.8412  2.2199 -2.2723
 6246SOL     OW30370   0.080   0.677   4.443 -0.0672  0.0033 -0.0643
 6246SOL    HW130371   0.176   0.668   4.440 -0.0422  0.7754 -1.6656
 6246SOL    HW230372   0.056   0.746   4.381 -0.2481  1.0140  1.1243
 6247SOL     OW30373   2.418   4.031   7.439  0.6431 -0.5474  0.4387
 6247SOL    HW130374   2.352   4.086   7.481  1.6300  0.5815  0.5211
 6247SOL    HW230375   2.434   4.090   7.365 -0.9315 -1.1986 -0.4168
 6248SOL     OW30376   0.511   0.108   2.120 -0.0796  0.5697  1.0682
 6248SOL    HW130377   0.449   0.179   2.102 -0.3265  0.3367  1.0163
 6248SOL    HW230378   0.570   0.146   2.185  0.3743 -2.2011  2.2564
 6249SOL     OW30379   4.610   0.745  11.545 -0.0956  0.5620 -0.2624
 6249SOL    HW130380   4.589   0.783  11.631 -2.1460  1.8853 -1.3571
 6249SOL    HW230381   4.564   0.811  11.493 -0.1676 -1.9752 -3.3752
 6250SOL     OW30382   0.026   0.814   8.092 -0.2547 -0.1400  0.2220
 6250SOL    HW130383   0.091   0.867   8.137  0.5162  0.7076 -1.8683
 6250SOL    HW230384   0.031   0.727   8.131 -3.0757 -0.1201  0.6555
 6251SOL     OW30385   0.849   3.774   3.467  0.2068  0.2623  0.0156
 6251SOL    HW130386   0.937   3.810   3.477  0.2655  0.0127  0.3887
 6251SOL    HW230387   0.857   3.752   3.374 -0.9293 -2.3830  0.5237
 6252SOL     OW30388   4.597   3.953   4.690 -0.2409  0.2664 -0.6580
 6252SOL    HW130389   4.602   3.971   4.596 -2.3421 -2.3167 -1.2772
 6252SOL    HW230390   4.503   3.958   4.709 -0.5003 -1.3324 -1.5539
 6253SOL     OW30391   2.784   2.556   0.533 -0.6562 -0.3445 -0.3981
 6253SOL    HW130392   2.717   2.609   0.489 -1.0702 -0.7827 -0.2899
 6253SOL    HW230393   2.851   2.575   0.466  0.7595 -3.8630  0.0264
 6254SOL     OW30394   4.245   0.599   8.668  0.1225 -0.2819 -0.3745
 6254SOL    HW130395   4.275   0.590   8.577 -1.4697  0.2860 -0.9678
 6254SOL    HW230396   4.315   0.652   8.705 -0.3989 -0.6712  1.1559
 6255SOL     OW30397   0.150   1.686   1.317  0.2524  0.0191 -0.2033
 6255SOL    HW130398   0.120   1.706   1.229 -0.9540  3.0025  0.8641
 6255SOL    HW230399   0.066   1.677   1.363  0.2029  0.4156 -0.2107
 6256SOL     OW30400   3.871   3.702  14.791  0.3478  0.1122 -0.9482
 6256SOL    HW130401   3.885   3.751  14.871 -1.8429  0.9470 -1.0701
 6256SOL    HW230402   3.781   3.729  14.770  0.1779 -1.8077 -2.7500
 6257SOL     OW30403   2.577   4.156  17.498 -0.0629  0.5720 -0.1993
 6257SOL    HW130404   2.659   4.129  17.455 -0.5632 -0.0182 -0.7806
 6257SOL    HW230405   2.522   4.160  17.420 -3.2654  1.3518  2.0992
 6258SOL     OW30406   4.480   3.567   5.781  0.0275 -0.0773  0.2259
 6258SOL    HW130407   4.549   3.543   5.719 -1.5171  0.8772 -1.8916
 6258SOL    HW230408   4.413   3.590   5.717 -0.0384  0.4444  0.4858
 6259SOL     OW30409   1.069   3.020   4.634 -0.4253 -0.1408 -0.5540
 6259SOL    HW130410   1.043   2.944   4.581 -0.6152 -1.3490  1.2496
 6259SOL    HW230411   1.155   3.000   4.670 -0.1954  0.0539 -0.9969
 6260SOL     OW30412   0.376   0.138   7.116  0.1188  0.2489 -0.8023
 6260SOL    HW130413   0.453   0.096   7.152 -1.1363  0.0100  1.5830
 6260SOL    HW230414   0.390   0.227   7.148  0.8106 -0.5334  1.0360
 6261SOL     OW30415   2.712   3.431  17.738 -0.3589  0.1961 -0.2844
 6261SOL    HW130416   2.753   3.516  17.754 -0.0418  0.2449 -1.3596
 6261SOL    HW230417   2.760   3.376   0.036  1.3234  0.0396 -1.7259
 6262SOL     OW30418   2.002   0.964  13.780  0.6577  0.4580 -0.0998
 6262SOL    HW130419   1.981   1.005  13.864  2.7388 -0.1473  0.7090
 6262SOL    HW230420   2.037   1.044  13.743  0.1181  0.3836 -0.7767
 6263SOL     OW30421   2.358   3.931   4.574  0.2275 -0.6727  0.6137
 6263SOL    HW130422   2.290   3.974   4.521  0.9382  1.5550  1.5005
 6263SOL    HW230423   2.304   3.856   4.597  0.2700 -1.1450 -0.8521
 6264SOL     OW30424   0.298   0.661   1.641  0.3833  0.4071  0.1257
 6264SOL    HW130425   0.329   0.717   1.571  1.0615 -1.5219 -1.1236
 6264SOL    HW230426   0.331   0.707   1.718  0.5986  0.4523  0.0061
 6265SOL     OW30427   4.293   2.703   5.937  0.1477 -0.2063 -0.6098
 6265SOL    HW130428   4.244   2.722   5.857 -0.5123 -1.2335 -0.4522
 6265SOL    HW230429   4.290   2.780   5.994 -1.5722 -1.0903  0.5095
 6266SOL     OW30430   1.567   0.064   2.001  0.0436 -0.1183 -0.7236
 6266SOL    HW130431   1.560   0.094   2.092 -0.0205 -1.7201 -0.1900
 6266SOL    HW230432   1.475   0.052   1.974  0.0511 -2.7349  0.3840
 6267SOL     OW30433   4.608   2.077  16.306 -0.2565  0.6383 -0.4134
 6267SOL    HW130434   4.631   2.169  16.317 -1.5332  0.8207  0.6488
 6267SOL    HW230435   4.642   2.059  16.219 -0.0507 -0.4243 -0.1119
 6268SOL     OW30436   4.528   0.028  17.340 -0.0106 -0.2735  0.2663
 6268SOL    HW130437   4.611   0.029  17.387 -1.1570  1.8481  2.2895
 6268SOL    HW230438   4.552   4.721  17.261  0.9750  0.1366  0.3207
 6269SOL     OW30439   4.637   2.461   5.251  0.0317  0.2575 -0.8317
 6269SOL    HW130440   4.584   2.529   5.209  0.4000  0.7645 -0.4682
 6269SOL    HW230441   4.597   2.445   5.336  1.7675 -0.1267 -0.0964
 6270SOL     OW30442   2.644   2.715  15.847  0.4097 -0.2353  0.2616
 6270SOL    HW130443   2.685   2.777  15.787  0.6284 -1.6963 -1.0994
 6270SOL    HW230444   2.707   2.727  15.918 -0.2892  0.9865  0.6770
 6271SOL     OW30445   3.492   3.186   3.196  0.1702  0.0679  0.0793
 6271SOL    HW130446   3.517   3.227   3.279  2.2732 -2.8748  0.8828
 6271SOL    HW230447   3.508   3.093   3.213 -3.7867 -0.7909 -0.9080
 6272SOL     OW30448   1.247   1.421   7.386 -0.2084  0.5779 -0.2570
 6272SOL    HW130449   1.270   1.329   7.402  0.5207  0.6824 -0.7110
 6272SOL    HW230450   1.195   1.435   7.465  1.6525 -2.8403  1.6218
 6273SOL     OW30451   2.906   1.945   3.678  0.5878 -0.1338 -0.0656
 6273SOL    HW130452   2.885   1.948   3.772 -0.3965  0.0708 -0.2920
 6273SOL    HW230453   2.983   2.002   3.679  0.3506  0.1997 -1.3409
 6274SOL     OW30454   0.220   0.685  13.630 -0.0307 -0.0014  0.0884
 6274SOL    HW130455   0.267   0.602  13.618 -1.9508 -1.2108  0.9094
 6274SOL    HW230456   0.141   0.651  13.673 -0.7331  0.5923 -0.7438
 6275SOL     OW30457   4.336   1.924  17.480  0.3921  0.1285 -0.1774
 6275SOL    HW130458   4.399   1.987  17.445  0.2173 -0.7667 -2.1336
 6275SOL    HW230459   4.396   1.857  17.511 -0.0747 -1.6088 -3.0053
 6276SOL     OW30460   2.350   3.870   3.552  0.0564 -0.2185  0.8684
 6276SOL    HW130461   2.313   3.787   3.581  1.6156 -1.0951  0.3772
 6276SOL    HW230462   2.444   3.856   3.542 -0.5191 -2.1496 -1.8110
 6277SOL     OW30463   1.400   4.654  11.160  0.0683  0.1954 -0.0359
 6277SOL    HW130464   1.306   4.639  11.167  0.0940  0.1250  0.1635
 6277SOL    HW230465   1.402   4.738  11.115 -1.0711  0.0254 -0.4067
 6278SOL     OW30466   1.498   0.847   6.370 -0.0436 -0.5950  0.3328
 6278SOL    HW130467   1.590   0.819   6.373  0.8965  2.5469  1.3756
 6278SOL    HW230468   1.479   0.865   6.462  3.3502  1.4364  0.6426
 6279SOL     OW30469   0.729   2.748  16.470  0.2364  0.0539 -0.3003
 6279SOL    HW130470   0.794   2.775  16.535  1.4421 -1.2227 -0.9889
 6279SOL    HW230471   0.721   2.655  16.491 -0.1148 -0.4398 -2.6148
 6280SOL     OW30472   1.742   2.521   6.283  0.4336 -0.0574  0.3759
 6280SOL    HW130473   1.686   2.443   6.291  0.7002 -0.3765 -0.8220
 6280SOL    HW230474   1.700   2.584   6.341 -1.0234  1.3417 -2.2327
 6281SOL     OW30475   3.809   2.329   3.480 -0.4653 -0.4365 -0.2809
 6281SOL    HW130476   3.808   2.321   3.575  1.3070  0.5508 -0.1828
 6281SOL    HW230477   3.821   2.236   3.459 -3.2732 -1.1208  1.2118
 6282SOL     OW30478   4.713   2.780  12.108  0.2621  0.0413  0.4323
 6282SOL    HW130479   4.654   2.756  12.180 -1.1456 -1.0905 -1.1232
 6282SOL    HW230480   0.053   2.798  12.156  0.7079  0.7472 -0.5988
 6283SOL     OW30481   4.170   1.293  15.859  0.9497  0.0129  0.2189
 6283SOL    HW130482   4.242   1.258  15.912  0.0224 -2.5084 -0.2192
 6283SOL    HW230483   4.220   1.295  15.777  2.3727 -2.6211  1.0077
 6284SOL     OW30484   0.020   2.948   7.675  0.1865 -0.2511  0.1311
 6284SOL    HW130485   0.106   2.989   7.673 -0.5920  1.4973  2.3590
 6284SOL    HW230486   0.031   2.891   7.751  1.1579  0.8982  0.8650
 6285SOL     OW30487   2.644   4.302   7.504  0.7388  0.6200 -0.7360
 6285SOL    HW130488   2.603   4.249   7.435  0.8874  0.0347 -0.3771
 6285SOL    HW230489   2.612   4.255   7.581  0.5977  0.0345 -1.1527
 6286SOL     OW30490   0.014   1.107  13.091 -0.0275  0.0673 -0.1329
 6286SOL    HW130491   0.098   1.115  13.046 -0.8945 -1.7950 -2.0672
 6286SOL    HW230492   0.008   1.015  13.115  1.1072  0.3436  1.2192
 6287SOL     OW30493   0.826   2.719  16.957  0.0294  0.4189 -0.2409
 6287SOL    HW130494   0.766   2.712  17.032  0.3376  1.4643  0.1032
 6287SOL    HW230495   0.766   2.780  16.915 -0.2251 -0.6801 -1.4868
 6288SOL     OW30496   4.693   2.703   8.558  0.6246  0.4349  0.4898
 6288SOL    HW130497   4.624   2.767   8.577 -0.8217 -0.7149 -0.9326
 6288SOL    HW230498   0.026   2.734   8.610  0.6796  1.0039  0.0769
 6289SOL     OW30499   3.932   3.512   1.961 -0.1292 -0.2197 -0.0535
 6289SOL    HW130500   3.948   3.598   1.923 -0.6512 -0.0308  0.1532
 6289SOL    HW230501   3.857   3.480   1.912 -0.5848  2.1712 -0.9150
 6290SOL     OW30502   4.332   0.729   2.406 -0.2093 -0.1579 -0.6434
 6290SOL    HW130503   4.400   0.716   2.339 -0.8006 -1.3051 -1.0195
 6290SOL    HW230504   4.364   0.672   2.476  1.0320 -0.0622 -1.1281
 6291SOL     OW30505   3.868   3.275  10.291  0.0671 -0.1173 -0.0499
 6291SOL    HW130506   3.958   3.251  10.312  0.6883  0.5766 -1.9371
 6291SOL    HW230507   3.884   3.368  10.281  0.1667 -0.0722  0.5242
 6292SOL     OW30508   3.196   4.207   9.347  0.2523 -0.0160  0.3494
 6292SOL    HW130509   3.106   4.186   9.319  0.1109 -0.8350  1.4670
 6292SOL    HW230510   3.196   4.284   9.404 -0.2443  0.4166 -0.2233
 6293SOL     OW30511   0.160   2.496   5.211  0.4133  0.2888  0.3442
 6293SOL    HW130512   0.074   2.515   5.248  0.4362  3.9497 -1.4306
 6293SOL    HW230513   0.157   2.402   5.194 -2.2550  0.4270  0.0652
 6294SOL     OW30514   3.063   1.234   8.793 -0.3728  1.4253  0.5488
 6294SOL    HW130515   3.006   1.156   8.797  0.3038  0.8597 -0.6863
 6294SOL    HW230516   3.103   1.239   8.879 -0.1355  0.9465  0.4673
 6295SOL     OW30517   1.378   0.561   6.641 -0.1687  0.4761 -0.1570
 6295SOL    HW130518   1.410   0.628   6.702 -2.2462  0.7808  0.5974
 6295SOL    HW230519   1.288   0.547   6.669  1.3448 -1.2879  3.7269
 6296SOL     OW30520   3.706   0.025   9.634  0.5665  0.1901  0.2087
 6296SOL    HW130521   3.708   4.690   9.692  0.8084 -1.9184 -2.6086
 6296SOL    HW230522   3.770   4.741   9.567 -0.3367 -1.1406 -0.1425
 6297SOL     OW30523   0.742   2.259   2.743 -0.2860  0.0003  0.3067
 6297SOL    HW130524   0.747   2.223   2.831 -0.7885 -1.1391 -0.1327
 6297SOL    HW230525   0.755   2.352   2.764  1.4653  0.0236 -0.9234
 6298SOL     OW30526   3.829   1.574   7.276 -0.0059 -0.3450 -0.2830
 6298SOL    HW130527   3.854   1.659   7.312  1.6537 -0.3346 -1.4808
 6298SOL    HW230528   3.910   1.535   7.243 -1.0705 -3.4152  0.6520
 6299SOL     OW30529   3.809   3.148   3.765  0.2310  0.0089  0.1489
 6299SOL    HW130530   3.852   3.226   3.797 -1.0740  0.4738  0.7847
 6299SOL    HW230531   3.884   3.090   3.753  0.9009  1.0452 -0.6962
 6300SOL     OW30532   3.390   3.609   2.762  0.0776  0.2694  0.1813
 6300SOL    HW130533   3.404   3.702   2.743 -0.7468  0.3934  0.1937
 6300SOL    HW230534   3.295   3.599   2.764 -0.0122  0.1648 -4.1339
 6301SOL     OW30535   1.872   1.785   5.052  0.4763 -0.1240  0.0043
 6301SOL    HW130536   1.871   1.871   5.009 -0.0941 -0.1013  0.0618
 6301SOL    HW230537   1.881   1.729   4.975  0.6083  0.5238 -0.4496
 6302SOL     OW30538   2.927   0.193   3.482 -0.2143  0.0567  0.1052
 6302SOL    HW130539   2.918   0.152   3.396  1.9850 -1.3708  0.5683
 6302SOL    HW230540   2.834   0.209   3.501 -0.1255  0.1159  0.4946
 6303SOL     OW30541   0.804   4.516   4.836  0.4624 -0.3300  0.0017
 6303SOL    HW130542   0.734   4.580   4.847 -1.8186 -2.6174 -0.8841
 6303SOL    HW230543   0.764   4.446   4.783  1.5437 -0.0717 -1.1475
 6304SOL     OW30544   3.082   4.249   3.123  0.3709 -0.0906  0.3381
 6304SOL    HW130545   3.046   4.168   3.087  2.5019 -0.5976 -0.6552
 6304SOL    HW230546   3.011   4.265   3.186  0.0602  0.6585 -0.2083
 6305SOL     OW30547   3.324   1.782   2.717 -0.0841 -0.1251  0.0001
 6305SOL    HW130548   3.267   1.748   2.648  0.0934 -1.0514  0.3087
 6305SOL    HW230549   3.356   1.865   2.681  1.0029 -0.2473  0.6868
 6306SOL     OW30550   3.817   2.137  10.362 -0.0948 -0.0577  0.1749
 6306SOL    HW130551   3.904   2.107  10.338  0.2076  1.2955 -0.4188
 6306SOL    HW230552   3.793   2.184  10.282  1.6891  0.9916  0.2627
 6307SOL     OW30553   1.358   0.905   2.651 -0.1203  1.1916  0.3060
 6307SOL    HW130554   1.374   0.833   2.590 -2.5913 -0.3740  1.5229
 6307SOL    HW230555   1.452   0.926   2.655 -0.3499  2.0494  1.0150
 6308SOL     OW30556   2.708   1.514  16.697  0.1160  0.5834 -0.6112
 6308SOL    HW130557   2.722   1.511  16.602 -1.0666  1.0796 -0.7963
 6308SOL    HW230558   2.640   1.581  16.702  1.1537  1.7403 -2.1307
 6309SOL     OW30559   3.751   0.128   5.692  0.3059 -0.6470 -0.3875
 6309SOL    HW130560   3.709   0.160   5.772 -1.1419 -1.9529 -0.6444
 6309SOL    HW230561   3.715   0.040   5.689 -0.7310 -0.2312 -0.1187
 6310SOL     OW30562   1.413   1.317   2.556 -0.4094  0.1838 -0.2183
 6310SOL    HW130563   1.399   1.393   2.500  0.4097 -0.8725 -1.8420
 6310SOL    HW230564   1.346   1.349   2.617 -0.1767 -1.1575  0.7323
 6311SOL     OW30565   0.441   0.015  17.526 -0.0324  0.3949  0.4255
 6311SOL    HW130566   0.493   4.727  17.451 -0.4942  0.3351  0.1290
 6311SOL    HW230567   0.474   4.708  17.602  2.9428  1.7958  0.0299
 6312SOL     OW30568   3.020   3.548   9.998 -0.5597 -0.2425 -0.2604
 6312SOL    HW130569   3.009   3.637   9.963  0.3430  0.2279  0.6137
 6312SOL    HW230570   2.997   3.497   9.921 -1.2198 -1.1180  0.5161
 6313SOL     OW30571   3.861   0.637  16.119 -0.3721  0.5029  0.2016
 6313SOL    HW130572   3.862   0.554  16.167 -0.0044 -0.2965 -1.1809
 6313SOL    HW230573   3.895   0.614  16.033 -0.2968  2.0110 -0.1807
 6314SOL     OW30574   3.310   2.828   3.097 -0.0586  0.1732  0.1350
 6314SOL    HW130575   3.367   2.870   3.032 -0.6081 -0.0135 -0.4641
 6314SOL    HW230576   3.364   2.750   3.113  0.0237  0.6120  1.9632
 6315SOL     OW30577   1.686   0.249   0.274  0.1190 -0.4745 -0.0505
 6315SOL    HW130578   1.635   0.204   0.341 -0.4880  1.2813  0.6606
 6315SOL    HW230579   1.748   0.186   0.237 -0.7501 -0.8248 -0.9104
 6316SOL     OW30580   2.398   3.932  14.640 -0.1412 -0.0887  0.0537
 6316SOL    HW130581   2.326   3.883  14.681 -0.8208 -0.2943 -1.3534
 6316SOL    HW230582   2.420   3.993  14.710  1.1745  0.6011 -0.9721
 6317SOL     OW30583   3.903   2.858  14.312  0.1748  0.3502 -0.0573
 6317SOL    HW130584   3.878   2.768  14.334 -0.3426 -0.0193 -2.1659
 6317SOL    HW230585   3.823   2.910  14.301  0.3429  0.2894 -1.5751
 6318SOL     OW30586   2.596   2.430   5.421  0.1407  0.3233  0.0374
 6318SOL    HW130587   2.614   2.369   5.349 -0.0429  1.2447 -0.7759
 6318SOL    HW230588   2.500   2.434   5.420  0.1233  0.1326  0.5977
 6319SOL     OW30589   2.305   3.082   7.635 -0.2560  0.4923 -0.7788
 6319SOL    HW130590   2.321   3.175   7.617 -0.0531  0.8399  1.2767
 6319SOL    HW230591   2.386   3.035   7.654 -0.2842  1.0707  0.7845
 6320SOL     OW30592   4.101   2.530   1.940  0.2522 -0.5330 -0.0821
 6320SOL    HW130593   4.010   2.520   1.968 -0.0069  0.7286 -0.5130
 6320SOL    HW230594   4.082   2.590   1.869  0.7394  1.4215  1.4548
 6321SOL     OW30595   2.989   4.063  13.012 -0.1635  0.0112  0.1706
 6321SOL    HW130596   3.020   4.153  13.002  1.0972 -0.2608  1.6794
 6321SOL    HW230597   3.048   4.018  13.072  0.1936 -2.5536 -2.0979
 6322SOL     OW30598   2.006   3.612   3.526 -0.2051  0.0072 -0.3996
 6322SOL    HW130599   2.034   3.588   3.437  0.2621 -0.8429 -0.0211
 6322SOL    HW230600   2.093   3.614   3.566  0.5345 -2.8071 -1.8238
 6323SOL     OW30601   1.942   0.396   4.945 -0.1869  0.3214  0.3120
 6323SOL    HW130602   1.986   0.347   5.014 -0.1198 -0.8720 -0.5888
 6323SOL    HW230603   2.015   0.457   4.940  0.8760 -0.9757  0.0487
 6324SOL     OW30604   3.309   4.436   0.484  0.2105  0.5213  0.2570
 6324SOL    HW130605   3.371   4.477   0.423 -1.2268  1.0352 -0.8639
 6324SOL    HW230606   3.289   4.353   0.440 -2.8177  1.5316 -0.2724
 6325SOL     OW30607   3.471   0.388  11.074 -0.4721 -0.4324  0.6598
 6325SOL    HW130608   3.473   0.479  11.104  0.9083  0.2079 -1.4349
 6325SOL    HW230609   3.490   0.344  11.157 -1.6311 -1.3372  0.4459
 6326SOL     OW30610   4.025   3.282   1.415  0.4743  0.5368 -0.4275
 6326SOL    HW130611   3.992   3.364   1.380  1.4884  1.3688  0.5692
 6326SOL    HW230612   4.030   3.303   1.508 -1.5240  2.0392 -0.6625
 6327SOL     OW30613   1.567   3.686  11.733 -0.3956 -0.7754  0.3146
 6327SOL    HW130614   1.593   3.607  11.782  0.3109 -0.9959 -0.4099
 6327SOL    HW230615   1.629   3.753  11.762 -0.3481  0.9612 -3.8863
 6328SOL     OW30616   2.707   1.527   3.738  0.0475  0.1457  0.7470
 6328SOL    HW130617   2.748   1.481   3.811  2.2841  0.2265 -0.4609
 6328SOL    HW230618   2.773   1.595   3.722 -0.9529  0.6217 -1.3859
 6329SOL     OW30619   4.276   4.184   0.424  0.1442  0.8533  0.1700
 6329SOL    HW130620   4.196   4.230   0.449 -0.1489  0.3157  0.2395
 6329SOL    HW230621   4.334   4.254   0.394 -0.7318  1.7995  0.7272
 6330SOL     OW30622   0.298   0.599  13.303  0.2037  0.4262 -1.4589
 6330SOL    HW130623   0.326   0.539  13.372  0.5720  1.1351 -0.9921
 6330SOL    HW230624   0.212   0.563  13.279 -0.2967 -0.3844  1.5977
 6331SOL     OW30625   0.635   3.519   2.143 -0.1909  0.5186 -0.9831
 6331SOL    HW130626   0.551   3.521   2.096 -1.3886 -1.3926  1.0781
 6331SOL    HW230627   0.601   3.551   2.227 -0.7517 -0.0345 -1.0033
 6332SOL     OW30628   0.702   4.469   1.859 -0.0805  0.0808  0.2487
 6332SOL    HW130629   0.733   4.452   1.771  0.0316  2.4360 -0.1756
 6332SOL    HW230630   0.706   4.381   1.897 -0.7038 -0.6497 -1.3802
 6333SOL     OW30631   2.331   1.523   6.836  0.3136  0.5788  0.6158
 6333SOL    HW130632   2.335   1.428   6.827  0.9044  0.7029 -0.4039
 6333SOL    HW230633   2.406   1.544   6.892  0.3723  1.7050  0.1259
 6334SOL     OW30634   4.503   0.938  16.378  0.1402 -0.2361  0.1093
 6334SOL    HW130635   4.462   0.856  16.405 -1.6743  1.3179  2.0397
 6334SOL    HW230636   4.584   0.936  16.429  0.0645 -1.2949  0.2007
 6335SOL     OW30637   1.475   3.795   5.917  0.3650  0.3102 -0.1165
 6335SOL    HW130638   1.477   3.705   5.950 -2.5299 -0.1739 -1.2437
 6335SOL    HW230639   1.500   3.784   5.825 -0.2025 -0.2942 -0.1968
 6336SOL     OW30640   3.639   2.083   8.205 -0.1078 -0.7166 -0.0135
 6336SOL    HW130641   3.590   2.158   8.171 -1.4228 -2.8188 -2.7019
 6336SOL    HW230642   3.668   2.106   8.293 -1.1961  0.4876  0.0302
 6337SOL     OW30643   3.965   3.862  17.165 -0.0925 -0.1005  0.1325
 6337SOL    HW130644   3.882   3.894  17.201 -1.0703 -1.6429 -0.7528
 6337SOL    HW230645   3.930   3.791  17.112 -0.6790  0.7034 -0.5445
 6338SOL     OW30646   3.272   0.608  15.849 -0.0882 -0.5361  0.3359
 6338SOL    HW130647   3.334   0.670  15.809  0.7422 -2.6933 -1.7418
 6338SOL    HW230648   3.294   0.526  15.804  0.2196  0.1270 -0.7377
 6339SOL     OW30649   1.144   2.271   6.515 -0.3022  0.1951 -0.6472
 6339SOL    HW130650   1.084   2.269   6.589  1.2206  2.3691  0.6397
 6339SOL    HW230651   1.118   2.185   6.482  0.4970 -1.0625  1.9814
 6340SOL     OW30652   4.086   0.159   3.932  0.0902 -0.1227 -0.4231
 6340SOL    HW130653   4.080   0.251   3.907  2.1093  0.2663  0.5219
 6340SOL    HW230654   4.146   0.161   4.007  1.3913 -0.5016 -1.4689
 6341SOL     OW30655   2.743   2.794   8.279 -0.0097 -0.0551  0.1807
 6341SOL    HW130656   2.769   2.717   8.228 -0.4944 -0.8673  1.1688
 6341SOL    HW230657   2.728   2.749   8.362  2.5337 -1.7964 -0.3010
 6342SOL     OW30658   0.292   2.517   9.611 -0.5244 -0.5713 -1.0630
 6342SOL    HW130659   0.299   2.588   9.675  2.7131 -1.8294 -0.0755
 6342SOL    HW230660   0.305   2.567   9.530  0.1412  1.3097  0.1993
 6343SOL     OW30661   0.872   2.036   6.887  0.0051  0.0635 -0.6356
 6343SOL    HW130662   0.939   1.999   6.946 -0.5850 -0.2931 -0.1892
 6343SOL    HW230663   0.851   1.960   6.833  0.0914 -2.1563  2.4424
 6344SOL     OW30664   1.910   1.904   8.976  0.1082 -0.1634 -0.6414
 6344SOL    HW130665   1.854   1.841   9.022  1.1901 -1.0262 -0.5088
 6344SOL    HW230666   1.898   1.989   9.018 -0.3151 -1.7922  2.4645
 6345SOL     OW30667   1.901   1.925   0.930 -0.4441 -0.5829  0.0153
 6345SOL    HW130668   1.910   1.833   0.907  0.6065 -0.3527 -0.5020
 6345SOL    HW230669   1.947   1.928   1.014 -0.7023 -0.3875  0.1516
 6346SOL     OW30670   4.262   2.411  11.969 -0.2384 -0.0141 -0.4602
 6346SOL    HW130671   4.338   2.448  11.924 -2.0102 -0.2222 -3.6006
 6346SOL    HW230672   4.242   2.484  12.027 -0.8920 -0.5817  0.0312
 6347SOL     OW30673   1.558   0.551   0.628  0.1830 -0.0784 -0.3084
 6347SOL    HW130674   1.590   0.641   0.631 -0.5195  0.1846 -0.6886
 6347SOL    HW230675   1.520   0.533   0.714 -2.3693  1.1334 -1.1925
 6348SOL     OW30676   0.225   2.025   7.885  0.0137 -0.5697  0.6661
 6348SOL    HW130677   0.217   2.081   7.808 -0.2640 -0.1043  1.0296
 6348SOL    HW230678   0.312   2.050   7.917 -0.5752  1.6106  0.5871
 6349SOL     OW30679   0.444   3.412   2.900 -0.6260 -0.0772 -0.2618
 6349SOL    HW130680   0.375   3.417   2.966  0.3007  0.2009  0.6848
 6349SOL    HW230681   0.440   3.319   2.875 -0.2165 -0.1327 -0.1232
 6350SOL     OW30682   0.755   1.726  13.204  0.1397  0.3983  0.2355
 6350SOL    HW130683   0.816   1.798  13.218 -0.3198  0.5653  1.3487
 6350SOL    HW230684   0.682   1.749  13.262 -0.5183 -1.8277  0.3096
 6351SOL     OW30685   1.424   4.238  12.994 -0.3499  0.2770  0.4646
 6351SOL    HW130686   1.329   4.224  12.998 -0.9882  4.1757 -0.9208
 6351SOL    HW230687   1.433   4.331  12.974 -1.6859  0.2405 -0.3515
 6352SOL     OW30688   2.710   4.100   6.803 -0.5082  0.3288 -0.1838
 6352SOL    HW130689   2.657   4.050   6.865 -0.3615  0.7920  0.3091
 6352SOL    HW230690   2.643   4.115   6.736 -1.2572  0.1057  0.5146
 6353SOL     OW30691   3.843   2.986   5.573 -0.2249 -0.0057 -0.5580
 6353SOL    HW130692   3.863   2.944   5.656  0.5482 -2.9636 -2.2490
 6353SOL    HW230693   3.758   2.949   5.550  0.0485 -1.6018  1.0158
 6354SOL     OW30694   3.566   0.040   7.219 -0.0898 -0.8605 -0.1875
 6354SOL    HW130695   3.601   4.733   7.294  0.8486  0.0853 -0.0088
 6354SOL    HW230696   3.595   4.726   7.147  3.1753  0.2264  0.3005
 6355SOL     OW30697   3.927   2.595   3.424  0.4990  0.3414  0.7566
 6355SOL    HW130698   3.919   2.643   3.506 -2.2427 -0.1561  0.7743
 6355SOL    HW230699   3.854   2.535   3.437 -0.4621  0.8110 -2.5315
 6356SOL     OW30700   1.802   3.361   5.269 -0.3302  0.6994 -0.2036
 6356SOL    HW130701   1.840   3.375   5.356  0.6972 -0.3116 -0.4946
 6356SOL    HW230702   1.708   3.372   5.285 -0.1446  0.8142  0.8021
 6357SOL     OW30703   0.479   1.578   5.734 -0.0516  0.1279 -0.0546
 6357SOL    HW130704   0.497   1.638   5.662 -0.2147 -1.4005 -1.3517
 6357SOL    HW230705   0.557   1.593   5.788 -0.8147 -0.3690  1.1926
 6358SOL     OW30706   3.628   0.980   2.234  0.3382 -0.3418  0.0276
 6358SOL    HW130707   3.605   0.887   2.226  0.3778 -0.3312 -0.1989
 6358SOL    HW230708   3.722   0.967   2.226  0.0633 -0.7274 -2.4768
 6359SOL     OW30709   2.406   4.034  16.003  0.4762 -0.5389 -0.1752
 6359SOL    HW130710   2.404   3.966  16.071 -3.4468 -0.8691 -0.5932
 6359SOL    HW230711   2.318   4.073  16.004  0.0549 -1.4722 -0.2187
 6360SOL     OW30712   2.410   3.120   3.479 -0.2721 -0.1884 -0.3657
 6360SOL    HW130713   2.421   3.123   3.384 -0.1261  1.2957 -0.3075
 6360SOL    HW230714   2.449   3.206   3.495 -2.7429  0.7503  0.6375
 6361SOL     OW30715   1.439   4.079   8.968  0.7265 -0.0911 -0.2547
 6361SOL    HW130716   1.435   4.070   8.873  0.9534 -0.4409 -0.2335
 6361SOL    HW230717   1.441   3.989   9.000 -0.7374 -0.0352 -0.0280
 6362SOL     OW30718   1.624   4.270   4.989 -0.3405  0.5988  0.6639
 6362SOL    HW130719   1.576   4.220   5.055 -0.0847 -2.1869 -1.2637
 6362SOL    HW230720   1.621   4.359   5.025  0.9486  1.1127 -0.5050
 6363SOL     OW30721   4.037   0.209   8.055  0.0250 -0.1151  0.2639
 6363SOL    HW130722   4.086   0.228   8.135  1.0855 -1.0745 -0.1648
 6363SOL    HW230723   3.949   0.213   8.093 -0.4114 -0.0852 -0.7674
 6364SOL     OW30724   3.754   1.970   5.187 -0.3835  0.3075 -0.0314
 6364SOL    HW130725   3.773   1.877   5.184  1.9029  0.7121  2.4418
 6364SOL    HW230726   3.743   1.981   5.281  1.1398 -0.8977  0.2804
 6365SOL     OW30727   3.573   2.106   3.828 -0.2107  0.4806 -0.2782
 6365SOL    HW130728   3.550   2.038   3.891  2.7132 -0.2787 -0.0345
 6365SOL    HW230729   3.662   2.119   3.860 -0.2701 -1.7518  0.7946
 6366SOL     OW30730   3.406   3.219   3.829 -0.1779  0.0563  0.1642
 6366SOL    HW130731   3.472   3.170   3.878  1.9482  1.0824 -1.6960
 6366SOL    HW230732   3.467   3.282   3.792  1.0060 -1.0276  0.2767
 6367SOL     OW30733   2.025   1.065   4.541 -0.4934  0.1697 -0.2216
 6367SOL    HW130734   2.095   1.100   4.595  0.0310 -0.7849 -0.2834
 6367SOL    HW230735   2.013   1.133   4.474  0.6456  0.4661 -0.1186
 6368SOL     OW30736   0.645   4.072  14.756  0.0033  0.5039  0.0148
 6368SOL    HW130737   0.600   4.074  14.671  0.3421 -0.4855 -0.1915
 6368SOL    HW230738   0.571   4.104  14.808  0.2739  1.6372 -0.3133
 6369SOL     OW30739   2.335   1.325   5.785 -0.0429 -0.1018  0.1532
 6369SOL    HW130740   2.390   1.376   5.724  0.6613  2.2274  2.7397
 6369SOL    HW230741   2.366   1.237   5.764  1.1198  0.1282  0.9007
 6370SOL     OW30742   4.193   1.474   0.433  0.4367 -0.8310 -0.0889
 6370SOL    HW130743   4.223   1.394   0.390  1.7293 -0.2379 -0.2761
 6370SOL    HW230744   4.195   1.543   0.367  0.3089 -0.0482  0.7225
 6371SOL     OW30745   0.524   2.976   2.661  0.5864  0.1436  0.5930
 6371SOL    HW130746   0.467   2.935   2.596  0.8399 -0.0796  0.5114
 6371SOL    HW230747   0.608   2.962   2.618 -0.2612 -1.1049 -0.6567
 6372SOL     OW30748   1.985   1.394   4.658  0.3517 -0.1857  0.3130
 6372SOL    HW130749   2.053   1.340   4.698  0.9238  0.3945  0.1271
 6372SOL    HW230750   1.985   1.354   4.571 -1.4972 -0.9562  0.6519
 6373SOL     OW30751   2.161   4.190  16.021  0.2661  0.0999  0.3988
 6373SOL    HW130752   2.106   4.189  15.943  0.6805  1.3252  0.0941
 6373SOL    HW230753   2.094   4.218  16.083 -1.0560 -1.7948 -0.1767
 6374SOL     OW30754   0.424   1.496   6.309  0.2837 -0.1045  0.0222
 6374SOL    HW130755   0.440   1.506   6.215 -1.5773 -0.0240 -0.2893
 6374SOL    HW230756   0.331   1.471   6.313  1.2269 -3.5238  0.4036
 6375SOL     OW30757   1.752   0.723   2.371 -0.1728 -0.1592 -0.5895
 6375SOL    HW130758   1.818   0.658   2.394  0.4040  0.5585 -0.2137
 6375SOL    HW230759   1.731   0.696   2.282 -0.0795  0.1809 -0.7166
 6376SOL     OW30760   2.035   1.185  10.401  0.6621  0.2494  0.1679
 6376SOL    HW130761   1.940   1.182  10.388  0.4886 -0.0493  1.4241
 6376SOL    HW230762   2.059   1.092  10.406 -0.8564 -0.0182  2.6878
 6377SOL     OW30763   1.394   0.654   8.526  0.2549 -0.1264 -0.1240
 6377SOL    HW130764   1.476   0.610   8.549  0.0609 -0.1327  0.5647
 6377SOL    HW230765   1.421   0.745   8.520  0.1327 -0.1402 -0.8022
 6378SOL     OW30766   4.450   1.157   6.654 -0.0974 -0.4844  0.1470
 6378SOL    HW130767   4.489   1.092   6.597  0.7889  0.3882 -0.2382
 6378SOL    HW230768   4.517   1.223   6.638 -0.0927 -1.1248 -2.4440
 6379SOL     OW30769   0.310   0.757  16.912  1.0188  0.3314 -1.2077
 6379SOL    HW130770   0.396   0.740  16.873  1.3927  0.4995 -0.4566
 6379SOL    HW230771   0.307   0.677  16.964  2.4682  0.2193 -1.2941
 6380SOL     OW30772   4.109   4.426   2.754 -0.5389 -0.0552  0.0311
 6380SOL    HW130773   4.040   4.399   2.815  1.0797 -1.3932  1.2679
 6380SOL    HW230774   4.063   4.432   2.670  1.3643  0.6713 -0.9699
 6381SOL     OW30775   3.953   1.647  14.846  1.0364  0.3936 -0.6854
 6381SOL    HW130776   3.868   1.618  14.880 -0.4042  5.7304  0.4251
 6381SOL    HW230777   3.973   1.719  14.906  1.1521 -1.6816  1.7696
 6382SOL     OW30778   2.024   0.662  10.678 -0.1457  0.0623 -0.1328
 6382SOL    HW130779   1.989   0.576  10.656 -1.6202  0.2191  1.6126
 6382SOL    HW230780   2.059   0.691  10.594 -2.0271  0.3589 -0.8223
 6383SOL     OW30781   2.090   2.609   9.262  0.8605  0.1545 -0.1749
 6383SOL    HW130782   2.058   2.558   9.187 -1.4561  0.3710  0.6745
 6383SOL    HW230783   2.015   2.665   9.281  2.1231  1.4084  1.0603
 6384SOL     OW30784   2.173   0.105   6.028 -0.0066  0.0885 -0.6162
 6384SOL    HW130785   2.232   0.169   6.066  1.5167 -1.9418  0.4297
 6384SOL    HW230786   2.155   0.152   5.946  0.5149  1.5972  0.1402
 6385SOL     OW30787   1.697   0.201  11.878  0.2773  0.2036  0.2610
 6385SOL    HW130788   1.619   0.202  11.933  0.9679  0.9394  1.2290
 6385SOL    HW230789   1.712   0.295  11.876  0.1500  0.1723 -2.8469
 6386SOL     OW30790   4.647   2.449  15.380 -0.0382  0.2469 -0.7244
 6386SOL    HW130791   4.660   2.364  15.422  2.1764  2.0604  2.3577
 6386SOL    HW230792   4.614   2.505  15.451  2.4238  1.0069 -0.1448
 6387SOL     OW30793   0.514   2.969   4.315  0.2149 -0.0816  0.6475
 6387SOL    HW130794   0.548   2.880   4.321  0.2640  0.1434  3.5678
 6387SOL    HW230795   0.500   2.976   4.221  0.7906 -1.9699  0.4118
 6388SOL     OW30796   3.237   4.486   8.051 -0.4162  0.3446  0.1768
 6388SOL    HW130797   3.205   4.500   8.140 -2.6244  2.7729 -1.0194
 6388SOL    HW230798   3.254   4.572   8.012  0.0913 -0.7819 -2.1067
 6389SOL     OW30799   3.824   2.818   4.476  0.2204  0.2148 -0.1965
 6389SOL    HW130800   3.854   2.908   4.490 -2.9459  1.1045  0.9223
 6389SOL    HW230801   3.741   2.843   4.435 -0.7200 -0.1573  1.4574
 6390SOL     OW30802   4.166   0.334   7.009  0.6759  0.4905  0.4470
 6390SOL    HW130803   4.190   0.426   7.007 -1.2058  1.0116  1.8223
 6390SOL    HW230804   4.171   0.311   6.916 -1.9146  0.5069  0.3040
 6391SOL     OW30805   0.698   2.082   5.356  0.4439 -0.1110 -1.0350
 6391SOL    HW130806   0.646   2.039   5.287 -1.6108 -1.4355  1.3495
 6391SOL    HW230807   0.700   2.175   5.334  1.4095 -0.3677 -2.0473
 6392SOL     OW30808   2.990   0.702   8.028 -0.0133  0.7831  0.7894
 6392SOL    HW130809   2.952   0.787   8.007 -0.9809 -0.3647 -2.0775
 6392SOL    HW230810   2.920   0.637   8.023  1.0690 -0.3009 -0.2444
 6393SOL     OW30811   2.935   4.385   9.028  0.3367 -0.2567  0.1556
 6393SOL    HW130812   2.876   4.310   9.031 -0.0298 -0.0329 -1.2762
 6393SOL    HW230813   3.013   4.350   8.986  0.3178  0.5845 -0.5868
 6394SOL     OW30814   4.219   2.885  16.141 -0.3212 -0.9159 -0.3864
 6394SOL    HW130815   4.133   2.924  16.122  0.9661  1.9045 -0.3323
 6394SOL    HW230816   4.205   2.796  16.107 -0.9449 -0.9167 -0.1315
 6395SOL     OW30817   4.330   4.014   0.600  0.2386  0.3829  0.3402
 6395SOL    HW130818   4.315   4.078   0.530  0.9465 -0.4224 -0.5453
 6395SOL    HW230819   4.425   4.005   0.598  0.1398 -0.8134  1.4002
 6396SOL     OW30820   4.213   3.561   3.299  0.3410  0.2373  0.2086
 6396SOL    HW130821   4.161   3.491   3.338 -0.3516 -1.2806 -3.4347
 6396SOL    HW230822   4.211   3.554   3.204  1.0993 -0.1487  0.2258
 6397SOL     OW30823   4.059   2.471   8.274 -0.2679  0.3531  0.5440
 6397SOL    HW130824   4.108   2.509   8.201 -0.9068 -0.8313 -0.5105
 6397SOL    HW230825   4.086   2.525   8.348  0.4207 -0.3409  0.7945
 6398SOL     OW30826   2.285   2.955  15.255 -0.2251 -0.0306  0.0363
 6398SOL    HW130827   2.337   3.033  15.237  1.1510 -1.2829 -1.3653
 6398SOL    HW230828   2.217   2.951  15.188  0.6213  1.7107 -0.9197
 6399SOL     OW30829   3.530   1.328  17.700  0.0033 -0.0097  0.4117
 6399SOL    HW130830   3.578   1.284  17.630 -0.9169 -0.6257  0.1704
 6399SOL    HW230831   3.594   1.345   0.005  1.1929  1.6500 -1.0938
 6400SOL     OW30832   0.277   0.087   1.355  0.4116 -0.2544 -0.3382
 6400SOL    HW130833   0.288   0.045   1.440 -1.6271 -0.4037 -0.1429
 6400SOL    HW230834   0.229   0.016   1.313  0.0293 -0.8793  1.1510
 6401SOL     OW30835   4.721   2.483   6.061  0.1040  0.5115 -0.3495
 6401SOL    HW130836   4.625   2.484   6.061  0.0595 -1.5900  0.7061
 6401SOL    HW230837   0.011   2.470   5.972 -0.7097  2.0637 -0.8563
 6402SOL     OW30838   1.037   4.091  15.353  0.4350 -0.4126 -0.4329
 6402SOL    HW130839   1.076   4.083  15.440  0.8460  0.1122 -0.5689
 6402SOL    HW230840   0.972   4.158  15.376 -2.0499 -2.5420 -1.2408
 6403SOL     OW30841   3.607   0.026   1.172  0.1968  0.2171 -0.0303
 6403SOL    HW130842   3.584   0.092   1.237 -0.3239 -0.9419  0.9726
 6403SOL    HW230843   3.527   4.714   1.169 -0.3979  1.0782  0.4533
 6404SOL     OW30844   1.443   1.712   5.626  0.3111  0.0126 -0.3948
 6404SOL    HW130845   1.529   1.675   5.607 -0.1521 -0.6815 -1.1038
 6404SOL    HW230846   1.432   1.777   5.557 -0.0843  0.6584  0.2707
 6405SOL     OW30847   3.214   4.160   0.507  0.2303  0.7341 -0.7340
 6405SOL    HW130848   3.142   4.194   0.561  0.6478  0.5217 -0.0525
 6405SOL    HW230849   3.163   4.091   0.464 -0.0593  0.6044 -0.1862
 6406SOL     OW30850   2.253   4.110   3.343  0.0276  0.1596  0.6297
 6406SOL    HW130851   2.266   4.024   3.304 -1.5494  1.0714 -1.9536
 6406SOL    HW230852   2.333   4.111   3.395  1.1580 -0.9291 -1.0739
 6407SOL     OW30853   4.392   2.988   5.781  0.3496  0.0980  0.4050
 6407SOL    HW130854   4.314   2.945   5.746 -0.6723  2.4749 -0.2843
 6407SOL    HW230855   4.347   3.024   5.858 -0.7196 -0.9846  0.2915
 6408SOL     OW30856   3.924   4.671   9.159  0.8294 -0.3609 -0.4072
 6408SOL    HW130857   3.974   4.591   9.174  0.8491 -0.2380  0.1717
 6408SOL    HW230858   3.867   4.641   9.088 -0.2893 -0.2361  0.4427
 6409SOL     OW30859   2.042   3.460   8.898  0.1806 -0.2052 -0.2632
 6409SOL    HW130860   2.013   3.549   8.921 -0.5432  0.1418 -2.5217
 6409SOL    HW230861   2.055   3.478   8.805 -0.7944 -1.3453 -0.6218
 6410SOL     OW30862   4.595   3.112   2.768 -0.2709 -0.2051  0.4020
 6410SOL    HW130863   4.527   3.059   2.727 -1.2037  2.3236 -1.2979
 6410SOL    HW230864   4.595   3.079   2.858 -0.9833  0.7980  0.7645
 6411SOL     OW30865   2.897   0.544   7.739 -0.0024 -0.3378  0.1021
 6411SOL    HW130866   2.861   0.621   7.695  0.2929 -0.3228 -0.1147
 6411SOL    HW230867   2.824   0.523   7.798  0.2768  1.0207  0.9463
 6412SOL     OW30868   0.517   4.309   5.579 -0.2056  0.2379 -0.0573
 6412SOL    HW130869   0.511   4.330   5.486  0.5365 -0.8082 -0.3389
 6412SOL    HW230870   0.611   4.308   5.595 -0.2274  0.6268  0.1148
 6413SOL     OW30871   2.686   2.314   3.427 -0.1532  0.1372  0.3536
 6413SOL    HW130872   2.614   2.362   3.387  0.0074  2.3495  2.7085
 6413SOL    HW230873   2.683   2.344   3.518  1.7538 -1.5333  0.9655
 6414SOL     OW30874   1.030   0.110   2.513  0.0170  0.3733 -0.7525
 6414SOL    HW130875   1.120   0.142   2.503  0.2415  0.2849  0.9683
 6414SOL    HW230876   1.011   0.147   2.599 -1.3071 -2.7052  0.2513
 6415SOL     OW30877   0.579   0.660   2.528 -0.8849 -0.0221 -0.3136
 6415SOL    HW130878   0.559   0.578   2.574 -0.3968 -0.5260 -0.9923
 6415SOL    HW230879   0.659   0.677   2.578 -0.8158  1.5802 -0.9677
 6416SOL     OW30880   3.926   1.635   5.795  0.4027 -0.4443 -0.0115
 6416SOL    HW130881   3.998   1.698   5.797  0.7689 -0.8491 -0.5650
 6416SOL    HW230882   3.907   1.614   5.887  2.0562 -0.4473  0.3287
 6417SOL     OW30883   2.395   4.513   7.942 -0.1320 -0.0053 -0.2057
 6417SOL    HW130884   2.341   4.549   7.872  0.7215 -1.0056 -1.3659
 6417SOL    HW230885   2.355   4.426   7.949  1.4299 -0.7911 -1.1698
 6418SOL     OW30886   0.632   2.263  15.669 -0.0013 -0.0058 -0.2548
 6418SOL    HW130887   0.720   2.274  15.705 -0.3319  0.6300  0.3664
 6418SOL    HW230888   0.623   2.168  15.678  1.0149 -0.2954 -2.1782
 6419SOL     OW30889   0.720   3.538   6.141 -0.1594  0.4737  0.7862
 6419SOL    HW130890   0.726   3.454   6.095  0.5292  0.8108  0.2617
 6419SOL    HW230891   0.814   3.549   6.155  0.5401 -1.7522 -2.0675
 6420SOL     OW30892   0.068   0.217   4.149 -0.2018 -0.3595  0.0210
 6420SOL    HW130893   0.041   0.301   4.187  1.1710 -1.6505  3.7788
 6420SOL    HW230894   0.049   0.157   4.221 -2.3338  1.2709  0.8452
 6421SOL     OW30895   4.315   1.887   6.493  0.2115  0.2760 -0.1766
 6421SOL    HW130896   4.288   1.851   6.578 -0.2078 -1.9577 -1.2750
 6421SOL    HW230897   4.255   1.959   6.478  0.9973  1.0295  0.2548
 6422SOL     OW30898   4.177   4.437   5.489 -0.0647 -0.2020 -0.1168
 6422SOL    HW130899   4.178   4.511   5.549  1.2551  1.6033 -2.3380
 6422SOL    HW230900   4.189   4.360   5.544 -2.0535 -0.4557 -0.0587
 6423SOL     OW30901   1.641   0.959   1.959  0.3372  0.5071 -0.3061
 6423SOL    HW130902   1.678   1.046   1.972  2.1718 -0.2522 -0.5025
 6423SOL    HW230903   1.574   0.979   1.894 -0.1943 -1.5185 -0.3794
 6424SOL     OW30904   3.767   0.059   3.659  0.1890  0.6138  0.0416
 6424SOL    HW130905   3.728   0.020   3.738 -1.6491  1.3894 -0.4985
 6424SOL    HW230906   3.732   0.147   3.660  0.7945  0.8581 -0.3647
 6425SOL     OW30907   4.234   1.323  15.170 -0.0078 -0.1404 -0.3220
 6425SOL    HW130908   4.176   1.280  15.108  1.9030 -1.6608 -1.0679
 6425SOL    HW230909   4.171   1.385  15.206  0.6978 -0.6155  1.7157
 6426SOL     OW30910   3.358   0.443   8.358  0.5466  0.1821  0.9727
 6426SOL    HW130911   3.328   0.530   8.386 -1.3067 -0.8313  2.1254
 6426SOL    HW230912   3.278   0.408   8.318  1.8520 -1.2618 -0.3404
 6427SOL     OW30913   3.096   2.941   3.190  0.3344  0.0769 -0.3180
 6427SOL    HW130914   3.172   2.888   3.165  0.5378  0.6223 -0.8352
 6427SOL    HW230915   3.140   3.018   3.224  1.6131 -0.1016 -1.5565
 6428SOL     OW30916   4.556   3.596   8.479 -0.1557 -0.3623  0.0618
 6428SOL    HW130917   4.558   3.546   8.397  1.5983 -1.1149  0.5616
 6428SOL    HW230918   4.552   3.538   8.555 -0.7501  0.1027  0.3834
 6429SOL     OW30919   4.573   0.678   8.446  0.2018 -0.5100 -0.2468
 6429SOL    HW130920   4.517   0.602   8.430 -1.8542  1.1487 -1.0172
 6429SOL    HW230921   4.504   0.743   8.431  1.8218  1.1834 -0.4246
 6430SOL     OW30922   2.107   2.530   9.760 -0.5116  0.1317  0.3114
 6430SOL    HW130923   2.154   2.457   9.801  1.4719  0.4088 -1.4819
 6430SOL    HW230924   2.176   2.597   9.766  0.2656 -0.7974  1.9458
 6431SOL     OW30925   0.079   0.315   7.212  0.1237 -1.0080  0.3138
 6431SOL    HW130926   0.156   0.323   7.157  0.9139  1.2115  1.7441
 6431SOL    HW230927   0.031   0.244   7.169 -2.9319  0.8227  0.6857
 6432SOL     OW30928   0.318   2.000   3.458 -0.2932  0.5562  0.0468
 6432SOL    HW130929   0.359   1.913   3.457  0.0475  0.7238 -0.9686
 6432SOL    HW230930   0.262   1.998   3.380 -0.0761  0.7466 -0.1126
 6433SOL     OW30931   0.649   0.016   3.865  0.0505  0.1390 -0.3458
 6433SOL    HW130932   0.562   0.055   3.859  0.8189  1.9068  0.2757
 6433SOL    HW230933   0.698   0.098   3.857 -1.1644  0.5541 -3.5422
 6434SOL     OW30934   1.860   3.431   6.727  0.0428  0.6564  0.0034
 6434SOL    HW130935   1.793   3.497   6.745  0.7242  1.2199  0.4508
 6434SOL    HW230936   1.932   3.486   6.696  0.3732 -0.1322 -0.6474
 6435SOL     OW30937   1.323   1.947  14.080  0.1030  0.0479  0.1672
 6435SOL    HW130938   1.393   2.009  14.057 -0.1087  0.7180  1.3166
 6435SOL    HW230939   1.296   1.939  13.988 -1.4262 -0.3546  0.6559
 6436SOL     OW30940   0.873   2.741   4.244  0.5543  0.7390 -1.1846
 6436SOL    HW130941   0.944   2.683   4.220  1.5998  0.9004  1.5619
 6436SOL    HW230942   0.913   2.760   4.329 -1.3598 -0.6490  0.0364
 6437SOL     OW30943   1.550   0.641   5.547  0.7244 -0.3123  0.4623
 6437SOL    HW130944   1.522   0.646   5.639  0.9440 -2.2201  0.6221
 6437SOL    HW230945   1.465   0.627   5.506  0.4858  0.6015  0.6368
 6438SOL     OW30946   3.949   0.102   6.821  0.1156  0.5445  0.2184
 6438SOL    HW130947   3.883   0.033   6.808  0.6666  0.5275 -2.4969
 6438SOL    HW230948   3.904   0.186   6.819 -0.7764  0.0796  0.6146
 6439SOL     OW30949   3.649   1.565   1.622  0.0078 -0.1237 -0.3671
 6439SOL    HW130950   3.706   1.604   1.690 -0.2958 -1.4625  0.6549
 6439SOL    HW230951   3.645   1.641   1.564  1.2929  0.1851 -0.0554
 6440SOL     OW30952   3.128   3.085   6.130  0.3911  0.1947  0.4474
 6440SOL    HW130953   3.144   3.095   6.036 -1.8882  1.0933  0.1326
 6440SOL    HW230954   3.090   3.167   6.162  1.2266  0.9279 -0.4471
 6441SOL     OW30955   2.689   2.713   0.980 -0.7910  0.2328  0.6345
 6441SOL    HW130956   2.684   2.618   0.990 -1.4741  0.1157 -0.8121
 6441SOL    HW230957   2.653   2.740   1.065 -1.0955 -1.8877  1.1795
 6442SOL     OW30958   0.408   1.746   3.439  0.1404  0.1984 -0.6750
 6442SOL    HW130959   0.483   1.689   3.457  1.0183  1.1572 -1.2859
 6442SOL    HW230960   0.344   1.683   3.407  2.0497 -1.3186 -1.5039
 6443SOL     OW30961   0.480   3.693   7.784 -0.0108 -0.1995  0.1281
 6443SOL    HW130962   0.423   3.644   7.843 -3.2321  2.1716 -1.0236
 6443SOL    HW230963   0.425   3.686   7.706 -0.7124 -1.6817  0.7461
 6444SOL     OW30964   0.081   2.858   4.407  0.1580  0.0509 -0.0247
 6444SOL    HW130965   0.157   2.877   4.461  0.4394 -1.0760 -0.0348
 6444SOL    HW230966   0.018   2.911   4.455  0.2115 -0.7797  0.9411
 6445SOL     OW30967   0.237   3.326   2.523  0.1201  0.1501 -0.3067
 6445SOL    HW130968   0.219   3.310   2.616 -3.1056 -0.5096 -1.0454
 6445SOL    HW230969   0.289   3.404   2.545 -1.1336  0.8440  0.2092
 6446SOL     OW30970   3.312   1.812   1.369 -0.1593  0.0776  0.3809
 6446SOL    HW130971   3.360   1.780   1.445 -1.4052  0.0603  1.1567
 6446SOL    HW230972   3.379   1.824   1.302  0.1308  0.5804  0.7614
 6447SOL     OW30973   2.063   4.345   9.246 -0.2247  0.3033 -0.0805
 6447SOL    HW130974   2.021   4.337   9.332  0.0568  0.9977  0.1269
 6447SOL    HW230975   2.027   4.268   9.203  1.3215 -1.2726  1.4601
 6448SOL     OW30976   0.169   3.898   2.604 -0.2517  0.2624 -0.1339
 6448SOL    HW130977   0.182   3.992   2.613  0.2099  0.2608 -0.7708
 6448SOL    HW230978   0.079   3.894   2.636 -0.5630  1.3300 -0.8659
 6449SOL     OW30979   4.090   1.093   2.458  0.0589  0.0189  0.0358
 6449SOL    HW130980   4.053   1.117   2.543  2.1608 -0.7927  1.1512
 6449SOL    HW230981   4.184   1.105   2.463 -0.1763  0.6402  2.6330
 6450SOL     OW30982   3.054   0.363   5.817 -0.2744 -0.1102  0.6502
 6450SOL    HW130983   2.976   0.403   5.855 -1.4071 -0.3837 -1.3606
 6450SOL    HW230984   3.013   0.349   5.731  0.3837 -3.5909  0.9171
 6451SOL     OW30985   0.833   0.803   5.106 -0.0076  0.1767 -0.7940
 6451SOL    HW130986   0.740   0.813   5.087 -0.1984 -0.5088 -0.2267
 6451SOL    HW230987   0.842   0.708   5.107  1.8516  0.3425  0.0509
 6452SOL     OW30988   1.333   0.302  11.372 -0.3095  0.6925 -0.4054
 6452SOL    HW130989   1.246   0.334  11.349  0.2140  1.6942 -1.0303
 6452SOL    HW230990   1.338   0.337  11.461  1.2613 -0.5130 -0.0117
 6453SOL     OW30991   0.981   2.950  10.751 -0.2541 -0.4326  0.3438
 6453SOL    HW130992   1.005   2.954  10.843 -0.3417 -1.3608  0.4098
 6453SOL    HW230993   1.027   3.028  10.719 -0.5734 -0.2677  0.2896
 6454SOL     OW30994   3.342   3.811  12.811 -0.1554 -0.3133 -0.0302
 6454SOL    HW130995   3.349   3.903  12.788  1.2437 -0.1239  1.2108
 6454SOL    HW230996   3.432   3.779  12.803 -0.3194 -0.5790 -0.8842
 6455SOL     OW30997   2.293   0.074  13.824 -0.3615  0.3124 -0.5322
 6455SOL    HW130998   2.272   0.005  13.761  0.0241 -1.2022  1.0142
 6455SOL    HW230999   2.371   0.115  13.788  1.5290 -2.3960  0.4880
 6456SOL     OW31000   2.789   4.245  15.065 -0.1558 -0.1847  0.0320
 6456SOL    HW131001   2.734   4.299  15.122  2.2620  2.6028 -0.2437
 6456SOL    HW231002   2.728   4.201  15.007  0.4633 -1.0897  0.0676
 6457SOL     OW31003   1.677   4.708  10.237  0.3091 -0.1112 -0.0691
 6457SOL    HW131004   1.748   0.021  10.202  1.3413 -0.4372  1.5432
 6457SOL    HW231005   1.726   4.630  10.262  1.4346 -0.0716 -2.1199
 6458SOL     OW31006   4.201   1.515   6.927  0.7266 -0.0215 -0.2003
 6458SOL    HW131007   4.264   1.443   6.929 -0.4928 -1.1132 -1.3018
 6458SOL    HW231008   4.211   1.551   6.839 -4.7953 -0.7663 -1.1329
 6459SOL     OW31009   1.457   2.782   8.828  0.1281  1.0694  0.1404
 6459SOL    HW131010   1.432   2.736   8.908 -1.4218 -0.7523 -1.3658
 6459SOL    HW231011   1.515   2.846   8.869  2.5731 -0.6926 -0.5019
 6460SOL     OW31012   0.309   0.351   4.299  0.1356 -0.3301  0.1740
 6460SOL    HW131013   0.284   0.324   4.388  0.3110  0.5053  0.4817
 6460SOL    HW231014   0.234   0.404   4.272  2.1183  2.0802 -0.6469
 6461SOL     OW31015   2.786   3.938  11.375 -0.0172 -0.2063 -0.4487
 6461SOL    HW131016   2.870   3.983  11.383  0.1792 -0.7150  0.2450
 6461SOL    HW231017   2.716   4.002  11.389 -0.0828 -0.0393 -1.5070
 6462SOL     OW31018   4.516   0.443   4.925  0.3459 -0.2640  0.8290
 6462SOL    HW131019   4.543   0.354   4.901 -0.0645  0.2733 -1.6116
 6462SOL    HW231020   4.453   0.420   4.994 -1.1003 -3.1658 -1.4569
 6463SOL     OW31021   0.504   1.323  13.723  0.1227  0.0096  0.2096
 6463SOL    HW131022   0.487   1.241  13.677  2.0357 -0.9661  1.2665
 6463SOL    HW231023   0.549   1.298  13.803  0.8407  1.2411  0.2049
 6464SOL     OW31024   2.406   2.609   9.215 -0.2881 -0.0265  0.0228
 6464SOL    HW131025   2.443   2.522   9.202 -0.9596 -0.1994 -0.7506
 6464SOL    HW231026   2.331   2.597   9.273  0.4814 -0.0493  1.0157
 6465SOL     OW31027   2.872   3.263   0.128  0.0604  0.9137  0.2523
 6465SOL    HW131028   2.829   3.178   0.114 -1.3630  1.7820 -0.6217
 6465SOL    HW231029   2.960   3.224   0.131 -0.7980 -1.0247  0.7705
 6466SOL     OW31030   1.966   2.329   6.996  0.0140 -0.4645  0.5141
 6466SOL    HW131031   2.053   2.290   6.994  0.5435  0.8995 -2.0548
 6466SOL    HW231032   1.941   2.298   7.084 -0.8547 -1.0914  0.0484
 6467SOL     OW31033   2.342   0.700   9.302  0.5669 -0.1107 -0.5337
 6467SOL    HW131034   2.356   0.778   9.355 -0.9890 -0.4832  0.4126
 6467SOL    HW231035   2.412   0.699   9.236  0.0645 -0.4024 -1.0553
 6468SOL     OW31036   4.382   0.832  10.705 -0.5057  0.0042 -0.1364
 6468SOL    HW131037   4.331   0.789  10.636 -0.4626  1.6184 -1.1816
 6468SOL    HW231038   4.316   0.819  10.774 -0.1051 -0.1354  0.2202
 6469SOL     OW31039   0.313   3.236   9.943 -0.2734  0.7434 -0.1161
 6469SOL    HW131040   0.248   3.293   9.901 -1.0067 -0.3224 -0.4301
 6469SOL    HW231041   0.271   3.242  10.029 -2.0883 -1.4633 -0.8444
 6470SOL     OW31042   0.549   0.047   6.146  0.0439 -0.2496  0.4736
 6470SOL    HW131043   0.618   4.723   6.157 -0.8399 -1.3920 -0.8379
 6470SOL    HW231044   0.475   0.005   6.191  0.1249 -1.4804 -0.5348
 6471SOL     OW31045   0.834   3.221  10.070 -0.1525  0.4603  0.6794
 6471SOL    HW131046   0.787   3.261  10.143  0.9755 -1.4018  2.4024
 6471SOL    HW231047   0.784   3.266  10.002  1.6526 -2.9735 -2.9272
 6472SOL     OW31048   3.364   2.973  11.026 -0.4748 -0.0162  0.3033
 6472SOL    HW131049   3.397   3.063  11.028  1.0040 -0.5571  0.1261
 6472SOL    HW231050   3.271   2.997  11.019 -1.0242 -2.1752  0.2354
 6473SOL     OW31051   2.323   1.531   3.155 -0.4275  0.1311 -0.0016
 6473SOL    HW131052   2.230   1.506   3.157 -0.5155  0.2999 -1.7853
 6473SOL    HW231053   2.333   1.535   3.250 -1.5777 -0.7844  0.1549
 6474SOL     OW31054   1.292   0.883   3.133 -0.4273 -0.1339 -0.1602
 6474SOL    HW131055   1.283   0.912   3.043 -0.8928 -0.9725 -0.3879
 6474SOL    HW231056   1.351   0.951   3.165  0.4347 -1.3727  0.9266
 6475SOL     OW31057   3.171   3.932   5.749  0.2035  0.2796 -0.2500
 6475SOL    HW131058   3.095   3.921   5.805  1.7368  1.5379  2.0987
 6475SOL    HW231059   3.199   4.015   5.789 -1.0462  0.2107  0.7697
 6476SOL     OW31060   2.958   0.824   6.338  0.6769  0.4561 -0.6082
 6476SOL    HW131061   3.021   0.764   6.298 -2.1681 -2.1662 -1.1651
 6476SOL    HW231062   2.999   0.849   6.420 -0.6576 -1.0609  0.5079
 6477SOL     OW31063   0.094   3.790  13.963 -0.5977 -0.1402  0.3596
 6477SOL    HW131064   0.054   3.845  13.896  1.7723  3.9846  2.2699
 6477SOL    HW231065   0.183   3.826  13.965 -0.1676 -1.1515 -1.0941
 6478SOL     OW31066   0.856   0.648   7.910 -0.5267 -0.2210 -0.2825
 6478SOL    HW131067   0.764   0.663   7.929 -1.2779 -3.4560 -1.2960
 6478SOL    HW231068   0.854   0.680   7.820  0.6759 -0.1079 -0.2672
 6479SOL     OW31069   0.799   3.884  11.983  0.0380  0.7862  0.5938
 6479SOL    HW131070   0.771   3.844  12.065 -0.5110 -1.3445 -0.6449
 6479SOL    HW231071   0.870   3.941  12.013 -0.6093  1.6097  0.5405
 6480SOL     OW31072   3.043   0.478   6.699  0.1068 -0.2775  0.4366
 6480SOL    HW131073   3.067   0.445   6.613  0.5671 -3.0561  1.6183
 6480SOL    HW231074   2.960   0.432   6.712 -0.4837 -0.2268 -3.2421
 6481SOL     OW31075   1.971   2.105   7.200 -0.3857  0.1860  0.0418
 6481SOL    HW131076   1.938   2.161   7.270 -0.0337  1.9408 -1.1933
 6481SOL    HW231077   2.066   2.109   7.204 -0.4918  0.7228  2.1820
 6482SOL     OW31078   2.017   4.079   7.724  0.1751  0.2706  0.2694
 6482SOL    HW131079   2.035   3.986   7.710  0.9895  0.3604  0.7300
 6482SOL    HW231080   1.990   4.073   7.815 -0.1115  0.8370  0.2198
 6483SOL     OW31081   3.089   1.235   9.493 -0.2933  0.4794 -0.0228
 6483SOL    HW131082   3.170   1.265   9.451  0.2748 -1.9758 -0.6846
 6483SOL    HW231083   3.039   1.309   9.527  0.0446  0.1082  1.2483
 6484SOL     OW31084   4.319   1.357   3.070  0.0407  0.1205 -0.1963
 6484SOL    HW131085   4.338   1.450   3.063  0.4270  0.0279 -0.4275
 6484SOL    HW231086   4.359   1.350   3.157  0.5871  0.6516 -0.4069
 6485SOL     OW31087   1.171   1.923   9.630 -0.3434 -0.0042 -0.1060
 6485SOL    HW131088   1.149   1.997   9.573 -0.4722  0.5354  0.6460
 6485SOL    HW231089   1.106   1.932   9.699  1.0173  0.3672  1.1399
 6486SOL     OW31090   3.595   0.120   2.844 -0.7099 -0.6404 -0.2842
 6486SOL    HW131091   3.566   0.145   2.756  0.8461  0.3939 -0.5069
 6486SOL    HW231092   3.688   0.140   2.843 -1.1690  1.4817 -1.3113
 6487SOL     OW31093   1.077   3.324   2.580 -0.2555  0.5693 -0.2143
 6487SOL    HW131094   1.053   3.331   2.488  0.4320  0.8363 -0.3723
 6487SOL    HW231095   1.110   3.412   2.600  1.8986 -0.7736  2.0653
 6488SOL     OW31096   0.152   0.447  12.312  0.0499 -0.0547  0.8565
 6488SOL    HW131097   0.209   0.415  12.241  0.1764  2.3244 -0.1280
 6488SOL    HW231098   0.213   0.518  12.332  0.7598 -0.4757  0.1859
 6489SOL     OW31099   3.715   1.551   3.000  0.2433  0.0444  0.1422
 6489SOL    HW131100   3.742   1.490   2.932 -1.1300  1.1318 -1.3891
 6489SOL    HW231101   3.792   1.609   2.998 -0.2460  0.7050  0.3823
 6490SOL     OW31102   2.895   0.675   6.909  0.1317  0.4672 -0.1815
 6490SOL    HW131103   2.829   0.613   6.939  2.4578 -0.6227  2.6447
 6490SOL    HW231104   2.982   0.649   6.938 -0.0630 -0.6030 -0.5626
 6491SOL     OW31105   0.330   3.421  15.458  0.2767 -0.0702 -0.1792
 6491SOL    HW131106   0.302   3.395  15.371  1.3350 -1.8880  0.0288
 6491SOL    HW231107   0.340   3.515  15.444 -0.4096  0.0577  0.1704
 6492SOL     OW31108   0.243   1.001   5.056 -0.0108  0.4125 -0.7109
 6492SOL    HW131109   0.219   1.036   5.142 -0.3304 -0.9174 -0.2609
 6492SOL    HW231110   0.200   1.057   4.990  0.4973  1.8107  0.1347
 6493SOL     OW31111   3.274   0.984   7.633 -0.0784 -0.5442  0.2607
 6493SOL    HW131112   3.198   0.933   7.662  0.7575 -2.5693 -1.1017
 6493SOL    HW231113   3.345   0.920   7.639  0.9617  0.4383 -1.5532
 6494SOL     OW31114   4.648   3.738  15.877  0.5714 -0.5260 -0.1896
 6494SOL    HW131115   4.573   3.688  15.908  2.2028 -1.2316  2.6384
 6494SOL    HW231116   4.699   3.669  15.834  1.4064 -1.5868  2.5016
 6495SOL     OW31117   2.690   0.306   5.165 -0.1668 -0.6006 -0.1368
 6495SOL    HW131118   2.753   0.320   5.094 -0.7102 -2.2683 -0.9608
 6495SOL    HW231119   2.743   0.318   5.243 -0.9772 -3.0821  0.7848
 6496SOL     OW31120   2.196   1.966   1.968 -0.5550 -0.0312 -0.6930
 6496SOL    HW131121   2.178   1.893   2.027  0.1190  1.0584  0.8711
 6496SOL    HW231122   2.262   1.924   1.912  1.0736  1.3766  0.1668
 6497SOL     OW31123   1.039   2.474   3.559  0.0763  0.7988 -0.8043
 6497SOL    HW131124   1.065   2.538   3.625  0.3793 -1.5785  1.3818
 6497SOL    HW231125   1.010   2.533   3.489 -0.4403  1.8632  0.3214
 6498SOL     OW31126   4.105   2.613   1.385 -0.2639 -0.0333 -0.0522
 6498SOL    HW131127   4.130   2.693   1.430 -0.5024  0.7081 -1.2326
 6498SOL    HW231128   4.091   2.650   1.298 -0.9781  0.6816  0.3664
 6499SOL     OW31129   4.557   0.166   5.521  0.0887  0.5261  0.0112
 6499SOL    HW131130   4.649   0.161   5.546  0.3827  0.5576 -1.0413
 6499SOL    HW231131   4.510   0.135   5.598  1.2125 -0.3510  0.3559
 6500SOL     OW31132   0.826   2.958   3.050  0.2228  0.6376 -0.9584
 6500SOL    HW131133   0.887   3.030   3.033  1.9079 -0.6140 -0.2383
 6500SOL    HW231134   0.757   3.004   3.097 -0.4538  2.2023 -3.4617
 6501SOL     OW31135   1.898   1.732  15.668 -0.4359 -0.5731  0.0172
 6501SOL    HW131136   1.940   1.779  15.740 -0.8197  0.2270 -0.2807
 6501SOL    HW231137   1.967   1.742  15.602 -0.6947 -1.4109 -0.3800
 6502SOL     OW31138   1.927   1.869  13.226 -0.2486  0.0709 -0.5435
 6502SOL    HW131139   2.018   1.884  13.255 -0.7221 -0.8098  1.4285
 6502SOL    HW231140   1.890   1.825  13.303 -1.2791 -0.4571 -1.3485
 6503SOL     OW31141   0.429   4.422   5.843  0.4477  0.5732 -0.5704
 6503SOL    HW131142   0.499   4.473   5.882 -0.2362  0.0736  1.3015
 6503SOL    HW231143   0.469   4.392   5.761  1.6563  1.3569 -0.2667
 6504SOL     OW31144   0.779   0.857   3.068 -0.4036 -0.3505  0.9505
 6504SOL    HW131145   0.831   0.777   3.055 -0.2172 -0.3366  1.5873
 6504SOL    HW231146   0.792   0.876   3.161 -1.0660 -0.8628  1.1540
 6505SOL     OW31147   1.006   2.425  13.815  0.0507 -0.3687 -0.9124
 6505SOL    HW131148   1.009   2.519  13.797 -0.7006 -0.2415 -0.3968
 6505SOL    HW231149   0.911   2.412  13.807 -0.0878  0.1988 -0.1812
 6506SOL     OW31150   0.537   0.251  11.020  0.0291 -0.3563 -0.6565
 6506SOL    HW131151   0.585   0.299  11.087 -0.2460 -0.0375 -0.6882
 6506SOL    HW231152   0.569   0.284  10.936 -0.8668  0.8370 -0.5330
 6507SOL     OW31153   4.614   3.400   7.972 -0.9846 -0.5599 -0.5017
 6507SOL    HW131154   4.525   3.366   7.968 -1.0714 -0.4477  0.7244
 6507SOL    HW231155   4.599   3.489   8.003  0.4585 -0.4133 -0.2536
 6508SOL     OW31156   0.896   2.874   7.701 -0.5737 -0.2187  0.0734
 6508SOL    HW131157   0.829   2.825   7.652 -1.1222 -1.2935  1.9107
 6508SOL    HW231158   0.843   2.900   7.776 -1.0984 -0.0794 -0.3423
 6509SOL     OW31159   4.625   0.591   1.652 -0.2426  0.2167 -0.3972
 6509SOL    HW131160   4.625   0.668   1.710 -1.8366 -1.3706  1.6781
 6509SOL    HW231161   4.588   0.527   1.712  1.1767 -1.7962 -1.6616
 6510SOL     OW31162   1.365   2.995  13.654 -0.4286 -0.0777 -0.0007
 6510SOL    HW131163   1.357   3.002  13.749  2.2034 -3.3584  0.4302
 6510SOL    HW231164   1.429   2.925  13.652 -0.3380  0.0744 -2.3182
 6511SOL     OW31165   0.103   2.512   2.734  0.0614  0.4975  0.1069
 6511SOL    HW131166   0.143   2.596   2.754  2.0979  0.3197 -3.1425
 6511SOL    HW231167   0.052   2.538   2.657  0.6180 -0.4274 -0.5857
 6512SOL     OW31168   0.879   3.348   6.918 -0.3505  0.1828 -0.6670
 6512SOL    HW131169   0.933   3.372   6.842  0.5724  1.2296  0.3195
 6512SOL    HW231170   0.849   3.258   6.903 -1.2622 -0.2754  4.1370
 6513SOL     OW31171   0.706   0.976   4.765  0.5624 -0.5577 -0.3156
 6513SOL    HW131172   0.796   0.946   4.750  1.0393  0.5541  0.2953
 6513SOL    HW231173   0.662   0.905   4.811  0.1261 -0.0625  0.0411
 6514SOL     OW31174   1.011   4.219   7.605  0.0310 -0.9580  0.1501
 6514SOL    HW131175   1.045   4.131   7.621  0.6282 -1.0699 -1.7877
 6514SOL    HW231176   0.948   4.238   7.675 -1.3446 -1.3786 -0.9650
 6515SOL     OW31177   0.388   1.929   6.424  0.7285  0.4342  0.1735
 6515SOL    HW131178   0.397   2.019   6.458  0.0295  0.8510 -0.7296
 6515SOL    HW231179   0.476   1.899   6.403  0.1265 -1.1377 -0.0642
 6516SOL     OW31180   0.231   0.910   6.418 -0.1891 -0.4601  0.0974
 6516SOL    HW131181   0.168   0.921   6.346 -1.0529 -1.4421  0.7046
 6516SOL    HW231182   0.188   0.952   6.492  2.5419  1.4678  0.5650
 6517SOL     OW31183   0.027   0.516   2.389  0.5556 -0.1647  0.0726
 6517SOL    HW131184   0.013   0.437   2.337 -0.7461  0.2559 -0.2155
 6517SOL    HW231185   0.031   0.478   2.477 -1.6960 -0.5201  0.0218
 6518SOL     OW31186   3.230   1.036   1.601  0.1581  0.3559  0.8108
 6518SOL    HW131187   3.273   0.976   1.663  2.8784  2.0901  0.6017
 6518SOL    HW231188   3.283   1.016   1.524  0.2088  0.3928  0.8356
 6519SOL     OW31189   1.468   0.475   8.768 -0.2197  0.2735  0.2857
 6519SOL    HW131190   1.557   0.500   8.795  0.2591  0.4743 -1.4424
 6519SOL    HW231191   1.424   0.557   8.745  0.8401  1.1415  1.3732
 6520SOL     OW31192   2.793   3.960   4.726 -0.4183 -0.3676  0.3151
 6520SOL    HW131193   2.812   3.935   4.817 -1.8365 -1.1238  0.3990
 6520SOL    HW231194   2.770   4.052   4.716 -1.8200 -0.7709 -0.1309
 6521SOL     OW31195   4.729   2.790  14.705  0.4855 -0.8969 -0.2040
 6521SOL    HW131196   0.054   2.841  14.658  0.7783 -1.3315 -0.2609
 6521SOL    HW231197   4.685   2.860  14.752  0.0195 -0.8109 -0.7650
 6522SOL     OW31198   3.482   4.222  11.835  0.2643  0.1626 -1.2585
 6522SOL    HW131199   3.483   4.155  11.904 -2.0501 -0.7082 -2.0878
 6522SOL    HW231200   3.492   4.163  11.760 -2.0947 -0.5090 -1.0400
 6523SOL     OW31201   1.109   2.996  14.173  0.1215 -0.0610 -0.4271
 6523SOL    HW131202   1.103   3.068  14.110 -1.4245  3.4724  3.7537
 6523SOL    HW231203   1.174   2.937  14.136 -0.2961 -1.2314  0.6854
 6524SOL     OW31204   4.710   3.017   4.799  0.0973  0.1142 -0.3688
 6524SOL    HW131205   0.017   2.940   4.825 -0.1834 -0.2643 -0.9648
 6524SOL    HW231206   0.013   3.087   4.846  1.2224 -1.4672  0.8593
 6525SOL     OW31207   2.347   2.440   1.752  0.2228  0.2436 -0.3655
 6525SOL    HW131208   2.411   2.372   1.774 -1.9469 -1.2744  1.3073
 6525SOL    HW231209   2.406   2.492   1.699  1.8801 -0.0997  1.1306
 6526SOL     OW31210   1.397   1.694  15.926  0.0221  0.6832  0.4840
 6526SOL    HW131211   1.304   1.703  15.907 -0.1583  3.0860  2.4930
 6526SOL    HW231212   1.417   1.615  15.877  0.8594  2.3241 -1.7987
 6527SOL     OW31213   0.646   1.389   4.641  0.3148  0.2944 -0.1858
 6527SOL    HW131214   0.644   1.482   4.665 -0.1788 -0.4331  2.5604
 6527SOL    HW231215   0.591   1.352   4.709 -1.7161  2.1085 -0.8304
 6528SOL     OW31216   2.933   2.278  17.702  0.2339  0.4728  0.0390
 6528SOL    HW131217   2.991   2.314  17.636  0.8487 -3.4575 -1.5543
 6528SOL    HW231218   2.846   2.258  17.668  0.7224 -2.4998  0.5735
 6529SOL     OW31219   2.449   3.618   3.354  0.0298 -0.0198  0.7846
 6529SOL    HW131220   2.534   3.660   3.344  0.3911 -0.8086  0.5892
 6529SOL    HW231221   2.394   3.697   3.355  0.0583  0.0384 -0.7607
 6530SOL     OW31222   3.797   2.258   2.025 -0.1803  0.3897  0.0175
 6530SOL    HW131223   3.728   2.265   1.960  0.5497  2.3181 -0.5558
 6530SOL    HW231224   3.827   2.349   2.033 -1.8825  1.0924 -1.6962
 6531SOL     OW31225   1.850   4.632   7.292  0.5652 -0.0360  0.6897
 6531SOL    HW131226   1.794   4.555   7.284  1.4441 -0.7186  1.0556
 6531SOL    HW231227   1.842   4.651   7.385 -2.2872  3.5961 -0.3116
 6532SOL     OW31228   4.639   4.376   1.400 -0.9228  0.1752  0.6220
 6532SOL    HW131229   4.571   4.352   1.338 -1.1286 -0.6984  1.1896
 6532SOL    HW231230   4.590   4.403   1.477  0.2514 -0.2600  1.5224
 6533SOL     OW31231   2.289   3.471   3.172  0.5274  0.3750  0.1594
 6533SOL    HW131232   2.342   3.520   3.235 -0.5596  1.4223  0.2550
 6533SOL    HW231233   2.338   3.483   3.091  0.2883  2.9869  0.3865
 6534SOL     OW31234   1.102   0.987  15.058 -0.3278 -0.0042 -0.2524
 6534SOL    HW131235   1.096   1.036  14.976 -0.4935 -0.5528 -0.5683
 6534SOL    HW231236   1.048   0.913  15.030  1.5321 -1.2516 -0.4670
 6535SOL     OW31237   3.179   2.618   9.870 -0.0116  0.4058  0.0786
 6535SOL    HW131238   3.247   2.664   9.919 -0.4130  1.3416 -0.2395
 6535SOL    HW231239   3.152   2.687   9.809 -0.7835 -0.7459 -0.8854
 6536SOL     OW31240   3.054   1.469   0.409 -0.1987 -0.1797 -0.7806
 6536SOL    HW131241   3.140   1.502   0.382  0.0457  1.0238  1.4094
 6536SOL    HW231242   2.997   1.542   0.384  0.6734  1.4089  1.8591
 6537SOL     OW31243   3.970   4.424   7.954  0.1651  0.8944 -0.1208
 6537SOL    HW131244   3.953   4.330   7.962 -0.3957  1.0445  0.4127
 6537SOL    HW231245   3.902   4.459   8.011 -0.1565 -1.9301  1.2326
 6538SOL     OW31246   3.573   4.433  11.958 -0.1324  0.3962  0.4623
 6538SOL    HW131247   3.523   4.356  11.930 -0.2692  0.5521  0.2780
 6538SOL    HW231248   3.601   4.466  11.872  1.0452  1.1099  1.1149
 6539SOL     OW31249   0.295   2.497   1.227  0.0521 -0.1052 -0.1716
 6539SOL    HW131250   0.344   2.577   1.207  2.4945 -1.8853 -1.3028
 6539SOL    HW231251   0.341   2.438   1.168  1.0554  1.0612 -0.5539
 6540SOL     OW31252   0.142   1.454   6.619  0.1489  0.1041  0.2539
 6540SOL    HW131253   0.117   1.522   6.682 -0.8436 -0.1744  0.1634
 6540SOL    HW231254   0.230   1.482   6.596  0.2650 -0.1631  0.3640
 6541SOL     OW31255   1.637   0.678   8.144 -0.5357  0.4911 -0.4507
 6541SOL    HW131256   1.555   0.634   8.166 -0.9373  2.3176  1.5892
 6541SOL    HW231257   1.652   0.742   8.213  1.5950 -0.8365  0.3460
 6542SOL     OW31258   0.795   4.381   0.154 -0.1470 -0.1591 -0.4557
 6542SOL    HW131259   0.772   4.317   0.220 -2.4213  1.0271 -0.1226
 6542SOL    HW231260   0.772   4.328   0.078  0.7966 -1.4577  0.1778
 6543SOL     OW31261   1.447   3.080  15.659 -0.1652  0.2413 -0.0928
 6543SOL    HW131262   1.427   3.149  15.595 -0.2815  0.4847  0.2005
 6543SOL    HW231263   1.452   3.005  15.600  2.1692  0.7392 -0.4934
 6544SOL     OW31264   1.893   4.311  11.788 -0.1161 -0.5583 -0.2913
 6544SOL    HW131265   1.881   4.316  11.693  2.4322  1.0865 -0.5322
 6544SOL    HW231266   1.864   4.397  11.818 -2.0467 -1.3698  0.1505
 6545SOL     OW31267   4.349   2.678   1.674  0.0366 -0.6990 -0.0429
 6545SOL    HW131268   4.390   2.677   1.761 -1.6537  0.4978  0.7676
 6545SOL    HW231269   4.259   2.674   1.706 -0.2254 -1.1554 -0.8453
 6546SOL     OW31270   4.666   2.389  10.241  0.4576 -0.0017 -0.6392
 6546SOL    HW131271   4.680   2.436  10.159  0.7235  0.8889 -0.0813
 6546SOL    HW231272   4.665   2.457  10.309 -0.7385 -1.7038  1.0594
 6547SOL     OW31273   4.106   2.935  13.645 -0.4628  0.2566 -0.8787
 6547SOL    HW131274   4.146   2.933  13.558  0.7932 -0.0440 -0.2952
 6547SOL    HW231275   4.103   3.029  13.662  0.7453 -0.2056  1.9152
 6548SOL     OW31276   1.236   3.095   6.728  0.5230  0.3811  0.0593
 6548SOL    HW131277   1.285   3.144   6.794 -1.5933  1.9825  0.4111
 6548SOL    HW231278   1.283   3.106   6.645 -0.7540  1.3900 -0.5229
 6549SOL     OW31279   3.494   0.612   9.690 -0.3234 -0.3764  0.0054
 6549SOL    HW131280   3.474   0.565   9.772  0.0305  0.8118  0.7696
 6549SOL    HW231281   3.576   0.657   9.710 -0.9594  0.5192  0.5890
 6550SOL     OW31282   2.289   4.184  13.987  0.1459 -0.4653  0.0215
 6550SOL    HW131283   2.345   4.205  13.912  0.0802  0.4215  0.2251
 6550SOL    HW231284   2.266   4.271  14.019  1.6356  0.0362 -0.2632
 6551SOL     OW31285   2.277   2.670  16.085  0.2762 -0.4298  0.0969
 6551SOL    HW131286   2.320   2.638  16.165 -0.7142 -0.6917  0.5326
 6551SOL    HW231287   2.343   2.675  16.016  0.4361 -0.7448  0.2260
 6552SOL     OW31288   3.073   3.799   9.907  0.1810 -0.9661 -0.2837
 6552SOL    HW131289   3.167   3.784   9.909  0.3031 -0.3439 -1.4553
 6552SOL    HW231290   3.058   3.835   9.820  0.2094 -3.2492 -1.2149
 6553SOL     OW31291   1.726   0.067  17.125 -0.0322 -0.5507  0.0212
 6553SOL    HW131292   1.703   0.030  17.211  0.8196  0.7455  0.8171
 6553SOL    HW231293   1.791   4.741  17.109 -0.4836 -0.9871  0.0309
 6554SOL     OW31294   3.465   2.409   2.785 -0.2484 -0.2490 -0.9757
 6554SOL    HW131295   3.498   2.406   2.875 -0.0990  0.2859 -1.0114
 6554SOL    HW231296   3.385   2.357   2.795 -0.8552  0.9708  0.4860
 6555SOL     OW31297   3.135   3.549  15.864  0.5937 -0.1190 -0.6844
 6555SOL    HW131298   3.076   3.475  15.877  0.2441  0.2449 -0.1845
 6555SOL    HW231299   3.091   3.624  15.904 -0.2853 -1.9512  1.7951
 6556SOL     OW31300   4.387   4.154   3.215  0.0201 -0.5708  0.2556
 6556SOL    HW131301   4.399   4.077   3.271  0.6318  0.8302  2.0831
 6556SOL    HW231302   4.455   4.211   3.252 -0.6170  0.0956  0.4044
 6557SOL     OW31303   0.178   1.908   3.686 -0.0321 -0.5659  0.1426
 6557SOL    HW131304   0.240   1.938   3.619 -0.3484  0.4218  0.2986
 6557SOL    HW231305   0.216   1.933   3.770 -0.4798  3.6049 -0.9176
 6558SOL     OW31306   3.594   0.346   9.150 -0.1009  0.1765 -0.1126
 6558SOL    HW131307   3.686   0.340   9.174  0.0732  0.4209 -0.7553
 6558SOL    HW231308   3.547   0.344   9.234  1.0282 -1.9946  0.4754
 6559SOL     OW31309   2.468   3.133   7.977 -0.3426 -0.4251 -0.1021
 6559SOL    HW131310   2.501   3.172   8.058 -0.3070 -2.8375  1.0324
 6559SOL    HW231311   2.490   3.195   7.907 -1.1366  0.9750  0.8996
 6560SOL     OW31312   2.633   3.201   2.453 -0.1160  0.7999 -0.1468
 6560SOL    HW131313   2.667   3.263   2.388  1.1618  0.5342  0.2591
 6560SOL    HW231314   2.717   3.175   2.491 -1.5283 -1.0077  1.7148
 6561SOL     OW31315   0.235   4.455   6.556 -0.0162 -0.4929  0.0215
 6561SOL    HW131316   0.199   4.394   6.492  1.8617  0.5305 -1.9788
 6561SOL    HW231317   0.195   4.536   6.525 -0.3107 -0.7893 -0.3714
 6562SOL     OW31318   1.754   3.304   4.977 -0.1663 -0.1381  0.3237
 6562SOL    HW131319   1.759   3.275   5.068  1.5685 -1.0314 -0.0385
 6562SOL    HW231320   1.804   3.233   4.937  0.1308  1.4225 -2.0428
 6563SOL     OW31321   1.071   0.096   0.123 -0.0912  0.9453  0.3814
 6563SOL    HW131322   0.985   0.131   0.100  0.5783  0.6623 -2.5687
 6563SOL    HW231323   1.067   0.004   0.096  0.6757  0.3932  2.2034
 6564SOL     OW31324   2.312   1.714   8.156 -0.3163  0.2677  0.5805
 6564SOL    HW131325   2.273   1.723   8.070 -0.9295  0.4928  0.8798
 6564SOL    HW231326   2.303   1.804   8.189  0.8872  0.0195  1.6121
 6565SOL     OW31327   0.640   4.547   6.796  0.3754  0.0365 -0.2347
 6565SOL    HW131328   0.603   4.636   6.799  1.9137  0.7020 -0.7816
 6565SOL    HW231329   0.599   4.521   6.714 -1.0028  0.4361  0.3378
 6566SOL     OW31330   0.386   1.055   5.739 -0.4229  0.0149  0.1813
 6566SOL    HW131331   0.444   1.120   5.779 -0.0986 -0.6526  0.7789
 6566SOL    HW231332   0.403   1.058   5.645 -0.6695 -1.0823  0.1058
 6567SOL     OW31333   3.495   0.924   3.421 -0.9264 -0.4003 -0.1698
 6567SOL    HW131334   3.551   0.937   3.345  0.7015 -0.5912  0.9824
 6567SOL    HW231335   3.417   0.968   3.386 -0.1443  1.4896  0.4810
 6568SOL     OW31336   2.524   2.209   0.607 -0.1250 -0.3786 -0.2177
 6568SOL    HW131337   2.484   2.131   0.569 -1.3006  0.2636 -0.3098
 6568SOL    HW231338   2.590   2.164   0.660 -1.6364  1.1506  2.9758
 6569SOL     OW31339   0.582   0.219  16.245 -0.1261 -0.4677  0.4146
 6569SOL    HW131340   0.656   0.167  16.215 -0.1878 -0.3728  0.1028
 6569SOL    HW231341   0.597   0.309  16.214  1.3677 -1.8171 -2.7522
 6570SOL     OW31342   0.807   4.215  16.624 -0.3550 -0.6534  0.8787
 6570SOL    HW131343   0.720   4.195  16.590  0.9268  0.2045 -2.8177
 6570SOL    HW231344   0.813   4.154  16.698  1.0577 -1.2062  0.3070
 6571SOL     OW31345   2.237   2.837   1.943 -0.0493  0.0485  0.2116
 6571SOL    HW131346   2.222   2.932   1.946  1.7634  0.3025  1.5521
 6571SOL    HW231347   2.162   2.810   1.890  0.6094  1.7408 -1.5898
 6572SOL     OW31348   3.039   3.659   4.992 -0.2365 -0.4641  0.6561
 6572SOL    HW131349   3.059   3.670   5.084 -0.8992  1.5435  0.5484
 6572SOL    HW231350   3.052   3.566   4.971 -2.9476 -0.7115  0.0520
 6573SOL     OW31351   1.736   3.963   8.841 -0.1744 -0.4848  0.5123
 6573SOL    HW131352   1.732   4.041   8.896 -2.2327 -0.2936  0.0984
 6573SOL    HW231353   1.773   3.893   8.896  1.5845  1.0176  1.2228
 6574SOL     OW31354   0.608   3.990   6.208  0.1708 -0.5298 -0.4142
 6574SOL    HW131355   0.633   4.024   6.122  0.5891  1.3962  0.4672
 6574SOL    HW231356   0.640   4.057   6.268  0.8497 -1.3353  0.1342
 6575SOL     OW31357   0.421   4.326   2.885 -0.4151 -0.0529 -0.1726
 6575SOL    HW131358   0.401   4.328   2.791  0.6813 -1.0817 -0.4296
 6575SOL    HW231359   0.516   4.337   2.890 -0.2991 -2.6953  3.0822
 6576SOL     OW31360   2.243   4.711   4.869  0.3695  0.1706 -0.5770
 6576SOL    HW131361   2.238   4.719   4.964 -0.0041 -1.5789 -0.4547
 6576SOL    HW231362   2.220   0.056   4.838 -0.8281  0.1618  0.2676
 6577SOL     OW31363   1.976   2.089  15.368  0.3319 -0.4200  0.0729
 6577SOL    HW131364   2.050   2.121  15.316 -0.9516  0.4764 -1.2093
 6577SOL    HW231365   1.991   2.125  15.455 -2.7630 -1.6122  1.0888
 6578SOL     OW31366   1.239   2.242   7.274  0.0210  0.5432 -0.3646
 6578SOL    HW131367   1.295   2.275   7.344 -2.4305 -0.3790  1.9915
 6578SOL    HW231368   1.204   2.325   7.244 -0.8218 -0.0177 -0.9190
 6579SOL     OW31369   1.171   2.168   4.030  0.0222 -0.0279 -0.1889
 6579SOL    HW131370   1.240   2.154   4.095 -0.2944 -2.5063 -0.3943
 6579SOL    HW231371   1.103   2.215   4.078  0.9854  1.9044 -0.6951
 6580SOL     OW31372   0.526   1.891  10.879  0.2679 -1.1014  0.0589
 6580SOL    HW131373   0.507   1.856  10.966  2.1428 -0.4621  0.7220
 6580SOL    HW231374   0.473   1.836  10.822 -3.0188  2.3542 -0.2759
 6581SOL     OW31375   4.738   2.183  16.663  0.4273  0.5128 -0.3482
 6581SOL    HW131376   4.717   2.106  16.610 -0.7964 -0.0679  0.9849
 6581SOL    HW231377   4.669   2.246  16.643  0.2494  0.3479 -0.2565
 6582SOL     OW31378   1.703   4.022   7.280 -0.5406  0.2479  0.0721
 6582SOL    HW131379   1.766   3.999   7.212 -1.4204 -0.1332 -0.6264
 6582SOL    HW231380   1.692   4.110   7.243 -0.9730  0.7075  1.3102
 6583SOL     OW31381   3.478   3.627   3.020  0.4101  0.8794 -0.5414
 6583SOL    HW131382   3.540   3.558   3.045  0.3346  0.6687 -0.9321
 6583SOL    HW231383   3.462   3.612   2.927  0.6648 -0.2352 -0.4029
 6584SOL     OW31384   1.815   4.119  14.800 -0.1254  0.1107  0.8247
 6584SOL    HW131385   1.834   4.206  14.765  0.4532 -1.1048 -1.8951
 6584SOL    HW231386   1.734   4.135  14.848 -1.6401 -0.1448 -1.6560
 6585SOL     OW31387   4.447   2.617   1.991 -0.3280  0.1982 -0.0882
 6585SOL    HW131388   4.363   2.649   2.025  0.9332  0.9291  2.3125
 6585SOL    HW231389   4.482   2.698   1.952 -0.9288  1.1816  1.4023
 6586SOL     OW31390   0.074   0.664   1.899  0.4843 -0.7922 -0.1565
 6586SOL    HW131391   0.148   0.703   1.945  0.1896 -1.5760  0.9924
 6586SOL    HW231392   0.119   0.615   1.830  1.6872  0.6277 -0.3851
 6587SOL     OW31393   2.398   0.105   2.145 -0.3631  0.0818 -0.3873
 6587SOL    HW131394   2.481   0.152   2.154  0.7968 -1.9364 -0.4839
 6587SOL    HW231395   2.336   0.174   2.166 -1.5447 -0.9599 -0.4268
 6588SOL     OW31396   1.551   2.775   6.733 -0.1771 -0.3306  0.5936
 6588SOL    HW131397   1.584   2.847   6.786 -1.1710  2.1583 -2.2179
 6588SOL    HW231398   1.458   2.798   6.732  0.4781  2.1472 -1.5360
 6589SOL     OW31399   2.031   4.064  14.640 -0.1583  0.2342 -0.2543
 6589SOL    HW131400   1.958   4.075  14.701  0.9674 -0.5588  1.2485
 6589SOL    HW231401   2.096   4.020  14.696 -1.4556  0.6427  1.5585
 6590SOL     OW31402   3.129   3.272   1.592 -0.7726  0.4911  0.0170
 6590SOL    HW131403   3.151   3.303   1.680 -3.4055 -1.2710  1.2786
 6590SOL    HW231404   3.192   3.201   1.580 -1.7376 -0.3217 -0.2612
 6591SOL     OW31405   2.710   2.381   0.737  0.1196  0.3984 -0.1443
 6591SOL    HW131406   2.664   2.335   0.667 -0.7205  2.1489 -0.7362
 6591SOL    HW231407   2.750   2.445   0.678  1.4949 -0.7197 -0.4443
 6592SOL     OW31408   4.473   4.619   4.968  0.2249 -0.1839  0.4485
 6592SOL    HW131409   4.548   4.672   4.995 -0.8054 -0.1392  3.2529
 6592SOL    HW231410   4.508   4.531   4.981 -3.7212 -1.7235  0.4981
 6593SOL     OW31411   3.672   3.066   2.810  0.0751 -0.0341  0.1461
 6593SOL    HW131412   3.682   3.155   2.777 -0.4419 -0.2456 -0.5659
 6593SOL    HW231413   3.705   3.080   2.899 -0.1641 -0.0499  0.2406
 6594SOL     OW31414   0.878   1.482  17.467  0.3405 -0.3627  0.4265
 6594SOL    HW131415   0.959   1.516  17.429 -0.3206 -0.1158 -0.7984
 6594SOL    HW231416   0.873   1.533  17.547  1.3230  1.2022 -0.5052
 6595SOL     OW31417   3.774   2.750  17.398  0.1499  0.1869  0.1632
 6595SOL    HW131418   3.828   2.776  17.323 -1.2652  0.8200 -0.6545
 6595SOL    HW231419   3.789   2.828  17.451 -0.5481 -1.2800  2.4924
 6596SOL     OW31420   4.636   2.307   1.266 -0.3439  0.1414  0.0337
 6596SOL    HW131421   4.614   2.358   1.187  1.6871  0.6183 -0.2322
 6596SOL    HW231422   4.612   2.367   1.336 -0.9102 -0.6587  0.5350
 6597SOL     OW31423   4.422   1.259  15.963 -0.4398 -0.0676 -0.1380
 6597SOL    HW131424   4.472   1.335  15.932 -2.5153  0.6272 -1.7844
 6597SOL    HW231425   4.476   1.180  15.957  0.2329  0.4499 -0.9421
 6598SOL     OW31426   2.339   2.051   4.830  0.7253  0.0525  0.5874
 6598SOL    HW131427   2.286   2.059   4.751  0.4062 -0.4000  0.7549
 6598SOL    HW231428   2.424   2.087   4.804  0.1798 -0.1448 -1.4267
 6599SOL     OW31429   1.048   4.256   4.375 -0.1008  0.6607  0.5745
 6599SOL    HW131430   1.107   4.320   4.334  0.5404 -0.9201 -0.9957
 6599SOL    HW231431   0.986   4.226   4.309  1.2290 -1.9469  0.5291
 6600SOL     OW31432   3.232   1.061   6.580  0.0781 -0.2907  0.1842
 6600SOL    HW131433   3.187   1.029   6.659  1.6001  0.4090  1.3461
 6600SOL    HW231434   3.218   0.979   6.534  1.9843 -2.7107  3.9406
 6601SOL     OW31435   2.538   1.708   4.416 -0.2916 -0.2914 -0.4205
 6601SOL    HW131436   2.613   1.729   4.471 -1.3486 -2.0909  1.6992
 6601SOL    HW231437   2.587   1.646   4.361  0.8959 -1.3908  1.8885
 6602SOL     OW31438   1.020   4.004   5.560  0.0077 -0.0448 -0.0162
 6602SOL    HW131439   1.104   4.043   5.585 -1.8501  3.4639  0.6436
 6602SOL    HW231440   1.020   3.908   5.566  1.3757  0.0403  1.4272
 6603SOL     OW31441   2.719   4.390   5.826 -0.1536  0.5362  0.0246
 6603SOL    HW131442   2.629   4.379   5.796 -0.7236  5.0123  0.1074
 6603SOL    HW231443   2.765   4.442   5.761  1.4864 -0.6251  0.2616
 6604SOL     OW31444   3.018   2.102   5.006  0.0151  0.3028  0.1400
 6604SOL    HW131445   3.110   2.096   4.978  0.7321  2.3776  2.0578
 6604SOL    HW231446   2.990   2.191   4.983 -2.5729 -1.2367 -2.6300
 6605SOL     OW31447   1.339   2.545   8.025 -0.1205  0.1725 -0.1968
 6605SOL    HW131448   1.408   2.565   8.089 -1.5622 -1.1953  1.7872
 6605SOL    HW231449   1.331   2.451   8.041  2.4983 -0.1597 -0.9529
 6606SOL     OW31450   2.998   0.909  13.989 -0.2976  0.0693  0.7762
 6606SOL    HW131451   3.081   0.864  13.972 -0.9651 -0.1285 -1.9438
 6606SOL    HW231452   3.034   0.981  14.041 -0.8177  0.0080  1.2242
 6607SOL     OW31453   4.015   1.795  15.188  0.2064 -0.4372  0.6455
 6607SOL    HW131454   4.005   1.840  15.104  0.7568 -0.5397  0.5268
 6607SOL    HW231455   4.029   1.869  15.248 -0.0717 -0.2901  0.5304
 6608SOL     OW31456   2.849   4.345  12.642 -0.3456  0.3562  0.5863
 6608SOL    HW131457   2.829   4.252  12.641  1.1375  0.1043 -4.4895
 6608SOL    HW231458   2.801   4.380  12.718  0.2612  2.7709 -0.1213
 6609SOL     OW31459   1.194   3.721  16.529  0.3860  0.4618 -0.0713
 6609SOL    HW131460   1.236   3.771  16.459  0.3424  0.9024  0.2162
 6609SOL    HW231461   1.191   3.634  16.489  0.5094  1.5503 -2.4337
 6610SOL     OW31462   1.601   4.519  10.995 -0.6396 -0.0662 -0.7776
 6610SOL    HW131463   1.530   4.552  11.050 -0.0002  0.8324 -0.4838
 6610SOL    HW231464   1.657   4.597  10.993 -1.6226  0.6349 -1.2412
 6611SOL     OW31465   3.638   0.938   4.015 -0.1808  0.5948  0.4655
 6611SOL    HW131466   3.647   1.033   4.025 -0.3401  0.6807 -0.1598
 6611SOL    HW231467   3.690   0.923   3.935  0.9439 -0.6275  1.4304
 6612SOL     OW31468   0.427   0.610   6.630 -0.6508  0.2980  0.4435
 6612SOL    HW131469   0.512   0.578   6.661 -1.2312 -2.1482 -0.4917
 6612SOL    HW231470   0.378   0.608   6.712 -1.4089 -2.3943 -0.0809
 6613SOL     OW31471   3.013   2.020   7.669 -0.0667 -0.0256 -0.2421
 6613SOL    HW131472   3.064   2.094   7.635 -0.8808  1.5580  1.9912
 6613SOL    HW231473   3.079   1.992   7.732 -2.8673 -1.8521  1.8346
 6614SOL     OW31474   2.978   3.326   4.605 -0.4016  0.3938 -0.0146
 6614SOL    HW131475   3.042   3.371   4.551 -0.8660  1.0267 -0.0269
 6614SOL    HW231476   2.895   3.370   4.589 -0.8372 -0.3006  0.3129
 6615SOL     OW31477   1.201   1.792   3.292 -0.3269 -0.1411  0.5014
 6615SOL    HW131478   1.284   1.803   3.338 -0.7935  2.3884  0.7457
 6615SOL    HW231479   1.212   1.820   3.201  0.3907  0.8547  0.8942
 6616SOL     OW31480   4.139   4.287  17.175 -0.1529  0.4697 -0.1795
 6616SOL    HW131481   4.139   4.200  17.215  0.7700  0.9145  0.7843
 6616SOL    HW231482   4.061   4.290  17.120 -0.4790 -1.8866  0.1532
 6617SOL     OW31483   0.674   1.335   9.585 -0.2201 -0.1514 -0.4450
 6617SOL    HW131484   0.605   1.383   9.539 -0.2669  0.6058  0.4274
 6617SOL    HW231485   0.656   1.350   9.677  1.2541  3.5196 -0.7238
 6618SOL     OW31486   3.196   2.729   8.956 -0.6663 -0.0392 -0.2717
 6618SOL    HW131487   3.143   2.653   8.933 -0.8604 -0.5767  1.9556
 6618SOL    HW231488   3.205   2.761   8.866 -3.2610  3.3441  0.6642
 6619SOL     OW31489   4.710   1.642   2.561  1.1699  0.0088 -0.5385
 6619SOL    HW131490   0.000   1.632   2.651  0.7018  0.8191 -0.2820
 6619SOL    HW231491   4.633   1.586   2.567  1.3472 -0.3963 -1.9842
 6620SOL     OW31492   2.461   0.467   4.064 -0.5583 -0.6029 -0.5767
 6620SOL    HW131493   2.390   0.504   4.118 -1.1521 -1.4633 -0.7646
 6620SOL    HW231494   2.421   0.387   4.030  0.2471 -1.4007  0.3804
 6621SOL     OW31495   3.077   3.735  11.566  0.5247  0.1303  1.2015
 6621SOL    HW131496   3.067   3.644  11.595 -2.6829  0.4222  1.0342
 6621SOL    HW231497   3.009   3.736  11.498  0.2108 -1.2414  1.4959
 6622SOL     OW31498   3.568   1.280   7.681  0.3575 -0.2600 -0.1577
 6622SOL    HW131499   3.609   1.194   7.692 -0.3152 -0.6320 -0.5569
 6622SOL    HW231500   3.643   1.336   7.700  2.1982 -2.8147  0.0739
 6623SOL     OW31501   3.010   0.505  13.630  0.3857 -1.0279 -0.2427
 6623SOL    HW131502   2.973   0.423  13.661 -1.8120  0.4115  0.9783
 6623SOL    HW231503   2.944   0.525  13.564 -0.2345 -0.3906  0.5569
 6624SOL     OW31504   4.611   3.579   2.883 -0.1764 -0.1346  0.3344
 6624SOL    HW131505   4.586   3.669   2.865 -0.2463 -0.2833 -0.2934
 6624SOL    HW231506   4.693   3.590   2.932  0.1030  3.0431 -0.8221
 6625SOL     OW31507   3.643   4.622   7.017 -0.4071  0.0776  0.2441
 6625SOL    HW131508   3.651   4.654   6.927 -0.5638 -2.6169 -0.7445
 6625SOL    HW231509   3.667   4.531   7.001  0.5577  0.2165  0.9059
 6626SOL     OW31510   4.654   3.025  13.061  0.1352 -0.4723  0.2996
 6626SOL    HW131511   4.738   3.059  13.031 -0.0147 -1.5131 -1.2852
 6626SOL    HW231512   4.628   3.073  13.139  1.3984  0.7215 -0.0155
 6627SOL     OW31513   2.778   2.449  10.950  0.2979  0.0096  0.2470
 6627SOL    HW131514   2.711   2.462  11.016 -3.5481 -0.0757 -3.6419
 6627SOL    HW231515   2.826   2.374  10.986 -1.7856 -0.9510  1.0149
 6628SOL     OW31516   1.166   2.643   8.562  0.1930 -0.1740  0.2633
 6628SOL    HW131517   1.218   2.624   8.484 -2.1737 -1.1423 -1.0758
 6628SOL    HW231518   1.188   2.736   8.573  3.5707 -1.1296  1.3122
 6629SOL     OW31519   2.285   0.386   5.340 -0.1189  0.0508 -0.0570
 6629SOL    HW131520   2.298   0.329   5.264  1.8655 -0.4005  0.6168
 6629SOL    HW231521   2.217   0.334   5.383  0.8391  0.2755  1.6922
 6630SOL     OW31522   3.073   4.082   4.674 -0.2676  0.1126 -0.3779
 6630SOL    HW131523   3.052   4.065   4.582  0.5284 -0.7179 -0.4087
 6630SOL    HW231524   3.053   4.175   4.682 -1.4209 -0.2919  1.3084
 6631SOL     OW31525   1.473   1.578   3.678  0.0991  0.3370 -0.1486
 6631SOL    HW131526   1.412   1.524   3.627 -1.0230  0.5446  0.9803
 6631SOL    HW231527   1.428   1.571   3.762  0.3693  0.1978 -0.0173
 6632SOL     OW31528   1.797   0.149  17.439 -0.1700  0.0113  0.2213
 6632SOL    HW131529   1.724   0.088  17.449  1.4526 -1.6961  1.5637
 6632SOL    HW231530   1.738   0.224  17.432 -1.6187 -1.1432  0.0600
 6633SOL     OW31531   0.844   0.102  13.382  0.8303 -0.3524 -0.2494
 6633SOL    HW131532   0.838   0.109  13.477 -0.2528 -2.6443 -0.1229
 6633SOL    HW231533   0.914   0.164  13.362 -1.2724  3.4349  4.1520
 6634SOL     OW31534   4.049   3.456   2.714 -0.3863 -0.3770  0.3947
 6634SOL    HW131535   4.138   3.481   2.740  0.0938 -1.0485 -0.5756
 6634SOL    HW231536   4.009   3.539   2.739 -1.3037 -0.5255 -0.5744
 6635SOL     OW31537   1.918   4.702   2.844  0.0297 -0.1410  0.6395
 6635SOL    HW131538   1.968   4.712   2.762  1.8623 -0.1068  1.7490
 6635SOL    HW231539   1.852   0.029   2.841  0.8021  0.4513 -3.1789
 6636SOL     OW31540   3.682   1.694   4.905  0.1951 -0.3322  0.1789
 6636SOL    HW131541   3.607   1.662   4.956 -0.8465  0.2117 -0.9952
 6636SOL    HW231542   3.743   1.711   4.977  0.2075  0.4986 -0.0335
 6637SOL     OW31543   0.977   4.444   2.186 -0.1235 -0.1119  0.0877
 6637SOL    HW131544   1.054   4.501   2.195 -0.1733 -0.1555  0.8241
 6637SOL    HW231545   0.902   4.500   2.167 -0.9260 -0.6646  1.6321
 6638SOL     OW31546   1.897   4.383   2.415  0.2307  0.0394 -0.3162
 6638SOL    HW131547   1.856   4.312   2.464  1.0021 -1.3092 -1.6085
 6638SOL    HW231548   1.988   4.364   2.437  0.8756  1.2745 -1.9182
 6639SOL     OW31549   3.618   4.123   7.104 -0.5974  0.2121 -0.3872
 6639SOL    HW131550   3.596   4.068   7.029 -0.8832 -1.7363  1.1133
 6639SOL    HW231551   3.562   4.095   7.176  1.7049 -2.4493  0.3720
 6640SOL     OW31552   2.304   2.634   9.492  0.4563  0.0336  0.5639
 6640SOL    HW131553   2.397   2.648   9.505  0.9765 -2.3450 -0.6484
 6640SOL    HW231554   2.286   2.574   9.565 -1.2112  0.4506  0.5094
 6641SOL     OW31555   3.679   2.408  15.749 -0.1866 -0.2980 -0.0746
 6641SOL    HW131556   3.671   2.315  15.771 -0.7435 -0.3268 -0.3947
 6641SOL    HW231557   3.601   2.455  15.780  1.0253  1.3631  0.4685
 6642SOL     OW31558   0.659   1.296   5.652 -0.5584 -0.0805  0.0435
 6642SOL    HW131559   0.607   1.295   5.733  0.5816  1.8862  0.8138
 6642SOL    HW231560   0.688   1.205   5.647 -0.2251 -0.0048  0.5359
 6643SOL     OW31561   0.853   0.954   3.295  0.1992  0.6326  0.3808
 6643SOL    HW131562   0.937   0.965   3.340 -0.0705  0.5937  0.8850
 6643SOL    HW231563   0.813   0.904   3.366  0.7734  1.7711  1.5100
 6644SOL     OW31564   1.520   3.735  16.359 -0.2466 -0.1652  0.2036
 6644SOL    HW131565   1.442   3.714  16.308  0.9006  1.0350 -2.0505
 6644SOL    HW231566   1.553   3.647  16.378  1.2609  0.6418  1.3731
 6645SOL     OW31567   2.410   3.495   8.701  0.5605 -0.1564  0.2938
 6645SOL    HW131568   2.444   3.584   8.711 -1.8543  0.8569 -0.5425
 6645SOL    HW231569   2.387   3.463   8.789 -0.1352 -1.1349 -0.2400
 6646SOL     OW31570   4.475   4.730  15.449  0.2527  0.2845 -0.2092
 6646SOL    HW131571   4.436   4.662  15.394 -2.1968 -0.3031  2.2490
 6646SOL    HW231572   4.478   0.060  15.386 -1.6749  0.0356 -0.5870
 6647SOL     OW31573   3.735   2.472   7.234  0.6065 -0.0364  0.2495
 6647SOL    HW131574   3.673   2.545   7.241 -0.4392 -0.6986 -2.1604
 6647SOL    HW231575   3.803   2.501   7.295  0.3590  0.3214  0.3582
 6648SOL     OW31576   3.411   4.716   9.846  0.3131  0.2905  0.1245
 6648SOL    HW131577   3.409   4.646   9.780 -0.0464  1.0534 -0.6684
 6648SOL    HW231578   3.318   4.725   9.864  0.6483  1.2662  1.3742
 6649SOL     OW31579   3.071   1.445   8.283  0.3354 -0.3499  0.4986
 6649SOL    HW131580   3.022   1.363   8.289 -0.3458  0.1777  1.8967
 6649SOL    HW231581   3.163   1.425   8.264  0.5385 -1.5896  2.7758
 6650SOL     OW31582   0.078   1.864   2.947 -0.4196 -0.4617 -0.3278
 6650SOL    HW131583   0.102   1.917   2.871 -2.7818 -0.0408 -0.7738
 6650SOL    HW231584   0.104   1.915   3.024  1.2706  1.7943 -2.3810
 6651SOL     OW31585   3.730   2.667   2.278 -0.0573  0.5218 -0.3563
 6651SOL    HW131586   3.726   2.749   2.228  2.6568  1.8169  1.5344
 6651SOL    HW231587   3.641   2.657   2.310  0.7089 -1.5959  1.1371
 6652SOL     OW31588   3.475   3.088   2.518  0.1514 -0.1486 -0.1202
 6652SOL    HW131589   3.420   3.127   2.450 -2.2230 -0.6046  1.5422
 6652SOL    HW231590   3.443   3.117   2.603  1.4984 -1.0871  0.6968
 6653SOL     OW31591   4.254   1.332   5.919  0.2405 -0.2646 -0.0475
 6653SOL    HW131592   4.278   1.412   5.966 -3.5084  0.8158  0.0747
 6653SOL    HW231593   4.178   1.357   5.867 -0.2264 -0.3902  0.5722
 6654SOL     OW31594   0.186   3.933   3.079  0.1983 -0.3631 -0.3282
 6654SOL    HW131595   0.257   3.876   3.051  2.6320  2.0692  0.8745
 6654SOL    HW231596   0.119   3.868   3.101 -0.8343 -0.1574 -2.7859
 6655SOL     OW31597   0.671   3.343   9.877  0.1102 -0.3906  0.5760
 6655SOL    HW131598   0.657   3.253   9.848  1.1162 -0.7857  1.3215
 6655SOL    HW231599   0.617   3.385   9.811 -1.8879 -0.6454  2.0392
 6656SOL     OW31600   3.140   4.482   1.228  0.2142  0.1551  0.9653
 6656SOL    HW131601   3.232   4.501   1.212  0.6695 -3.2447 -0.4041
 6656SOL    HW231602   3.157   4.402   1.277 -0.9008 -0.3385  0.5612
 6657SOL     OW31603   2.665   1.349   9.128 -0.6315 -0.3183 -0.5489
 6657SOL    HW131604   2.664   1.442   9.108 -0.5171  0.2512  2.1344
 6657SOL    HW231605   2.626   1.345   9.215  1.6206 -2.7196  0.3352
 6658SOL     OW31606   2.408   0.007  14.364  0.1869  0.2543 -0.2501
 6658SOL    HW131607   2.454   0.008  14.280 -0.7145 -0.9861 -0.7551
 6658SOL    HW231608   2.350   4.676  14.344  0.0811 -0.1723  1.6564
 6659SOL     OW31609   4.366   2.385   6.796  0.7395  0.7052  0.5995
 6659SOL    HW131610   4.367   2.480   6.785  1.8542  0.8312  1.7129
 6659SOL    HW231611   4.357   2.350   6.708 -1.0456  1.7348  0.3811
 6660SOL     OW31612   3.637   3.826   9.202 -0.4544  0.4853  0.4270
 6660SOL    HW131613   3.702   3.845   9.270  0.5973 -1.4859 -0.0152
 6660SOL    HW231614   3.563   3.876   9.236 -1.0995 -0.2796  0.1288
 6661SOL     OW31615   3.621   2.902   8.977  0.2323  0.2712 -0.0906
 6661SOL    HW131616   3.618   2.888   8.882  2.1715  0.2953 -0.1584
 6661SOL    HW231617   3.715   2.908   8.996  0.1181 -0.0061  0.5521
 6662SOL     OW31618   3.611   4.210   0.637  1.2621 -0.0200  0.2272
 6662SOL    HW131619   3.534   4.247   0.680  1.0592 -0.8880  0.6270
 6662SOL    HW231620   3.672   4.255   0.696 -1.1377  2.2174  1.0235
 6663SOL     OW31621   0.771   4.694   6.440 -0.1180  0.0645  0.1887
 6663SOL    HW131622   0.687   4.651   6.421 -0.5319  0.6569  0.6777
 6663SOL    HW231623   0.831   4.621   6.455  0.9649  1.1479  1.1178
 6664SOL     OW31624   4.358   3.444  14.789 -0.2275  0.3088 -0.3688
 6664SOL    HW131625   4.268   3.448  14.756 -0.3775 -1.3316 -0.1432
 6664SOL    HW231626   4.394   3.531  14.770 -0.6721  0.5113 -0.2843
 6665SOL     OW31627   3.282   0.936   5.890 -0.4521  0.5164 -0.1604
 6665SOL    HW131628   3.359   0.883   5.912 -0.8078 -0.1038 -0.4071
 6665SOL    HW231629   3.313   0.966   5.805 -2.6606  1.3665 -0.6578
 6666SOL     OW31630   1.535   2.072  12.282 -0.0825 -0.1432 -0.9137
 6666SOL    HW131631   1.482   2.039  12.354  1.4984 -0.5640  0.0748
 6666SOL    HW231632   1.484   2.145  12.249 -0.7610 -0.5342 -0.7181
 6667SOL     OW31633   0.007   0.636  11.901 -0.1304  0.2296 -0.1846
 6667SOL    HW131634   0.087   0.590  11.875 -1.3077 -1.5347 -0.6910
 6667SOL    HW231635   0.001   0.588  11.984 -0.6700 -0.3984 -0.5920
 6668SOL     OW31636   1.606   2.974   5.620 -0.0248 -0.0693  0.5565
 6668SOL    HW131637   1.659   2.898   5.644 -1.3261 -0.6554  1.5600
 6668SOL    HW231638   1.522   2.944   5.654  0.1621 -0.7066  0.4563
 6669SOL     OW31639   1.480   2.358  13.895  0.4534  0.4532  0.5894
 6669SOL    HW131640   1.537   2.359  13.818 -0.0609  1.3489  0.2262
 6669SOL    HW231641   1.393   2.372  13.856  0.8476  0.9030 -0.1339
 6670SOL     OW31642   1.968   2.049   6.830  0.2592 -0.4643  0.2147
 6670SOL    HW131643   1.983   2.103   6.908 -0.2086  1.7969 -1.2721
 6670SOL    HW231644   1.902   2.099   6.782  0.5255  0.2605  0.5925
 6671SOL     OW31645   2.197   4.220   2.209  0.0444 -0.4609  0.5266
 6671SOL    HW131646   2.196   4.310   2.178  2.9432  0.1301  2.1879
 6671SOL    HW231647   2.173   4.235   2.300 -3.4247 -2.2194 -0.0711
 6672SOL     OW31648   0.451   1.572  17.088  0.8617 -0.8197  0.1970
 6672SOL    HW131649   0.507   1.498  17.066  0.0119 -1.4555  0.1987
 6672SOL    HW231650   0.514   1.643  17.070 -0.4566  0.1335 -0.6678
 6673SOL     OW31651   1.460   2.296   7.832  0.5883  0.1713  0.0576
 6673SOL    HW131652   1.520   2.336   7.894  0.0071 -0.4834  1.0411
 6673SOL    HW231653   1.521   2.266   7.764  1.2745  0.4107  0.5775
 6674SOL     OW31654   4.098   4.591   7.743 -0.6939  0.4933  0.0851
 6674SOL    HW131655   4.053   4.676   7.739 -0.3283  0.5852 -2.0140
 6674SOL    HW231656   4.046   4.541   7.806 -2.3911  1.5879 -0.4426
 6675SOL     OW31657   2.499   2.064   3.463 -0.2459 -0.3607 -0.3499
 6675SOL    HW131658   2.470   2.156   3.462  0.8588 -0.0150 -0.7546
 6675SOL    HW231659   2.529   2.042   3.551  1.1424  0.5026 -0.5945
 6676SOL     OW31660   1.779   2.130   5.138 -0.3737  0.0375 -0.1667
 6676SOL    HW131661   1.773   2.208   5.083 -0.3544  0.0950 -0.0868
 6676SOL    HW231662   1.832   2.086   5.072  0.4902 -0.8417  1.1206
 6677SOL     OW31663   2.408   3.934   7.849  0.2368  0.4096  0.0059
 6677SOL    HW131664   2.335   3.914   7.790  0.5013 -1.5897  0.3420
 6677SOL    HW231665   2.395   3.854   7.900  2.5506  0.5477  0.8176
 6678SOL     OW31666   0.121   3.219   3.630  0.0910  0.1116 -0.0074
 6678SOL    HW131667   0.092   3.169   3.554  1.4127 -1.1466  0.3253
 6678SOL    HW231668   0.157   3.147   3.681 -2.0928 -1.7906 -1.1261
 6679SOL     OW31669   1.846   3.443   6.103 -0.5682 -0.1562 -0.3475
 6679SOL    HW131670   1.861   3.366   6.048  0.0269 -0.4920  0.2830
 6679SOL    HW231671   1.839   3.412   6.194 -2.0807  0.2544 -0.3159
 6680SOL     OW31672   4.162   0.922   4.911  0.0154  1.0067  0.3337
 6680SOL    HW131673   4.161   0.898   4.819 -1.5809  0.8859  0.3857
 6680SOL    HW231674   4.216   0.855   4.953 -0.4582  1.6286  1.9473
 6681SOL     OW31675   2.451   2.447   7.066 -0.1780  0.2295  0.3381
 6681SOL    HW131676   2.392   2.423   7.137 -0.3731  0.1843  0.1594
 6681SOL    HW231677   2.389   2.463   6.995  1.2173  3.0549 -0.2566
 6682SOL     OW31678   3.241   3.788   0.662 -0.2508  0.0268  0.8175
 6682SOL    HW131679   3.308   3.855   0.667 -0.1097  0.2946 -4.5009
 6682SOL    HW231680   3.262   3.750   0.576 -1.4109  2.4556 -0.5261
 6683SOL     OW31681   3.483   2.089   5.540  0.0237 -0.0733  0.1422
 6683SOL    HW131682   3.552   2.023   5.527 -0.5414 -0.8857  1.2347
 6683SOL    HW231683   3.522   2.167   5.501 -2.6411  1.1769 -0.0179
 6684SOL     OW31684   1.260   2.509   6.747  0.4841 -0.1857  0.1858
 6684SOL    HW131685   1.278   2.580   6.809 -2.0740 -0.3088  1.0283
 6684SOL    HW231686   1.267   2.554   6.663 -3.0245  0.5572  0.2980
 6685SOL     OW31687   3.722   1.188  11.901 -0.0338  0.1369 -0.3308
 6685SOL    HW131688   3.682   1.103  11.883  0.9474  0.0428 -2.0174
 6685SOL    HW231689   3.651   1.247  11.875 -2.7034 -2.0775  1.8272
 6686SOL     OW31690   1.993   3.303   8.046 -0.5295  0.3151 -0.1953
 6686SOL    HW131691   2.049   3.230   8.016 -1.0184 -0.9375  1.9168
 6686SOL    HW231692   2.038   3.305   8.131 -1.4559 -0.8280  0.3260
 6687SOL     OW31693   0.688   2.194   9.624 -0.0678  0.3960  0.5153
 6687SOL    HW131694   0.662   2.153   9.706  1.2515 -0.9867  0.2491
 6687SOL    HW231695   0.626   2.164   9.558  0.3720  1.9672 -0.6272
 6688SOL     OW31696   4.340   2.929  17.016 -0.2145 -0.2314 -0.3152
 6688SOL    HW131697   4.340   3.004  17.076 -1.2333 -2.8801  2.9981
 6688SOL    HW231698   4.424   2.937  16.970  0.2077 -2.2790  0.1195
 6689SOL     OW31699   1.930   0.628   3.207  0.3870  0.2484  0.1054
 6689SOL    HW131700   1.870   0.664   3.141  2.0281 -0.9623 -2.0476
 6689SOL    HW231701   2.018   0.655   3.181 -0.4943  3.2271  0.2027
 6690SOL     OW31702   3.561   3.851   0.301  0.2778  0.7401 -0.8209
 6690SOL    HW131703   3.533   3.942   0.307 -0.2943  0.5706 -0.9178
 6690SOL    HW231704   3.593   3.841   0.211  2.9359 -3.3002  0.5370
 6691SOL     OW31705   2.243   1.832   9.049  0.7072 -0.3391  0.0034
 6691SOL    HW131706   2.278   1.798   8.967  1.3123  2.3713 -0.8567
 6691SOL    HW231707   2.213   1.914   9.012  0.5204 -0.4682 -0.1307
 6692SOL     OW31708   3.820   4.391   0.136 -0.7011  0.2792  0.3661
 6692SOL    HW131709   3.856   4.372   0.223 -0.5250  0.2871  0.2949
 6692SOL    HW231710   3.733   4.354   0.150  0.4721 -2.4610  0.4341
 6693SOL     OW31711   3.688   0.716   9.278  0.4564 -0.2670 -0.0015
 6693SOL    HW131712   3.779   0.696   9.297  1.0078  1.6515 -0.5966
 6693SOL    HW231713   3.641   0.638   9.306 -0.7758  0.3801 -0.2521
 6694SOL     OW31714   3.060   2.624   2.241 -0.3364  0.5653 -0.0983
 6694SOL    HW131715   3.123   2.572   2.291 -0.5218  0.6464  0.2236
 6694SOL    HW231716   3.021   2.678   2.310 -0.3306  1.6300 -0.9244
 6695SOL     OW31717   4.135   1.462  16.908 -0.3366 -0.3517  0.3115
 6695SOL    HW131718   4.042   1.440  16.903 -0.1929 -0.5211 -1.3700
 6695SOL    HW231719   4.168   1.408  16.979 -0.1483  0.6788  1.0119
 6696SOL     OW31720   3.466   3.811   6.512 -0.1387  0.0241  0.6464
 6696SOL    HW131721   3.412   3.850   6.581  0.2922  2.5615 -0.4512
 6696SOL    HW231722   3.537   3.780   6.569 -0.9489  0.3576  1.8493
 6697SOL     OW31723   3.964   2.478   6.660  0.1338  0.2169 -0.1023
 6697SOL    HW131724   3.963   2.520   6.746 -0.2533 -0.8688  0.4295
 6697SOL    HW231725   4.040   2.525   6.625  1.5901 -2.2494 -0.2376
 6698SOL     OW31726   4.236   2.699   2.114  0.0243 -0.3176  0.1187
 6698SOL    HW131727   4.223   2.686   2.208 -2.1451 -0.0435 -0.1484
 6698SOL    HW231728   4.160   2.648   2.085  0.5460 -1.0034 -0.0405
 6699SOL     OW31729   3.658   3.247   7.495  0.1482 -0.3331 -0.4558
 6699SOL    HW131730   3.739   3.216   7.534  0.0880 -0.8307 -0.7312
 6699SOL    HW231731   3.597   3.276   7.563 -0.8523 -1.3308 -0.9354
 6700SOL     OW31732   1.007   3.987  16.052 -0.4570 -0.3287  0.8798
 6700SOL    HW131733   0.948   4.061  16.062 -0.9924 -0.4044 -1.6301
 6700SOL    HW231734   0.962   3.921  16.103 -1.8371 -0.5750 -0.6587
 6701SOL     OW31735   2.918   2.689   2.477 -0.2568  0.0687 -0.2723
 6701SOL    HW131736   2.929   2.606   2.524  0.2482 -2.1477 -4.3822
 6701SOL    HW231737   2.860   2.734   2.539  0.4262  0.4968  0.0597
 6702SOL     OW31738   4.155   4.675   3.784 -0.9336 -0.4024  0.3105
 6702SOL    HW131739   4.153   0.025   3.810  1.4421 -0.1810 -0.3270
 6702SOL    HW231740   4.063   4.652   3.769 -1.0160 -0.4695  0.9124
 6703SOL     OW31741   0.237   2.198   0.910 -0.0309  0.5204 -0.1723
 6703SOL    HW131742   0.302   2.223   0.976  0.7193  1.1150 -1.1381
 6703SOL    HW231743   0.211   2.119   0.956  0.4082 -0.0972 -0.9919
 6704SOL     OW31744   3.040   2.416  11.470 -0.0487  0.2997 -0.0257
 6704SOL    HW131745   2.995   2.447  11.391  0.3144 -0.5271 -0.5512
 6704SOL    HW231746   2.972   2.407  11.537 -2.1918  3.0415 -1.8147
 6705SOL     OW31747   3.727   3.428  17.759 -0.1211  0.3521 -0.2057
 6705SOL    HW131748   3.821   3.416   0.010 -0.4387 -2.1613 -0.1828
 6705SOL    HW231749   3.697   3.338  17.744  0.5944  0.0085  0.4652
 6706SOL     OW31750   2.487   3.097   5.001 -0.1909 -0.0266 -0.8855
 6706SOL    HW131751   2.542   3.055   5.067 -1.5898 -1.0925 -0.4150
 6706SOL    HW231752   2.555   3.157   4.969  1.9341 -1.6520  0.5806
 6707SOL     OW31753   0.213   3.312   5.416  0.3034 -0.4207  0.4654
 6707SOL    HW131754   0.242   3.312   5.507  0.0860  0.7856  0.5307
 6707SOL    HW231755   0.138   3.371   5.417  2.3141  2.1442 -1.2272
 6708SOL     OW31756   1.949   1.898  16.282  0.2798 -0.2353 -0.3379
 6708SOL    HW131757   1.934   1.971  16.342  0.0988  2.2563 -3.3986
 6708SOL    HW231758   1.916   1.829  16.339 -2.7424  1.6897  0.2693
 6709SOL     OW31759   2.733   2.612   2.197 -0.1421  0.0106  0.1592
 6709SOL    HW131760   2.821   2.604   2.161  0.3593 -0.3895  1.4695
 6709SOL    HW231761   2.733   2.539   2.259 -2.4061 -0.0086  0.1232
 6710SOL     OW31762   4.100   0.944   6.470  0.2434 -0.1992 -0.3704
 6710SOL    HW131763   4.133   1.004   6.537 -0.6696 -0.1445  0.0322
 6710SOL    HW231764   4.026   0.908   6.519 -0.1620  0.4418 -0.5151
 6711SOL     OW31765   1.582   1.430   9.362 -0.2198 -0.2136 -0.3972
 6711SOL    HW131766   1.551   1.478   9.286 -1.1462 -1.7044 -0.9594
 6711SOL    HW231767   1.628   1.504   9.402 -2.4114 -0.3976  2.4194
 6712SOL     OW31768   3.771   1.910   4.149 -0.0065  0.5826  0.1868
 6712SOL    HW131769   3.862   1.917   4.177 -0.4531  1.2016  1.4790
 6712SOL    HW231770   3.731   1.864   4.223  0.9230 -0.2721  0.1453
 6713SOL     OW31771   4.526   3.624   2.304 -0.2011  0.2700  0.5155
 6713SOL    HW131772   4.601   3.607   2.360 -0.2283  0.4140  0.5955
 6713SOL    HW231773   4.479   3.702   2.334 -1.7833 -0.0932 -0.9722
 6714SOL     OW31774   1.712   2.870  11.154 -0.2616 -0.2279  0.3262
 6714SOL    HW131775   1.654   2.835  11.086 -1.2169 -0.3487  1.2033
 6714SOL    HW231776   1.720   2.962  11.128  1.6934 -1.1331 -2.2691
 6715SOL     OW31777   1.800   2.159  16.990  0.1432  0.3729  0.3329
 6715SOL    HW131778   1.749   2.111  17.054  0.6770  0.0824  0.5431
 6715SOL    HW231779   1.739   2.161  16.916 -0.3479 -0.3322  0.7147
 6716SOL     OW31780   3.750   3.600   5.903 -0.6507  0.0810  0.1692
 6716SOL    HW131781   3.683   3.575   5.839 -0.1646  1.0505 -0.7196
 6716SOL    HW231782   3.744   3.530   5.968 -0.8560 -2.0159 -2.1287
 6717SOL     OW31783   3.782   1.000   2.885  0.4614  0.4736  0.0960
 6717SOL    HW131784   3.709   1.025   2.941 -0.5445 -0.3035 -0.8563
 6717SOL    HW231785   3.769   1.047   2.803 -1.9943 -0.8191 -0.2547
 6718SOL     OW31786   0.193   1.693   3.184 -0.2461  0.2199  0.3287
 6718SOL    HW131787   0.164   1.603   3.165  1.5017 -0.8643  2.7322
 6718SOL    HW231788   0.113   1.729   3.222  0.2475  1.1087  0.5099
 6719SOL     OW31789   1.594   4.578   7.618  0.0673  0.4987 -0.1557
 6719SOL    HW131790   1.533   4.506   7.602  2.4940 -1.6459  0.2266
 6719SOL    HW231791   1.536   4.646   7.650  1.3326  2.2227 -1.5604
 6720SOL     OW31792   0.132   2.021   2.739 -0.2227 -0.1475 -0.4567
 6720SOL    HW131793   0.100   2.097   2.691  0.8854  1.2422  0.9964
 6720SOL    HW231794   0.212   2.060   2.773  0.2070 -0.0261 -1.6139
 6721SOL     OW31795   1.376   1.109   4.369  0.1976  0.0397  0.0524
 6721SOL    HW131796   1.404   1.200   4.362  0.1515  0.1065  0.7058
 6721SOL    HW231797   1.378   1.097   4.464  0.3448 -0.2735  0.0070
 6722SOL     OW31798   2.644   0.715   1.633  0.1380  0.0349  0.4163
 6722SOL    HW131799   2.606   0.724   1.545 -0.1474 -1.3282  0.3944
 6722SOL    HW231800   2.730   0.755   1.621  0.0222  0.3481  0.6489
 6723SOL     OW31801   2.207   2.872   9.999 -0.0969 -0.0348  0.1233
 6723SOL    HW131802   2.255   2.888  10.080 -0.3101  0.3575  0.1726
 6723SOL    HW231803   2.188   2.958   9.961  1.3971 -0.0418 -0.6778
 6724SOL     OW31804   2.612   1.988   8.524  0.5026 -0.0446  0.0282
 6724SOL    HW131805   2.591   2.031   8.441 -2.0897 -3.7355 -1.1944
 6724SOL    HW231806   2.707   1.983   8.515  0.1678 -3.1587 -1.5074
 6725SOL     OW31807   4.435   1.599   8.350 -0.2822 -0.8489 -0.5095
 6725SOL    HW131808   4.428   1.693   8.369 -0.4612 -0.9503 -0.0745
 6725SOL    HW231809   4.369   1.575   8.414  0.1893 -2.8666 -0.7835
 6726SOL     OW31810   3.687   4.739   6.779  0.2624  0.1223  0.2973
 6726SOL    HW131811   3.653   0.087   6.780  0.8724  0.3357  1.4757
 6726SOL    HW231812   3.679   4.731   6.684 -0.7832 -3.4191  0.6884
 6727SOL     OW31813   1.827   0.390   5.765  0.2454  0.4061  0.1865
 6727SOL    HW131814   1.810   0.454   5.834  0.1960  0.1424  0.4182
 6727SOL    HW231815   1.744   0.343   5.768  1.1449 -1.2494 -0.4591
 6728SOL     OW31816   0.440   1.328   3.495 -0.4703 -0.2072  0.1884
 6728SOL    HW131817   0.458   1.317   3.588  3.0364 -0.5751 -0.5423
 6728SOL    HW231818   0.350   1.297   3.482  0.4882 -2.7442 -0.2948
 6729SOL     OW31819   0.586   3.214   7.383 -0.4303 -0.5208 -0.5244
 6729SOL    HW131820   0.602   3.190   7.474 -1.4910  0.2583 -0.1291
 6729SOL    HW231821   0.554   3.303   7.394  2.8955  0.6642 -0.4791
 6730SOL     OW31822   2.916   2.125  12.178 -0.2122 -0.3782  0.5220
 6730SOL    HW131823   2.979   2.183  12.135  1.5290 -0.8123  2.5013
 6730SOL    HW231824   2.843   2.123  12.115  0.5452 -1.2707 -0.3324
 6731SOL     OW31825   1.249   0.659   5.781 -0.8593  0.0743 -0.1776
 6731SOL    HW131826   1.282   0.739   5.822  0.8377 -1.7132  1.8478
 6731SOL    HW231827   1.274   0.686   5.692  2.5001 -3.7493 -0.3492
 6732SOL     OW31828   2.159   0.436  11.373 -0.1845 -0.2793 -0.9932
 6732SOL    HW131829   2.149   0.472  11.461  0.5227  1.5152 -1.6524
 6732SOL    HW231830   2.108   0.355  11.382 -1.7834  0.8187 -0.2398
 6733SOL     OW31831   2.223   0.775   2.861  0.1310 -0.6458  0.1571
 6733SOL    HW131832   2.247   0.730   2.942 -3.5627  0.5024  1.9238
 6733SOL    HW231833   2.281   0.851   2.861 -0.7455  0.0242 -2.8026
 6734SOL     OW31834   4.118   3.404   1.643  0.3453 -0.5725 -0.6243
 6734SOL    HW131835   4.202   3.380   1.602  0.1400 -0.9669 -0.8147
 6734SOL    HW231836   4.138   3.407   1.736  3.0294 -2.1254 -1.1211
 6735SOL     OW31837   4.474   1.028  11.721 -0.0444 -0.0219 -0.1198
 6735SOL    HW131838   4.387   1.000  11.750  0.3091  0.0215  0.9646
 6735SOL    HW231839   4.521   0.954  11.760  0.1033 -1.3032 -2.7071
 6736SOL     OW31840   2.406   1.858  16.655  0.2611  0.1547  0.1789
 6736SOL    HW131841   2.471   1.874  16.723 -0.4056  3.1555  0.1093
 6736SOL    HW231842   2.328   1.827  16.701 -0.1866 -0.8741 -1.3046
 6737SOL     OW31843   1.081   2.561   4.197 -0.8700  0.0429  0.8824
 6737SOL    HW131844   1.083   2.544   4.103  1.8484  1.9182  0.6140
 6737SOL    HW231845   1.158   2.513   4.226 -0.3286  1.4747  1.8288
 6738SOL     OW31846   2.226   3.171   9.878 -0.2402  0.3668 -0.0239
 6738SOL    HW131847   2.308   3.169   9.828  0.6831  1.1266  1.4577
 6738SOL    HW231848   2.201   3.261   9.855 -0.1304 -0.0871 -1.9479
 6739SOL     OW31849   1.988   0.929   2.192  0.2722  0.6248  0.0475
 6739SOL    HW131850   1.908   0.879   2.207  1.2459 -1.0169 -0.2119
 6739SOL    HW231851   2.035   0.925   2.275  0.6966 -1.0374 -0.2758
 6740SOL     OW31852   4.613   0.762   0.577  0.6245  0.1738  0.1447
 6740SOL    HW131853   4.596   0.747   0.670  0.6266 -0.7166 -0.0017
 6740SOL    HW231854   4.529   0.803   0.553 -0.3570 -3.4437 -2.5300
 6741SOL     OW31855   0.445   1.721   1.905  0.1273  0.2341 -0.3252
 6741SOL    HW131856   0.449   1.660   1.979  2.1900  0.7338 -0.0319
 6741SOL    HW231857   0.419   1.656   1.839 -0.0833 -0.7202  0.6837
 6742SOL     OW31858   2.012   2.033   3.762  0.8091 -0.0589  0.4751
 6742SOL    HW131859   2.028   1.967   3.830  3.1528 -0.7007 -0.7135
 6742SOL    HW231860   1.987   1.972   3.693  0.3454 -0.4542  0.9819
 6743SOL     OW31861   2.916   1.777   1.964 -0.0006  0.1616 -0.5085
 6743SOL    HW131862   3.003   1.806   1.937 -0.4643  0.1981 -1.9333
 6743SOL    HW231863   2.880   1.847   2.019  1.5980 -1.1899  2.2427
 6744SOL     OW31864   2.270   0.638   4.138 -0.1315  0.8308  0.2975
 6744SOL    HW131865   2.204   0.640   4.208 -0.0689 -1.4407  0.4271
 6744SOL    HW231866   2.312   0.724   4.142 -0.0853  0.7665  1.2559
 6745SOL     OW31867   4.289   3.254   5.321 -0.1156  0.3551 -0.2647
 6745SOL    HW131868   4.306   3.346   5.301  0.0044  0.4845  0.4633
 6745SOL    HW231869   4.264   3.254   5.413 -0.7988 -1.2856 -0.4561
 6746SOL     OW31870   2.397   2.534   3.173  0.0148 -0.4027  0.1714
 6746SOL    HW131871   2.439   2.602   3.119  1.5813 -2.1156 -0.7830
 6746SOL    HW231872   2.372   2.593   3.244  0.7981  0.6219 -0.4017
 6747SOL     OW31873   4.422   0.498   3.604  0.0717 -0.2904 -0.3224
 6747SOL    HW131874   4.433   0.441   3.680 -1.3357 -0.9411 -0.6074
 6747SOL    HW231875   4.354   0.450   3.555 -0.5958 -0.1185  0.4326
 6748SOL     OW31876   2.905   4.567   4.608  0.2375  0.3335  0.1203
 6748SOL    HW131877   2.887   4.497   4.545  0.5416  0.4070 -0.0499
 6748SOL    HW231878   2.822   4.613   4.604 -0.7455 -1.3704  0.9612
 6749SOL     OW31879   4.675   1.636   6.865  0.0429 -0.6468 -0.1004
 6749SOL    HW131880   0.021   1.666   6.887  0.2122 -0.7201 -0.6859
 6749SOL    HW231881   4.679   1.634   6.770 -1.3533 -0.0396 -0.1682
 6750SOL     OW31882   2.917   1.879   5.106  0.1344 -0.2582  0.0918
 6750SOL    HW131883   2.948   1.956   5.059  1.4166  0.2466  1.7723
 6750SOL    HW231884   3.000   1.832   5.105 -0.7601 -1.8039 -1.3251
 6751SOL     OW31885   4.224   4.322  14.848  0.0082  0.2427 -0.1794
 6751SOL    HW131886   4.189   4.405  14.817  1.7933  0.3561 -1.8787
 6751SOL    HW231887   4.229   4.330  14.944 -0.6952  0.1423 -0.1399
 6752SOL     OW31888   3.989   0.354   8.609 -0.2102  0.0005 -0.0241
 6752SOL    HW131889   4.082   0.372   8.600 -0.3119  0.1840 -0.7514
 6752SOL    HW231890   3.964   0.427   8.665 -0.9878  0.7232 -1.3035
 6753SOL     OW31891   3.739   1.113   4.372 -0.5715  0.0854 -0.2008
 6753SOL    HW131892   3.815   1.074   4.414 -0.1209  2.7222  1.4399
 6753SOL    HW231893   3.765   1.127   4.281  1.1867  0.2305  0.3402
 6754SOL     OW31894   0.240   1.296   4.979 -0.3116  0.1321  0.0099
 6754SOL    HW131895   0.195   1.359   4.923 -2.2659 -2.1880 -1.0629
 6754SOL    HW231896   0.205   1.316   5.066  1.9035 -1.3082  1.2479
 6755SOL     OW31897   3.683   4.563  10.547 -0.6413  0.8798 -0.1443
 6755SOL    HW131898   3.760   4.602  10.505  0.6990 -0.0296  1.4409
 6755SOL    HW231899   3.633   4.638  10.578 -1.3680  0.4635 -0.3162
 6756SOL     OW31900   3.414   4.070   1.774 -0.0208  0.4224  0.0220
 6756SOL    HW131901   3.469   4.004   1.815  0.8953  0.1004 -1.7635
 6756SOL    HW231902   3.347   4.062   1.842  0.1158  0.4412  0.1590
 6757SOL     OW31903   0.042   2.613   1.194  0.1609 -0.3933  0.0067
 6757SOL    HW131904   0.025   2.595   1.287  1.3374 -3.3123 -0.3352
 6757SOL    HW231905   0.136   2.598   1.193  0.1393 -0.6778  2.2712
 6758SOL     OW31906   1.600   3.947  17.705  0.1265 -0.2914 -0.3483
 6758SOL    HW131907   1.602   3.884   0.013 -0.8955  0.4074  0.2861
 6758SOL    HW231908   1.651   3.894  17.644  0.2631  1.2270 -1.5661
 6759SOL     OW31909   3.756   0.476   3.911  0.3197 -0.0821  0.3021
 6759SOL    HW131910   3.713   0.444   3.832  2.0736 -2.1281  0.1609
 6759SOL    HW231911   3.726   0.566   3.923 -0.8874 -0.3863 -0.4519
 6760SOL     OW31912   2.218   0.328   7.548  0.2274 -0.5992  0.4095
 6760SOL    HW131913   2.194   0.349   7.638 -2.2371  0.1566 -0.4207
 6760SOL    HW231914   2.254   0.410   7.514 -3.1365  0.9634  0.6059
 6761SOL     OW31915   1.927   1.448  13.450 -0.0081  0.2820 -0.1304
 6761SOL    HW131916   1.952   1.356  13.454 -1.0837 -0.0796 -1.6761
 6761SOL    HW231917   1.843   1.441  13.495 -0.0016 -1.3789 -0.3724
 6762SOL     OW31918   2.102   0.664  10.976 -0.3015 -0.0247  0.4260
 6762SOL    HW131919   2.086   0.577  11.012  0.9883  0.3606  1.9611
 6762SOL    HW231920   2.069   0.650  10.887  1.7157 -0.3627 -0.2889
 6763SOL     OW31921   2.172   2.015   5.165  0.0327  0.0699  0.6557
 6763SOL    HW131922   2.234   1.944   5.180  1.0787  0.9771  0.6248
 6763SOL    HW231923   2.148   2.047   5.252 -3.4072  0.6594 -0.5377
 6764SOL     OW31924   1.830   3.914  11.487 -0.1392  0.5983 -0.2622
 6764SOL    HW131925   1.794   3.984  11.432 -0.7559 -0.4747 -1.2001
 6764SOL    HW231926   1.794   3.838  11.441 -1.7104  0.4959  1.1425
 6765SOL     OW31927   0.091   2.859   2.220  0.3339  0.2891  0.8380
 6765SOL    HW131928   0.180   2.827   2.204  0.2641 -0.6066  2.2486
 6765SOL    HW231929   0.090   2.902   2.305 -1.5094 -2.4406  2.1875
 6766SOL     OW31930   0.250   4.524   2.962  0.1974 -0.2019  0.3032
 6766SOL    HW131931   0.308   4.458   2.924 -1.3601 -0.6155 -1.4031
 6766SOL    HW231932   0.294   4.532   3.046  0.0873 -4.2911  0.7570
 6767SOL     OW31933   1.087   2.697  13.750  0.3748  0.1303 -0.0782
 6767SOL    HW131934   1.125   2.736  13.828 -0.1370  2.3742 -0.9636
 6767SOL    HW231935   1.164   2.671  13.700 -1.0129 -3.6782 -0.2770
 6768SOL     OW31936   1.257   3.455   6.712 -0.0396 -0.4772 -0.4240
 6768SOL    HW131937   1.178   3.401   6.709 -0.4168 -0.0539  1.6637
 6768SOL    HW231938   1.228   3.533   6.664  1.8488  0.6432  0.2459
 6769SOL     OW31939   2.605   2.512   4.759 -0.0362 -0.5327 -0.1215
 6769SOL    HW131940   2.648   2.511   4.844 -0.9910  0.7199  0.3815
 6769SOL    HW231941   2.515   2.482   4.773 -0.4786  0.7257 -0.2608
 6770SOL     OW31942   4.119   3.482   5.738  0.3358  0.2226 -0.3113
 6770SOL    HW131943   4.040   3.496   5.686 -0.3640  0.5637  0.8502
 6770SOL    HW231944   4.183   3.520   5.677  0.8613 -0.5801 -0.2661
 6771SOL     OW31945   0.827   0.268   3.187  0.5337  0.1425  0.1422
 6771SOL    HW131946   0.900   0.312   3.144  0.5562 -0.5204 -0.5007
 6771SOL    HW231947   0.807   0.192   3.133 -0.3468  0.4120  0.0725
 6772SOL     OW31948   0.304   3.358   8.361  0.0467  0.0996 -0.5555
 6772SOL    HW131949   0.240   3.316   8.305  0.2710 -2.1530  0.8657
 6772SOL    HW231950   0.305   3.453   8.345  1.7278  0.1654 -0.0400
 6773SOL     OW31951   3.945   1.866   1.498 -0.4036  0.4510 -0.2715
 6773SOL    HW131952   3.904   1.846   1.413  2.4197 -0.2831 -1.4498
 6773SOL    HW231953   3.972   1.956   1.480 -0.4497  0.2746 -1.2689
 6774SOL     OW31954   0.603   3.713   8.886  0.8904 -0.0447 -0.4694
 6774SOL    HW131955   0.565   3.796   8.858  0.2199 -0.5192 -0.9717
 6774SOL    HW231956   0.671   3.748   8.943 -0.1376  0.5879  0.3630
 6775SOL     OW31957   1.709   1.359   2.538 -0.6272  0.4248  0.2774
 6775SOL    HW131958   1.613   1.357   2.545 -0.6155  1.2415  0.6528
 6775SOL    HW231959   1.718   1.446   2.500  1.6371  0.7186  1.4598
 6776SOL     OW31960   2.082   4.310   7.331 -0.0208  0.1175 -0.2544
 6776SOL    HW131961   1.987   4.303   7.322  0.0342  0.0570 -0.7864
 6776SOL    HW231962   2.119   4.319   7.243  2.1337 -1.1200  0.5349
 6777SOL     OW31963   2.414   2.907  12.922 -0.3252 -0.3463  0.1056
 6777SOL    HW131964   2.399   2.883  12.831 -1.2281 -0.9428  0.4090
 6777SOL    HW231965   2.488   2.854  12.950  0.5207  0.7413 -0.0501
 6778SOL     OW31966   1.197   3.706   0.122 -0.5284  0.3051  0.1989
 6778SOL    HW131967   1.147   3.711   0.040 -2.3302 -0.3280  1.2655
 6778SOL    HW231968   1.259   3.639   0.092 -0.8422  0.0381  0.1443
 6779SOL     OW31969   0.705   1.714   5.894  0.4798  0.1199  0.0491
 6779SOL    HW131970   0.693   1.719   5.989  1.1477  0.1474  0.1282
 6779SOL    HW231971   0.719   1.808   5.880 -0.6511  0.0192 -1.7471
 6780SOL     OW31972   1.866   3.592   8.241  0.2665  0.3512  0.7706
 6780SOL    HW131973   1.952   3.558   8.219  0.7220  1.8889  0.2080
 6780SOL    HW231974   1.832   3.624   8.158 -0.2813 -1.8391  0.1349
 6781SOL     OW31975   2.630   0.835  12.422  0.2073  0.3919  0.1365
 6781SOL    HW131976   2.685   0.910  12.401  0.1166  0.5157  0.3382
 6781SOL    HW231977   2.693   0.771  12.390 -1.7098  0.0734 -2.9638
 6782SOL     OW31978   1.264   4.207   3.496 -0.4380  0.1329  0.2909
 6782SOL    HW131979   1.272   4.289   3.545  0.6305  0.2704 -0.1085
 6782SOL    HW231980   1.355   4.178   3.486 -0.2807  0.6241  0.2761
 6783SOL     OW31981   4.058   3.233  13.745 -0.5061  0.3518  0.2348
 6783SOL    HW131982   3.991   3.259  13.808  1.0172  2.9400  0.8095
 6783SOL    HW231983   4.039   3.291  13.672  1.6188  1.6830  0.7201
 6784SOL     OW31984   4.088   1.462  14.691  0.1536  0.0624  0.1081
 6784SOL    HW131985   4.037   1.523  14.743  1.3619  2.8925 -2.0577
 6784SOL    HW231986   4.123   1.525  14.628 -0.5196 -0.3396 -0.6679
 6785SOL     OW31987   1.778   4.418   7.747 -0.1506  0.0437  0.0898
 6785SOL    HW131988   1.745   4.362   7.676 -2.0601 -0.3512  1.2883
 6785SOL    HW231989   1.730   4.496   7.719 -1.4117 -0.8920 -0.3882
 6786SOL     OW31990   2.773   0.724  10.954 -0.4803 -0.2783  0.2361
 6786SOL    HW131991   2.733   0.807  10.931  0.5899  0.0505 -0.4651
 6786SOL    HW231992   2.701   0.661  10.961 -0.1063 -0.7281  0.0893
 6787SOL     OW31993   3.110   3.638   0.267 -0.4431  0.0293 -0.3950
 6787SOL    HW131994   3.174   3.664   0.333 -0.8650 -1.0815  0.4511
 6787SOL    HW231995   3.099   3.718   0.216  2.0656 -1.2212 -2.9513
 6788SOL     OW31996   4.689   2.631   2.557 -0.5056  0.1476 -0.2211
 6788SOL    HW131997   4.611   2.615   2.611  0.4876 -2.6680  0.3333
 6788SOL    HW231998   4.653   2.697   2.497 -3.5358 -0.6162  0.7259
 6789SOL     OW31999   1.806   0.082   4.173  0.2652  0.6237  0.5307
 6789SOL    HW132000   1.782   0.020   4.104  0.0113  0.7151  0.5362
 6789SOL    HW232001   1.778   0.163   4.131  0.8915  1.5541  1.9111
 6790SOL     OW32002   4.169   4.011  13.990 -0.1119 -0.6712  0.7065
 6790SOL    HW132003   4.240   3.984  13.932  1.8855  0.6459  2.5552
 6790SOL    HW232004   4.127   3.930  14.020  1.0216 -1.1131  1.0861
 6791SOL     OW32005   1.952   3.161   5.711 -0.0583  0.0876 -0.2203
 6791SOL    HW132006   1.922   3.155   5.802  0.2732  1.5934 -0.0204
 6791SOL    HW232007   1.976   3.069   5.701 -5.3500 -1.3550  0.0512
 6792SOL     OW32008   0.292   2.827  12.884  0.5661  0.4981  0.1685
 6792SOL    HW132009   0.311   2.734  12.885 -0.7175  0.2211 -1.6545
 6792SOL    HW232010   0.324   2.850  12.971 -1.2667 -1.6762  1.3913
 6793SOL     OW32011   3.882   3.639   4.969  0.2154  0.0528  0.0478
 6793SOL    HW132012   3.877   3.676   4.881  0.0527  1.0410  0.4703
 6793SOL    HW232013   3.828   3.561   4.958 -0.5464  0.7916 -1.4241
 6794SOL     OW32014   3.273   3.339   0.229  0.0441 -0.5669 -0.0844
 6794SOL    HW132015   3.286   3.327   0.324  0.5976 -0.6019 -0.1612
 6794SOL    HW232016   3.241   3.250   0.212 -0.7240 -0.5918  1.4500
 6795SOL     OW32017   4.587   3.384   4.809  0.3590  0.1321  0.1543
 6795SOL    HW132018   4.552   3.384   4.720 -0.8291  2.1275  0.6224
 6795SOL    HW232019   4.510   3.367   4.862 -1.6612  4.2293 -1.4533
 6796SOL     OW32020   2.908   2.359  17.375 -0.2563 -0.6070  0.0526
 6796SOL    HW132021   2.847   2.356  17.302 -0.7288 -0.7621  0.4488
 6796SOL    HW232022   2.853   2.409  17.437  2.1130  0.4623  1.2870
 6797SOL     OW32023   3.584   4.504  13.925  0.5447 -0.1551 -0.0513
 6797SOL    HW132024   3.610   4.566  13.993 -0.9080 -1.1445  1.4147
 6797SOL    HW232025   3.651   4.516  13.858 -0.3361  0.7001 -0.7767
 6798SOL     OW32026   2.260   3.836   0.319 -0.1678 -0.5844 -0.2569
 6798SOL    HW132027   2.343   3.788   0.309 -0.6597 -1.2424 -1.2181
 6798SOL    HW232028   2.201   3.761   0.317 -1.0953  0.1044  1.4831
 6799SOL     OW32029   3.321   3.969   6.701  0.3183 -0.1356  0.4724
 6799SOL    HW132030   3.227   3.954   6.713 -0.2497  2.3018 -0.8421
 6799SOL    HW232031   3.321   4.055   6.658 -0.9899 -0.1403  0.4598
 6800SOL     OW32032   3.670   3.185  17.673 -0.8893  0.3451 -0.2607
 6800SOL    HW132033   3.723   3.133  17.612 -0.1350 -0.6160  1.2054
 6800SOL    HW232034   3.681   3.125  17.747  3.0005  2.5845  0.9792
 6801SOL     OW32035   3.846   4.641   1.874 -0.2432 -0.4961  0.4254
 6801SOL    HW132036   3.823   4.645   1.967  0.9832  0.0463  0.6991
 6801SOL    HW232037   3.938   4.667   1.868 -0.1619 -0.6051  1.2210
 6802SOL     OW32038   3.002   0.510   4.609  0.4399 -0.0789 -0.1737
 6802SOL    HW132039   3.064   0.452   4.653 -0.2937 -0.4382  0.3811
 6802SOL    HW232040   3.026   0.494   4.517 -0.1161 -1.4752 -0.0804
 6803SOL     OW32041   3.024   1.819   1.344  0.3478 -0.2488  0.0514
 6803SOL    HW132042   3.022   1.790   1.435  1.4540 -0.1067  0.1240
 6803SOL    HW232043   3.115   1.816   1.313  0.2627  0.6443 -0.2951
 6804SOL     OW32044   0.991   2.546  14.453  0.1516 -0.2635  0.1014
 6804SOL    HW132045   1.043   2.476  14.492 -2.2421 -2.6329 -1.0019
 6804SOL    HW232046   0.960   2.501  14.375 -1.4310  0.0403  0.5559
 6805SOL     OW32047   0.929   0.732   7.174 -0.8630  0.2732  0.1445
 6805SOL    HW132048   0.932   0.816   7.127  0.7281  0.3356  0.3609
 6805SOL    HW232049   0.953   0.674   7.102 -0.7628 -0.4759  0.7797
 6806SOL     OW32050   2.609   0.443   4.856 -0.3532  0.3574  0.3697
 6806SOL    HW132051   2.593   0.484   4.941 -0.1031 -0.8575  0.9940
 6806SOL    HW232052   2.620   0.526   4.809  1.1295 -0.4749 -0.7726
 6807SOL     OW32053   1.387   2.751  16.293 -0.7270  0.1288 -0.1510
 6807SOL    HW132054   1.408   2.677  16.237  0.6218  0.0492  0.4617
 6807SOL    HW232055   1.333   2.800  16.232 -1.0754 -2.4530 -1.9015
 6808SOL     OW32056   2.692   2.780  12.304  0.3781  0.2213  0.2757
 6808SOL    HW132057   2.693   2.788  12.208  2.3762  0.1786  0.2972
 6808SOL    HW232058   2.773   2.823  12.330  0.4875 -0.0396  0.3588
 6809SOL     OW32059   1.869   0.339   3.624 -0.0929 -0.1008  0.0205
 6809SOL    HW132060   1.883   0.416   3.569 -0.3336  1.1081  1.6707
 6809SOL    HW232061   1.885   0.272   3.557  0.6248  1.3544 -1.2657
 6810SOL     OW32062   0.524   0.281  17.399 -0.1953  0.6795  0.4107
 6810SOL    HW132063   0.519   0.327  17.483 -0.4164 -0.4893  1.0339
 6810SOL    HW232064   0.533   0.190  17.427 -2.1209 -0.4176 -2.5964
 6811SOL     OW32065   0.726   4.216  17.712 -0.1786  0.0474  0.0949
 6811SOL    HW132066   0.648   4.209  17.657 -0.1411 -0.2951  0.0869
 6811SOL    HW232067   0.797   4.238  17.652 -1.3670  2.2954 -0.5056
 6812SOL     OW32068   0.217   3.828   7.208  0.2766  0.2388 -0.3335
 6812SOL    HW132069   0.282   3.840   7.278 -1.1103 -0.4036  1.0629
 6812SOL    HW232070   0.143   3.796   7.260 -0.9032  1.3637 -1.3100
 6813SOL     OW32071   0.588   3.854  16.709  0.2694 -0.1079  0.1997
 6813SOL    HW132072   0.545   3.934  16.740 -1.0611 -0.9618  0.5342
 6813SOL    HW232073   0.640   3.837  16.787 -0.4475 -0.5068  0.5912
 6814SOL     OW32074   2.578   2.269   1.814 -0.2504  0.3590  0.4324
 6814SOL    HW132075   2.617   2.241   1.896 -2.0423  1.1086  1.5322
 6814SOL    HW232076   2.614   2.211   1.746 -2.8840  0.5769 -1.1934
 6815SOL     OW32077   1.235   3.747  16.130 -0.2387  0.1916  0.0752
 6815SOL    HW132078   1.166   3.788  16.079 -0.8698 -3.9728 -2.4326
 6815SOL    HW232079   1.226   3.656  16.100  3.4039  0.2288 -1.1276
 6816SOL     OW32080   0.984   1.508   5.288  0.6432  0.0156 -0.2907
 6816SOL    HW132081   1.041   1.584   5.296  2.1243 -1.1744  0.3610
 6816SOL    HW232082   1.047   1.444   5.321 -0.5275  0.5304  2.9645
 6817SOL     OW32083   3.496   3.925  16.735  0.2532 -0.1480 -0.0076
 6817SOL    HW132084   3.425   3.880  16.690 -2.6612 -0.1617  4.6374
 6817SOL    HW232085   3.466   3.924  16.826  0.9322 -1.0795  0.1990
 6818SOL     OW32086   1.393   1.615   5.298  0.3007  0.2217  0.5667
 6818SOL    HW132087   1.466   1.555   5.309 -1.0328 -1.4797  0.2206
 6818SOL    HW232088   1.365   1.568   5.219  3.2272  0.3373 -0.5360
 6819SOL     OW32089   2.956   2.815   9.077  1.1160 -0.5653  0.3195
 6819SOL    HW132090   3.041   2.773   9.061  0.6658 -1.3009 -0.1659
 6819SOL    HW232091   2.968   2.905   9.049  0.0983  0.3944  2.9407
 6820SOL     OW32092   3.604   2.714   7.245 -0.1872  0.3205 -0.0554
 6820SOL    HW132093   3.676   2.774   7.224 -1.4261  1.7911 -0.0855
 6820SOL    HW232094   3.524   2.739   7.198  0.1899 -0.2294 -0.9796
 6821SOL     OW32095   1.714   4.542   8.769  1.0238 -0.6879 -0.5836
 6821SOL    HW132096   1.688   4.570   8.682 -0.1654 -0.6297 -0.2108
 6821SOL    HW232097   1.796   4.591   8.767 -0.0298  1.0729 -0.6087
 6822SOL     OW32098   2.360   2.532   5.268 -0.1578 -0.6979 -0.4480
 6822SOL    HW132099   2.312   2.462   5.224 -1.7806 -0.1778  0.5051
 6822SOL    HW232100   2.400   2.577   5.193 -1.1431  2.0520  0.6606
 6823SOL     OW32101   1.147   1.085   3.666 -0.3155  0.1356 -0.5552
 6823SOL    HW132102   1.164   1.145   3.739 -0.3196  0.6596 -0.9788
 6823SOL    HW232103   1.070   1.037   3.695 -0.0462  0.0618  0.0359
 6824SOL     OW32104   4.146   2.745  13.123  0.5497 -0.7943  0.1402
 6824SOL    HW132105   4.185   2.811  13.066 -0.1811  0.9705  1.6759
 6824SOL    HW232106   4.070   2.794  13.154  0.8224 -0.4960  0.3450
 6825SOL     OW32107   1.668   0.710   6.768  0.5851  0.0556  0.3025
 6825SOL    HW132108   1.758   0.741   6.773 -0.1844  2.2569  0.5627
 6825SOL    HW232109   1.650   0.689   6.860 -1.7017  0.5762 -0.0120
 6826SOL     OW32110   1.707   1.604   2.403 -0.0326  0.1105  0.3151
 6826SOL    HW132111   1.735   1.685   2.445  0.1686  0.6325 -0.8347
 6826SOL    HW232112   1.654   1.640   2.332 -1.2830 -2.1033  0.1016
 6827SOL     OW32113   2.574   4.507  16.453  0.2813  0.0620  0.1500
 6827SOL    HW132114   2.564   4.599  16.476  2.2661  0.7199 -1.6369
 6827SOL    HW232115   2.637   4.508  16.381  1.0121  0.9341  0.8110
 6828SOL     OW32116   1.301   2.807  14.115 -0.1512  0.4566  0.2225
 6828SOL    HW132117   1.251   2.726  14.123 -0.2515  0.3656 -1.3980
 6828SOL    HW232118   1.364   2.774  14.180  0.3877 -0.4771 -0.7781
 6829SOL     OW32119   0.242   0.580   8.553  0.7059 -0.0319  0.1330
 6829SOL    HW132120   0.290   0.613   8.478  0.3541 -0.4568 -0.2774
 6829SOL    HW232121   0.166   0.638   8.557  1.4258  0.9987 -1.5450
 6830SOL     OW32122   2.228   4.193   3.075 -0.0644 -0.5505  0.0683
 6830SOL    HW132123   2.298   4.252   3.103 -1.7143  1.2723  0.3942
 6830SOL    HW232124   2.182   4.180   3.158 -1.2555 -0.4463 -0.5663
 6831SOL     OW32125   0.752   1.307   6.713  0.1009  0.2764 -0.0178
 6831SOL    HW132126   0.747   1.400   6.736  0.3744  0.1754  0.4546
 6831SOL    HW232127   0.707   1.301   6.629 -1.1079 -4.8825  1.0279
 6832SOL     OW32128   0.044   3.813  13.677 -0.0002  0.2013  0.2032
 6832SOL    HW132129   0.078   3.724  13.677 -0.4882  0.0165  0.1399
 6832SOL    HW232130   4.693   3.789  13.675 -0.0842  0.4508  1.1475
 6833SOL     OW32131   3.361   0.206  12.786 -0.0227  0.3022  0.4244
 6833SOL    HW132132   3.391   0.151  12.859  0.9907 -1.1554 -1.0762
 6833SOL    HW232133   3.432   0.188  12.724 -0.9172 -0.4298 -0.3983
 6834SOL     OW32134   3.940   1.701  13.247  0.4876 -0.2738  0.3804
 6834SOL    HW132135   4.030   1.667  13.244  0.1618 -1.0694 -0.5000
 6834SOL    HW232136   3.947   1.729  13.338 -3.0522  1.9074 -0.0328
 6835SOL     OW32137   0.655   2.049   9.841  0.2445 -0.2845  0.0254
 6835SOL    HW132138   0.647   1.965   9.795  0.8086  0.2130 -0.9843
 6835SOL    HW232139   0.663   2.023   9.933  2.7877 -1.2635 -0.4850
 6836SOL     OW32140   0.819   0.298   5.663 -0.2756  0.1881 -0.0022
 6836SOL    HW132141   0.777   0.214   5.644 -0.1734 -0.0299  0.7006
 6836SOL    HW232142   0.903   0.282   5.621 -0.8585 -0.3638 -0.9565
 6837SOL     OW32143   3.393   0.234  16.648  0.5625  0.3646 -0.4558
 6837SOL    HW132144   3.473   0.284  16.634  0.6562 -0.4573 -2.7642
 6837SOL    HW232145   3.372   0.215  16.557  1.9373 -2.1715 -0.2354
 6838SOL     OW32146   3.655   3.339   2.705  0.5203  0.2379 -0.1670
 6838SOL    HW132147   3.668   3.392   2.626 -4.9687  1.3999 -0.3212
 6838SOL    HW232148   3.598   3.394   2.760  2.4596 -1.4769  3.5333
 6839SOL     OW32149   4.064   1.287  12.127 -0.5727 -0.6561 -0.2183
 6839SOL    HW132150   4.046   1.338  12.206  1.6471 -1.4134  0.7854
 6839SOL    HW232151   4.148   1.244  12.143  0.1281 -0.2520 -2.7260
 6840SOL     OW32152   3.757   2.207  12.354 -0.2475  0.1251 -0.2747
 6840SOL    HW132153   3.812   2.150  12.408 -0.4783  0.7120  0.5853
 6840SOL    HW232154   3.732   2.155  12.278  0.4266 -2.5571  1.3217
 6841SOL     OW32155   1.215   3.675   8.067 -0.5533 -0.0073  0.0838
 6841SOL    HW132156   1.215   3.581   8.047 -0.4445  0.3353 -1.5263
 6841SOL    HW232157   1.213   3.663   8.162 -2.1395  0.8713  0.1608
 6842SOL     OW32158   1.963   0.973   1.675  0.1862 -0.3425 -0.1992
 6842SOL    HW132159   1.994   0.882   1.679  1.2473  0.0879  1.0791
 6842SOL    HW232160   1.963   0.999   1.767 -0.4279 -1.4727  0.1192
 6843SOL     OW32161   0.723   3.814   2.848 -0.0113  0.0298 -0.4083
 6843SOL    HW132162   0.661   3.756   2.893  0.0251  0.2633 -0.0556
 6843SOL    HW232163   0.664   3.871   2.799 -1.1054 -0.7428  0.0027
 6844SOL     OW32164   0.811   3.912   1.078  0.5234  0.5214 -0.1479
 6844SOL    HW132165   0.854   3.969   1.141  2.3840  1.2525 -2.0709
 6844SOL    HW232166   0.884   3.856   1.052 -0.6773 -0.5022 -1.3137
 6845SOL     OW32167   1.544   1.692   7.939 -0.5502 -0.3640  0.1893
 6845SOL    HW132168   1.572   1.637   8.012  0.5972  0.1682  0.1529
 6845SOL    HW232169   1.448   1.693   7.935 -0.2608  0.6967 -5.3004
 6846SOL     OW32170   0.360   1.962   1.984  0.4076  0.3472  0.4276
 6846SOL    HW132171   0.376   1.876   1.944  0.7368  0.8198 -0.4600
 6846SOL    HW232172   0.291   1.939   2.046 -0.1563 -0.1847 -0.4007
 6847SOL     OW32173   2.584   4.522  15.029 -0.4467 -0.0945 -0.1025
 6847SOL    HW132174   2.662   4.572  15.004  2.2880 -3.5778  1.4034
 6847SOL    HW232175   2.588   4.545  15.122 -1.1749 -1.8133  0.3556
 6848SOL     OW32176   0.322   0.101  12.198  0.1377 -0.1452  0.4034
 6848SOL    HW132177   0.289   0.129  12.112 -1.8866 -0.6813  1.0151
 6848SOL    HW232178   0.406   0.145  12.207 -0.2549  1.5552 -4.2331
 6849SOL     OW32179   3.261   1.607   5.946  0.4976 -0.3810 -0.3397
 6849SOL    HW132180   3.175   1.611   5.989  1.4035 -3.7298  1.8283
 6849SOL    HW232181   3.272   1.699   5.922  1.0298 -0.6474 -1.1197
 6850SOL     OW32182   1.488   0.175   9.519  0.6320 -0.0344 -0.1184
 6850SOL    HW132183   1.483   0.106   9.585  1.5039 -0.4399 -0.4768
 6850SOL    HW232184   1.574   0.213   9.535  0.7919 -0.0709 -0.8809
 6851SOL     OW32185   0.587   2.485   4.182  0.0693 -0.3090 -0.0665
 6851SOL    HW132186   0.668   2.443   4.212  1.1632  1.9653  0.2155
 6851SOL    HW232187   0.573   2.542   4.258 -0.8151 -1.8030  0.8962
 6852SOL     OW32188   1.600   1.189  16.242  0.2174 -0.3474  0.0064
 6852SOL    HW132189   1.612   1.095  16.245 -0.1385 -0.4247 -0.8882
 6852SOL    HW232190   1.544   1.210  16.316  1.3386  1.9671  0.2280
 6853SOL     OW32191   0.232   0.570   7.676  0.3376  0.4414 -0.1695
 6853SOL    HW132192   0.145   0.557   7.638  0.4465  0.1765 -0.3265
 6853SOL    HW232193   0.261   0.643   7.623 -0.5477  0.8482 -0.0958
 6854SOL     OW32194   0.977   2.014   0.187  0.2414 -0.3102  0.0145
 6854SOL    HW132195   0.918   2.079   0.225  0.6332 -1.3556  2.3700
 6854SOL    HW232196   0.926   1.934   0.196 -1.1131  0.5412 -0.1813
 6855SOL     OW32197   0.209   4.077   5.479  0.1860 -0.3704  0.2565
 6855SOL    HW132198   0.299   4.044   5.489  1.2803  2.5213  0.0762
 6855SOL    HW232199   0.215   4.142   5.549  0.3176 -0.0752 -0.0251
 6856SOL     OW32200   2.973   2.002  15.799  0.0536  0.3070 -0.7428
 6856SOL    HW132201   2.973   2.076  15.739 -0.5070  1.9300  1.2609
 6856SOL    HW232202   2.988   1.935  15.732 -0.5956 -0.3455 -0.2413
 6857SOL     OW32203   4.717   1.450   4.368  0.0707  0.0577  0.1327
 6857SOL    HW132204   4.651   1.383   4.351  1.9665 -1.9832  0.6729
 6857SOL    HW232205   0.020   1.472   4.286 -0.4209 -0.9414 -0.4050
 6858SOL     OW32206   2.569   3.141   0.048  0.1427  0.5390 -0.3609
 6858SOL    HW132207   2.566   3.173   0.138  1.3684  1.4594 -0.6462
 6858SOL    HW232208   2.477   3.139   0.020  0.1037  4.6725 -0.4833
 6859SOL     OW32209   1.726   1.545   1.297 -0.0488  0.2800  0.1529
 6859SOL    HW132210   1.636   1.536   1.266  0.0293 -0.2520  0.0656
 6859SOL    HW232211   1.707   1.603   1.370 -0.4347 -1.0889  1.1532
 6860SOL     OW32212   0.351   2.742   8.926 -0.3107 -0.3840 -0.0786
 6860SOL    HW132213   0.327   2.658   8.964 -0.4401 -0.7701 -1.0200
 6860SOL    HW232214   0.321   2.805   8.992 -0.6742 -1.7486  1.0464
 6861SOL     OW32215   1.064   1.662   2.654  0.6663  0.3392 -0.1518
 6861SOL    HW132216   1.083   1.750   2.687 -1.8575  1.1214 -0.7832
 6861SOL    HW232217   1.077   1.616   2.737 -1.4123  2.4083  1.3280
 6862SOL     OW32218   0.592   1.876   5.162  0.1087 -0.5288  0.0629
 6862SOL    HW132219   0.525   1.815   5.131 -1.9944  1.4642  0.6273
 6862SOL    HW232220   0.670   1.853   5.112  0.8318  0.0838  0.9144
 6863SOL     OW32221   2.073   4.324   0.507  0.2654 -0.5851 -0.4133
 6863SOL    HW132222   2.103   4.251   0.451 -2.5815 -1.4874 -0.7240
 6863SOL    HW232223   2.020   4.270   0.565  1.5012 -2.1978 -0.7525
 6864SOL     OW32224   4.470   1.745   8.635 -0.4003  0.0186 -0.4604
 6864SOL    HW132225   4.519   1.663   8.637  0.1641  0.3671  0.1189
 6864SOL    HW232226   4.534   1.805   8.673 -3.7493  3.0633  0.3918
 6865SOL     OW32227   0.880   1.267   9.769 -0.3354 -0.0797 -0.0274
 6865SOL    HW132228   0.855   1.299   9.682  0.7908 -1.4028 -0.8442
 6865SOL    HW232229   0.941   1.197   9.746 -1.5256 -1.4613  0.9767
 6866SOL     OW32230   2.742   4.493  11.574 -0.6462 -0.3239  0.0603
 6866SOL    HW132231   2.764   4.536  11.491 -3.0787 -0.7072 -0.7950
 6866SOL    HW232232   2.651   4.520  11.587 -1.1876 -2.1642  0.1346
 6867SOL     OW32233   3.786   1.539   3.705  0.2585 -0.4318 -0.1676
 6867SOL    HW132234   3.795   1.605   3.636  4.4842 -2.0306 -1.1716
 6867SOL    HW232235   3.726   1.485   3.653 -0.8459  0.8386 -0.2033
 6868SOL     OW32236   0.478   4.711   5.300 -0.1906 -0.3364 -0.0608
 6868SOL    HW132237   0.401   4.669   5.338  0.2103 -1.5587 -0.5894
 6868SOL    HW232238   0.547   4.659   5.341  0.2187  1.0846  1.0832
 6869SOL     OW32239   2.220   3.100   1.452 -0.0100  0.1016  0.3091
 6869SOL    HW132240   2.149   3.122   1.513 -1.2578  0.0878 -1.1699
 6869SOL    HW232241   2.241   3.009   1.474  1.0782  0.3185  0.1734
 6870SOL     OW32242   3.671   4.141   0.980 -0.9807 -0.2280 -0.2585
 6870SOL    HW132243   3.734   4.204   0.946 -1.5326  0.9247  0.8448
 6870SOL    HW232244   3.719   4.059   0.968 -0.5412  0.2513 -1.7003
 6871SOL     OW32245   3.629   1.200   0.672 -0.3485 -0.2007 -0.4926
 6871SOL    HW132246   3.576   1.192   0.751  0.9849  0.8770  0.5076
 6871SOL    HW232247   3.677   1.118   0.662 -4.3585 -2.8766  2.0354
 6872SOL     OW32248   2.867   4.102   8.800 -0.4486 -0.5080  0.2853
 6872SOL    HW132249   2.865   4.167   8.870 -1.7570  0.4363 -0.6362
 6872SOL    HW232250   2.777   4.102   8.767 -0.8065  2.2873  1.2352
 6873SOL     OW32251   3.278   0.338   6.125  1.0169 -0.0676 -0.1874
 6873SOL    HW132252   3.262   0.398   6.053 -1.7268 -1.1629 -0.4940
 6873SOL    HW232253   3.214   0.270   6.103  0.1700  0.8844 -0.6594
 6874SOL     OW32254   2.091   0.908   3.293  0.0779  0.2603  0.0256
 6874SOL    HW132255   2.023   0.968   3.263 -0.9671 -1.0628 -0.2269
 6874SOL    HW232256   2.076   0.894   3.387  1.2452  0.8228  0.3097
 6875SOL     OW32257   3.004   0.720   5.687 -0.2287 -0.0376  0.1837
 6875SOL    HW132258   3.028   0.695   5.776 -0.2116 -0.4415  0.0660
 6875SOL    HW232259   2.965   0.805   5.705  0.1499 -0.3337  2.3988
 6876SOL     OW32260   3.641   2.685   2.858 -0.3967 -0.3433  0.9504
 6876SOL    HW132261   3.677   2.762   2.901 -0.1794 -0.0555  0.2358
 6876SOL    HW232262   3.558   2.722   2.829  1.0990  0.9174 -1.6311
 6877SOL     OW32263   0.883   2.635   3.400 -0.0265  0.5027  0.4636
 6877SOL    HW132264   0.912   2.667   3.315  3.2230 -1.8189  0.6945
 6877SOL    HW232265   0.792   2.620   3.376  0.0249 -1.1905  1.3142
 6878SOL     OW32266   1.312   4.233  10.296 -0.1922  0.3333 -0.2794
 6878SOL    HW132267   1.346   4.287  10.224  0.2467 -0.6099 -0.7761
 6878SOL    HW232268   1.227   4.218  10.254  0.7274 -0.7350 -1.7387
 6879SOL     OW32269   4.052   2.012  12.049 -0.1339  0.4770 -0.3866
 6879SOL    HW132270   4.101   2.055  11.978  1.6943 -0.4885  0.2930
 6879SOL    HW232271   4.120   1.946  12.064 -0.0114  0.8323  0.6430
 6880SOL     OW32272   3.517   4.685   3.973  0.8124 -0.2420  0.4247
 6880SOL    HW132273   3.609   4.670   3.992  1.2589  2.1232  0.1000
 6880SOL    HW232274   3.512   0.014   4.037 -1.5659 -0.7041  0.7716
 6881SOL     OW32275   0.567   3.819  10.941 -0.1763 -0.2855 -0.0737
 6881SOL    HW132276   0.481   3.852  10.914  0.6720  1.0075 -1.2177
 6881SOL    HW232277   0.608   3.903  10.960  0.6353 -0.7395  0.1424
 6882SOL     OW32278   1.644   2.634  10.259  0.0260  0.0184  0.5774
 6882SOL    HW132279   1.575   2.623  10.194 -1.0168 -2.8569  2.1531
 6882SOL    HW232280   1.678   2.547  10.281  0.4676  0.0405 -0.0181
 6883SOL     OW32281   4.459   1.834   2.521 -0.1470 -0.3130  0.1031
 6883SOL    HW132282   4.545   1.792   2.522  0.0035 -0.0303 -2.6392
 6883SOL    HW232283   4.478   1.915   2.474  1.7842 -0.8621 -0.0453
 6884SOL     OW32284   1.280   0.547   4.499  0.2101 -0.2438  0.1430
 6884SOL    HW132285   1.364   0.538   4.544 -0.2171  1.2391  1.2370
 6884SOL    HW232286   1.226   0.500   4.563  0.6463 -1.5347 -0.4160
 6885SOL     OW32287   4.186   3.601  14.979 -0.9709  0.3867 -0.6758
 6885SOL    HW132288   4.215   3.570  14.893  2.6014  1.9955 -0.0066
 6885SOL    HW232289   4.268   3.629  15.018  1.2244 -1.5336 -3.9054
 6886SOL     OW32290   0.844   2.162  11.672  0.6499 -0.1907  0.1983
 6886SOL    HW132291   0.927   2.137  11.632 -0.2952  0.4189 -2.1440
 6886SOL    HW232292   0.875   2.232  11.729 -0.0163 -0.3750  0.7845
 6887SOL     OW32293   2.602   3.789   9.468 -0.1573  0.0075  0.0931
 6887SOL    HW132294   2.613   3.695   9.450 -0.5764 -0.0773  0.2767
 6887SOL    HW232295   2.673   3.805   9.531 -0.1196  3.3002 -0.7893
 6888SOL     OW32296   2.351   3.235   2.171 -0.2873  0.9531  0.3124
 6888SOL    HW132297   2.289   3.305   2.189 -2.5879 -0.9873 -0.0414
 6888SOL    HW232298   2.379   3.248   2.080  0.5638  0.2781  0.4698
 6889SOL     OW32299   3.721   3.726  16.771  0.3035 -0.3573 -0.6081
 6889SOL    HW132300   3.717   3.818  16.748 -1.0894 -0.4814 -0.8719
 6889SOL    HW232301   3.670   3.696  16.695 -0.3487  0.2309 -0.3979
 6890SOL     OW32302   0.587   3.189   5.830  0.1521 -0.0456  0.5338
 6890SOL    HW132303   0.492   3.182   5.839 -0.1868  2.0229 -1.3435
 6890SOL    HW232304   0.594   3.230   5.744  1.8195 -0.1504  0.6081
 6891SOL     OW32305   1.605   2.188   7.356  0.6770  0.3117 -0.2644
 6891SOL    HW132306   1.674   2.229   7.303 -0.9456  2.0910 -0.9939
 6891SOL    HW232307   1.542   2.154   7.293  0.9188 -0.9097  0.1384
 6892SOL     OW32308   4.022   3.962  16.921 -0.0295  0.0691  0.0943
 6892SOL    HW132309   4.117   3.948  16.917 -0.2524 -1.0577 -1.2255
 6892SOL    HW232310   4.002   3.927  17.007 -0.7365  1.5023  0.5125
 6893SOL     OW32311   0.664   0.397   8.436  0.2745  0.1175  0.5941
 6893SOL    HW132312   0.689   0.479   8.393  0.7604 -0.4995 -0.3055
 6893SOL    HW232313   0.745   0.360   8.471  0.1861  0.2025  0.8893
 6894SOL     OW32314   1.285   2.127   3.257 -0.0659 -1.0032  0.7612
 6894SOL    HW132315   1.237   2.126   3.340 -0.1471  0.5002  0.7372
 6894SOL    HW232316   1.230   2.179   3.198 -0.9243  0.0007  2.4456
 6895SOL     OW32317   0.224   1.311   2.740 -0.3218  0.7008 -0.0187
 6895SOL    HW132318   0.142   1.284   2.782  1.2629 -0.3263  2.4308
 6895SOL    HW232319   0.289   1.296   2.809  0.0523  1.5257 -0.1908
 6896SOL     OW32320   0.268   2.160   9.011  0.4697 -0.1731 -0.0624
 6896SOL    HW132321   0.322   2.082   9.021  0.5646 -0.3359 -1.7730
 6896SOL    HW232322   0.187   2.133   8.967  1.6166 -1.7376 -1.2342
 6897SOL     OW32323   4.372   2.924  12.132  0.1997  0.6720  0.8847
 6897SOL    HW132324   4.390   2.972  12.051 -0.4920 -1.2890 -0.4127
 6897SOL    HW232325   4.440   2.954  12.192  1.7018  0.1772 -0.5764
 6898SOL     OW32326   4.718   0.047  16.834 -0.2747  0.6672 -0.6757
 6898SOL    HW132327   0.024   0.039  16.916 -2.5738  2.3490  0.8630
 6898SOL    HW232328   0.045   0.071  16.773  2.3009  1.0361  2.3724
 6899SOL     OW32329   2.781   0.984   5.358 -0.4108 -0.1343 -0.1285
 6899SOL    HW132330   2.767   0.998   5.451 -1.5123 -1.5137 -0.0891
 6899SOL    HW232331   2.705   0.926   5.345 -0.2846 -0.8043  2.1147
 6900SOL     OW32332   4.318   2.012   1.806  0.3841 -0.3343  0.5988
 6900SOL    HW132333   4.403   2.046   1.835 -1.0088  1.8449  2.1877
 6900SOL    HW232334   4.267   2.093   1.802 -0.8358 -1.0998  0.9502
 6901SOL     OW32335   1.616   2.374   2.088  0.7300  0.0075 -0.1494
 6901SOL    HW132336   1.685   2.438   2.107  1.1196 -0.3622 -0.3253
 6901SOL    HW232337   1.591   2.340   2.174  0.0012  1.2310  0.1164
 6902SOL     OW32338   1.681   3.142  11.136 -0.3989 -0.4658  0.0887
 6902SOL    HW132339   1.760   3.174  11.179 -0.8561  0.7626  0.0034
 6902SOL    HW232340   1.621   3.207  11.173  0.1668  0.6747 -1.0061
 6903SOL     OW32341   3.812   4.342   2.074 -0.0081  0.0119 -0.3095
 6903SOL    HW132342   3.717   4.345   2.061 -0.3649 -0.5537  2.1398
 6903SOL    HW232343   3.840   4.267   2.023  2.8943 -0.3007  1.7374
 6904SOL     OW32344   3.792   1.684  10.962 -0.0057  0.2069  0.2914
 6904SOL    HW132345   3.765   1.750  10.898  1.8219 -0.3371 -1.0487
 6904SOL    HW232346   3.870   1.730  10.991 -0.3777 -1.0290  3.2737
 6905SOL     OW32347   3.434   2.976   6.913  0.1466 -0.2254  0.1648
 6905SOL    HW132348   3.397   3.062   6.936  1.1652 -0.3350  2.2427
 6905SOL    HW232349   3.416   2.980   6.819 -0.3345  1.7527  0.3353
 6906SOL     OW32350   0.642   3.643  13.485 -0.4304 -0.1266  0.1355
 6906SOL    HW132351   0.547   3.649  13.475 -0.4407  3.1435  2.0970
 6906SOL    HW232352   0.670   3.641  13.394 -0.2193  0.0794  0.1964
 6907SOL     OW32353   0.163   2.873   8.103  0.0409 -0.3404 -0.0068
 6907SOL    HW132354   0.194   2.826   8.180  0.3448 -2.1743 -1.2514
 6907SOL    HW232355   0.240   2.902   8.055  0.5376 -0.9184  0.4531
 6908SOL     OW32356   1.014   1.605   8.510 -0.3890  0.1813  0.1600
 6908SOL    HW132357   0.961   1.625   8.433  2.1113  0.5217 -1.5066
 6908SOL    HW232358   1.058   1.690   8.513  1.8579 -0.9423 -0.9181
 6909SOL     OW32359   2.733   2.751   3.668  0.4218  0.4200 -0.1180
 6909SOL    HW132360   2.716   2.710   3.583  1.2223 -0.4875  0.1546
 6909SOL    HW232361   2.725   2.845   3.654 -0.7251  1.0153  4.7634
 6910SOL     OW32362   3.983   3.831  13.847  0.5167  0.1805  0.4420
 6910SOL    HW132363   3.936   3.888  13.909  0.4908 -0.3422  0.9076
 6910SOL    HW232364   4.011   3.765  13.910 -2.3683 -0.0831  1.4833
 6911SOL     OW32365   3.631   0.845  13.287 -0.1316 -0.2511 -0.1631
 6911SOL    HW132366   3.695   0.903  13.246 -0.3425  0.0143 -0.1203
 6911SOL    HW232367   3.559   0.906  13.272 -1.3943 -1.4310  1.0913
 6912SOL     OW32368   0.016   4.044   1.467  0.3683 -0.2819 -0.3534
 6912SOL    HW132369   0.030   3.952   1.490  0.3362 -0.1465  0.2065
 6912SOL    HW232370   0.048   4.051   1.377 -2.6890 -1.1037 -1.5178
 6913SOL     OW32371   1.025   2.816   4.467 -0.4048 -0.4361  0.1799
 6913SOL    HW132372   1.101   2.770   4.434 -1.0712 -0.5905 -1.1524
 6913SOL    HW232373   0.965   2.751   4.504  0.8541 -3.2116 -2.6647
 6914SOL     OW32374   4.140   4.436   1.747  0.2189  0.3135  0.0457
 6914SOL    HW132375   4.213   4.373   1.746  0.2166  0.2858  1.5043
 6914SOL    HW232376   4.110   4.424   1.837 -3.2873  3.9372 -0.6547
 6915SOL     OW32377   0.709   2.909  15.116 -0.2483 -0.2558  0.3270
 6915SOL    HW132378   0.700   2.871  15.204 -1.6794 -1.0413 -0.1564
 6915SOL    HW232379   0.696   2.826  15.070 -3.3681 -0.3808  1.4019
 6916SOL     OW32380   3.457   3.380   4.893  0.1804 -0.5307 -0.0758
 6916SOL    HW132381   3.371   3.354   4.925 -0.6343 -0.2777 -2.0854
 6916SOL    HW232382   3.484   3.451   4.950 -2.3683 -0.1869  0.7040
 6917SOL     OW32383   0.845   3.104   2.720  0.2485 -0.3354  0.0749
 6917SOL    HW132384   0.853   3.172   2.787 -0.5908 -1.1011  0.9483
 6917SOL    HW232385   0.790   3.150   2.657  0.7735  0.6307  0.3194
 6918SOL     OW32386   2.452   1.552   5.631 -0.0806  0.0691 -0.0361
 6918SOL    HW132387   2.429   1.645   5.631  0.8567  0.3035  1.1520
 6918SOL    HW232388   2.385   1.516   5.573  0.4753 -0.7201 -0.1907
 6919SOL     OW32389   2.214   3.262   8.897 -0.4587  0.2506 -0.0381
 6919SOL    HW132390   2.228   3.248   8.990 -0.5527 -1.7568 -0.3192
 6919SOL    HW232391   2.149   3.332   8.902  0.8512  1.4846 -0.6057
 6920SOL     OW32392   0.876   0.101   1.032  0.4292 -0.0394  0.1129
 6920SOL    HW132393   0.827   0.125   1.111  1.0138 -0.0860  0.4870
 6920SOL    HW232394   0.891   0.185   0.988  1.7009 -0.1307  0.3847
 6921SOL     OW32395   2.020   4.036   6.545  0.2414  0.7811 -0.1732
 6921SOL    HW132396   1.981   4.118   6.516 -1.3747  0.6608  1.6578
 6921SOL    HW232397   1.959   3.973   6.508 -0.1941 -0.5329  2.7766
 6922SOL     OW32398   2.153   3.168   2.671 -0.3429 -0.0173 -1.0824
 6922SOL    HW132399   2.242   3.201   2.658  0.1219 -1.1842 -0.8667
 6922SOL    HW232400   2.143   3.167   2.766  3.1792 -1.3053 -0.7195
 6923SOL     OW32401   1.684   2.095  14.759 -0.1066 -0.7401 -0.4345
 6923SOL    HW132402   1.661   2.161  14.693 -0.2506  2.5386  2.9207
 6923SOL    HW232403   1.644   2.021  14.713 -0.4211  0.0250 -1.4203
 6924SOL     OW32404   2.587   0.718   8.680  0.6881  0.0467 -0.6387
 6924SOL    HW132405   2.611   0.627   8.659  2.5243  0.3972 -0.0601
 6924SOL    HW232406   2.614   0.731   8.770 -0.2878 -1.5006 -0.1156
 6925SOL     OW32407   2.281   1.923   4.009 -0.2351  0.2182 -0.1423
 6925SOL    HW132408   2.359   1.894   3.962 -0.5025  2.9644 -2.3017
 6925SOL    HW232409   2.289   1.880   4.094  1.0437  0.5506 -0.0855
 6926SOL     OW32410   3.390   1.254   9.245  0.6113  0.5244 -0.0839
 6926SOL    HW132411   3.419   1.195   9.315 -0.7705 -2.1156 -1.6992
 6926SOL    HW232412   3.341   1.315   9.300 -0.4069  2.4164 -3.0908
 6927SOL     OW32413   4.038   1.438   2.091  0.2189 -0.0095 -0.1636
 6927SOL    HW132414   4.101   1.378   2.132  1.4573  0.0837 -1.9185
 6927SOL    HW232415   4.055   1.425   1.998 -0.4047  1.8855 -0.5494
 6928SOL     OW32416   3.261   4.438   5.648  0.1670 -0.2456  0.6681
 6928SOL    HW132417   3.316   4.386   5.589  1.4772  1.3762  0.4663
 6928SOL    HW232418   3.268   4.381   5.725  3.4354  0.0703  0.6034
 6929SOL     OW32419   3.692   2.847   4.057 -0.1497 -0.2619  0.0398
 6929SOL    HW132420   3.782   2.815   4.046 -0.5072 -1.6098  0.9849
 6929SOL    HW232421   3.644   2.779   4.105  1.5553  0.1969  2.3922
 6930SOL     OW32422   1.757   1.537  12.670  0.1155  0.5040  0.2212
 6930SOL    HW132423   1.804   1.591  12.606 -0.3355 -1.4933 -1.7717
 6930SOL    HW232424   1.673   1.529  12.625 -0.7767  2.3963  1.5237
 6931SOL     OW32425   4.087   0.649  12.390  0.4823 -0.1086  0.5123
 6931SOL    HW132426   4.068   0.646  12.296 -0.2646  0.5294  0.6445
 6931SOL    HW232427   4.001   0.646  12.431  0.3605 -1.3789  0.1686
 6932SOL     OW32428   1.828   4.556   5.123 -0.3325 -0.2829  0.2454
 6932SOL    HW132429   1.741   4.518   5.130 -1.9923  3.3019 -0.6625
 6932SOL    HW232430   1.805   4.645   5.094 -0.3820 -0.5738 -0.5903
 6933SOL     OW32431   1.090   4.105   0.844 -0.8113 -0.4805  0.6535
 6933SOL    HW132432   1.094   4.131   0.936 -3.5037 -1.4444  1.0652
 6933SOL    HW232433   1.180   4.079   0.828 -1.2620 -0.7691 -1.3802
 6934SOL     OW32434   3.228   3.428   1.210 -0.5674 -0.1173  0.1229
 6934SOL    HW132435   3.302   3.377   1.242 -0.5712  0.0956  0.4711
 6934SOL    HW232436   3.222   3.397   1.119  0.1728  0.0372  0.0228
 6935SOL     OW32437   3.405   4.061  16.496  0.4339  0.4168  0.1498
 6935SOL    HW132438   3.476   3.999  16.487  0.3539  0.2370  0.8019
 6935SOL    HW232439   3.393   4.096  16.408 -2.6477  0.6024  0.6326
 6936SOL     OW32440   2.554   1.662   9.274  0.1766  0.0035 -0.1004
 6936SOL    HW132441   2.561   1.620   9.359 -0.7059  0.4040  0.1678
 6936SOL    HW232442   2.468   1.628   9.249 -0.4512 -0.0962  2.2667
 6937SOL     OW32443   0.380   3.009  14.227 -0.5989  0.5689 -0.6926
 6937SOL    HW132444   0.419   3.074  14.169 -0.1946 -0.2255 -1.3014
 6937SOL    HW232445   0.363   3.062  14.306 -0.7496  0.0148 -0.3561
 6938SOL     OW32446   2.325   1.259   1.406  0.4547 -0.5075 -0.4269
 6938SOL    HW132447   2.270   1.193   1.449 -1.1092  0.8082 -0.4340
 6938SOL    HW232448   2.292   1.247   1.317  0.7376 -0.8651 -0.4882
 6939SOL     OW32449   0.098   1.559   4.609 -0.2407 -0.0768  0.2155
 6939SOL    HW132450   0.069   1.606   4.530  1.7703 -0.2525 -0.6443
 6939SOL    HW232451   0.069   1.472   4.582  0.2117 -0.3280  0.5362
 6940SOL     OW32452   0.202   2.636  13.250  0.0831  0.1468 -0.4639
 6940SOL    HW132453   0.268   2.614  13.316 -1.3231  0.3268  1.0040
 6940SOL    HW232454   0.222   2.727  13.231 -0.7590 -0.4633 -4.2645
 6941SOL     OW32455   4.420   1.003  13.993  0.3992 -0.4008 -0.0713
 6941SOL    HW132456   4.484   1.064  13.955  1.0479 -0.7685  0.4361
 6941SOL    HW232457   4.361   1.063  14.038 -1.1497 -2.5438  0.7562
 6942SOL     OW32458   2.914   3.551   1.185 -0.2907  0.4998  0.3654
 6942SOL    HW132459   2.915   3.647   1.179  0.8993  0.4296 -0.6462
 6942SOL    HW232460   3.009   3.539   1.177 -0.4533 -0.9124  0.6365
 6943SOL     OW32461   0.541   3.536   3.543  0.0422  0.4808  0.4620
 6943SOL    HW132462   0.484   3.482   3.597 -0.3578  1.5205  1.0762
 6943SOL    HW232463   0.528   3.615   3.595  0.8849  2.3066 -2.1079
 6944SOL     OW32464   3.724   3.029   4.308  0.0552  0.2763 -0.0158
 6944SOL    HW132465   3.779   2.996   4.237 -0.8787 -1.2126 -0.0390
 6944SOL    HW232466   3.787   3.060   4.373  0.6722  1.3787 -1.1285
 6945SOL     OW32467   3.354   3.254   6.658 -0.1291 -0.6041  0.8479
 6945SOL    HW132468   3.277   3.199   6.643  0.8359 -1.2225 -1.8148
 6945SOL    HW232469   3.327   3.345   6.647  0.1259 -1.1626 -4.3029
 6946SOL     OW32470   3.074   3.116   7.614 -0.2248  0.5384 -0.3981
 6946SOL    HW132471   3.042   3.195   7.570 -0.3941  1.1355  0.7903
 6946SOL    HW232472   3.057   3.141   7.705  2.1166  4.2784 -1.0189
 6947SOL     OW32473   3.946   4.457   2.533  0.4662 -0.5409 -0.9208
 6947SOL    HW132474   3.977   4.394   2.468  1.6099 -1.5533  0.6146
 6947SOL    HW232475   3.865   4.483   2.490 -0.8112  0.7602  2.2433
 6948SOL     OW32476   4.629   2.702   8.146  0.3849 -0.2999  0.5274
 6948SOL    HW132477   4.640   2.650   8.226 -1.5001 -1.3000  0.1323
 6948SOL    HW232478   4.706   2.758   8.155  0.3816  0.2679 -2.9254
 6949SOL     OW32479   3.247   2.574  14.360  0.1067 -0.2339 -0.4505
 6949SOL    HW132480   3.219   2.665  14.350 -3.1401 -1.0404  1.5012
 6949SOL    HW232481   3.241   2.558  14.454 -0.0618  3.2223  0.1180
 6950SOL     OW32482   2.873   0.003   5.607 -0.3795  0.2649  0.2846
 6950SOL    HW132483   2.930   4.668   5.603 -0.4565  0.2428 -0.3530
 6950SOL    HW232484   2.836   4.731   5.520  0.8814 -2.0447  0.1301
 6951SOL     OW32485   1.360   3.382   2.370  0.1367 -0.3895  0.5733
 6951SOL    HW132486   1.300   3.324   2.324 -0.5849  2.1627 -1.6946
 6951SOL    HW232487   1.302   3.458   2.365  0.7004 -0.0174 -0.2902
 6952SOL     OW32488   0.854   3.118  10.454 -0.2017 -0.2701 -0.2189
 6952SOL    HW132489   0.802   3.069  10.517 -1.0883 -0.4550 -1.0877
 6952SOL    HW232490   0.879   3.043  10.401 -3.3388 -1.1401 -0.4512
 6953SOL     OW32491   0.848   3.834   9.317 -0.6583 -0.0410 -0.0703
 6953SOL    HW132492   0.920   3.794   9.366 -1.9555  0.3183  2.1240
 6953SOL    HW232493   0.772   3.823   9.374  0.3568 -4.5662  0.3958
 6954SOL     OW32494   1.610   2.719   8.099 -0.3847  0.0415 -0.4572
 6954SOL    HW132495   1.565   2.803   8.106 -2.2416 -0.8914 -1.2915
 6954SOL    HW232496   1.689   2.747   8.144 -0.7713 -0.8197  0.7652
 6955SOL     OW32497   1.055   0.567  10.574 -0.8734 -0.4156 -0.0071
 6955SOL    HW132498   1.043   0.645  10.520  1.1686  0.5533  0.9575
 6955SOL    HW232499   1.017   0.592  10.658  0.3196  0.5612  0.2466
 6956SOL     OW32500   1.301   0.410  13.755 -0.4013  0.2113 -0.2476
 6956SOL    HW132501   1.292   0.475  13.825 -1.7787 -1.3875  1.0754
 6956SOL    HW232502   1.360   0.344  13.792  0.8398  0.8696 -1.1036
 6957SOL     OW32503   4.433   3.769   4.364  0.0817  0.0639  0.0222
 6957SOL    HW132504   4.415   3.854   4.404 -1.5722  0.5525 -1.7561
 6957SOL    HW232505   4.375   3.714   4.416  0.6309 -0.8071 -0.3024
 6958SOL     OW32506   0.268   2.007  15.222 -0.3178 -0.4085  0.4077
 6958SOL    HW132507   0.237   2.053  15.299  1.2454 -0.8394  1.3049
 6958SOL    HW232508   0.257   2.070  15.151 -0.0018  0.2401  0.9396
 6959SOL     OW32509   0.480   2.635   7.121  0.1374  0.2648  0.1435
 6959SOL    HW132510   0.444   2.558   7.164  1.0427  0.4199  1.1956
 6959SOL    HW232511   0.411   2.693   7.154 -0.4757 -0.2041 -0.3247
 6960SOL     OW32512   3.413   0.221   1.744  0.1448 -0.2446  0.1808
 6960SOL    HW132513   3.462   0.303   1.754  2.3187 -1.5666  0.5610
 6960SOL    HW232514   3.473   0.183   1.679 -2.8823 -1.4137 -1.8984
 6961SOL     OW32515   1.924   2.016   3.301 -0.4835 -0.1228 -0.3689
 6961SOL    HW132516   1.853   2.071   3.332 -0.1751 -0.6539  1.2658
 6961SOL    HW232517   1.986   2.017   3.374 -0.6642  0.8530 -0.2320
 6962SOL     OW32518   2.967   0.638   9.952  0.0752 -0.2849  1.0309
 6962SOL    HW132519   2.905   0.566   9.940  1.0583 -0.7753 -1.0679
 6962SOL    HW232520   2.992   0.641   9.860 -4.4191 -1.4516 -0.2003
 6963SOL     OW32521   4.209   1.841   8.641 -0.1235 -0.5265  0.4759
 6963SOL    HW132522   4.300   1.812   8.645 -0.3371 -1.2429  0.0517
 6963SOL    HW232523   4.219   1.929   8.604  0.6887 -1.2815 -1.1245
 6964SOL     OW32524   2.810   1.208   7.023 -0.3369  0.6332 -0.3795
 6964SOL    HW132525   2.797   1.116   6.998  3.5455  0.1553 -0.6329
 6964SOL    HW232526   2.866   1.241   6.953 -0.6670  0.8845 -0.5234
 6965SOL     OW32527   2.969   2.949   2.393  0.1470 -0.3591 -0.6426
 6965SOL    HW132528   2.936   2.860   2.406 -2.7453  0.8506  0.2073
 6965SOL    HW232529   2.897   2.998   2.353 -0.7342 -1.5013 -0.4623
 6966SOL     OW32530   2.647   2.858   2.218  0.3711  0.3120  0.0845
 6966SOL    HW132531   2.665   2.764   2.225  3.0472  0.9573  1.7199
 6966SOL    HW232532   2.611   2.849   2.129  2.1822 -0.4492 -0.5786
 6967SOL     OW32533   4.676   3.832   7.259 -0.5887 -0.2557 -0.5444
 6967SOL    HW132534   4.598   3.867   7.302  1.1171  2.0498  0.6909
 6967SOL    HW232535   4.676   3.883   7.178  1.7623 -1.4538 -1.3084
 6968SOL     OW32536   4.283   0.295   3.106  0.4166  0.6081  0.1692
 6968SOL    HW132537   4.351   0.271   3.169  0.2723  1.5947  0.6931
 6968SOL    HW232538   4.276   0.210   3.061 -0.3057  0.6612  0.1867
 6969SOL     OW32539   2.370   0.817   6.076  0.2517 -0.0921 -0.0744
 6969SOL    HW132540   2.367   0.724   6.052  2.3172  0.3008 -1.8748
 6969SOL    HW232541   2.465   0.831   6.071  0.5813 -3.0953 -2.1390
 6970SOL     OW32542   2.920   3.035   2.960  0.0803 -0.3440 -0.1125
 6970SOL    HW132543   2.988   2.984   3.002  0.5573  0.2791 -0.1299
 6970SOL    HW232544   2.860   2.966   2.932  1.1750 -1.8855  1.3887
 6971SOL     OW32545   0.115   0.825   8.480 -0.0937 -0.2573  0.0292
 6971SOL    HW132546   0.124   0.863   8.392 -1.7301  0.8466  0.3498
 6971SOL    HW232547   0.033   0.783   8.456 -0.3631  0.9665 -1.2201
 6972SOL     OW32548   1.737   4.074   4.305  0.0581  0.2126  0.2103
 6972SOL    HW132549   1.727   3.979   4.304 -0.8651  0.3467 -2.4147
 6972SOL    HW232550   1.697   4.092   4.390  2.8180 -1.0548  1.7711
 6973SOL     OW32551   4.030   1.220  14.568  0.1293  0.0914 -0.1040
 6973SOL    HW132552   4.075   1.243  14.486  1.0098 -2.6549 -0.3784
 6973SOL    HW232553   4.056   1.296  14.620 -0.5671 -0.6487  1.3176
 6974SOL     OW32554   4.335   2.231   3.618  0.2005 -0.0489 -0.1249
 6974SOL    HW132555   4.241   2.248   3.631 -0.2593 -2.4664 -0.2877
 6974SOL    HW232556   4.383   2.313   3.613 -0.5615  0.3010 -1.5606
 6975SOL     OW32557   4.017   3.294   8.050 -0.2716  0.3724  0.6361
 6975SOL    HW132558   4.000   3.225   8.115  2.4076 -1.4048 -0.5173
 6975SOL    HW232559   3.975   3.243   7.981 -0.3081  1.4142 -0.1024
 6976SOL     OW32560   2.684   1.354  11.722 -0.3376 -0.0603  0.2350
 6976SOL    HW132561   2.714   1.439  11.690  3.2577 -1.5616 -0.3243
 6976SOL    HW232562   2.738   1.298  11.666 -1.8186 -4.4396  3.2992
 6977SOL     OW32563   2.818   0.829  13.802  0.0923  0.3395 -0.2733
 6977SOL    HW132564   2.882   0.863  13.864 -0.1477  0.0541  0.1291
 6977SOL    HW232565   2.799   0.912  13.758 -2.4588  1.5233  3.0546
 6978SOL     OW32566   0.823   1.431   6.055  0.0813 -0.3171  0.2095
 6978SOL    HW132567   0.804   1.468   6.141 -0.4247  0.4862 -0.2447
 6978SOL    HW232568   0.794   1.505   6.001  1.7776 -0.0019 -0.2487
 6979SOL     OW32569   4.462   4.741   4.071 -0.2793 -0.3660 -0.2355
 6979SOL    HW132570   4.411   0.079   4.088  0.2189 -0.3429  1.1726
 6979SOL    HW232571   4.539   0.041   4.032 -1.5375  1.4216 -0.8142
 6980SOL     OW32572   1.680   2.058   5.436 -0.2703  0.5058  0.2042
 6980SOL    HW132573   1.690   2.050   5.341  1.2615 -0.6371  0.4698
 6980SOL    HW232574   1.627   1.979   5.446 -2.1776  1.3640 -3.1327
 6981SOL     OW32575   1.062   2.164   9.277  0.7819 -0.0845 -0.5287
 6981SOL    HW132576   0.981   2.195   9.236  1.3983  1.6077 -0.4771
 6981SOL    HW232577   1.031   2.129   9.360  1.6645 -1.3031 -0.7171
 6982SOL     OW32578   0.097   0.742  17.704  0.3787 -0.0435  0.3185
 6982SOL    HW132579   0.040   0.795  17.760 -2.1602 -2.8703  0.3592
 6982SOL    HW232580   0.053   0.750  17.620  0.0767 -2.3779  0.2634
 6983SOL     OW32581   4.309   2.653  15.736  0.4886  0.2417 -0.3707
 6983SOL    HW132582   4.214   2.657  15.721  0.3775 -0.3188  0.2112
 6983SOL    HW232583   4.317   2.732  15.790  1.8414  1.0488 -1.7568
 6984SOL     OW32584   1.315   2.627  13.590 -0.2403  0.0325 -0.4482
 6984SOL    HW132585   1.300   2.683  13.514  0.0497  2.2865  1.1286
 6984SOL    HW232586   1.407   2.648  13.602 -0.4350  0.3460  0.5493
 6985SOL     OW32587   4.387   0.424  13.028  0.0784  0.0973  0.4031
 6985SOL    HW132588   4.364   0.418  12.935 -1.5650  0.5343  0.7795
 6985SOL    HW232589   4.471   0.378  13.027  2.2741  4.2218 -1.0494
 6986SOL     OW32590   4.094   2.624  11.205 -0.0697  0.1223 -0.1412
 6986SOL    HW132591   4.169   2.637  11.147 -0.7725  1.2060 -0.8129
 6986SOL    HW232592   4.097   2.529  11.214  0.4323  0.2910  1.6732
 6987SOL     OW32593   0.007   3.760   1.537  0.1338  0.2287  0.2892
 6987SOL    HW132594   0.073   3.709   1.584  1.8519  0.0320 -2.3706
 6987SOL    HW232595   4.703   3.693   1.487  0.4371  0.7548 -0.6897
 6988SOL     OW32596   0.754   4.349  17.138  0.6820  0.4025  0.0660
 6988SOL    HW132597   0.673   4.370  17.185  0.0676  0.7381 -1.1279
 6988SOL    HW232598   0.771   4.413  17.070  0.2918 -0.4458 -0.8351
 6989SOL     OW32599   2.150   3.097   6.407  0.2552  0.4528 -0.0041
 6989SOL    HW132600   2.102   3.019   6.433  0.6510  0.0357 -0.5179
 6989SOL    HW232601   2.221   3.045   6.369  1.2637  1.1724  0.8803
 6990SOL     OW32602   0.987   2.898  15.016 -0.0294 -0.1025  1.0765
 6990SOL    HW132603   0.996   2.804  15.005  0.1909 -0.2457  2.4158
 6990SOL    HW232604   0.894   2.904  15.036 -0.3570 -0.8896 -0.2098
 6991SOL     OW32605   0.194   4.635   4.216 -0.4293  0.1615 -0.3007
 6991SOL    HW132606   0.272   4.683   4.188 -1.2198 -0.2549 -3.2124
 6991SOL    HW232607   0.229   4.551   4.244  1.2491  0.9098 -0.1193
 6992SOL     OW32608   2.628   0.187   8.995  0.1327 -0.3365  0.0224
 6992SOL    HW132609   2.581   0.179   8.912  1.5546 -2.3210 -0.6015
 6992SOL    HW232610   2.580   0.116   9.038 -0.2731 -0.6152 -0.8914
 6993SOL     OW32611   3.698   2.951   6.811  0.0209 -0.4634  0.0287
 6993SOL    HW132612   3.607   2.950   6.839  0.2893 -0.9341  0.9010
 6993SOL    HW232613   3.698   3.025   6.751 -0.8123 -0.7797 -0.3563
 6994SOL     OW32614   2.513   1.189   0.637 -0.2901  0.0241 -0.0647
 6994SOL    HW132615   2.429   1.145   0.646 -0.2392  0.2063  1.3027
 6994SOL    HW232616   2.570   1.113   0.630  0.8125  0.6527  1.9383
 6995SOL     OW32617   0.569   0.447   8.695 -0.2647 -0.2785 -0.7197
 6995SOL    HW132618   0.544   0.530   8.656 -0.3895  1.2670  2.6725
 6995SOL    HW232619   0.584   0.396   8.615  0.8976 -1.7295  0.4020
 6996SOL     OW32620   2.272   3.981  14.894  0.0757 -0.0553 -0.4197
 6996SOL    HW132621   2.187   4.012  14.927 -0.2502 -0.3594 -0.9882
 6996SOL    HW232622   2.298   3.926  14.968  2.2132 -1.2292 -2.0867
 6997SOL     OW32623   0.552   4.513   8.784 -0.2514  0.3093 -0.2452
 6997SOL    HW132624   0.603   4.432   8.783  0.8849  1.0003  0.6774
 6997SOL    HW232625   0.464   4.480   8.801 -0.9841  1.2981 -2.2033
 6998SOL     OW32626   4.586   1.153   8.710  0.5347 -0.6702 -0.3323
 6998SOL    HW132627   4.520   1.085   8.701 -1.2072  0.8863  0.4815
 6998SOL    HW232628   4.555   1.218   8.647 -0.6202  0.1869  1.0940
 6999SOL     OW32629   4.707   3.847   6.128 -0.5045 -0.4735  0.2514
 6999SOL    HW132630   4.718   3.938   6.100  0.7345 -1.0963 -1.2861
 6999SOL    HW232631   4.645   3.814   6.064  0.7199 -1.7505 -0.2848
 7000SOL     OW32632   1.820   1.431   8.609  0.0135  0.1928  0.1123
 7000SOL    HW132633   1.878   1.503   8.635 -0.3633  0.5499 -0.0495
 7000SOL    HW232634   1.883   1.365   8.579  0.6474  1.6202 -1.7158
 7001SOL     OW32635   1.446   0.069   3.470  0.8569  0.3299 -0.3712
 7001SOL    HW132636   1.507   0.003   3.501  0.4489 -0.2531 -0.8018
 7001SOL    HW232637   1.376   0.064   3.536 -0.6171 -2.8675 -2.1848
 7002SOL     OW32638   2.669   3.011   0.369 -0.4055 -0.1308 -0.5834
 7002SOL    HW132639   2.640   3.102   0.370  0.3905  0.1130 -0.1616
 7002SOL    HW232640   2.604   2.980   0.432  0.1578 -0.0640  0.0218
 7003SOL     OW32641   4.085   1.585   4.574 -0.3445 -0.0374 -0.2987
 7003SOL    HW132642   3.997   1.560   4.604 -2.2445  2.0354 -4.0766
 7003SOL    HW232643   4.118   1.506   4.532 -0.1203 -0.6075  0.9641
 7004SOL     OW32644   4.002   0.005  14.995 -0.1626 -0.5680  0.1651
 7004SOL    HW132645   4.074   0.033  15.052 -0.3271  1.0130 -0.4265
 7004SOL    HW232646   3.994   4.658  15.030 -0.4289  0.7669  3.4868
 7005SOL     OW32647   3.294   3.187   6.973 -0.4084  0.7664 -0.1241
 7005SOL    HW132648   3.322   3.273   6.940 -1.7009  1.8390  1.6068
 7005SOL    HW232649   3.237   3.211   7.045 -0.7481 -1.0432  0.2088
 7006SOL     OW32650   0.783   3.044  12.344 -0.0141 -0.0837 -0.4560
 7006SOL    HW132651   0.826   2.961  12.366 -1.6924 -0.7144  0.3920
 7006SOL    HW232652   0.850   3.092  12.293 -0.1178  0.8781  0.3073
 7007SOL     OW32653   0.613   3.901   3.580  0.0350 -0.1851 -0.0860
 7007SOL    HW132654   0.637   3.962   3.651  2.0776 -3.0322  1.6720
 7007SOL    HW232655   0.697   3.886   3.537  0.3325 -2.8115  1.3854
 7008SOL     OW32656   3.664   3.406   9.420  0.0601  0.3425  0.1358
 7008SOL    HW132657   3.601   3.448   9.363  1.2904  1.0479 -0.6962
 7008SOL    HW232658   3.622   3.322   9.442  1.6477 -0.5587 -0.2238
 7009SOL     OW32659   0.225   2.132   5.284  0.5326  0.2968  0.2003
 7009SOL    HW132660   0.183   2.186   5.352 -0.5340  2.1981 -1.9929
 7009SOL    HW232661   0.161   2.148   5.215  0.3669  0.1602  0.3218
 7010SOL     OW32662   3.294   4.340   5.899  0.3491  0.0140  0.7997
 7010SOL    HW132663   3.349   4.407   5.938  0.5224 -0.0508  0.6713
 7010SOL    HW232664   3.205   4.371   5.916 -0.3808 -2.4077  1.3903
 7011SOL     OW32665   2.025   2.989   4.508  0.4232 -0.1244 -0.0465
 7011SOL    HW132666   1.969   3.065   4.527  0.6285 -0.3315  1.3392
 7011SOL    HW232667   2.099   3.037   4.469  0.0530  1.4010  1.1253
 7012SOL     OW32668   1.104   1.684  13.248  0.7810  0.0288  0.4467
 7012SOL    HW132669   1.134   1.749  13.312 -0.8171  1.9060 -0.7258
 7012SOL    HW232670   1.057   1.751  13.200 -1.0949  0.7659  3.3325
 7013SOL     OW32671   4.521   3.981  16.419  0.4163 -0.8201 -0.1810
 7013SOL    HW132672   4.581   4.017  16.353  0.2248 -0.1984 -0.0160
 7013SOL    HW232673   4.587   3.955  16.483 -0.6828 -0.8706  0.9234
 7014SOL     OW32674   3.006   0.565  12.919 -0.4453  0.6400  0.4280
 7014SOL    HW132675   3.071   0.605  12.860 -0.7097  0.6758  0.1626
 7014SOL    HW232676   3.016   0.470  12.915 -0.2471  0.7483 -1.7212
 7015SOL     OW32677   3.567   1.832  10.038  0.1146 -0.0091  0.1921
 7015SOL    HW132678   3.581   1.744  10.074  1.8991  1.9853  4.4602
 7015SOL    HW232679   3.654   1.873  10.040 -1.2039  2.8359  0.0529
 7016SOL     OW32680   2.916   4.729  10.939 -0.0939  0.1237 -0.0912
 7016SOL    HW132681   2.962   0.068  10.918 -1.6763  1.2482  0.7652
 7016SOL    HW232682   2.842   0.032  10.980  1.1767  1.3542  0.8174
 7017SOL     OW32683   4.189   2.271  16.984 -0.1080  0.6395 -0.2623
 7017SOL    HW132684   4.252   2.265  16.912  0.1522 -2.0086  0.1973
 7017SOL    HW232685   4.142   2.188  16.984  0.1504  0.4916 -0.2162
 7018SOL     OW32686   1.308   3.311  11.894 -0.7149 -0.0573 -0.4003
 7018SOL    HW132687   1.243   3.296  11.825 -1.0696  1.6687 -0.4232
 7018SOL    HW232688   1.389   3.294  11.845 -1.1200  0.3049 -1.1988
 7019SOL     OW32689   0.764   2.818   1.938  0.2927 -0.3242 -0.3198
 7019SOL    HW132690   0.763   2.858   2.025  1.2963  1.1960 -0.9995
 7019SOL    HW232691   0.819   2.742   1.959 -1.0792 -1.6241 -1.4403
 7020SOL     OW32692   0.810   0.035  17.139 -0.2814 -0.2140 -0.3228
 7020SOL    HW132693   0.866   0.107  17.111  1.1588 -1.1449  0.1775
 7020SOL    HW232694   0.831   4.711  17.072  1.7240 -0.6066  0.7131
 7021SOL     OW32695   1.084   4.000   6.914 -0.1249 -0.6159  0.8327
 7021SOL    HW132696   1.143   4.030   6.845 -0.1014 -1.2458  0.5764
 7021SOL    HW232697   1.134   3.939   6.968  0.1746 -0.8593  0.2742
 7022SOL     OW32698   3.408   3.745  10.846  0.5230 -0.0385  0.4320
 7022SOL    HW132699   3.459   3.782  10.774 -0.6573  3.3028  1.3064
 7022SOL    HW232700   3.452   3.784  10.922 -0.3645  6.1993 -2.2622
 7023SOL     OW32701   3.423   2.583   3.194  0.4085 -0.3402  0.2908
 7023SOL    HW132702   3.450   2.541   3.112  3.0311  1.9297 -0.0246
 7023SOL    HW232703   3.356   2.523   3.224 -0.3173  0.1453 -0.3354
 7024SOL     OW32704   2.301   4.489   4.452 -0.1512 -0.0413 -0.3834
 7024SOL    HW132705   2.295   4.581   4.478  1.9287  0.2877 -1.0621
 7024SOL    HW232706   2.288   4.437   4.532 -1.1862 -0.4087 -0.8002
 7025SOL     OW32707   4.678   0.262   8.579  0.2414  0.1675  0.8083
 7025SOL    HW132708   0.021   0.217   8.575  0.3784  0.5584 -0.7684
 7025SOL    HW232709   4.642   0.252   8.667  1.2506  1.3530  1.3388
 7026SOL     OW32710   0.632   0.556  14.965 -0.4907 -0.0644 -0.2896
 7026SOL    HW132711   0.694   0.504  15.016 -2.4392  0.0506  2.2506
 7026SOL    HW232712   0.695   0.596  14.906 -2.5127 -0.6125 -2.7948
 7027SOL     OW32713   2.398   0.511  10.590 -0.6120  0.3562  0.3297
 7027SOL    HW132714   2.398   0.427  10.545  0.0351  2.4608 -3.6334
 7027SOL    HW232715   2.486   0.525  10.627  0.7649 -2.1673 -1.9679
 7028SOL     OW32716   2.161   1.805  16.826 -0.2223  0.4120  0.5652
 7028SOL    HW132717   2.132   1.715  16.818 -0.3023  0.5466 -0.5565
 7028SOL    HW232718   2.097   1.844  16.887 -0.6880 -0.5122  0.6696
 7029SOL     OW32719   1.263   3.512   7.730  0.1299 -0.5365  0.1277
 7029SOL    HW132720   1.223   3.462   7.801 -0.3026 -0.0205  0.2485
 7029SOL    HW232721   1.349   3.513   7.771  0.8900 -2.3953 -1.4331
 7030SOL     OW32722   2.816   3.222   8.715  0.1855 -0.4819  0.0607
 7030SOL    HW132723   2.831   3.253   8.804  2.3132  1.3255 -0.9229
 7030SOL    HW232724   2.782   3.301   8.672 -0.6433 -0.9282 -0.0983
 7031SOL     OW32725   1.932   2.581   9.983  0.1260  0.7340  0.0667
 7031SOL    HW132726   1.981   2.556   9.905  0.7792 -1.7515  1.2757
 7031SOL    HW232727   1.843   2.546   9.977  0.0749  0.5550  1.8159
 7032SOL     OW32728   1.608   1.709   4.445  0.4046 -0.1434  0.2312
 7032SOL    HW132729   1.644   1.789   4.483  2.1597 -0.6482 -0.3413
 7032SOL    HW232730   1.665   1.704   4.368 -0.1553 -0.3365 -0.1629
 7033SOL     OW32731   2.510   1.541   6.558 -0.0949  0.3542 -0.0214
 7033SOL    HW132732   2.506   1.446   6.545 -1.2416  0.3244  0.5446
 7033SOL    HW232733   2.418   1.553   6.582 -0.0994 -2.3195  1.3399
 7034SOL     OW32734   0.954   4.304   8.716  0.1236  0.0270  0.3362
 7034SOL    HW132735   0.962   4.385   8.767  0.0881  2.0378 -2.8244
 7034SOL    HW232736   1.034   4.258   8.739 -0.1809 -0.9390 -0.5402
 7035SOL     OW32737   0.738   0.174  16.755  0.3283 -0.2349  0.9579
 7035SOL    HW132738   0.801   0.235  16.795  2.1219 -0.4152 -1.5665
 7035SOL    HW232739   0.784   0.091  16.771  0.7563  0.5062  3.5974
 7036SOL     OW32740   4.250   2.298   6.148 -0.7471  0.2406  0.2096
 7036SOL    HW132741   4.214   2.371   6.098 -2.2334 -1.1277 -0.7535
 7036SOL    HW232742   4.169   2.273   6.194 -1.0511  1.0563  0.1234
 7037SOL     OW32743   0.017   4.303   6.901  1.0741 -0.3194 -0.0300
 7037SOL    HW132744   0.068   4.300   6.981  0.2873 -0.6304  0.4616
 7037SOL    HW232745   0.093   4.308   6.843 -0.4104  0.5196 -1.9132
 7038SOL     OW32746   1.429   3.013   3.434 -0.0066  0.0339 -0.3364
 7038SOL    HW132747   1.472   3.099   3.437  2.5731 -1.3412  2.1875
 7038SOL    HW232748   1.339   3.036   3.409 -0.5861 -0.4958  1.2923
 7039SOL     OW32749   1.671   1.844   3.848  0.3189 -1.3846 -0.2136
 7039SOL    HW132750   1.682   1.791   3.770  1.9315 -1.0859 -0.1845
 7039SOL    HW232751   1.616   1.916   3.817  2.0027  0.1671  0.3516
 7040SOL     OW32752   2.344   0.099  11.970 -0.3224 -0.0404 -0.3098
 7040SOL    HW132753   2.439   0.110  11.968 -0.4508  1.1498  0.3588
 7040SOL    HW232754   2.308   0.188  11.963 -1.1618 -0.3750 -0.1718
 7041SOL     OW32755   2.709   3.558   0.835 -0.6164  0.1114  0.2048
 7041SOL    HW132756   2.712   3.468   0.866  0.2404 -0.5123 -1.6981
 7041SOL    HW232757   2.797   3.594   0.853 -0.8044  0.9644 -0.5814
 7042SOL     OW32758   0.321   3.089   6.485 -0.0616  0.8067 -0.0304
 7042SOL    HW132759   0.332   3.094   6.390 -0.7984  0.8964 -0.1123
 7042SOL    HW232760   0.226   3.101   6.493 -0.1550 -0.9678  1.4649
 7043SOL     OW32761   3.071   3.111   1.205  0.1045  0.0843 -0.1312
 7043SOL    HW132762   3.056   3.190   1.257  1.1618  0.4762 -0.4128
 7043SOL    HW232763   3.163   3.091   1.223 -0.1909 -0.8172  0.3330
 7044SOL     OW32764   4.418   2.819   8.530 -0.4483  0.7360 -0.7649
 7044SOL    HW132765   4.393   2.911   8.536 -3.0838  0.1455 -2.4916
 7044SOL    HW232766   4.406   2.799   8.437 -0.1146 -1.0097 -0.4400
 7045SOL     OW32767   4.614   0.463   5.272 -0.0231  0.3924 -0.4378
 7045SOL    HW132768   4.565   0.382   5.256 -3.1104  2.6035 -2.1120
 7045SOL    HW232769   4.554   0.510   5.331 -0.4340 -1.3393  0.5480
 7046SOL     OW32770   2.864   1.406   8.677  0.0215 -0.7144 -0.1531
 7046SOL    HW132771   2.810   1.370   8.747  0.0883  0.7319  0.6491
 7046SOL    HW232772   2.937   1.344   8.674 -0.3466 -1.3002  2.4804
 7047SOL     OW32773   4.682   3.262   3.200 -0.4030 -0.0361  0.1373
 7047SOL    HW132774   4.588   3.250   3.215 -0.4781  0.2318 -0.1222
 7047SOL    HW232775   4.710   3.283   3.290  2.4235 -0.0300 -0.7394
 7048SOL     OW32776   4.675   0.962  17.758  0.5586  0.3363  0.2229
 7048SOL    HW132777   4.638   1.026   0.055  1.1644  1.0667 -0.1734
 7048SOL    HW232778   4.634   0.996  17.678  0.6506  0.2188  0.1265
 7049SOL     OW32779   2.508   3.068   4.043 -0.2175 -0.7163  0.0076
 7049SOL    HW132780   2.594   3.047   4.079 -0.9667 -1.1707  1.5766
 7049SOL    HW232781   2.525   3.137   3.980 -0.3570 -1.5689 -0.9567
 7050SOL     OW32782   1.786   2.191   1.875 -0.3314 -0.0640  0.1150
 7050SOL    HW132783   1.758   2.260   1.814  0.2446 -0.2711 -0.3874
 7050SOL    HW232784   1.717   2.198   1.941 -0.6710  1.4214 -0.3852
 7051SOL     OW32785   2.075   1.731   4.300 -0.0595 -0.5556 -0.1329
 7051SOL    HW132786   2.131   1.687   4.364  0.5454  1.6318  0.8395
 7051SOL    HW232787   2.108   1.821   4.304  0.8933 -1.0034  1.8935
 7052SOL     OW32788   3.562   1.682   5.997 -0.0883  0.1432  0.7193
 7052SOL    HW132789   3.507   1.649   6.068 -0.1486  0.4173  0.7995
 7052SOL    HW232790   3.647   1.702   6.036 -0.1772  1.2305  0.3708
 7053SOL     OW32791   2.188   1.770   9.474 -0.0620 -0.0819 -0.0197
 7053SOL    HW132792   2.132   1.776   9.550 -2.6095 -0.8307 -1.8461
 7053SOL    HW232793   2.126   1.753   9.403  0.3584  1.4491 -0.7657
 7054SOL     OW32794   2.265   0.350   6.229  0.3724  1.0981  0.2148
 7054SOL    HW132795   2.303   0.402   6.300  2.3845 -1.7053  1.1913
 7054SOL    HW232796   2.328   0.278   6.224 -0.0972  0.5611  2.0324
 7055SOL     OW32797   0.267   3.491   6.375 -1.0052  0.5952  0.0152
 7055SOL    HW132798   0.186   3.523   6.336  0.4056  0.9817 -2.6232
 7055SOL    HW232799   0.291   3.562   6.435 -1.2437  0.7921 -0.1243
 7056SOL     OW32800   1.207   0.332   1.159  0.0831  0.0086 -0.2524
 7056SOL    HW132801   1.112   0.334   1.170 -0.0334 -3.2659 -0.9124
 7056SOL    HW232802   1.201   0.253   1.106 -3.0731 -0.3183  0.6271
 7057SOL     OW32803   2.019   1.350   6.731 -0.2152 -0.3194  0.2445
 7057SOL    HW132804   1.937   1.388   6.764 -0.7961 -0.3952 -1.1436
 7057SOL    HW232805   2.059   1.319   6.813 -2.0489 -3.1834  0.0524
 7058SOL     OW32806   3.059   0.181   6.394 -0.4979 -0.6485 -0.0080
 7058SOL    HW132807   3.037   0.158   6.304 -0.0791 -0.5566 -0.1357
 7058SOL    HW232808   3.108   0.264   6.395  2.1061 -2.1817 -0.6740
 7059SOL     OW32809   2.089   0.892  15.576 -0.7751  0.1439  0.0998
 7059SOL    HW132810   2.050   0.859  15.657 -1.3282 -3.5142 -1.6512
 7059SOL    HW232811   2.090   0.986  15.593  1.1784  0.7451 -3.3892
 7060SOL     OW32812   4.170   4.448   6.984 -0.4864  0.2464  0.4413
 7060SOL    HW132813   4.262   4.421   6.989 -0.8417 -0.8877  0.8208
 7060SOL    HW232814   4.167   4.536   7.020 -3.0857 -0.3159  1.5772
 7061SOL     OW32815   4.540   3.574  12.604  0.4481  0.2892 -0.2183
 7061SOL    HW132816   4.626   3.534  12.615 -0.6528 -1.8082  0.7298
 7061SOL    HW232817   4.556   3.666  12.622  3.8123 -0.2430 -0.5509
 7062SOL     OW32818   3.838   2.295  16.036  0.2781 -0.5273 -0.2445
 7062SOL    HW132819   3.842   2.267  16.128  2.5171 -2.4522 -0.9406
 7062SOL    HW232820   3.872   2.219  15.990 -1.9288 -2.3371  1.1319
 7063SOL     OW32821   2.009   1.393   2.912 -0.3480 -0.3859 -0.0845
 7063SOL    HW132822   2.008   1.489   2.903  0.6011 -0.1437  2.3968
 7063SOL    HW232823   2.054   1.388   2.996 -1.3772 -2.3894  0.3527
 7064SOL     OW32824   3.608   0.574  17.286 -0.3963  0.2875  0.0093
 7064SOL    HW132825   3.608   0.493  17.235  1.0347 -1.6291  3.0499
 7064SOL    HW232826   3.516   0.596  17.271 -0.5454 -0.5152 -0.2221
 7065SOL     OW32827   3.615   1.373   6.060  0.6136  0.2905 -0.1122
 7065SOL    HW132828   3.680   1.442   6.068  0.9212  0.0966 -0.9011
 7065SOL    HW232829   3.601   1.362   6.154  1.1701 -0.6908 -0.1445
 7066SOL     OW32830   1.956   0.531   2.267 -0.0153  0.0538 -0.1076
 7066SOL    HW132831   2.020   0.570   2.208  0.7917 -1.3796 -0.2005
 7066SOL    HW232832   1.913   0.472   2.205 -1.4250 -0.2971  1.1873
 7067SOL     OW32833   2.318   0.288   3.943 -0.2515 -0.2009 -0.1980
 7067SOL    HW132834   2.289   0.201   3.971 -2.2159  0.0637 -1.3883
 7067SOL    HW232835   2.243   0.309   3.887  1.2861 -2.3291 -3.0737
 7068SOL     OW32836   3.950   2.877   8.527  0.0258 -0.2531 -0.0255
 7068SOL    HW132837   3.915   2.964   8.506  1.8291  0.6992  0.8345
 7068SOL    HW232838   3.879   2.822   8.497 -0.4457 -0.5260  1.5572
 7069SOL     OW32839   3.594   3.975   5.989  0.7144 -0.0134  0.2901
 7069SOL    HW132840   3.523   4.026   6.029  0.6011  0.2030 -0.1860
 7069SOL    HW232841   3.661   3.997   6.054  1.0559 -0.6664  0.1558
 7070SOL     OW32842   1.563   0.303   5.050 -0.4731 -0.4925 -0.0069
 7070SOL    HW132843   1.629   0.354   5.097  0.5203 -0.8284 -1.0455
 7070SOL    HW232844   1.496   0.293   5.118 -0.9813 -0.4854 -0.5121
 7071SOL     OW32845   1.273   4.557   7.384 -0.2125 -0.0987 -0.1731
 7071SOL    HW132846   1.260   4.627   7.320  1.1813 -0.1956 -0.5635
 7071SOL    HW232847   1.197   4.503   7.363 -1.9995  2.2434  0.2101
 7072SOL     OW32848   3.793   2.515   6.475 -0.7189 -0.0457  0.0289
 7072SOL    HW132849   3.860   2.487   6.537 -0.7438 -0.8802 -0.3255
 7072SOL    HW232850   3.768   2.598   6.516  1.1915  0.1568  0.7633
 7073SOL     OW32851   4.039   1.637  16.180  0.3716 -0.1756  0.1216
 7073SOL    HW132852   4.094   1.559  16.183  0.1828 -0.2586  1.8186
 7073SOL    HW232853   4.065   1.676  16.263  0.6908 -0.4881  0.1698
 7074SOL     OW32854   2.825   3.230  11.717  0.5447 -0.4838 -0.1026
 7074SOL    HW132855   2.903   3.212  11.770 -0.4880  1.3151  2.0552
 7074SOL    HW232856   2.807   3.322  11.738  0.9891 -0.5606  0.6083
 7075SOL     OW32857   4.000   3.162  13.354 -0.4559  0.4135 -0.0220
 7075SOL    HW132858   4.068   3.147  13.288  0.0373 -2.5792  1.1745
 7075SOL    HW232859   3.934   3.216  13.311  0.2364  0.5707 -0.8862
 7076SOL     OW32860   2.113   2.179   2.125 -0.3130 -0.3509 -0.0240
 7076SOL    HW132861   2.135   2.113   2.059  1.6015 -1.8222  2.1019
 7076SOL    HW232862   2.075   2.243   2.065  1.2219  1.5862  1.0753
 7077SOL     OW32863   1.255   2.895   8.636  0.0471 -0.1061 -0.2597
 7077SOL    HW132864   1.328   2.859   8.687 -0.3017 -0.4396 -0.0060
 7077SOL    HW232865   1.214   2.955   8.698 -1.4085 -1.2159 -0.1651
 7078SOL     OW32866   0.036   4.408   2.838  0.5786  0.1729 -0.0887
 7078SOL    HW132867   4.720   4.378   2.908 -0.3376 -2.9035 -2.1105
 7078SOL    HW232868   0.111   4.448   2.881  1.9347 -0.7567 -1.5920
 7079SOL     OW32869   4.013   0.774   3.586  0.0730  0.4275  0.6851
 7079SOL    HW132870   4.109   0.773   3.578  0.0372  1.2359  0.1791
 7079SOL    HW232871   4.001   0.864   3.556 -0.2561 -0.8051 -2.8306
 7080SOL     OW32872   4.399   4.514   8.978  0.4452  0.4201  1.1084
 7080SOL    HW132873   4.476   4.496   9.033  1.5644  1.8771  0.0260
 7080SOL    HW232874   4.387   4.607   9.000  2.1778  0.8056  0.4377
 7081SOL     OW32875   1.551   0.347   5.822  0.1102  0.5671  0.1397
 7081SOL    HW132876   1.507   0.263   5.811  0.0305  0.6998 -0.5427
 7081SOL    HW232877   1.476   0.394   5.859  0.9930  3.3598 -1.5902
 7082SOL     OW32878   1.713   2.053   8.803 -1.0679  0.4638  0.1224
 7082SOL    HW132879   1.756   2.027   8.885 -1.0257  1.5616  0.4510
 7082SOL    HW232880   1.772   2.119   8.767 -1.5988  1.6439  1.3960
 7083SOL     OW32881   0.591   1.947  12.393 -0.6603 -0.3345  0.8521
 7083SOL    HW132882   0.515   1.894  12.418 -0.4006 -0.6736  0.9045
 7083SOL    HW232883   0.657   1.888  12.427  0.5169  0.3403 -0.2688
 7084SOL     OW32884   2.421   2.464  12.822  0.2200  0.1023  0.2820
 7084SOL    HW132885   2.419   2.548  12.776  0.2369  0.8177  1.5979
 7084SOL    HW232886   2.413   2.481  12.916 -0.5439  0.1791  0.2043
 7085SOL     OW32887   2.270   4.067   2.594  0.2668  0.0314 -0.2747
 7085SOL    HW132888   2.293   4.000   2.531 -0.4433 -1.9902  1.6204
 7085SOL    HW232889   2.334   4.135   2.571  0.6504 -0.1175  0.3386
 7086SOL     OW32890   4.622   0.539   4.027  0.3062  0.0579 -0.2869
 7086SOL    HW132891   4.586   0.454   4.053  0.6352 -0.3179 -1.0482
 7086SOL    HW232892   4.699   0.511   3.978 -0.9207 -2.0829 -0.9874
 7087SOL     OW32893   0.748   0.630   3.370 -0.2767  0.1706  0.3874
 7087SOL    HW132894   0.699   0.617   3.290  1.6282 -3.3273 -0.2131
 7087SOL    HW232895   0.699   0.584   3.438  2.4535 -2.0878  0.8598
 7088SOL     OW32896   2.468   3.461   4.861  0.1142 -0.4541  0.3623
 7088SOL    HW132897   2.486   3.390   4.798  0.4415  0.0046 -0.0580
 7088SOL    HW232898   2.507   3.533   4.812  2.2349 -0.2925  2.2844
 7089SOL     OW32899   2.409   0.395   4.603  0.8290 -0.7046  0.3916
 7089SOL    HW132900   2.426   0.459   4.672 -0.6929  1.4137 -1.1972
 7089SOL    HW232901   2.496   0.378   4.565  1.5575  1.6755  0.9945
 7090SOL     OW32902   2.358   3.927  14.363  0.6454 -0.3410 -0.3384
 7090SOL    HW132903   2.365   3.956  14.454  3.1341  0.0187 -0.6579
 7090SOL    HW232904   2.449   3.904  14.343  0.3648 -0.8716 -0.9892
 7091SOL     OW32905   1.236   0.949   7.034  0.9242 -0.5953  0.2730
 7091SOL    HW132906   1.309   0.895   7.063  2.1028  0.2145 -1.1757
 7091SOL    HW232907   1.275   1.000   6.963 -0.4424 -0.1674 -0.1834
 7092SOL     OW32908   1.971   0.600   7.322  0.0850 -0.5849  0.2410
 7092SOL    HW132909   1.974   0.516   7.368 -2.6322 -0.1293  1.2477
 7092SOL    HW232910   1.907   0.648   7.374 -0.5607 -0.2441 -0.8864
 7093SOL     OW32911   1.234   2.681  15.093 -0.1093  0.1126 -0.3570
 7093SOL    HW132912   1.316   2.722  15.065  0.1647  0.6729  1.2977
 7093SOL    HW232913   1.226   2.719  15.180  1.1085  1.9955 -1.0618
 7094SOL     OW32914   1.337   1.773  16.463 -0.5549  0.0776  0.2189
 7094SOL    HW132915   1.384   1.744  16.384 -0.2469  1.1187  0.0115
 7094SOL    HW232916   1.310   1.859  16.431 -1.1657 -1.0670 -2.3600
 7095SOL     OW32917   4.422   0.103   5.760 -0.1657 -0.0658  0.4316
 7095SOL    HW132918   4.459   0.074   5.843  2.7385 -1.8183 -1.5119
 7095SOL    HW232919   4.330   0.078   5.771 -1.0602  1.9895 -2.2650
 7096SOL     OW32920   0.338   0.355   7.984  0.1506 -0.7355 -0.2860
 7096SOL    HW132921   0.366   0.421   8.047 -1.2246 -0.5471  0.1318
 7096SOL    HW232922   0.323   0.278   8.039 -1.9450  1.1180  1.7103
 7097SOL     OW32923   1.266   2.201  10.624 -0.1817  0.5536 -0.3063
 7097SOL    HW132924   1.221   2.137  10.679 -0.1544  0.0348 -0.8819
 7097SOL    HW232925   1.351   2.159  10.612 -0.9842 -1.8513  2.3033
 7098SOL     OW32926   4.318   3.021   2.443  0.1526  0.2333 -0.1196
 7098SOL    HW132927   4.319   2.991   2.352 -0.6294 -0.0692 -0.0289
 7098SOL    HW232928   4.378   3.096   2.434  0.4096  0.0480  0.0333
 7099SOL     OW32929   0.655   3.005   8.288  0.0963 -0.2052  0.3169
 7099SOL    HW132930   0.707   2.993   8.368 -0.3109 -0.5832  0.5228
 7099SOL    HW232931   0.587   2.941   8.308  0.0694 -0.3753 -0.3154
 7100SOL     OW32932   0.179   4.670  15.862  0.0468 -0.2495 -0.0567
 7100SOL    HW132933   0.209   0.009  15.903  2.9868 -0.9122 -0.9727
 7100SOL    HW232934   0.096   4.664  15.910  0.0183 -1.1374 -0.2294
 7101SOL     OW32935   3.717   2.465   2.682 -0.2364  0.0031  0.1254
 7101SOL    HW132936   3.634   2.438   2.720 -0.1613 -0.6366 -0.1608
 7101SOL    HW232937   3.732   2.543   2.736  2.7154  0.4804 -1.3785
 7102SOL     OW32938   4.565   2.576  15.618  0.1478  0.4852 -0.2460
 7102SOL    HW132939   4.628   2.624  15.671 -1.2150  1.1637  0.7792
 7102SOL    HW232940   4.478   2.597  15.652 -0.0473  2.3425 -1.8995
 7103SOL     OW32941   1.390   0.587  10.629  0.6167  0.1631  0.1923
 7103SOL    HW132942   1.483   0.570  10.617  0.5056 -1.6403  1.7227
 7103SOL    HW232943   1.378   0.647  10.556 -1.2486 -0.4774 -0.0409
 7104SOL     OW32944   1.448   4.019   2.373  0.0161 -0.0474 -0.2710
 7104SOL    HW132945   1.465   3.927   2.392 -1.1409 -0.5562 -1.6806
 7104SOL    HW232946   1.385   4.052   2.438 -0.9293  0.3243 -1.3664
 7105SOL     OW32947   3.064   1.777   7.430  0.0384 -0.0640  0.8648
 7105SOL    HW132948   3.125   1.817   7.368 -1.4064 -1.2738 -1.3524
 7105SOL    HW232949   3.110   1.697   7.455 -3.2994 -1.9348  0.9989
 7106SOL     OW32950   1.305   0.462   1.903 -0.5904  0.2944 -0.6487
 7106SOL    HW132951   1.279   0.454   1.811  0.0624  2.5516 -1.0445
 7106SOL    HW232952   1.244   0.412   1.957 -0.2916 -0.1609 -0.7342
 7107SOL     OW32953   3.125   4.703   0.397  0.3818  0.5011 -0.0856
 7107SOL    HW132954   3.109   0.050   0.366  1.4067  0.6450 -0.2099
 7107SOL    HW232955   3.192   4.714   0.464 -0.5205 -0.9101  1.0425
 7108SOL     OW32956   4.595   3.482   1.114  0.0522 -0.0383 -0.5638
 7108SOL    HW132957   4.628   3.555   1.061 -1.1788  1.2914  0.4899
 7108SOL    HW232958   4.581   3.413   1.049 -0.7476  0.2151 -0.6662
 7109SOL     OW32959   1.252   3.286  13.700 -0.0715  0.0342 -0.9437
 7109SOL    HW132960   1.191   3.336  13.754  0.8161 -0.5502  0.5794
 7109SOL    HW232961   1.299   3.360  13.662 -1.6961  1.2197 -0.6606
 7110SOL     OW32962   1.476   1.488   1.352 -0.0652  0.2896 -0.5801
 7110SOL    HW132963   1.396   1.527   1.317 -1.0184  0.6227  1.9358
 7110SOL    HW232964   1.438   1.403   1.375  1.7900 -0.6634 -1.0703
 7111SOL     OW32965   4.440   0.397   7.117 -0.2634  0.2835  0.2612
 7111SOL    HW132966   4.515   0.419   7.061 -0.2142  2.5320  1.2159
 7111SOL    HW232967   4.443   0.466   7.184 -0.8800  1.0591 -0.5126
 7112SOL     OW32968   1.968   1.740   2.268  0.6381  0.2496  0.3208
 7112SOL    HW132969   2.011   1.687   2.200 -1.5894 -0.8219 -0.2449
 7112SOL    HW232970   1.900   1.782   2.215  1.0077  1.4202  0.7759
 7113SOL     OW32971   2.517   0.839   1.870 -0.6016 -0.3585 -0.3484
 7113SOL    HW132972   2.569   0.819   1.792 -0.7410 -3.4006  0.3577
 7113SOL    HW232973   2.546   0.927   1.894  1.3143 -1.3724  0.9800
 7114SOL     OW32974   3.165   1.851   3.498 -1.0153 -0.0314 -0.2346
 7114SOL    HW132975   3.206   1.831   3.582 -0.6949  0.7638 -0.2055
 7114SOL    HW232976   3.101   1.920   3.512 -2.4365 -1.3587 -0.1321
 7115SOL     OW32977   4.361   2.588   8.636 -0.4617 -0.0449  0.1356
 7115SOL    HW132978   4.277   2.601   8.592  0.3442  1.0251 -1.0780
 7115SOL    HW232979   4.409   2.659   8.595  0.5917 -0.6805  0.2627
 7116SOL     OW32980   0.213   1.082   6.645  0.5331  0.2079  0.0488
 7116SOL    HW132981   0.231   1.163   6.693 -1.6566  0.9191 -0.3282
 7116SOL    HW232982   0.167   1.028   6.709  0.2419 -0.5264 -0.7818
 7117SOL     OW32983   3.534   1.632   5.327 -0.1371  0.3687  0.1291
 7117SOL    HW132984   3.489   1.566   5.380  0.3626  0.6094  0.8452
 7117SOL    HW232985   3.510   1.710   5.376 -0.4214 -1.0724  2.2747
 7118SOL     OW32986   2.644   4.165   8.182  0.1445  0.3735  0.3484
 7118SOL    HW132987   2.695   4.136   8.107  1.4860  0.8526  1.0782
 7118SOL    HW232988   2.665   4.258   8.177 -2.6536  0.9849 -0.1263
 7119SOL     OW32989   4.413   4.536   8.241 -0.3954  0.4057 -0.4302
 7119SOL    HW132990   4.463   4.615   8.216  1.5107 -1.2717 -1.9751
 7119SOL    HW232991   4.349   4.531   8.170 -1.6010 -0.1054  0.7152
 7120SOL     OW32992   1.779   4.580  11.810  0.2232 -0.1258  0.4497
 7120SOL    HW132993   1.858   4.632  11.829 -0.9306  2.4401 -1.7104
 7120SOL    HW232994   1.723   4.605  11.883 -2.2737  1.4220 -2.0210
 7121SOL     OW32995   1.860   0.141   0.805  0.4503  0.2448  0.0076
 7121SOL    HW132996   1.921   0.114   0.737 -0.2847  0.1692 -0.6287
 7121SOL    HW232997   1.818   0.214   0.760 -0.8815 -0.6129 -0.1823
 7122SOL     OW32998   2.030   1.858  17.344 -0.3176  0.3987  0.2512
 7122SOL    HW132999   1.946   1.902  17.357 -0.9874  0.0421 -2.8036
 7122SOL    HW233000   2.022   1.812  17.260  2.1101  0.2952  0.0751
 7123SOL     OW33001   2.284   0.894   2.125  0.1188  0.2148 -0.2438
 7123SOL    HW133002   2.371   0.866   2.153  0.2807  1.1542  0.2125
 7123SOL    HW233003   2.259   0.952   2.197  4.1307 -1.6252  2.6140
 7124SOL     OW33004   0.145   0.257   2.500 -0.3499  0.7752 -0.2294
 7124SOL    HW133005   0.075   0.200   2.532  0.0320 -0.3623 -1.4301
 7124SOL    HW233006   0.222   0.234   2.552 -2.0725 -1.5665  1.2882
 7125SOL     OW33007   4.210   2.278   3.116  0.1014  0.0476  0.3384
 7125SOL    HW133008   4.137   2.305   3.061  0.5037 -0.0722 -0.2539
 7125SOL    HW233009   4.197   2.334   3.193 -1.7032 -0.3476  0.3198
 7126SOL     OW33010   3.876   1.794   3.244 -0.7162 -0.2624  0.1122
 7126SOL    HW133011   3.792   1.767   3.282  0.3825 -0.6927  2.2311
 7126SOL    HW233012   3.943   1.755   3.299 -0.3758 -0.9196 -0.7754
 7127SOL     OW33013   0.550   0.399  17.014  0.0361 -0.1146 -0.3647
 7127SOL    HW133014   0.587   0.460  16.950  1.4931  0.2252  0.7845
 7127SOL    HW233015   0.633   0.371  17.052  0.1858  0.9336  0.0811
 7128SOL     OW33016   1.392   2.343   6.560 -0.3592 -0.1690 -0.2372
 7128SOL    HW133017   1.384   2.404   6.633 -0.0514 -1.2688  0.7078
 7128SOL    HW233018   1.300   2.325   6.539 -0.7936  0.0928  1.4981
 7129SOL     OW33019   4.005   4.711   7.228  0.2493 -0.0475 -0.0442
 7129SOL    HW133020   4.005   0.032   7.301  0.4967  0.1077 -0.1767
 7129SOL    HW233021   3.982   0.025   7.154 -0.5232  0.5776  0.6654
 7130SOL     OW33022   2.798   0.604   3.375  0.3057  0.2197 -0.6219
 7130SOL    HW133023   2.723   0.547   3.360 -1.1392  2.1392 -0.6022
 7130SOL    HW233024   2.822   0.585   3.466  3.1715  0.7638 -1.2672
 7131SOL     OW33025   3.886   2.130   4.638 -0.4243 -0.1560  0.1036
 7131SOL    HW133026   3.955   2.179   4.593 -0.4655  0.5892  0.8439
 7131SOL    HW233027   3.904   2.038   4.620  1.0271 -0.4064  2.7705
 7132SOL     OW33028   3.501   1.440  11.612 -0.4499  0.1492  0.5943
 7132SOL    HW133029   3.494   1.357  11.659  0.9942 -0.1087  0.3593
 7132SOL    HW233030   3.596   1.453  11.605 -0.4565  0.4918  1.0892
 7133SOL     OW33031   0.191   4.096   8.908  0.3396  0.1643  0.5632
 7133SOL    HW133032   0.139   4.040   8.852  2.2364  0.5707 -1.6110
 7133SOL    HW233033   0.148   4.077   8.991  2.4804  0.6875  1.7983
 7134SOL     OW33034   0.264   3.990  14.742 -0.2688  0.1093 -0.3579
 7134SOL    HW133035   0.289   3.974  14.651  0.1640  0.9172 -0.3816
 7134SOL    HW233036   0.204   3.918  14.762  0.0423  0.1519  0.7219
 7135SOL     OW33037   2.611   3.382  11.191  0.1193 -0.4938  0.0584
 7135SOL    HW133038   2.652   3.458  11.149 -1.4803  1.0587  1.3061
 7135SOL    HW233039   2.577   3.421  11.271 -1.6318 -1.9955  0.0508
 7136SOL     OW33040   2.753   2.895   6.310  0.0057  0.5650  0.4041
 7136SOL    HW133041   2.694   2.839   6.361 -1.0884  1.8386  0.5488
 7136SOL    HW233042   2.694   2.948   6.255 -1.1699 -1.3643 -0.1827
 7137SOL     OW33043   1.945   0.343   7.414 -0.5944 -0.7399  0.0674
 7137SOL    HW133044   1.873   0.284   7.391 -2.2493  1.1761  0.4089
 7137SOL    HW233045   1.950   0.338   7.509 -0.2841  0.5048  0.1084
 7138SOL     OW33046   1.612   3.355   5.930  0.6551 -0.6761 -0.0985
 7138SOL    HW133047   1.608   3.329   5.838  1.8147 -0.1450 -0.2958
 7138SOL    HW233048   1.625   3.269   5.969  1.6512 -0.6248 -0.3287
 7139SOL     OW33049   2.306   2.410   8.106  0.5259 -0.0111  0.0504
 7139SOL    HW133050   2.279   2.501   8.100  0.0151 -0.2423 -1.1307
 7139SOL    HW233051   2.345   2.405   8.019  1.3964  2.2623  0.3110
 7140SOL     OW33052   1.219   0.780   4.868 -0.3079  0.0450 -0.2208
 7140SOL    HW133053   1.197   0.757   4.958  0.5520  0.2178  0.0282
 7140SOL    HW233054   1.310   0.751   4.870 -0.0462  0.8442 -0.4751
 7141SOL     OW33055   2.233   3.989  15.753  0.5769  0.1527 -0.2437
 7141SOL    HW133056   2.197   4.047  15.685 -1.5049 -1.7635 -0.7868
 7141SOL    HW233057   2.280   4.052  15.806 -0.5044  2.2195 -1.7295
 7142SOL     OW33058   3.671   2.611   6.902 -0.4856  0.0264 -0.5861
 7142SOL    HW133059   3.704   2.524   6.877  3.2939  1.5742 -0.9146
 7142SOL    HW233060   3.592   2.592   6.952  0.9185  2.3095  2.4652
 7143SOL     OW33061   0.603   4.577   8.384  0.5088 -0.0779  0.5540
 7143SOL    HW133062   0.588   4.599   8.476 -2.8619  1.9055 -0.4968
 7143SOL    HW233063   0.684   4.626   8.368 -0.0296  0.2524 -1.1070
 7144SOL     OW33064   3.089   4.410   2.211  0.1387 -0.1351  0.4042
 7144SOL    HW133065   3.023   4.467   2.173 -0.1643 -1.0269 -0.4038
 7144SOL    HW233066   3.057   4.325   2.181 -0.9282  0.6827 -0.7668
 7145SOL     OW33067   1.374   3.761   1.442 -0.0048  0.3655 -0.2387
 7145SOL    HW133068   1.347   3.701   1.372  1.2135  0.9888 -1.2571
 7145SOL    HW233069   1.414   3.697   1.500 -0.8636  0.5517  0.5550
 7146SOL     OW33070   4.182   1.434  11.691 -0.5303 -0.2814 -0.0184
 7146SOL    HW133071   4.248   1.374  11.727  0.0587 -0.3574 -1.2086
 7146SOL    HW233072   4.132   1.456  11.770  0.1762 -0.4040  0.4630
 7147SOL     OW33073   1.839   0.231  11.189  0.1941  0.1805 -0.0784
 7147SOL    HW133074   1.746   0.222  11.210 -0.0491 -0.6261 -1.5683
 7147SOL    HW233075   1.870   0.141  11.180 -1.3733 -0.4427  0.8132
 7148SOL     OW33076   4.368   0.025  17.589  0.6692 -0.0900 -0.1222
 7148SOL    HW133077   4.278   0.045  17.564  0.0294 -1.8376  0.8073
 7148SOL    HW233078   4.421   0.059  17.517 -0.3537 -0.6341 -1.1155
 7149SOL     OW33079   4.144   1.963   3.509  0.9618  0.7625  0.2382
 7149SOL    HW133080   4.161   1.966   3.603 -1.2755 -0.8481  0.6998
 7149SOL    HW233081   4.213   2.017   3.470  0.8668 -0.5215 -1.7005
 7150SOL     OW33082   1.687   4.176   3.389  0.6712 -0.0073 -0.3155
 7150SOL    HW133083   1.767   4.162   3.338  0.9190  0.8521 -0.1589
 7150SOL    HW233084   1.647   4.249   3.342 -0.0906  0.0364  0.3989
 7151SOL     OW33085   1.166   1.076   5.795  0.2530 -0.3808  1.2837
 7151SOL    HW133086   1.227   1.050   5.726  0.1665  1.9965  0.2975
 7151SOL    HW233087   1.178   1.171   5.794 -0.7479 -0.2656 -0.3426
 7152SOL     OW33088   2.572   0.984   8.634 -0.0087  0.0553  0.0398
 7152SOL    HW133089   2.661   0.998   8.665 -0.2756  1.2384  0.2549
 7152SOL    HW233090   2.572   0.891   8.609  1.7530 -0.7990  3.1915
 7153SOL     OW33091   4.412   0.516  14.539 -0.4772 -0.4128 -0.5041
 7153SOL    HW133092   4.323   0.511  14.575 -0.6012 -2.1831 -1.0516
 7153SOL    HW233093   4.451   0.466  14.611  1.4456  1.0108 -0.5571
 7154SOL     OW33094   1.510   3.651   4.649 -0.6708 -0.3831  0.2379
 7154SOL    HW133095   1.565   3.584   4.690  1.0152  0.2456 -0.9927
 7154SOL    HW233096   1.484   3.613   4.565  0.1626 -2.3553  0.8592
 7155SOL     OW33097   4.192   2.327   2.084  0.0742  0.3896  0.8197
 7155SOL    HW133098   4.171   2.413   2.046  0.8381 -0.3992 -1.4228
 7155SOL    HW233099   4.134   2.275   2.028  0.8143  0.1292  0.2840
 7156SOL     OW33100   0.175   2.610   3.686  0.2732 -0.0632  0.4852
 7156SOL    HW133101   0.132   2.573   3.609  0.6700 -2.0878  1.2322
 7156SOL    HW233102   0.197   2.695   3.648 -0.6310  0.1830  0.5098
 7157SOL     OW33103   2.052   4.652   7.119  0.5281 -0.2914  1.2165
 7157SOL    HW133104   2.002   4.725   7.081  0.4997 -1.1147 -0.2959
 7157SOL    HW233105   1.983   4.622   7.178  0.9551  0.7401  2.2482
 7158SOL     OW33106   0.740   2.796   7.922 -0.2921 -0.1214 -0.0520
 7158SOL    HW133107   0.733   2.709   7.884  1.5245 -0.8127  1.2090
 7158SOL    HW233108   0.795   2.774   7.998 -1.1417 -0.8739  0.3441
 7159SOL     OW33109   4.311   1.793   2.243 -0.1379 -0.2682 -0.1343
 7159SOL    HW133110   4.264   1.783   2.160  0.7753 -2.5138 -0.3815
 7159SOL    HW233111   4.301   1.888   2.253 -0.4873 -0.1544 -1.5805
 7160SOL     OW33112   0.441   0.661  17.697  0.2479 -0.1197  0.1604
 7160SOL    HW133113   0.451   0.754  17.676 -0.7302  0.1348  0.8288
 7160SOL    HW233114   0.359   0.662  17.745  0.7232 -1.3441  1.0035
 7161SOL     OW33115   2.159   1.723   7.054 -0.2372 -0.4790  0.8206
 7161SOL    HW133116   2.252   1.740   7.041  0.4976 -2.5900  3.2906
 7161SOL    HW233117   2.131   1.713   6.964  0.2190  3.5827  0.1970
 7162SOL     OW33118   0.281   1.117   4.441  0.2101 -0.2990 -0.0928
 7162SOL    HW133119   0.236   1.130   4.357  1.2189 -1.2024 -0.7764
 7162SOL    HW233120   0.210   1.091   4.498  0.0138 -0.5860 -0.4660
 7163SOL     OW33121   2.455   3.193   8.245 -0.5298 -0.2369 -0.0284
 7163SOL    HW133122   2.420   3.231   8.326 -0.3493  3.0307 -1.4723
 7163SOL    HW233123   2.375   3.150   8.215 -0.5665  0.7462 -1.3131
 7164SOL     OW33124   1.197   3.832   8.798  0.5519  0.3536 -0.3862
 7164SOL    HW133125   1.161   3.843   8.886  1.4729  0.0322  0.0419
 7164SOL    HW233126   1.280   3.790   8.821  0.9631  1.2095 -0.3302
 7165SOL     OW33127   2.298   2.020   7.190  0.2748  0.2900 -0.1004
 7165SOL    HW133128   2.336   1.939   7.158 -1.6768 -0.9951  0.8455
 7165SOL    HW233129   2.333   2.015   7.279  0.1961  0.6705 -0.0461
 7166SOL     OW33130   3.660   0.059   6.491 -0.1338  0.0192  0.5120
 7166SOL    HW133131   3.635   0.148   6.468  0.0966  0.2395  1.1199
 7166SOL    HW233132   3.745   0.048   6.449 -0.4316 -0.7645  0.0929
 7167SOL     OW33133   0.817   2.553   2.779  0.6502 -0.2596  0.3750
 7167SOL    HW133134   0.911   2.572   2.784  0.2106  1.1035  3.1702
 7167SOL    HW233135   0.785   2.642   2.765 -0.1362 -0.7024 -0.6679
 7168SOL     OW33136   2.110   3.126  12.700  0.1371 -0.4143  0.1026
 7168SOL    HW133137   2.026   3.103  12.740 -1.4659  2.5417 -1.5315
 7168SOL    HW233138   2.084   3.136  12.609 -0.1071  0.7335  0.2888
 7169SOL     OW33139   3.448   1.579   1.887 -0.5723 -0.2282  0.7066
 7169SOL    HW133140   3.517   1.573   1.953  1.6526  1.4860 -1.5273
 7169SOL    HW233141   3.474   1.662   1.848  0.6734  0.0481  2.1286
 7170SOL     OW33142   4.343   1.364   3.394  0.7115  0.0381  0.2101
 7170SOL    HW133143   4.292   1.411   3.459 -1.3318 -0.9229 -0.7053
 7170SOL    HW233144   4.431   1.398   3.412  0.5050  0.8819 -0.4315
 7171SOL     OW33145   1.231   4.516   6.013  0.1509 -0.2913 -0.3362
 7171SOL    HW133146   1.191   4.597   5.983  1.1277  0.0811 -0.6161
 7171SOL    HW233147   1.307   4.551   6.059  0.0348  0.4793 -0.7323
 7172SOL     OW33148   1.262   0.915  15.260  0.2756 -0.2565 -0.1393
 7172SOL    HW133149   1.206   0.955  15.194  1.3169  1.7158  0.1711
 7172SOL    HW233150   1.300   0.849  15.202 -0.2219 -1.2369  0.6410
 7173SOL     OW33151   2.634   0.269   2.150 -0.3302  0.8186 -0.0215
 7173SOL    HW133152   2.669   0.263   2.238 -2.5334 -0.8283  0.7460
 7173SOL    HW233153   2.627   0.365   2.145 -5.5315  0.3589 -1.6933
 7174SOL     OW33154   2.446   2.216   1.292  0.4613  0.1185 -0.0099
 7174SOL    HW133155   2.531   2.178   1.315  0.0573 -0.7130  0.0997
 7174SOL    HW233156   2.431   2.184   1.203  2.5856 -0.7818 -0.0417
 7175SOL     OW33157   2.309   2.295   2.330 -0.0988 -0.2744  0.4516
 7175SOL    HW133158   2.276   2.228   2.270  1.0450 -1.0581  0.7133
 7175SOL    HW233159   2.390   2.311   2.280 -0.4049  1.9338  0.6348
 7176SOL     OW33160   3.922   2.536   7.863 -0.0193  0.3046  0.4113
 7176SOL    HW133161   3.856   2.601   7.886  1.7054  2.3775 -0.4889
 7176SOL    HW233162   3.918   2.480   7.941  0.1106 -0.9649 -0.4939
 7177SOL     OW33163   2.512   4.210   7.258 -0.2429 -0.0770  0.2247
 7177SOL    HW133164   2.594   4.221   7.211  0.1412 -1.4059  0.5791
 7177SOL    HW233165   2.465   4.288   7.230  0.0866  0.0225 -0.0571
 7178SOL     OW33166   0.272   1.913   1.462 -0.6160 -0.3109 -0.2578
 7178SOL    HW133167   0.203   1.968   1.500 -0.7083 -0.5952 -0.0152
 7178SOL    HW233168   0.218   1.852   1.412 -1.5906 -0.5726  1.1061
 7179SOL     OW33169   4.090   1.750  17.179 -0.1893 -0.3746  0.0558
 7179SOL    HW133170   4.045   1.715  17.102 -0.2191  0.1987 -0.1817
 7179SOL    HW233171   4.025   1.804  17.224 -0.9282 -0.1035 -1.3405
 7180SOL     OW33172   1.893   2.785   9.243  0.4414  0.7225 -0.0827
 7180SOL    HW133173   1.828   2.788   9.173  1.2273 -2.6106 -0.9763
 7180SOL    HW233174   1.828   2.765   9.310 -0.1957 -0.3488 -1.0147
 7181SOL     OW33175   1.332   3.321  17.620 -0.4984  0.1349 -0.0632
 7181SOL    HW133176   1.323   3.254  17.688  2.6384 -1.0741 -0.8535
 7181SOL    HW233177   1.427   3.315  17.611 -0.4587 -1.3989  1.2015
 7182SOL     OW33178   1.109   2.658   2.268  0.2987 -0.1715  0.1976
 7182SOL    HW133179   1.199   2.678   2.294 -0.7338  3.3725  1.0131
 7182SOL    HW233180   1.100   2.564   2.287 -1.5411 -0.5288 -2.4335
 7183SOL     OW33181   1.193   0.310   1.641 -0.3071  0.3592  0.2732
 7183SOL    HW133182   1.145   0.268   1.569  1.2167  0.9296 -1.0931
 7183SOL    HW233183   1.255   0.238   1.653 -1.8479 -0.9717  0.2868
 7184SOL     OW33184   3.584   4.658   0.054  0.3106 -0.3083 -0.3949
 7184SOL    HW133185   3.637   4.738   0.056  2.1636 -1.5705  0.8790
 7184SOL    HW233186   3.501   4.700   0.030 -0.3078 -0.8656  0.7213
 7185SOL     OW33187   0.751   1.914  12.912 -0.1220  0.0463 -0.1447
 7185SOL    HW133188   0.710   1.830  12.933 -0.7122  0.6810  1.2238
 7185SOL    HW233189   0.836   1.909  12.957  0.7115 -2.7621 -2.0570
 7186SOL     OW33190   0.032   2.582  12.807 -0.4915 -0.0105 -0.3574
 7186SOL    HW133191   4.735   2.668  12.827 -0.2729 -0.5840  2.4727
 7186SOL    HW233192   0.048   2.544  12.893 -0.6529 -2.0391 -1.2291
 7187SOL     OW33193   3.375   4.074   3.788  0.9381  0.1880 -0.5385
 7187SOL    HW133194   3.289   4.033   3.788  0.9054  0.2698 -1.9973
 7187SOL    HW233195   3.398   4.053   3.879 -2.4164  1.1824  0.5349
 7188SOL     OW33196   0.609   2.334  12.943 -0.3906  0.3871  0.2471
 7188SOL    HW133197   0.571   2.370  12.863 -0.6464  1.7861  0.9980
 7188SOL    HW233198   0.678   2.287  12.897  1.0417  2.5791  0.1839
 7189SOL     OW33199   4.714   1.181  17.235 -0.2192  0.2476 -0.1881
 7189SOL    HW133200   0.038   1.231  17.284 -0.7841  2.1765 -1.4074
 7189SOL    HW233201   4.669   1.254  17.194  1.2216  1.7740  0.9570
 7190SOL     OW33202   4.097   3.959  15.956 -0.1603  0.5782 -0.7912
 7190SOL    HW133203   4.014   3.956  15.909 -0.2325  0.9631 -0.6895
 7190SOL    HW233204   4.058   3.997  16.034  2.0666  0.4255  0.3976
 7191SOL     OW33205   1.142   1.773   4.547  0.1096 -0.2580 -0.2051
 7191SOL    HW133206   1.228   1.797   4.513 -0.2023  1.3375  0.1424
 7191SOL    HW233207   1.092   1.852   4.529  3.4691  2.0035  0.4221
 7192SOL     OW33208   3.345   0.506   2.370  0.1177 -0.2154 -0.0590
 7192SOL    HW133209   3.422   0.461   2.405  1.4792  1.4649 -0.9237
 7192SOL    HW233210   3.297   0.547   2.441  1.0442 -2.3396  1.8136
 7193SOL     OW33211   2.293   2.481   6.835 -0.1129  0.1353 -0.2950
 7193SOL    HW133212   2.280   2.407   6.776 -0.6773  0.6503 -0.8185
 7193SOL    HW233213   2.361   2.528   6.786 -0.0717  0.5375  0.1430
 7194SOL     OW33214   2.269   1.898   9.702  0.1635 -0.4945 -0.9779
 7194SOL    HW133215   2.256   1.890   9.796  1.3119  2.4043 -0.5789
 7194SOL    HW233216   2.198   1.958   9.677 -0.8999 -1.1296  0.5052
 7195SOL     OW33217   0.916   0.294  17.105  0.1884  0.1153  0.1526
 7195SOL    HW133218   0.889   0.310  17.014  1.0938  0.4486 -0.0570
 7195SOL    HW233219   0.862   0.361  17.148  0.7096  0.1714  0.7124
 7196SOL     OW33220   1.074   2.496   3.938 -0.0852 -0.0670 -0.5017
 7196SOL    HW133221   1.014   2.569   3.926  0.5609  0.8915  2.0923
 7196SOL    HW233222   1.051   2.427   3.875  1.2152  0.0025 -1.0566
 7197SOL     OW33223   4.363   0.625   3.308 -0.0926  0.0607 -0.7662
 7197SOL    HW133224   4.347   0.532   3.325  2.0831 -0.6077 -2.4038
 7197SOL    HW233225   4.310   0.658   3.380 -1.0714 -1.0805 -0.9568
 7198SOL     OW33226   3.258   2.230   8.827 -0.1088  0.0468 -0.2065
 7198SOL    HW133227   3.263   2.162   8.760 -1.9605  0.6493 -0.9392
 7198SOL    HW233228   3.207   2.173   8.885  0.1561  0.0747  0.0531
 7199SOL     OW33229   2.636   4.524   3.737  0.3650 -0.6080  0.1188
 7199SOL    HW133230   2.711   4.570   3.775 -0.5255  0.1146  0.9782
 7199SOL    HW233231   2.628   4.565   3.651 -1.1123  0.6113  0.8362
 7200SOL     OW33232   2.660   2.306   7.710 -0.4392 -0.7455  0.0404
 7200SOL    HW133233   2.669   2.216   7.740  1.6930 -0.8008 -0.8207
 7200SOL    HW233234   2.592   2.298   7.642 -1.5449  1.2149  0.8938
 7201SOL     OW33235   4.511   2.144   5.071 -0.4137 -0.3313  0.0467
 7201SOL    HW133236   4.464   2.143   5.154  0.0926  1.1738  0.3570
 7201SOL    HW233237   4.471   2.225   5.036  2.7053  0.6821 -1.1336
 7202SOL     OW33238   2.882   0.194   9.948  0.0286  0.3978  0.2125
 7202SOL    HW133239   2.946   0.152   9.890 -0.5496  2.0314 -1.6278
 7202SOL    HW233240   2.931   0.195  10.031  1.1811 -3.7959 -0.4330
 7203SOL     OW33241   0.500   0.203  14.461  0.0995  0.2571 -0.0772
 7203SOL    HW133242   0.438   0.200  14.534 -1.7907 -1.6426 -1.7661
 7203SOL    HW233243   0.459   0.149  14.393 -1.9164  0.5416  0.9384
 7204SOL     OW33244   0.772   3.300   2.212 -0.6376  0.2378  0.2146
 7204SOL    HW133245   0.731   3.273   2.294  0.4589 -0.8478  0.4062
 7204SOL    HW233246   0.716   3.372   2.185 -0.1482  0.7545  0.5809
 7205SOL     OW33247   1.150   2.579  14.074 -0.0492 -0.1622 -0.0156
 7205SOL    HW133248   1.069   2.531  14.061 -0.5789  0.9911 -0.9799
 7205SOL    HW233249   1.221   2.515  14.069  0.4722  0.2750  1.6690
 7206SOL     OW33250   3.266   3.684   1.877  0.1059  0.3135  0.1410
 7206SOL    HW133251   3.229   3.767   1.907 -1.5186 -0.5127  0.4086
 7206SOL    HW233252   3.235   3.636   1.954 -1.2168 -0.5361 -0.9114
 7207SOL     OW33253   1.158   2.568   1.527 -0.1029  0.3848 -0.0305
 7207SOL    HW133254   1.195   2.486   1.495  0.6142  0.6624  0.0960
 7207SOL    HW233255   1.063   2.563   1.512 -0.1905 -0.4200  0.8244
 7208SOL     OW33256   1.680   1.188   5.411 -0.4312  0.1057  0.3352
 7208SOL    HW133257   1.760   1.156   5.369 -0.1419 -0.5782  1.4095
 7208SOL    HW233258   1.677   1.145   5.497 -1.3806  0.9750  0.7377
 7209SOL     OW33259   0.122   3.021   8.701  0.2123  0.0126  0.3918
 7209SOL    HW133260   0.044   2.972   8.726  2.3749 -3.1542  1.0277
 7209SOL    HW233261   0.122   3.086   8.771  1.5628  2.8799 -2.2377
 7210SOL     OW33262   2.100   4.612   6.154 -0.0904  0.4118 -0.3040
 7210SOL    HW133263   2.180   4.587   6.199 -0.0934  2.1362  0.6632
 7210SOL    HW233264   2.129   4.698   6.121  1.0621  0.5025  0.9549
 7211SOL     OW33265   1.641   1.877   6.385  0.3026 -0.2843  0.1736
 7211SOL    HW133266   1.690   1.835   6.314  0.9288 -1.9787  1.6298
 7211SOL    HW233267   1.552   1.876   6.349  0.2992  3.9966  0.0331
 7212SOL     OW33268   0.822   2.286  12.425  0.1925 -0.7466  0.2447
 7212SOL    HW133269   0.807   2.300  12.519 -1.4254  1.1389 -0.3003
 7212SOL    HW233270   0.737   2.261  12.389 -0.7623  0.7810  1.4308
 7213SOL     OW33271   0.037   1.906   4.736  0.0107  0.0020  0.2804
 7213SOL    HW133272   0.118   1.888   4.689  0.0291  0.7220  0.0405
 7213SOL    HW233273   0.081   1.929   4.818  2.7820 -0.1971 -1.1473
 7214SOL     OW33274   3.658   3.373   2.169  0.6271  0.1215 -0.5067
 7214SOL    HW133275   3.710   3.297   2.197 -0.8377 -1.0933 -1.1251
 7214SOL    HW233276   3.673   3.366   2.075  0.7136 -0.5988 -0.4443
 7215SOL     OW33277   1.113   3.738   7.604  0.1995  1.1924 -0.0537
 7215SOL    HW133278   1.161   3.658   7.623 -1.7813  0.2029  0.7651
 7215SOL    HW233279   1.119   3.730   7.508 -1.2768 -1.2087  0.0622
 7216SOL     OW33280   0.417   0.877   6.218  0.0014 -0.0847  0.2927
 7216SOL    HW133281   0.346   0.866   6.280 -1.4564  1.0197 -1.1953
 7216SOL    HW233282   0.496   0.851   6.267  0.2782  2.1517  1.0838
 7217SOL     OW33283   0.862   4.056   4.184  0.0818 -0.1514  0.4184
 7217SOL    HW133284   0.810   4.127   4.146  2.5359 -1.7150 -5.8437
 7217SOL    HW233285   0.899   4.010   4.109 -1.9425 -0.9187 -0.1088
 7218SOL     OW33286   4.318   3.038  16.516 -0.2523 -0.7095  0.0173
 7218SOL    HW133287   4.262   3.111  16.543 -2.2788 -3.0567  2.1586
 7218SOL    HW233288   4.328   2.982  16.593  0.7148 -3.2827 -1.9926
 7219SOL     OW33289   0.110   4.334  15.994  0.5119 -0.3148 -0.3565
 7219SOL    HW133290   0.078   4.373  15.913 -1.9568  0.8519  1.1926
 7219SOL    HW233291   0.109   4.412  16.048  0.9835 -0.5171 -0.0545
 7220SOL     OW33292   0.444   2.993  12.004 -0.1180  0.1581 -0.0865
 7220SOL    HW133293   0.398   3.058  12.058 -1.7237 -1.3629  0.3969
 7220SOL    HW233294   0.363   2.966  11.959 -1.0179  0.4897  1.3149
 7221SOL     OW33295   0.868   0.782   2.371  0.1326  0.8272 -0.1714
 7221SOL    HW133296   0.946   0.837   2.382  0.1899  0.9688 -1.2882
 7221SOL    HW233297   0.809   0.830   2.430  0.5104  0.7641  0.2619
 7222SOL     OW33298   1.304   3.564  11.386 -0.2301  0.1738 -0.4812
 7222SOL    HW133299   1.251   3.548  11.308 -1.0951  0.7516 -0.0155
 7222SOL    HW233300   1.235   3.591  11.446  0.4004  1.5340 -0.3685
 7223SOL     OW33301   1.365   0.626  14.456  0.1659 -0.3638 -0.3832
 7223SOL    HW133302   1.345   0.663  14.542  3.8733  0.1654  0.2816
 7223SOL    HW233303   1.288   0.570  14.445  1.2863 -1.6855 -1.5652
 7224SOL     OW33304   2.074   2.283   3.002 -0.0657 -0.6652 -0.0834
 7224SOL    HW133305   2.017   2.207   3.014  0.2077 -1.1628 -1.9806
 7224SOL    HW233306   2.045   2.316   2.917  1.2690  0.6788 -0.0187
 7225SOL     OW33307   4.438   4.247   8.211  0.1898  0.8022  0.3594
 7225SOL    HW133308   4.345   4.239   8.232 -0.1281  1.2488 -0.9151
 7225SOL    HW233309   4.451   4.342   8.220  1.4741  0.7897 -1.3088
 7226SOL     OW33310   1.463   2.884  15.315 -0.3483  0.1903 -0.2861
 7226SOL    HW133311   1.460   2.856  15.407 -3.2754 -1.9568 -1.0288
 7226SOL    HW233312   1.371   2.876  15.290 -0.4097 -0.8762  0.3000
 7227SOL     OW33313   0.705   4.087   8.535  0.4111 -0.1728  0.4070
 7227SOL    HW133314   0.660   4.038   8.466  2.4848  0.0330 -1.1152
 7227SOL    HW233315   0.797   4.072   8.510  0.1874  1.9063 -1.6259
 7228SOL     OW33316   4.374   2.911   2.685  0.2799  0.4371  0.2211
 7228SOL    HW133317   4.286   2.946   2.698  0.3630 -0.4313  3.3021
 7228SOL    HW233318   4.393   2.913   2.592 -0.4189  0.2209  0.0749
 7229SOL     OW33319   4.038   1.558   6.040 -0.0083  0.1129  0.2328
 7229SOL    HW133320   4.110   1.620   6.052  1.2437 -1.2910 -0.0181
 7229SOL    HW233321   4.063   1.496   6.109  0.4808  2.1846  1.9211
 7230SOL     OW33322   2.206   3.574  15.057 -0.1782  0.6564 -0.4475
 7230SOL    HW133323   2.192   3.491  15.102 -0.1381  0.5017 -0.7220
 7230SOL    HW233324   2.227   3.542  14.969  1.3965 -1.2660  0.6380
 7231SOL     OW33325   0.468   2.392   9.417 -0.1642 -0.1342  0.0101
 7231SOL    HW133326   0.482   2.297   9.423 -2.1701 -0.3194  1.7801
 7231SOL    HW233327   0.405   2.399   9.489  0.0857 -1.1601  0.3277
 7232SOL     OW33328   2.452   3.176   8.814 -0.3736 -0.7472  0.5738
 7232SOL    HW133329   2.510   3.188   8.889  0.2335 -1.2050  0.1686
 7232SOL    HW233330   2.371   3.224   8.833  0.2290  0.6020 -0.1998
 7233SOL     OW33331   3.541   2.372  14.130  0.0740  0.2551 -0.1209
 7233SOL    HW133332   3.538   2.276  14.134 -0.7159  0.3460  1.2966
 7233SOL    HW233333   3.613   2.390  14.190  1.0331  0.7810 -1.4462
 7234SOL     OW33334   1.079   2.729   4.848 -0.4479  0.0341  0.2843
 7234SOL    HW133335   1.166   2.702   4.818 -0.6750  0.1204 -0.4617
 7234SOL    HW233336   1.025   2.649   4.846 -1.7987  0.9741 -0.8589
 7235SOL     OW33337   0.815   0.466  12.224 -0.0190  0.0857 -0.1441
 7235SOL    HW133338   0.799   0.392  12.165 -1.6049 -0.5140  1.0279
 7235SOL    HW233339   0.831   0.418  12.305  1.4382  0.7599 -0.0276
 7236SOL     OW33340   2.321   1.779   2.789 -0.1892 -0.3589 -0.8738
 7236SOL    HW133341   2.296   1.825   2.869 -0.9872 -0.4470 -1.0686
 7236SOL    HW233342   2.407   1.751   2.819 -0.4383  0.6079  0.7485
 7237SOL     OW33343   1.692   1.006   8.602 -0.1353 -0.1735 -0.4971
 7237SOL    HW133344   1.647   0.974   8.680  0.6120  0.0769  0.0427
 7237SOL    HW233345   1.782   0.978   8.620 -0.0901  0.8959  0.9780
 7238SOL     OW33346   1.861   3.176   4.162 -0.0321 -0.2390  0.0335
 7238SOL    HW133347   1.870   3.269   4.180 -1.1174 -0.1519  0.0704
 7238SOL    HW233348   1.790   3.160   4.224 -1.1429 -1.2286 -1.5119
 7239SOL     OW33349   2.215   2.079   1.394 -0.7486 -0.0361 -0.1041
 7239SOL    HW133350   2.194   2.087   1.301  0.2534  0.7742 -0.2633
 7239SOL    HW233351   2.303   2.118   1.395  0.9292 -3.8462 -1.4404
 7240SOL     OW33352   1.770   3.669   4.984 -0.0352 -0.2351 -0.1826
 7240SOL    HW133353   1.694   3.623   4.950  0.8542 -1.9947  0.2078
 7240SOL    HW233354   1.821   3.687   4.905  2.2846 -2.0893  0.8836
 7241SOL     OW33355   0.783   1.098   3.737  0.6105 -0.4951 -0.2339
 7241SOL    HW133356   0.808   1.006   3.748 -0.9916 -0.7697  1.0315
 7241SOL    HW233357   0.688   1.085   3.741  0.7463 -1.2986  0.5688
 7242SOL     OW33358   0.673   3.512  12.299 -0.2210  0.1477 -0.3443
 7242SOL    HW133359   0.737   3.442  12.307 -0.2684  0.3124  1.5984
 7242SOL    HW233360   0.618   3.502  12.377  0.5665 -1.6020 -0.0169
 7243SOL     OW33361   2.899   3.817   8.466 -0.8182  0.6454  0.3140
 7243SOL    HW133362   2.989   3.801   8.494 -0.4841  0.3838 -0.9238
 7243SOL    HW233363   2.909   3.814   8.371  0.3031  0.1055  0.4578
 7244SOL     OW33364   2.516   4.222   7.746 -0.3709  0.6648  0.4566
 7244SOL    HW133365   2.474   4.169   7.679 -0.5663 -0.2148  1.2593
 7244SOL    HW233366   2.443   4.267   7.789 -0.3187  0.5196  0.6999
 7245SOL     OW33367   3.677   2.587   1.548  0.2412  0.7664  0.1523
 7245SOL    HW133368   3.764   2.550   1.560 -0.2006 -1.0676 -2.2659
 7245SOL    HW233369   3.651   2.620   1.634 -2.7254  1.6869 -1.1032
 7246SOL     OW33370   2.142   1.031   9.191 -0.1594  0.0221  0.0154
 7246SOL    HW133371   2.125   0.999   9.103  1.9003  3.1137 -1.5206
 7246SOL    HW233372   2.130   1.125   9.178  3.4220  0.2116 -1.8942
 7247SOL     OW33373   0.937   3.299  15.214 -0.0853  0.6300  0.2648
 7247SOL    HW133374   0.916   3.379  15.260  1.6170 -0.2959  2.6356
 7247SOL    HW233375   0.874   3.234  15.246 -0.9808  0.7009 -1.3444
 7248SOL     OW33376   0.019   2.690   8.879  0.0655 -0.1508  0.4130
 7248SOL    HW133377   0.082   2.676   8.949 -0.1039 -0.2307  0.5490
 7248SOL    HW233378   4.706   2.615   8.903  1.0349 -0.9539  0.1187
 7249SOL     OW33379   0.820   1.384   7.044 -0.0769  0.2032 -0.3785
 7249SOL    HW133380   0.809   1.452   6.977 -3.7898 -1.6223 -1.6131
 7249SOL    HW233381   0.901   1.423   7.076 -1.1690  2.1296  0.0366
 7250SOL     OW33382   2.876   2.102   3.417  0.5362 -0.1333 -0.3007
 7250SOL    HW133383   2.914   2.134   3.499 -0.7219  0.2178  0.1589
 7250SOL    HW233384   2.801   2.162   3.411 -0.0682 -1.0633 -2.0882
 7251SOL     OW33385   0.670   2.946  11.238 -0.2367 -0.4368 -0.2826
 7251SOL    HW133386   0.763   2.921  11.235 -0.3195 -0.7407 -0.3325
 7251SOL    HW233387   0.643   2.896  11.315  0.7383  0.3460  0.5675
 7252SOL     OW33388   4.591   2.858   6.825  0.1995 -0.6280 -0.1421
 7252SOL    HW133389   4.615   2.769   6.797  0.8050 -0.2481 -0.8258
 7252SOL    HW233390   4.662   2.886   6.882  1.9015  0.5187 -2.8414
 7253SOL     OW33391   2.392   0.374  10.892 -0.6469  0.7090 -0.2661
 7253SOL    HW133392   2.365   0.419  10.812  0.4222  1.0725 -0.4270
 7253SOL    HW233393   2.423   0.439  10.956 -0.2023 -0.9267  1.1876
 7254SOL     OW33394   2.884   1.892   4.677  0.5516  0.5088 -0.1356
 7254SOL    HW133395   2.837   1.862   4.755  1.3118  1.3877  0.6590
 7254SOL    HW233396   2.970   1.861   4.703  1.3193  0.5080 -2.6817
 7255SOL     OW33397   0.861   4.116   2.584  0.0069  0.3907  0.3379
 7255SOL    HW133398   0.892   4.158   2.504  1.4262  0.1512  0.7733
 7255SOL    HW233399   0.877   4.022   2.571 -0.4766  0.4656 -0.8162
 7256SOL     OW33400   0.467   4.396  17.131 -0.1219  0.5647  0.1678
 7256SOL    HW133401   0.416   4.359  17.059 -0.1626 -2.9737  2.0112
 7256SOL    HW233402   0.429   4.484  17.133 -0.6038  0.3404  0.9968
 7257SOL     OW33403   3.831   3.439  12.516  0.6309  0.2915  0.0174
 7257SOL    HW133404   3.830   3.467  12.424  1.4664 -0.6421 -0.2704
 7257SOL    HW233405   3.915   3.396  12.504  0.1886 -0.2761 -1.0183
 7258SOL     OW33406   3.446   1.834   6.309  0.2343  0.3032  0.1412
 7258SOL    HW133407   3.435   1.922   6.274  0.7276  0.5443  0.5988
 7258SOL    HW233408   3.429   1.864   6.398 -1.3365 -0.2337  0.0272
 7259SOL     OW33409   2.784   1.554   2.416  0.1832 -0.6106  0.5427
 7259SOL    HW133410   2.691   1.529   2.412  0.0996 -0.1918 -0.2495
 7259SOL    HW233411   2.774   1.635   2.467 -1.0601 -1.2108  1.2505
 7260SOL     OW33412   0.705   0.314   2.133  0.2944  0.0503  0.0306
 7260SOL    HW133413   0.737   0.399   2.163  1.9408 -1.2474  1.9292
 7260SOL    HW233414   0.742   0.321   2.045 -0.0556  1.0804 -0.0396
 7261SOL     OW33415   2.867   1.153  17.054  0.1630  0.2862 -0.2189
 7261SOL    HW133416   2.954   1.192  17.056 -0.6926  2.0967  1.2913
 7261SOL    HW233417   2.859   1.128  17.146  2.1358 -0.5725 -0.2876
 7262SOL     OW33418   3.416   3.012   0.177 -0.3734  0.1472  0.0195
 7262SOL    HW133419   3.502   2.985   0.144 -0.7788  0.4909 -1.3366
 7262SOL    HW233420   3.359   2.984   0.105 -0.0388 -0.1904 -0.1188
 7263SOL     OW33421   2.824   2.291  15.185  0.4042 -0.6622 -0.1288
 7263SOL    HW133422   2.773   2.261  15.260  0.4858 -0.1816  0.1215
 7263SOL    HW233423   2.840   2.384  15.203  2.1240 -0.8380 -0.7622
 7264SOL     OW33424   3.586   1.349   6.338 -0.3210  0.1309  0.1154
 7264SOL    HW133425   3.530   1.275   6.362  2.0879 -1.8913 -0.5781
 7264SOL    HW233426   3.523   1.420   6.350  1.2989  1.7321 -0.9873
 7265SOL     OW33427   1.157   3.562  11.154  0.6233  0.0824  0.0324
 7265SOL    HW133428   1.115   3.480  11.128  0.6561  0.7770 -2.1992
 7265SOL    HW233429   1.086   3.625  11.156  0.7251  0.2134 -0.5303
 7266SOL     OW33430   1.870   3.449  14.291 -0.1769  0.4861  0.2831
 7266SOL    HW133431   1.843   3.428  14.380 -0.0702  1.9935  0.6714
 7266SOL    HW233432   1.877   3.545  14.298 -0.7392  0.4357  1.5153
 7267SOL     OW33433   2.650   4.003   7.764 -0.7795 -0.8524 -0.6508
 7267SOL    HW133434   2.606   4.085   7.789 -3.2135 -1.2033 -3.8569
 7267SOL    HW233435   2.576   3.948   7.791 -1.0231  0.0938  0.6119
 7268SOL     OW33436   2.204   0.163   6.619  0.0910 -0.6169 -0.0646
 7268SOL    HW133437   2.281   0.159   6.562 -1.0576  1.7192 -1.7812
 7268SOL    HW233438   2.157   0.241   6.588  0.5350 -0.0965  0.5834
 7269SOL     OW33439   2.379   0.880   5.137  0.1000  0.1011  0.2035
 7269SOL    HW133440   2.452   0.838   5.093 -1.1582 -1.0201 -0.8048
 7269SOL    HW233441   2.352   0.940   5.068 -2.8623 -3.6858 -1.9502
 7270SOL     OW33442   2.355   2.326   3.673  0.1045 -0.0429  0.0024
 7270SOL    HW133443   2.274   2.376   3.665 -0.8923 -1.6847 -0.2812
 7270SOL    HW233444   2.331   2.265   3.743 -3.1441  0.5761 -0.5869
 7271SOL     OW33445   2.910   0.928   6.086  0.6768  0.0236  0.2501
 7271SOL    HW133446   2.931   1.017   6.059  0.6412  0.0837  0.4225
 7271SOL    HW233447   2.936   0.933   6.178  0.7343 -0.6345  0.2687
 7272SOL     OW33448   3.716   3.676   0.507 -0.2327 -0.0402 -0.0918
 7272SOL    HW133449   3.687   3.586   0.496  0.7389 -0.1742 -1.5322
 7272SOL    HW233450   3.685   3.714   0.425  0.3334 -0.2565 -0.4074
 7273SOL     OW33451   3.472   2.529   4.587  0.2840 -0.3112 -0.6992
 7273SOL    HW133452   3.379   2.553   4.592  0.2608 -0.8495  1.3455
 7273SOL    HW233453   3.491   2.547   4.495 -2.6475  0.9259 -1.0754
 7274SOL     OW33454   4.492   2.392   2.291 -0.1608 -0.3267  0.1868
 7274SOL    HW133455   4.412   2.370   2.244  0.6099 -0.7872 -0.8878
 7274SOL    HW233456   4.549   2.443   2.234  0.3779 -0.1477  0.8778
 7275SOL     OW33457   1.730   2.810  17.464  0.3357  0.3202  0.5732
 7275SOL    HW133458   1.810   2.861  17.478 -0.6782  1.6148  1.5660
 7275SOL    HW233459   1.749   2.769  17.379 -3.7574  2.6972 -1.4607
 7276SOL     OW33460   2.629   3.153   5.444  0.0540 -0.1126 -0.6652
 7276SOL    HW133461   2.550   3.207   5.455 -1.5709 -2.5334 -0.4780
 7276SOL    HW233462   2.635   3.110   5.529 -0.1816  0.7689 -0.2010
 7277SOL     OW33463   4.152   2.534  11.652  0.0400 -0.4720 -0.0257
 7277SOL    HW133464   4.120   2.585  11.727  1.3241 -0.2657  0.3788
 7277SOL    HW233465   4.077   2.528  11.594  0.8965 -0.6860 -1.1095
 7278SOL     OW33466   0.948   4.009   8.432  0.3996  0.3302  0.1146
 7278SOL    HW133467   0.938   3.990   8.338 -0.9086  0.0098  0.3076
 7278SOL    HW233468   0.964   3.921   8.466 -0.6116  0.1047  0.0138
 7279SOL     OW33469   0.370   2.924   7.379  0.0399 -0.3975  0.1029
 7279SOL    HW133470   0.406   2.851   7.428  3.5438  1.2884  0.0371
 7279SOL    HW233471   0.293   2.886   7.336 -0.4061  0.8888 -0.2611
 7280SOL     OW33472   3.663   2.545   0.638  0.2173 -0.0018 -0.0910
 7280SOL    HW133473   3.755   2.528   0.618  0.7857  1.1262  1.6122
 7280SOL    HW233474   3.639   2.498   0.719 -1.3581 -0.3665 -0.7735
 7281SOL     OW33475   0.620   2.573   5.262  0.3849 -0.6444  0.1062
 7281SOL    HW133476   0.603   2.615   5.177  0.7236 -1.3153 -0.2921
 7281SOL    HW233477   0.653   2.653   5.304 -1.2878 -0.4685  1.0943
 7282SOL     OW33478   4.388   2.355   1.895 -0.0134 -0.0650  0.1037
 7282SOL    HW133479   4.296   2.358   1.919  0.0557  3.1404 -0.0175
 7282SOL    HW233480   4.425   2.442   1.913 -2.8502  1.3271 -0.8100
 7283SOL     OW33481   4.224   4.394  15.115 -0.1096  0.2761  0.4640
 7283SOL    HW133482   4.175   4.463  15.159  0.2474  0.3210  0.7924
 7283SOL    HW233483   4.269   4.349  15.187  0.5874 -0.7797 -0.6323
 7284SOL     OW33484   0.310   0.187   2.712  0.1984  0.3137  0.2081
 7284SOL    HW133485   0.387   0.242   2.698  0.0178  0.0445 -1.8768
 7284SOL    HW233486   0.262   0.233   2.781  0.4914  0.2693  0.4412
 7285SOL     OW33487   2.979   3.932   6.072 -0.1344 -1.0562  0.5866
 7285SOL    HW133488   2.992   4.019   6.034  0.4514 -1.1595  0.5435
 7285SOL    HW233489   2.915   3.899   6.009 -1.6217  1.1195  0.9694
 7286SOL     OW33490   0.637   3.233   2.579  0.1667  0.1889 -0.1013
 7286SOL    HW133491   0.583   3.193   2.647  0.2813 -1.0477 -0.7289
 7286SOL    HW233492   0.577   3.231   2.505 -0.0228 -1.0647  0.0864
 7287SOL     OW33493   4.254   0.214   1.758 -0.6522 -0.2070  0.5576
 7287SOL    HW133494   4.304   0.241   1.835  1.8956  1.0908 -1.5349
 7287SOL    HW233495   4.168   0.214   1.801  0.8000 -1.0612  3.4761
 7288SOL     OW33496   1.219   2.418   8.944  0.1015 -0.4545 -0.0000
 7288SOL    HW133497   1.218   2.445   9.036  0.0900  1.2092 -0.4917
 7288SOL    HW233498   1.239   2.325   8.954  0.0795 -0.4850 -0.2388
 7289SOL     OW33499   0.557   1.260   7.780 -0.3412  0.4336  0.0691
 7289SOL    HW133500   0.612   1.286   7.706  0.0625 -0.2965  0.1174
 7289SOL    HW233501   0.604   1.307   7.849  0.4723 -0.2899 -0.0010
 7290SOL     OW33502   4.388   0.479   6.795  0.0910 -0.5486 -0.4126
 7290SOL    HW133503   4.321   0.546   6.811  1.2700  0.5174  0.1015
 7290SOL    HW233504   4.458   0.513   6.851  0.8308 -0.6271 -1.2874
 7291SOL     OW33505   4.124   4.269   3.129 -0.2817 -0.0441 -0.0130
 7291SOL    HW133506   4.089   4.218   3.202  0.0066  0.1841  0.2838
 7291SOL    HW233507   4.216   4.244   3.133 -0.2572  0.2937  1.5795
 7292SOL     OW33508   3.766   0.966   7.360  0.0132  0.2085  0.1425
 7292SOL    HW133509   3.834   0.966   7.428  0.1072  0.6081  0.0498
 7292SOL    HW233510   3.802   1.026   7.295 -0.4895  0.3407 -0.0044
 7293SOL     OW33511   2.406   4.364   6.776  0.0712  0.0002  0.0006
 7293SOL    HW133512   2.426   4.408   6.693  3.3166 -0.7228  0.3842
 7293SOL    HW233513   2.487   4.379   6.824  0.7145  0.1433 -1.1298
 7294SOL     OW33514   2.262   1.113   6.558 -0.0374  0.0570 -0.4792
 7294SOL    HW133515   2.234   1.037   6.506 -0.8819  0.6018 -0.8367
 7294SOL    HW233516   2.188   1.169   6.534  0.0129 -0.2048 -1.2446
 7295SOL     OW33517   2.452   4.219   0.503 -0.0963 -0.4360 -0.0308
 7295SOL    HW133518   2.441   4.308   0.470  0.4991 -0.9752 -1.6971
 7295SOL    HW233519   2.380   4.175   0.458  1.5066 -1.8197 -1.2752
 7296SOL     OW33520   1.926   2.673   6.125 -0.6411 -0.0351  0.3149
 7296SOL    HW133521   1.993   2.645   6.187 -1.3077 -0.4827  0.8320
 7296SOL    HW233522   1.853   2.623   6.161 -0.1117 -0.2937  1.0482
 7297SOL     OW33523   1.616   4.401   3.236  0.8182 -0.2183 -0.4125
 7297SOL    HW133524   1.582   4.490   3.222  1.1336  0.0874  0.7521
 7297SOL    HW233525   1.538   4.348   3.218  1.3079 -0.2833 -2.3180
 7298SOL     OW33526   2.983   0.028   8.343 -0.6215  0.4119 -0.1943
 7298SOL    HW133527   3.010   0.082   8.269  1.4839  0.2561  0.4436
 7298SOL    HW233528   2.895   0.056   8.366 -1.0934 -1.5079  0.3345
 7299SOL     OW33529   4.307   2.729  16.409  0.3879  0.2366  0.6352
 7299SOL    HW133530   4.238   2.765  16.353  0.8277 -1.0529 -0.7386
 7299SOL    HW233531   4.371   2.692  16.348  1.3984  1.4459  0.9739
 7300SOL     OW33532   4.386   0.341   4.526  0.2199  0.5366  1.2207
 7300SOL    HW133533   4.295   0.327   4.552  0.3569 -1.9121  0.4203
 7300SOL    HW233534   4.389   0.403   4.453 -2.2418 -2.3379 -1.3878
 7301SOL     OW33535   1.623   2.560   6.906  0.1852  0.3629  0.4751
 7301SOL    HW133536   1.591   2.638   6.860 -1.1608  0.5262  1.6884
 7301SOL    HW233537   1.575   2.563   6.989  0.3702  0.1037  0.5915
 7302SOL     OW33538   2.187   3.239   9.425 -0.0747 -0.1009  0.2378
 7302SOL    HW133539   2.256   3.178   9.396  0.0056  0.4127 -0.6518
 7302SOL    HW233540   2.210   3.246   9.518  0.8883  0.3513 -0.0342
 7303SOL     OW33541   1.115   2.943   8.406  0.3108 -0.4601  0.0065
 7303SOL    HW133542   1.189   2.928   8.464 -0.5390  0.1865  1.2532
 7303SOL    HW233543   1.159   2.924   8.323  1.1490  1.4938 -0.0107
 7304SOL     OW33544   0.279   0.292   7.405  0.1337 -0.1212  0.3067
 7304SOL    HW133545   0.269   0.269   7.498 -0.8974  0.5055  0.3566
 7304SOL    HW233546   0.188   0.297   7.375 -0.1339  2.6876  1.6127
 7305SOL     OW33547   1.803   1.028   4.828 -0.2458 -0.2555 -0.1241
 7305SOL    HW133548   1.776   1.082   4.754 -2.1952 -0.4206  0.4540
 7305SOL    HW233549   1.776   1.077   4.907  0.7306 -0.6539  0.4506
 7306SOL     OW33550   0.163   2.211  10.280  0.1439 -0.2124  0.1116
 7306SOL    HW133551   0.121   2.149  10.339  1.5018 -1.0493  0.1888
 7306SOL    HW233552   0.086   2.262  10.252  0.7100 -0.1473 -1.3314
 7307SOL     OW33553   2.137   3.773   0.776 -0.2414  0.5636  0.0755
 7307SOL    HW133554   2.201   3.845   0.770  0.5145  0.0511  2.1005
 7307SOL    HW233555   2.188   3.699   0.743 -1.3642 -0.5941  0.9573
 7308SOL     OW33556   2.469   2.673   7.246 -0.1297 -0.1261  0.1130
 7308SOL    HW133557   2.486   2.589   7.290  0.2795 -0.0739  0.0519
 7308SOL    HW233558   2.458   2.737   7.316  0.1806  3.0095 -2.6946
 7309SOL     OW33559   0.726   1.654   2.905  0.1802  0.2931  0.3316
 7309SOL    HW133560   0.764   1.566   2.908  0.1685  0.2851  0.2248
 7309SOL    HW233561   0.789   1.712   2.949  1.5343  0.0229 -1.2392
 7310SOL     OW33562   3.242   0.665   3.588  0.3768 -0.5935 -0.3312
 7310SOL    HW133563   3.194   0.602   3.535  1.2454 -2.4875  1.1621
 7310SOL    HW233564   3.327   0.669   3.543  1.3814  0.5649  1.6467
 7311SOL     OW33565   0.780   0.583   2.163  0.2301  0.1574 -0.2660
 7311SOL    HW133566   0.812   0.632   2.239 -1.2995  0.0663  0.4330
 7311SOL    HW233567   0.737   0.653   2.114  0.9270  1.0360  0.3839
 7312SOL     OW33568   1.670   3.465  14.494 -0.4133 -0.0808  0.3551
 7312SOL    HW133569   1.590   3.430  14.533  0.3916 -0.6829  1.4793
 7312SOL    HW233570   1.631   3.538  14.446 -0.9848  1.3896  3.0551
 7313SOL     OW33571   4.277   2.025   3.029  0.4272  0.3798 -0.1070
 7313SOL    HW133572   4.273   2.111   3.071 -1.3284  0.7025 -0.9224
 7313SOL    HW233573   4.352   2.037   2.971  0.1919 -2.6977 -1.0737
 7314SOL     OW33574   2.026   2.587  17.403 -0.0499 -0.2559  0.1996
 7314SOL    HW133575   2.073   2.619  17.326 -1.2951  0.0700 -0.4143
 7314SOL    HW233576   1.980   2.666  17.432  1.6808  0.5582  0.7345
 7315SOL     OW33577   4.486   1.697   8.077  0.0038  0.1425 -0.0922
 7315SOL    HW133578   4.467   1.694   8.171 -2.3468 -0.5726 -0.5897
 7315SOL    HW233579   4.478   1.791   8.058 -0.3311  0.0151 -0.5767
 7316SOL     OW33580   1.355   2.595   7.758 -0.2165 -0.2578  0.2583
 7316SOL    HW133581   1.344   2.599   7.853 -1.3751  2.5289  0.0035
 7316SOL    HW233582   1.422   2.527   7.763 -0.5061 -0.5172  0.5827
 7317SOL     OW33583   2.082   0.608   1.336  0.3633  0.0737  0.0647
 7317SOL    HW133584   2.013   0.580   1.276 -1.9967 -0.0963  2.8478
 7317SOL    HW233585   2.116   0.521   1.354  0.1358 -0.1962 -0.7887
 7318SOL     OW33586   0.550   2.249   4.509  0.0921  0.5948 -0.0198
 7318SOL    HW133587   0.459   2.279   4.501 -0.7895 -1.9097  0.5977
 7318SOL    HW233588   0.523   2.175   4.563  1.8850 -0.6986 -0.8828
 7319SOL     OW33589   2.299   1.172   7.916  0.3104 -0.1179  0.5216
 7319SOL    HW133590   2.302   1.109   7.988 -0.8237 -2.6131 -1.6005
 7319SOL    HW233591   2.366   1.236   7.941  0.8094  0.4611 -2.3103
 7320SOL     OW33592   1.781   1.675   9.071  0.0073  0.3529  0.5342
 7320SOL    HW133593   1.692   1.666   9.107 -0.9889  1.3526 -1.7078
 7320SOL    HW233594   1.779   1.621   8.992 -0.5898  1.2049 -0.0370
 7321SOL     OW33595   4.143   3.537   5.076 -0.3268  0.2912 -0.2197
 7321SOL    HW133596   4.072   3.592   5.043  1.5527  1.9573 -1.4098
 7321SOL    HW233597   4.092   3.476   5.131 -1.2620  0.8603 -0.4539
 7322SOL     OW33598   2.008   1.568   1.615  0.3026  0.6210  0.2960
 7322SOL    HW133599   2.012   1.570   1.520 -1.5242 -1.2350  0.1691
 7322SOL    HW233600   1.948   1.636   1.645 -0.0643  0.4266  0.0162
 7323SOL     OW33601   0.125   4.260  17.419 -0.1349 -0.4523 -0.4507
 7323SOL    HW133602   0.217   4.234  17.421  0.3424  1.4415  1.9764
 7323SOL    HW233603   0.122   4.303  17.334  0.7616 -2.5569 -1.5512
 7324SOL     OW33604   0.358   0.868   4.262 -0.1609 -0.1866 -0.3621
 7324SOL    HW133605   0.403   0.926   4.323  1.0330 -1.6957  0.2007
 7324SOL    HW233606   0.355   0.784   4.307  0.3989 -0.1055 -0.1717
 7325SOL     OW33607   0.377   1.257   1.647 -0.2187  0.4114 -0.6547
 7325SOL    HW133608   0.398   1.336   1.697  1.8019 -0.4464 -0.1532
 7325SOL    HW233609   0.297   1.285   1.603  0.7725  2.2755 -1.2473
 7326SOL     OW33610   0.993   1.303   0.104  0.1022 -0.0124  0.2375
 7326SOL    HW133611   0.968   1.211   0.094  0.7018  0.0380 -1.6660
 7326SOL    HW233612   0.914   1.357   0.109 -0.0937 -0.4117  1.4482
 7327SOL     OW33613   0.197   2.328  14.307  0.5239 -0.5103  0.0280
 7327SOL    HW133614   0.169   2.328  14.215 -2.8498 -0.5282  1.0470
 7327SOL    HW233615   0.228   2.238  14.316  0.2005 -0.7081 -0.7839
 7328SOL     OW33616   2.721   3.585   2.349 -0.1854  0.0748  0.3164
 7328SOL    HW133617   2.727   3.541   2.264 -1.6048  1.2861 -0.4237
 7328SOL    HW233618   2.642   3.639   2.336  0.6654  1.0029 -1.0749
 7329SOL     OW33619   3.193   1.113   6.087 -0.0340 -0.4610 -0.5970
 7329SOL    HW133620   3.214   1.048   6.020  2.4309  1.4079 -1.6519
 7329SOL    HW233621   3.246   1.188   6.058  0.1468 -0.4462 -0.2291
 7330SOL     OW33622   4.375   3.477   0.742 -0.3528  0.1504  0.0648
 7330SOL    HW133623   4.397   3.404   0.684  0.5909  0.2814  0.2718
 7330SOL    HW233624   4.447   3.468   0.804 -1.1993 -1.8198  0.7876
 7331SOL     OW33625   4.257   3.302  16.710 -0.7405  0.4220  0.0464
 7331SOL    HW133626   4.174   3.345  16.731 -0.7024 -0.5547  2.1611
 7331SOL    HW233627   4.240   3.211  16.734  0.4894  0.7010  1.9293
 7332SOL     OW33628   1.840   1.028  16.442  0.0807 -0.2533 -0.2503
 7332SOL    HW133629   1.844   1.123  16.449  3.5522 -0.3453 -0.6196
 7332SOL    HW233630   1.823   1.015  16.348  0.5598 -0.7844 -0.2617
 7333SOL     OW33631   3.962   0.203   9.169  0.1465  0.1160  0.1083
 7333SOL    HW133632   3.971   0.108   9.157 -0.4913 -0.2728  2.8117
 7333SOL    HW233633   3.943   0.223   9.077  0.6822 -1.3972 -0.3390
 7334SOL     OW33634   0.178   3.322   3.042 -0.1800  0.5104  0.6225
 7334SOL    HW133635   0.096   3.291   3.082 -0.0258 -1.9919 -1.0314
 7334SOL    HW233636   0.240   3.305   3.113  0.5039 -1.3301 -0.4162
 7335SOL     OW33637   0.778   0.736  15.222 -0.0345 -0.3012 -0.2987
 7335SOL    HW133638   0.763   0.809  15.282  1.9572 -1.0923  1.1769
 7335SOL    HW233639   0.779   0.659  15.279  2.6706  0.1773  0.2873
 7336SOL     OW33640   4.563   2.749   4.416 -0.2793  0.2424 -0.1537
 7336SOL    HW133641   4.649   2.789   4.435 -0.3852  0.7674 -0.7743
 7336SOL    HW233642   4.590   2.658   4.421  0.2992  0.4464  0.5344
 7337SOL     OW33643   1.371   2.880   7.056 -0.0274 -0.4443  0.3215
 7337SOL    HW133644   1.410   2.915   6.976  1.4505  0.0255  1.2681
 7337SOL    HW233645   1.306   2.820   7.018  1.2043 -2.3190  1.1648
 7338SOL     OW33646   4.491   1.581   1.741  0.2041  0.0212  0.1529
 7338SOL    HW133647   4.428   1.535   1.684  0.0834  0.0517  0.2611
 7338SOL    HW233648   4.452   1.569   1.828  1.5045  1.2175  0.8982
 7339SOL     OW33649   0.988   1.155   6.790 -0.0194 -1.4382  0.0649
 7339SOL    HW133650   0.985   1.113   6.703 -1.0205  1.3157 -1.2149
 7339SOL    HW233651   0.915   1.216   6.796  0.0610 -1.5830  2.4135
 7340SOL     OW33652   3.307   1.942   8.972  0.3405 -0.5127 -0.4858
 7340SOL    HW133653   3.374   1.992   9.020  0.3108 -2.0649  1.1526
 7340SOL    HW233654   3.355   1.918   8.893 -2.6168 -2.0209 -1.7953
 7341SOL     OW33655   4.706   1.567   1.908 -0.4094 -0.4624 -0.5425
 7341SOL    HW133656   0.029   1.610   1.852 -1.5005 -0.4554 -1.7755
 7341SOL    HW233657   4.627   1.572   1.855 -1.6723 -0.2977  1.3609
 7342SOL     OW33658   3.061   2.115   1.916  0.5341  0.7751 -0.0039
 7342SOL    HW133659   3.073   2.075   1.830 -0.3063 -0.3874  0.4183
 7342SOL    HW233660   2.968   2.122   1.936  0.6934 -0.2595  1.0607
 7343SOL     OW33661   4.546   1.974   7.836  0.3554 -0.7428  0.4676
 7343SOL    HW133662   4.518   2.064   7.815  1.6902 -0.8170 -1.6362
 7343SOL    HW233663   4.544   1.987   7.931 -0.3692 -1.7911  0.5892
 7344SOL     OW33664   0.288   0.674   2.363  0.4413 -0.2035 -0.2049
 7344SOL    HW133665   0.316   0.716   2.444  0.3226 -1.0817  0.2915
 7344SOL    HW233666   0.199   0.657   2.394  0.1517  1.8498  0.0959
 7345SOL     OW33667   4.691   3.590   7.362  0.4788 -0.3156 -0.6713
 7345SOL    HW133668   4.691   3.674   7.315 -1.7967  0.4852  0.7530
 7345SOL    HW233669   4.676   3.529   7.289 -0.3942  1.4313 -1.9490
 7346SOL     OW33670   1.293   1.371  17.096  0.4796  0.0341  0.2425
 7346SOL    HW133671   1.317   1.309  17.028  0.1966  0.8242 -0.5781
 7346SOL    HW233672   1.199   1.380  17.080  0.1995  1.9376  2.9300
 7347SOL     OW33673   2.681   3.198   3.032  0.1276  0.7873 -0.4526
 7347SOL    HW133674   2.694   3.279   3.081  0.8614  0.0307  0.5819
 7347SOL    HW233675   2.765   3.193   2.988  0.4532 -1.8691  0.5171
 7348SOL     OW33676   3.219   3.844  13.490 -0.6785  0.1789  0.5356
 7348SOL    HW133677   3.282   3.915  13.475  0.4401 -1.6082 -3.1980
 7348SOL    HW233678   3.207   3.854  13.584  1.5709  0.4681  0.8113
 7349SOL     OW33679   3.563   1.625   8.512 -0.1373  0.2139  0.3422
 7349SOL    HW133680   3.552   1.575   8.592 -2.0448  2.6038  1.5657
 7349SOL    HW233681   3.472   1.632   8.482  0.6454  1.0019 -1.8883
 7350SOL     OW33682   0.631   0.454   4.700 -0.2258 -0.4460  0.5233
 7350SOL    HW133683   0.606   0.538   4.661 -1.6177 -2.1301 -2.1711
 7350SOL    HW233684   0.725   0.456   4.684 -0.4441  1.3832 -0.5268
 7351SOL     OW33685   3.698   1.023   7.975  0.2680 -0.0908 -0.6677
 7351SOL    HW133686   3.605   1.002   7.975  0.2245  0.0974  0.0941
 7351SOL    HW233687   3.719   1.028   8.069  1.6180  0.1073 -0.9783
 7352SOL     OW33688   0.972   4.233   8.042 -0.4600 -0.0343 -0.2433
 7352SOL    HW133689   0.942   4.155   7.996 -2.0913  1.3495 -1.5490
 7352SOL    HW233690   0.887   4.274   8.062 -0.7617 -1.4523  1.4099
 7353SOL     OW33691   0.499   3.954   8.786  0.3826 -0.3783  0.2242
 7353SOL    HW133692   0.552   4.014   8.839 -0.2615 -0.0223  0.4700
 7353SOL    HW233693   0.484   4.016   8.715  1.0125  0.9537  1.2642
 7354SOL     OW33694   4.484   0.764   4.111  0.2123  0.6768  0.0250
 7354SOL    HW133695   4.521   0.683   4.076  0.3920  1.1733 -0.9281
 7354SOL    HW233696   4.512   0.825   4.043  2.6687 -1.9492 -1.3074
 7355SOL     OW33697   3.154   3.924   0.359 -0.8141 -0.0735 -0.5250
 7355SOL    HW133698   3.083   3.929   0.295 -0.3900  3.0819 -0.7575
 7355SOL    HW233699   3.221   3.881   0.307  2.2680  3.2537  0.6499
 7356SOL     OW33700   2.451   3.574   5.667  0.0028 -0.0585  0.3335
 7356SOL    HW133701   2.466   3.511   5.738 -1.1517 -0.5882  0.1023
 7356SOL    HW233702   2.479   3.659   5.700 -0.2404 -0.1954  0.8836
 7357SOL     OW33703   0.913   2.595   1.422 -0.3729  0.3490  0.4363
 7357SOL    HW133704   0.878   2.680   1.450  0.8641  1.4703 -1.4699
 7357SOL    HW233705   0.830   2.551   1.401 -1.3799  2.0662  0.8403
 7358SOL     OW33706   1.484   1.123   3.594  0.1606  0.1338  0.0986
 7358SOL    HW133707   1.445   1.143   3.679  0.7474  1.0402  0.1605
 7358SOL    HW233708   1.445   1.036   3.590  0.1190  0.2725 -2.6057
 7359SOL     OW33709   2.210   4.555   8.741 -0.0733  0.4156 -0.1834
 7359SOL    HW133710   2.248   4.525   8.659  0.2763 -0.3634  0.2697
 7359SOL    HW233711   2.238   4.494   8.809 -0.2016  0.7643  0.1819
 7360SOL     OW33712   2.920   4.475   7.223 -0.2629 -0.3989 -0.1286
 7360SOL    HW133713   2.830   4.498   7.249 -0.2016 -0.6978  0.3433
 7360SOL    HW233714   2.904   4.408   7.157 -1.8475  0.7728 -0.9565
 7361SOL     OW33715   1.648   0.901   2.546 -1.0397  0.1407  0.9240
 7361SOL    HW133716   1.663   0.960   2.472 -3.4000  1.4181  1.4584
 7361SOL    HW233717   1.695   0.825   2.512 -0.4827 -0.1168  2.2639
 7362SOL     OW33718   0.502   1.069   3.696 -0.6126 -0.2784  0.1662
 7362SOL    HW133719   0.416   1.102   3.670 -1.1341 -3.2540 -1.9104
 7362SOL    HW233720   0.509   1.087   3.790 -1.3199  0.2799  0.1108
 7363SOL     OW33721   3.158   3.950   1.921  0.4395  0.2435 -0.0168
 7363SOL    HW133722   3.079   3.990   1.885  1.1492  2.6490  1.0985
 7363SOL    HW233723   3.178   4.009   1.994  0.2825 -1.5409  1.4839
 7364SOL     OW33724   0.950   4.134   6.235  0.1021 -0.1112 -0.5680
 7364SOL    HW133725   0.907   4.156   6.317  0.9434 -1.1551  0.1577
 7364SOL    HW233726   0.944   4.220   6.192 -0.4951  1.1780  2.1299
 7365SOL     OW33727   2.498   0.027   3.224 -0.3345 -0.1203  0.0211
 7365SOL    HW133728   2.445   0.107   3.225  1.4231  1.0442 -0.8603
 7365SOL    HW233729   2.460   4.712   3.292 -0.7981  1.0230  0.7163
 7366SOL     OW33730   3.955   1.158   5.926 -0.1586 -0.4738 -0.4176
 7366SOL    HW133731   3.912   1.148   6.012 -0.4307 -0.7688 -0.5872
 7366SOL    HW233732   3.905   1.224   5.878 -0.5615 -0.6595 -0.2558
 7367SOL     OW33733   3.548   2.078   7.778  0.4952 -0.2823  0.1632
 7367SOL    HW133734   3.635   2.080   7.818  0.7743  0.4534 -0.4722
 7367SOL    HW233735   3.491   2.057   7.851  0.1161  3.1028  0.8753
 7368SOL     OW33736   4.504   2.594  14.552 -0.6415 -0.0517  0.0117
 7368SOL    HW133737   4.445   2.625  14.482 -0.0251  0.4234 -0.2955
 7368SOL    HW233738   4.524   2.674  14.599  0.7111  0.9619 -2.2886
 7369SOL     OW33739   1.737   3.423  17.143  0.3221 -0.4662 -0.2139
 7369SOL    HW133740   1.755   3.472  17.064  3.0032 -1.0467  0.0471
 7369SOL    HW233741   1.785   3.476  17.207 -0.9203  0.5479 -0.1281
 7370SOL     OW33742   4.183   4.541   3.159 -0.3927  0.0256 -0.4584
 7370SOL    HW133743   4.167   4.448   3.145  0.7000 -0.1039 -0.8747
 7370SOL    HW233744   4.092   4.566   3.171  0.1723  2.1453 -0.5337
 7371SOL     OW33745   2.116   1.065  12.992  0.0701  0.3503 -0.1098
 7371SOL    HW133746   2.189   1.013  13.023 -0.5033 -1.0793 -1.1549
 7371SOL    HW233747   2.150   1.088  12.906  0.0071 -1.0999 -0.5208
 7372SOL     OW33748   3.646   2.429   9.981 -0.3458  0.4796 -0.4266
 7372SOL    HW133749   3.552   2.442   9.994 -0.4569  0.3349 -1.0417
 7372SOL    HW233750   3.658   2.441   9.886  0.7263 -0.4486 -0.4226
 7373SOL     OW33751   2.413   1.528   3.760  0.9839  0.0906 -0.2657
 7373SOL    HW133752   2.393   1.509   3.852  0.9173  3.1088  0.3251
 7373SOL    HW233753   2.507   1.516   3.749  1.0472  1.5633 -1.2700
 7374SOL     OW33754   4.135   1.256   2.263  0.4528 -0.2891  0.1655
 7374SOL    HW133755   4.092   1.199   2.326  1.0642 -0.1537  0.7118
 7374SOL    HW233756   4.181   1.188   2.214  1.6620  1.1345 -0.7124
 7375SOL     OW33757   1.755   2.748  11.913  0.0142  0.2534  0.7300
 7375SOL    HW133758   1.835   2.699  11.931  0.1834  0.5054  0.6764
 7375SOL    HW233759   1.776   2.760  11.820  1.5515  0.1292  1.0638
 7376SOL     OW33760   2.525   2.770   8.527  0.2366  0.1523 -0.1754
 7376SOL    HW133761   2.539   2.865   8.522 -0.1771  0.0118 -4.3971
 7376SOL    HW233762   2.521   2.760   8.622 -1.1302  0.3883 -0.2078
 7377SOL     OW33763   4.183   3.311   0.984  0.1718 -0.0165  0.3291
 7377SOL    HW133764   4.249   3.332   0.918 -1.2611  1.8477 -0.5080
 7377SOL    HW233765   4.216   3.232   1.027  0.1360  0.2306  0.8123
 7378SOL     OW33766   3.829   2.277  16.299  0.5424  0.4945  0.6903
 7378SOL    HW133767   3.888   2.341  16.339 -1.8767  2.5755  0.9302
 7378SOL    HW233768   3.748   2.328  16.290 -1.8554 -2.7976  3.3068
 7379SOL     OW33769   2.089   3.765   8.755 -0.1767 -0.9580 -0.0919
 7379SOL    HW133770   2.173   3.748   8.799  0.9284  2.0142 -1.0156
 7379SOL    HW233771   2.037   3.761   8.835  0.8366 -0.4701  0.6017
 7380SOL     OW33772   3.293   4.372   7.152 -0.2083 -0.7618  0.1534
 7380SOL    HW133773   3.333   4.391   7.067 -0.7936  2.0950  0.5103
 7380SOL    HW233774   3.299   4.278   7.163 -1.3727 -0.7721  0.7068
 7381SOL     OW33775   4.660   3.952   2.302 -0.1576  0.1057 -0.3562
 7381SOL    HW133776   0.004   3.964   2.344 -0.7176  2.1959  0.1992
 7381SOL    HW233777   4.696   3.959   2.214 -0.6077  1.8941 -0.4085
 7382SOL     OW33778   0.168   3.458   1.913  0.9050 -0.2610 -0.3219
 7382SOL    HW133779   0.234   3.491   1.974  0.2829 -0.0519  0.2372
 7382SOL    HW233780   0.212   3.473   1.830 -0.5831  2.6540 -0.5742
 7383SOL     OW33781   0.938   1.093   7.338 -0.1130 -0.2091  0.0073
 7383SOL    HW133782   0.940   1.066   7.247 -2.8312  0.4881 -0.2584
 7383SOL    HW233783   0.871   1.035   7.373 -0.2154 -0.4486 -0.5878
 7384SOL     OW33784   1.199   0.665   2.804  0.6476 -0.1159 -0.6957
 7384SOL    HW133785   1.152   0.591   2.843  0.2395  1.0065  0.9420
 7384SOL    HW233786   1.286   0.631   2.826 -0.2876 -0.6603  2.2235
 7385SOL     OW33787   1.810   1.835   4.066 -0.0801 -0.1116 -0.3114
 7385SOL    HW133788   1.779   1.834   3.976  0.8273  0.9480 -0.6492
 7385SOL    HW233789   1.796   1.927   4.090  1.1684  0.6417 -2.5023
 7386SOL     OW33790   1.101   2.945  15.554 -0.1012 -0.2977  0.0248
 7386SOL    HW133791   1.007   2.948  15.535 -0.6084 -0.7036  2.3710
 7386SOL    HW233792   1.110   2.982  15.642 -0.7182 -0.5716  0.2058
 7387SOL     OW33793   3.487   2.949   7.544 -0.0295 -0.5392  0.5063
 7387SOL    HW133794   3.415   2.917   7.598  0.2941  1.0978  1.9192
 7387SOL    HW233795   3.446   2.988   7.467 -1.6052  2.0714  2.6458
 7388SOL     OW33796   3.527   2.756   5.067  0.4972  0.3103  0.1218
 7388SOL    HW133797   3.547   2.666   5.041 -0.6509  0.5463 -1.5359
 7388SOL    HW233798   3.488   2.793   4.988 -1.2174 -1.3771  0.1642
 7389SOL     OW33799   0.472   0.932   5.491  0.1355  0.5727  1.0736
 7389SOL    HW133800   0.412   1.003   5.466  0.4096 -0.1591 -1.6133
 7389SOL    HW233801   0.413   0.857   5.483  0.4084  0.6530 -1.8290
 7390SOL     OW33802   3.031   4.460   5.929 -0.1739  0.1930  0.5540
 7390SOL    HW133803   3.082   4.541   5.933  2.1410 -1.4304  3.3680
 7390SOL    HW233804   2.980   4.476   5.849  0.9137 -0.2725 -0.2335
 7391SOL     OW33805   3.025   3.527   2.291 -0.1634 -0.0014 -0.2689
 7391SOL    HW133806   2.993   3.589   2.357 -3.2590 -4.1491  2.1536
 7391SOL    HW233807   3.015   3.447   2.342  0.0649 -1.0938 -1.9166
 7392SOL     OW33808   1.842   4.140   3.641  0.0021  0.0500 -0.3652
 7392SOL    HW133809   1.847   4.045   3.625  1.0810 -0.1244  1.0209
 7392SOL    HW233810   1.773   4.159   3.578 -1.0419 -0.5978  0.5993
 7393SOL     OW33811   3.110   1.525   1.370 -0.7126  0.2258 -0.7713
 7393SOL    HW133812   3.143   1.452   1.422  2.1610  1.8827 -0.3252
 7393SOL    HW233813   3.107   1.590   1.440  0.8433 -0.6532  0.0941
 7394SOL     OW33814   3.617   4.080   5.747  0.1473  0.0720 -0.2919
 7394SOL    HW133815   3.643   4.042   5.832 -0.5912 -0.7335 -0.4243
 7394SOL    HW233816   3.566   4.010   5.706  1.0468 -0.2264 -0.8807
 7395SOL     OW33817   2.219   0.109   9.049  0.7435 -0.1872  1.1502
 7395SOL    HW133818   2.246   0.137   8.961 -2.4237  3.2727  1.2750
 7395SOL    HW233819   2.128   0.140   9.047  0.9502  0.4466  1.8908
 7396SOL     OW33820   2.339   3.116  16.644  0.6021 -0.2749  0.0806
 7396SOL    HW133821   2.249   3.145  16.657 -0.4001 -2.7591 -1.1419
 7396SOL    HW233822   2.356   3.131  16.551  0.6578 -2.6374 -0.2942
 7397SOL     OW33823   2.605   3.058   6.078  0.5388  0.3020 -0.4034
 7397SOL    HW133824   2.560   2.996   6.021 -0.6890  2.0449 -1.3251
 7397SOL    HW233825   2.678   3.090   6.025 -1.4637  4.5249 -0.6594
 7398SOL     OW33826   2.928   2.571  14.456 -0.0826  0.2168 -0.6070
 7398SOL    HW133827   2.978   2.545  14.534 -2.7915  0.5135  1.2173
 7398SOL    HW233828   2.951   2.500  14.396  0.1415 -1.3637  1.3690
 7399SOL     OW33829   1.302   0.390  15.971  0.0691  0.5749  0.4338
 7399SOL    HW133830   1.323   0.483  15.976  1.0244  0.3002  1.3557
 7399SOL    HW233831   1.218   0.385  16.017  0.5399 -2.4146  1.0220
 7400SOL     OW33832   4.457   1.795  13.996  0.4160 -0.5216  0.7042
 7400SOL    HW133833   4.435   1.717  14.048  0.8825 -0.0009  1.6874
 7400SOL    HW233834   4.411   1.864  14.044 -3.5785 -1.3023 -2.0458
 7401SOL     OW33835   3.264   1.545   7.835  0.0025  0.5086  0.4412
 7401SOL    HW133836   3.243   1.482   7.766 -2.3654 -0.0957  1.7163
 7401SOL    HW233837   3.196   1.612   7.832 -0.1684  0.3448  0.6636
 7402SOL     OW33838   3.085   0.769   5.946 -0.3829  0.4721  0.3620
 7402SOL    HW133839   3.014   0.819   5.984 -0.1084  1.0134  0.1564
 7402SOL    HW233840   3.145   0.841   5.926 -1.8957  2.1247  1.8419
 7403SOL     OW33841   2.715   0.776  14.699  0.2789 -0.0506  0.6533
 7403SOL    HW133842   2.746   0.805  14.613  1.9923  3.1955  2.3919
 7403SOL    HW233843   2.655   0.706  14.673 -1.7373  1.4587  1.1415
 7404SOL     OW33844   1.685   3.194   9.315 -0.2688 -0.0558  0.2574
 7404SOL    HW133845   1.703   3.164   9.226 -1.2624 -0.0483  0.0542
 7404SOL    HW233846   1.751   3.149   9.367  1.3047  0.4966 -1.2640
 7405SOL     OW33847   1.317   1.019  10.252 -0.0708 -0.0540  0.3509
 7405SOL    HW133848   1.323   0.934  10.295 -0.0176 -0.5239 -0.5841
 7405SOL    HW233849   1.334   1.000  10.160 -0.1864  2.1950 -0.1340
 7406SOL     OW33850   1.472   1.870   5.399 -0.2093  0.4144  0.0721
 7406SOL    HW133851   1.421   1.797   5.363  0.9504  0.1904 -1.0995
 7406SOL    HW233852   1.417   1.945   5.376  0.3958  0.6474 -0.6097
 7407SOL     OW33853   0.880   4.638   3.999 -0.1239  0.1427  0.2055
 7407SOL    HW133854   0.802   4.687   3.973 -1.3471 -2.4845 -1.0751
 7407SOL    HW233855   0.950   4.702   3.992  0.2224 -0.0851  1.6891
 7408SOL     OW33856   1.569   2.178  10.504  0.3522 -0.5869  0.0222
 7408SOL    HW133857   1.611   2.104  10.459 -1.2888 -0.4670 -1.6797
 7408SOL    HW233858   1.605   2.148  10.588  0.9399 -1.0754 -0.3953
 7409SOL     OW33859   2.892   0.212  16.560 -0.1121 -0.1558  0.0599
 7409SOL    HW133860   2.800   0.201  16.586 -0.2271  1.7705  0.4989
 7409SOL    HW233861   2.884   0.293  16.509 -0.2280 -1.0648 -1.3565
 7410SOL     OW33862   1.674   1.943  17.129 -0.1749  0.0707 -0.2376
 7410SOL    HW133863   1.729   1.923  17.204  0.1813 -1.3806 -0.8950
 7410SOL    HW233864   1.591   1.900  17.151 -0.7242  1.4976  0.4804
 7411SOL     OW33865   0.353   3.770   8.540 -0.3747  0.4114  0.3514
 7411SOL    HW133866   0.408   3.843   8.511 -1.6615  1.6703  1.1036
 7411SOL    HW233867   0.422   3.706   8.559 -1.3986 -0.7818  0.0343
 7412SOL     OW33868   0.613   4.430   4.625  0.2413 -0.0570 -0.1917
 7412SOL    HW133869   0.684   4.400   4.568  0.6040  0.9960 -0.2894
 7412SOL    HW233870   0.572   4.346   4.646  0.5742  0.3316  1.9797
 7413SOL     OW33871   3.146   3.147   8.366 -0.3215 -0.4406 -0.3638
 7413SOL    HW133872   3.059   3.172   8.397 -0.3269  0.4169 -1.0795
 7413SOL    HW233873   3.199   3.210   8.413  0.6321 -2.1351  0.8404
 7414SOL     OW33874   0.084   4.071  16.075  0.2290  0.0221  0.0755
 7414SOL    HW133875   0.123   4.155  16.049  1.3196 -0.8795 -1.2049
 7414SOL    HW233876   0.035   4.106  16.150 -1.9750 -1.1960 -0.8128
 7415SOL     OW33877   2.699   1.903   9.214  0.2240 -0.0672  0.3226
 7415SOL    HW133878   2.677   1.954   9.291  1.1529 -0.9244  1.1698
 7415SOL    HW233879   2.644   1.826   9.230 -0.4368 -0.1991 -2.5702
 7416SOL     OW33880   2.517   3.373   3.491 -0.0429 -0.0778 -0.2452
 7416SOL    HW133881   2.612   3.383   3.487  0.0718 -1.1917 -0.3166
 7416SOL    HW233882   2.482   3.450   3.446  0.3644  1.8190  2.7066
 7417SOL     OW33883   1.558   3.131   8.518  0.1908  0.8667  0.1669
 7417SOL    HW133884   1.553   3.178   8.601  1.7059  0.9186  0.2304
 7417SOL    HW233885   1.654   3.132   8.516  0.2223 -0.7787  0.4002
 7418SOL     OW33886   2.016   4.539   9.080 -0.2960 -0.4867 -0.2655
 7418SOL    HW133887   2.089   4.502   9.029 -0.4889  2.1918 -2.5224
 7418SOL    HW233888   2.036   4.511   9.169 -4.1862 -1.3354  0.3415
 7419SOL     OW33889   2.629   2.583  13.540  0.0620  0.0668  0.2742
 7419SOL    HW133890   2.663   2.669  13.564  1.0743 -0.3343  0.2498
 7419SOL    HW233891   2.559   2.580  13.606 -0.8264 -1.6449 -0.7613
 7420SOL     OW33892   3.809   4.628   1.452  0.5614 -0.2763 -0.4314
 7420SOL    HW133893   3.754   4.551   1.438  0.6513 -0.6336  1.1646
 7420SOL    HW233894   3.773   4.683   1.382  0.7405 -0.0348 -0.3334
 7421SOL     OW33895   3.276   3.112   9.317  0.6786 -0.0777 -0.1966
 7421SOL    HW133896   3.344   3.083   9.378  0.7708  0.3534 -0.0928
 7421SOL    HW233897   3.313   3.097   9.230  0.3519 -1.5766 -0.0777
 7422SOL     OW33898   1.702   0.470  11.887  0.7173  0.6460  0.2122
 7422SOL    HW133899   1.769   0.537  11.871  0.0788  1.1232 -0.4361
 7422SOL    HW233900   1.632   0.497  11.828  2.2580 -0.1955 -2.0096
 7423SOL     OW33901   2.892   1.171   1.825  0.0767 -0.5612  0.3717
 7423SOL    HW133902   2.912   1.223   1.903 -0.5070 -1.5723  1.2004
 7423SOL    HW233903   2.879   1.236   1.756  0.4500  1.1422  1.8936
 7424SOL     OW33904   2.045   3.210   5.193 -0.2550 -0.0304  0.0748
 7424SOL    HW133905   2.036   3.145   5.262 -0.9654  0.5308  0.5217
 7424SOL    HW233906   1.968   3.262   5.217  0.5692  0.2199  2.1390
 7425SOL     OW33907   1.405   1.505  15.745  0.0260 -0.3706  0.1012
 7425SOL    HW133908   1.459   1.569  15.700 -0.7471  1.1451  1.3276
 7425SOL    HW233909   1.473   1.444  15.775 -1.6062 -1.3234  1.8876
 7426SOL     OW33910   2.110   1.682   6.764  0.2765 -0.3453 -0.0801
 7426SOL    HW133911   2.175   1.612   6.772  0.7236  0.1927  1.1138
 7426SOL    HW233912   2.038   1.646   6.713  1.2228  3.4207 -4.0520
 7427SOL     OW33913   0.643   1.626   3.604  0.0666  0.4859 -0.2923
 7427SOL    HW133914   0.710   1.666   3.660 -1.2879  1.0232  0.9474
 7427SOL    HW233915   0.684   1.540   3.590  0.7762  1.0667 -1.8156
 7428SOL     OW33916   3.463   4.220   1.526 -0.7101  0.6211  0.2706
 7428SOL    HW133917   3.503   4.163   1.592 -0.7892  1.3612  0.9625
 7428SOL    HW233918   3.408   4.154   1.484 -0.3498 -1.2395  2.6924
 7429SOL     OW33919   1.965   1.368   4.037 -0.0504  0.2891  0.4765
 7429SOL    HW133920   1.879   1.370   4.081 -0.2905  0.8562 -0.0308
 7429SOL    HW233921   1.952   1.422   3.959 -0.1003  1.7598  1.5013
 7430SOL     OW33922   1.904   4.151   2.092  0.0961  0.2554  0.4246
 7430SOL    HW133923   1.993   4.179   2.115 -0.2403  0.1668  1.8228
 7430SOL    HW233924   1.859   4.186   2.168 -2.7775 -2.2012 -0.1558
 7431SOL     OW33925   3.295   0.192   7.408  0.2295 -0.0157  0.0347
 7431SOL    HW133926   3.346   0.184   7.488  0.1300 -0.3612  0.0646
 7431SOL    HW233927   3.312   0.106   7.369 -0.9301 -0.7297  1.0765
 7432SOL     OW33928   1.928   3.603   3.847 -0.2905  0.1030  0.2538
 7432SOL    HW133929   2.001   3.550   3.880 -1.0445 -1.1921 -0.1431
 7432SOL    HW233930   1.899   3.537   3.784  2.2618 -1.3524  0.6139
 7433SOL     OW33931   2.997   4.187   6.380 -0.7157  0.5506 -0.5997
 7433SOL    HW133932   2.920   4.133   6.362 -1.6873  1.0917  1.9093
 7433SOL    HW233933   2.954   4.272   6.391 -0.3691  0.4861  1.3041
 7434SOL     OW33934   0.763   3.482   2.520 -0.0478 -0.3140 -0.0453
 7434SOL    HW133935   0.675   3.494   2.484 -0.6118 -1.1291  1.0694
 7434SOL    HW233936   0.751   3.394   2.555 -0.2151 -0.9241 -1.6616
 7435SOL     OW33937   4.217   4.118   7.463  0.2104 -0.0557 -0.2597
 7435SOL    HW133938   4.228   4.124   7.558 -0.1510 -0.6043 -0.1813
 7435SOL    HW233939   4.138   4.064   7.460 -1.1906  1.9779 -0.7629
 7436SOL     OW33940   0.197   2.299   5.876  0.2973 -0.4600  1.0831
 7436SOL    HW133941   0.223   2.207   5.867 -1.8133 -1.1144  1.6685
 7436SOL    HW233942   0.278   2.346   5.859 -0.7705  0.7814 -0.5536
 7437SOL     OW33943   4.366   1.532  14.100  0.4974 -0.1987  0.0408
 7437SOL    HW133944   4.420   1.495  14.170  1.4513  1.1153  0.0020
 7437SOL    HW233945   4.291   1.474  14.095 -0.6046  1.2936 -0.6054
 7438SOL     OW33946   2.277   3.057   4.817 -0.1502  0.4617  0.4126
 7438SOL    HW133947   2.345   3.096   4.872 -0.6443  1.5756  0.2306
 7438SOL    HW233948   2.273   3.106   4.735  1.5431 -0.0494  0.0208
 7439SOL     OW33949   2.780   1.595   4.641  0.3621  0.3749 -0.0376
 7439SOL    HW133950   2.843   1.555   4.581 -0.7145 -1.2478 -0.0807
 7439SOL    HW233951   2.802   1.688   4.638 -1.9953  0.9398  0.1391
 7440SOL     OW33952   2.509   0.316   1.826 -0.4606  0.1296 -0.1318
 7440SOL    HW133953   2.575   0.373   1.786  1.2801 -1.7130  0.0936
 7440SOL    HW233954   2.557   0.267   1.893 -3.3230 -1.5178  0.6842
 7441SOL     OW33955   4.718   3.441   5.744 -0.7926 -0.0523  0.5994
 7441SOL    HW133956   0.063   3.468   5.713 -1.0520  1.8417  1.5254
 7441SOL    HW233957   4.716   3.347   5.724 -0.6530  0.5340 -2.0782
 7442SOL     OW33958   0.572   0.159   5.573  0.0724  0.3497  0.4450
 7442SOL    HW133959   0.477   0.169   5.572 -0.0410 -0.9615 -1.6358
 7442SOL    HW233960   0.592   0.252   5.571  0.7942  0.2641  2.9328
 7443SOL     OW33961   0.188   2.510   2.065 -0.1250 -0.0941 -0.2770
 7443SOL    HW133962   0.282   2.510   2.079 -0.0815  1.3010 -0.5633
 7443SOL    HW233963   0.177   2.417   2.046  0.9114  0.0325 -1.4803
 7444SOL     OW33964   1.273   0.466   3.231  0.2329  0.1906  0.1728
 7444SOL    HW133965   1.295   0.486   3.322  0.0293 -0.9663  0.4745
 7444SOL    HW233966   1.178   0.476   3.241  0.1812  1.5806 -1.5936
 7445SOL     OW33967   3.718   4.521   2.395 -0.6307 -0.0819 -0.5280
 7445SOL    HW133968   3.662   4.571   2.335 -0.2129  2.1217  0.8989
 7445SOL    HW233969   3.712   4.436   2.352  0.3952 -0.5862  0.3577
 7446SOL     OW33970   2.116   1.370  12.588  0.1504  0.1723  0.2972
 7446SOL    HW133971   2.197   1.422  12.593 -0.2175  0.8472 -0.7951
 7446SOL    HW233972   2.051   1.439  12.576  0.0853  0.5832  3.0730
 7447SOL     OW33973   2.048   4.444  16.756 -0.2160 -0.0016  0.0321
 7447SOL    HW133974   2.079   4.356  16.774 -0.7981 -0.7864 -2.8813
 7447SOL    HW233975   2.004   4.435  16.671 -1.0738  0.2304  0.4441
 7448SOL     OW33976   0.181   4.709   6.459 -0.2089  0.5966  0.4432
 7448SOL    HW133977   0.187   0.063   6.462 -1.5468  0.6619  0.9425
 7448SOL    HW233978   0.249   4.685   6.396 -1.6229 -0.2421 -0.7585
 7449SOL     OW33979   4.337   2.069   5.259  0.1268 -0.1433  0.4311
 7449SOL    HW133980   4.275   2.005   5.224 -2.2963  1.6815  1.3128
 7449SOL    HW233981   4.280   2.135   5.299 -0.3320 -0.5582  0.4578
 7450SOL     OW33982   2.681   0.563   4.215  0.0359 -0.6998 -0.6634
 7450SOL    HW133983   2.697   0.657   4.212 -0.4798 -0.5888  0.1884
 7450SOL    HW233984   2.605   0.540   4.162  0.3441 -1.7463 -0.6641
 7451SOL     OW33985   0.696   0.715   5.442  0.0224  0.2442 -0.5183
 7451SOL    HW133986   0.681   0.709   5.347 -3.4982 -2.9269  0.2384
 7451SOL    HW233987   0.672   0.806   5.459  1.4983  0.1933  1.7432
 7452SOL     OW33988   3.907   0.098   6.385  0.3023 -0.2098 -0.9225
 7452SOL    HW133989   3.985   0.090   6.329 -0.1825 -1.4506 -1.4165
 7452SOL    HW233990   3.952   0.140   6.459  1.0372  0.6645 -1.8652
 7453SOL     OW33991   4.225   2.626  14.798 -0.4820 -0.5231 -0.4506
 7453SOL    HW133992   4.153   2.629  14.735  0.3337 -0.2776 -1.3554
 7453SOL    HW233993   4.272   2.703  14.770 -0.7364 -0.5080 -0.8301
 7454SOL     OW33994   1.033   2.901  14.723 -0.0793 -0.1168  0.4433
 7454SOL    HW133995   1.060   2.963  14.790 -1.1801  0.8850 -0.0439
 7454SOL    HW233996   1.088   2.823  14.736 -0.5277 -0.4745  0.2090
 7455SOL     OW33997   1.583   1.819  14.817 -0.6158 -0.2206 -0.1148
 7455SOL    HW133998   1.598   1.851  14.906 -1.1017 -0.1985 -0.0458
 7455SOL    HW233999   1.654   1.755  14.808 -0.5131 -0.1915  0.5214
 7456SOL     OW34000   2.346   2.119  15.963  0.3537 -0.1445  0.6024
 7456SOL    HW134001   2.298   2.064  16.025 -1.0354  1.8918  1.3263
 7456SOL    HW234002   2.292   2.098  15.887 -0.8141  1.1512  1.0653
 7457SOL     OW34003   2.366   3.727  16.004 -0.2500 -0.1241  0.3655
 7457SOL    HW134004   2.283   3.687  16.027 -1.7780  3.5244  1.1225
 7457SOL    HW234005   2.393   3.746  16.094  0.7715 -1.4457  0.3427
 7458SOL     OW34006   1.818   2.973   2.251  0.3191 -0.1015 -0.6568
 7458SOL    HW134007   1.878   3.027   2.303  1.6899 -0.2601 -2.0985
 7458SOL    HW234008   1.760   3.038   2.211  1.0489  0.4996 -0.7513
 7459SOL     OW34009   4.510   0.930   5.874 -0.1434  0.0067  0.1886
 7459SOL    HW134010   4.484   0.933   5.782 -2.5341 -1.1223  0.8225
 7459SOL    HW234011   4.464   0.850   5.898 -1.2636 -0.1491 -2.4778
 7460SOL     OW34012   3.289   0.571   8.667 -0.1643  0.5811  0.5218
 7460SOL    HW134013   3.307   0.626   8.590  1.7906 -1.2857 -0.3613
 7460SOL    HW234014   3.371   0.573   8.716 -0.9023  3.0160  1.6406
 7461SOL     OW34015   0.601   0.892   2.744  0.8270 -0.0434 -0.1853
 7461SOL    HW134016   0.633   0.934   2.664  0.5217 -1.6419 -1.1266
 7461SOL    HW234017   0.681   0.844   2.766  1.3887  0.4570 -1.1316
 7462SOL     OW34018   1.623   0.063  12.623  0.6888 -0.0368 -0.1384
 7462SOL    HW134019   1.597   0.041  12.534  0.3837  1.0289 -0.3167
 7462SOL    HW234020   1.674   4.727  12.646 -0.6797 -1.3603 -1.5530
 7463SOL     OW34021   4.196   4.179  15.600 -0.0877 -0.2836 -0.0764
 7463SOL    HW134022   4.121   4.132  15.564  0.0111 -1.2306  0.9683
 7463SOL    HW234023   4.272   4.134  15.562 -1.9218 -1.7589 -2.0084
 7464SOL     OW34024   3.789   1.931   8.625 -0.0084  0.4008  0.5838
 7464SOL    HW134025   3.789   2.023   8.596  2.4375  0.5839  1.1155
 7464SOL    HW234026   3.779   1.931   8.720  0.4864  1.5004  0.6423
 7465SOL     OW34027   3.402   2.955  12.889 -0.0070  0.9013  0.2311
 7465SOL    HW134028   3.360   2.869  12.878  0.0846  0.9864 -0.7294
 7465SOL    HW234029   3.333   3.022  12.891  0.2852  1.2028  0.0723
 7466SOL     OW34030   1.000   4.680   4.466 -0.0632 -0.3888  0.1032
 7466SOL    HW134031   0.925   4.695   4.523 -1.3243 -0.3915 -1.5319
 7466SOL    HW234032   0.962   4.619   4.403 -1.9907  0.4763  0.4020
 7467SOL     OW34033   1.497   2.796   2.777  0.1691 -0.1982 -0.0293
 7467SOL    HW134034   1.547   2.877   2.768 -2.8755  1.8365  1.5392
 7467SOL    HW234035   1.468   2.789   2.685  0.5853 -1.2364 -0.0725
 7468SOL     OW34036   4.165   0.263   8.297 -0.0935 -0.0206 -0.2465
 7468SOL    HW134037   4.259   0.276   8.282  0.3795 -0.9903  1.9295
 7468SOL    HW234038   4.176   0.228   8.385 -1.9731  0.1864  0.0745
 7469SOL     OW34039   4.383   0.866   8.373  0.3514 -0.3466  0.3258
 7469SOL    HW134040   4.294   0.864   8.338 -0.0017  0.5580  1.1897
 7469SOL    HW234041   4.423   0.940   8.328 -0.0752  0.8560  1.9158
 7470SOL     OW34042   0.546   3.791   0.137 -0.0011 -0.1200  0.2761
 7470SOL    HW134043   0.588   3.874   0.161 -0.2409  0.6594 -2.0769
 7470SOL    HW234044   0.576   3.748   0.217  1.5878  1.6002  0.6165
 7471SOL     OW34045   1.519   2.663  17.593 -0.0582 -0.1919 -0.5092
 7471SOL    HW134046   1.599   2.707  17.565 -0.4252  0.8250  0.0415
 7471SOL    HW234047   1.565   2.598  17.646  0.9087  0.8894 -0.0242
 7472SOL     OW34048   2.644   1.754   6.367  0.5232 -0.3743  0.1429
 7472SOL    HW134049   2.553   1.728   6.377  0.0354 -0.8616 -5.5949
 7472SOL    HW234050   2.676   1.743   6.457  2.9725 -1.7231 -0.8843
 7473SOL     OW34051   1.657   0.409  10.191 -0.1092  0.0798 -0.0914
 7473SOL    HW134052   1.668   0.488  10.243  0.4487 -0.3114  0.3775
 7473SOL    HW234053   1.725   0.354  10.230 -0.2907  0.3109  0.5520
 7474SOL     OW34054   1.900   0.296  10.253 -0.4071  0.4669 -0.0724
 7474SOL    HW134055   1.949   0.261  10.179  0.3102 -1.2702  1.2239
 7474SOL    HW234056   1.948   0.270  10.332  0.4383  1.5858 -0.2112
 7475SOL     OW34057   1.211   0.948   6.053  0.1811  0.2654 -0.1575
 7475SOL    HW134058   1.141   0.955   5.989  1.7690  1.7581 -1.7260
 7475SOL    HW234059   1.287   0.924   6.000 -0.7542  0.5416 -1.6064
 7476SOL     OW34060   4.691   4.201  10.829  0.2577 -0.2465  0.0170
 7476SOL    HW134061   0.016   4.198  10.760  1.6278  2.6160  1.2116
 7476SOL    HW234062   4.631   4.259  10.782  0.5823  0.2315  0.1932
 7477SOL     OW34063   2.997   2.738   7.124 -0.6151  0.2696 -0.1562
 7477SOL    HW134064   2.930   2.758   7.189  0.1872 -1.3213  1.1357
 7477SOL    HW234065   3.073   2.748   7.181 -0.1466 -2.2847 -0.3405
 7478SOL     OW34066   4.235   3.932   3.185 -0.6745 -0.0236 -0.0063
 7478SOL    HW134067   4.250   4.016   3.142  0.1058  0.8306  1.9251
 7478SOL    HW234068   4.213   3.968   3.271  0.3047 -0.9632  0.6437
 7479SOL     OW34069   4.432   0.657   5.395  0.3558  0.4735  0.3911
 7479SOL    HW134070   4.481   0.739   5.394 -0.1694  0.7566 -1.2910
 7479SOL    HW234071   4.433   0.657   5.491 -1.1871  1.8382  0.3981
 7480SOL     OW34072   1.680   4.416   7.304 -0.1971  0.0311  0.2889
 7480SOL    HW134073   1.691   4.355   7.231  2.0347 -0.4814  1.0706
 7480SOL    HW234074   1.624   4.478   7.257  0.1313  0.2914  0.2410
 7481SOL     OW34075   0.886   1.312  11.350 -0.4076  0.1922 -0.1308
 7481SOL    HW134076   0.854   1.402  11.356  0.1710  0.3749  0.2164
 7481SOL    HW234077   0.838   1.278  11.425  1.3453  0.1739  0.9700
 7482SOL     OW34078   1.515   4.725  16.785  1.5149  0.5492  0.3032
 7482SOL    HW134079   1.476   4.654  16.734  0.4090  1.0654  0.4463
 7482SOL    HW234080   1.606   4.716  16.756  1.0468 -1.3018 -0.6290
 7483SOL     OW34081   3.621   3.881   4.665 -0.4003  0.4627 -0.0176
 7483SOL    HW134082   3.542   3.936   4.668 -1.2699 -0.6715 -2.4581
 7483SOL    HW234083   3.587   3.795   4.689  0.8644  0.1025  0.4887
 7484SOL     OW34084   1.794   2.548   8.619  0.0498  0.5869  0.6498
 7484SOL    HW134085   1.887   2.568   8.634  0.7943 -3.7237  1.8433
 7484SOL    HW234086   1.786   2.544   8.523  0.5705  0.4485  0.6093
 7485SOL     OW34087   2.738   0.492   1.765  0.7650  0.1148 -0.3044
 7485SOL    HW134088   2.780   0.559   1.818 -0.6066 -0.0673  1.0107
 7485SOL    HW234089   2.684   0.545   1.707  0.3564 -0.0271 -0.0519
 7486SOL     OW34090   3.831   1.346   2.240  0.2718  0.4585 -0.3621
 7486SOL    HW134091   3.839   1.390   2.325  0.4065 -0.4181  0.0801
 7486SOL    HW234092   3.897   1.387   2.185  1.7838 -0.1880  0.9955
 7487SOL     OW34093   0.447   1.447   6.807 -0.4664 -0.4958  0.0299
 7487SOL    HW134094   0.428   1.493   6.889 -0.5785 -0.6441  0.0885
 7487SOL    HW234095   0.467   1.357   6.835  3.3789  0.7230  1.2370
 7488SOL     OW34096   1.727   2.689   5.419 -0.6480 -0.4033 -0.3655
 7488SOL    HW134097   1.639   2.728   5.418  0.4008  1.8745 -1.9296
 7488SOL    HW234098   1.743   2.698   5.513 -0.5853 -1.1048 -0.3084
 7489SOL     OW34099   0.707   4.054  10.259  0.1636  0.0194  0.2888
 7489SOL    HW134100   0.720   4.108  10.336  1.3408  0.2799 -0.1072
 7489SOL    HW234101   0.651   4.109  10.204  2.0620  0.8749 -0.7746
 7490SOL     OW34102   1.532   0.001  12.372 -0.1996 -0.5796  0.8831
 7490SOL    HW134103   1.480   4.664  12.390 -0.9052 -0.4591 -0.6227
 7490SOL    HW234104   1.564   4.734  12.282  1.9559 -0.6153  1.6511
 7491SOL     OW34105   3.802   1.243   9.220 -0.1497  0.1676  0.4203
 7491SOL    HW134106   3.858   1.292   9.160 -1.7316 -0.5654 -1.6611
 7491SOL    HW234107   3.863   1.176   9.249  1.9433  1.6226 -0.6330
 7492SOL     OW34108   1.847   0.744   3.753  0.1494  0.1966  0.1467
 7492SOL    HW134109   1.869   0.820   3.807  0.6776 -0.5943  1.0330
 7492SOL    HW234110   1.788   0.782   3.688  1.4228  1.7227 -0.0922
 7493SOL     OW34111   1.807   4.470  16.168  0.2364  0.3532 -0.0719
 7493SOL    HW134112   1.804   4.375  16.179  0.8483  0.2496 -0.7756
 7493SOL    HW234113   1.902   4.481  16.177  0.0308  1.9682 -0.0361
 7494SOL     OW34114   0.000   1.027   5.943  0.2320  0.3170 -0.0847
 7494SOL    HW134115   4.654   0.999   5.919  0.3072 -1.1322  1.3305
 7494SOL    HW234116   0.030   1.073   5.864 -2.3951  1.5030 -0.3835
 7495SOL     OW34117   1.922   1.318   7.051  0.4925  0.3867 -0.2546
 7495SOL    HW134118   1.922   1.404   7.094  0.2156  0.9353 -1.3676
 7495SOL    HW234119   1.884   1.342   6.967 -1.5272  1.7754  1.0611
 7496SOL     OW34120   0.933   1.041   0.202 -0.3598 -0.3073 -0.5090
 7496SOL    HW134121   0.922   0.946   0.193  2.9321 -0.6691 -0.6745
 7496SOL    HW234122   0.977   1.060   0.285 -1.5795  0.3040 -0.0016
 7497SOL     OW34123   1.397   2.387  10.459 -0.6513 -0.0782  0.1646
 7497SOL    HW134124   1.456   2.312  10.469 -2.0313 -1.2679 -0.6063
 7497SOL    HW234125   1.319   2.367  10.511  0.7159  0.5097  2.4312
 7498SOL     OW34126   2.902   3.925   9.032  0.3257 -0.0290  0.0929
 7498SOL    HW134127   2.886   4.019   9.022 -0.1536  0.0553  1.5492
 7498SOL    HW234128   2.888   3.904   9.125 -0.4390 -1.3827 -0.3216
 7499SOL     OW34129   4.187   1.144   5.733 -0.2322 -0.4282  0.8182
 7499SOL    HW134130   4.238   1.218   5.766  0.3322 -0.8515  0.8864
 7499SOL    HW234131   4.098   1.168   5.760 -0.5654  0.4278 -1.0339
 7500SOL     OW34132   3.730   4.636  15.273  0.2899  0.0683 -0.0801
 7500SOL    HW134133   3.709   4.719  15.230 -0.7915 -0.2019 -0.0849
 7500SOL    HW234134   3.691   4.581  15.205 -0.9059 -0.6160  1.1532
 7501SOL     OW34135   3.228   3.466  10.205  0.3681  0.0261  0.1032
 7501SOL    HW134136   3.181   3.402  10.259  2.1497 -0.0784  1.4928
 7501SOL    HW234137   3.165   3.473  10.133  1.7481 -1.8384 -1.2972
 7502SOL     OW34138   1.581   0.993  10.039 -0.5848 -0.2696 -0.0776
 7502SOL    HW134139   1.579   1.054  10.112  0.0960 -0.4212  0.0678
 7502SOL    HW234140   1.662   1.012   9.990 -0.2349 -0.8218  0.2835
 7503SOL     OW34141   0.418   2.295   1.101  0.8158 -0.4081  0.0955
 7503SOL    HW134142   0.479   2.250   1.160  0.9230 -1.0478 -0.4942
 7503SOL    HW234143   0.483   2.324   1.037  0.1082 -0.3737 -0.6075
 7504SOL     OW34144   1.702   4.226   3.990 -0.3039 -0.0637 -0.3654
 7504SOL    HW134145   1.616   4.243   3.952 -0.4777  0.7193  0.3805
 7504SOL    HW234146   1.686   4.242   4.083 -0.0855  1.4467 -0.5867
 7505SOL     OW34147   4.303   2.767   4.350  0.4353  0.1754 -0.5027
 7505SOL    HW134148   4.393   2.753   4.377  0.4663 -3.1673 -2.2871
 7505SOL    HW234149   4.311   2.800   4.260 -0.1901 -0.0689 -0.6498
 7506SOL     OW34150   3.031   1.147  17.465  0.0568  0.4195  0.9446
 7506SOL    HW134151   3.088   1.158  17.540  1.4337  0.1864 -0.0651
 7506SOL    HW234152   3.065   1.223  17.417 -1.4658  0.0876 -0.6682
 7507SOL     OW34153   1.772   3.412   7.084  0.0540 -0.4551 -0.4195
 7507SOL    HW134154   1.826   3.344   7.044  1.3111 -0.7160  1.7186
 7507SOL    HW234155   1.829   3.488   7.096  0.0141 -0.7670  1.7655
 7508SOL     OW34156   2.032   4.170   6.839  0.4411 -0.2566  0.3177
 7508SOL    HW134157   1.948   4.171   6.794  0.6039  3.1560  0.0853
 7508SOL    HW234158   2.036   4.255   6.883 -3.2363  1.3468 -2.4739
 7509SOL     OW34159   4.149   1.013   2.831  0.5471  0.3648  0.0309
 7509SOL    HW134160   4.188   0.962   2.760 -0.6719  2.0289 -1.8077
 7509SOL    HW234161   4.220   1.077   2.834  0.3669  0.5940 -0.7633
 7510SOL     OW34162   1.346   4.674   8.778  0.3150  0.3816 -0.1084
 7510SOL    HW134163   1.390   0.016   8.790 -0.3601  0.5915  0.8139
 7510SOL    HW234164   1.256   4.704   8.770 -0.9895 -2.5212  3.7957
 7511SOL     OW34165   1.845   3.691   3.057 -0.1987  0.2890  0.4243
 7511SOL    HW134166   1.935   3.683   3.089 -0.0952  0.2420  0.1180
 7511SOL    HW234167   1.811   3.755   3.120 -0.3728  1.5812 -0.9954
 7512SOL     OW34168   4.558   4.386   3.275  0.7064 -0.5520  0.0977
 7512SOL    HW134169   4.560   4.348   3.363 -1.2475  1.0059  0.8141
 7512SOL    HW234170   4.524   4.475   3.286 -2.7301 -2.1821  2.7232
 7513SOL     OW34171   2.611   0.044   3.896  0.7031  0.0734  0.1248
 7513SOL    HW134172   2.592   4.721   3.965 -1.4663 -0.0207 -0.5595
 7513SOL    HW234173   2.678   4.738   3.846  0.5413  0.6542 -0.6233
 7514SOL     OW34174   3.829   4.290   7.210 -0.0087 -0.0686  0.0482
 7514SOL    HW134175   3.741   4.252   7.202  0.6952 -1.8454  0.8955
 7514SOL    HW234176   3.871   4.255   7.132 -1.3528 -1.0425 -0.2399
 7515SOL     OW34177   0.843   3.519   3.870 -0.0819 -0.1818  0.2612
 7515SOL    HW134178   0.800   3.603   3.854  1.8467  0.4723 -1.4927
 7515SOL    HW234179   0.834   3.472   3.786  1.6695 -1.5204  0.8097
 7516SOL     OW34180   3.687   3.398   1.868  0.3561  0.1354  1.1258
 7516SOL    HW134181   3.674   3.491   1.849  1.0613 -0.7720 -3.8713
 7516SOL    HW234182   3.594   3.378   1.883  0.5028  0.3994  2.3429
 7517SOL     OW34183   4.491   0.880   2.720 -0.5172 -0.2324 -0.7630
 7517SOL    HW134184   4.531   0.811   2.773  0.6435  1.2242  0.2754
 7517SOL    HW234185   4.399   0.860   2.704 -0.5518 -1.6943  1.1670
 7518SOL     OW34186   4.537   1.502   5.117  0.5587  0.2320  0.0660
 7518SOL    HW134187   4.574   1.451   5.044 -0.4587 -0.3335 -0.0596
 7518SOL    HW234188   4.445   1.491   5.094  0.2555  2.0286  0.4426
 7519SOL     OW34189   3.551   0.304   5.555  0.5509 -0.7045 -0.6229
 7519SOL    HW134190   3.560   0.381   5.611  1.4223 -0.9544 -0.4141
 7519SOL    HW234191   3.614   0.245   5.597 -0.3802 -1.0100  0.3260
 7520SOL     OW34192   2.127   3.398   5.657 -0.4334  0.5166 -0.2919
 7520SOL    HW134193   2.199   3.335   5.650  0.2305  1.3216 -0.6519
 7520SOL    HW234194   2.104   3.388   5.749  1.0612 -0.6491 -0.0466
 7521SOL     OW34195   3.450   1.778   0.344 -0.0060  0.1170 -0.0198
 7521SOL    HW134196   3.376   1.718   0.359 -0.2794  0.8016  1.3313
 7521SOL    HW234197   3.497   1.717   0.287 -0.4708  0.0405 -0.3281
 7522SOL     OW34198   0.423   3.138   2.882  0.0210  0.3269 -0.3638
 7522SOL    HW134199   0.360   3.089   2.933  0.4218  2.0901  1.8275
 7522SOL    HW234200   0.461   3.070   2.827 -1.1511 -0.9031  0.3564
 7523SOL     OW34201   1.007   3.127   6.059 -0.5338 -0.3197 -0.0931
 7523SOL    HW134202   0.945   3.069   6.102  0.5911 -0.7496  0.9668
 7523SOL    HW234203   0.965   3.208   6.088  0.8899  0.2916  0.3127
 7524SOL     OW34204   1.383   4.177   5.160  0.2255 -0.1520 -0.0472
 7524SOL    HW134205   1.344   4.097   5.125  0.1829 -0.5351  0.8801
 7524SOL    HW234206   1.309   4.235   5.178 -0.6107 -0.5642 -2.1356
 7525SOL     OW34207   2.182   3.920   6.753  0.2597  0.0568 -0.5341
 7525SOL    HW134208   2.190   4.011   6.780  2.9488 -0.8664  1.8182
 7525SOL    HW234209   2.093   3.924   6.717  1.4654  3.2872 -3.0865
 7526SOL     OW34210   2.109   2.559   7.676 -0.6383  0.0428 -0.2796
 7526SOL    HW134211   2.049   2.491   7.706 -1.0330  0.2901 -0.5171
 7526SOL    HW234212   2.110   2.551   7.581 -0.7734 -1.3906 -0.1569
 7527SOL     OW34213   1.687   0.269  12.800 -0.2120  0.5571  0.3111
 7527SOL    HW134214   1.735   0.221  12.868 -1.1349 -1.4465 -0.4568
 7527SOL    HW234215   1.643   0.192  12.765  0.8425 -0.4241  1.1430
 7528SOL     OW34216   0.348   2.297  16.162 -0.2095  1.2089  0.4523
 7528SOL    HW134217   0.400   2.263  16.235  0.4437  0.9441 -0.1367
 7528SOL    HW234218   0.380   2.235  16.096  1.5231  1.5642  0.9601
 7529SOL     OW34219   0.025   1.471  14.348 -0.6310 -0.1609  0.3289
 7529SOL    HW134220   4.699   1.472  14.280 -2.3563  0.3786  2.0668
 7529SOL    HW234221   0.085   1.541  14.320 -0.8066  0.0741  0.5356
 7530SOL     OW34222   3.419   0.535   9.942  0.0016 -0.6337  0.3045
 7530SOL    HW134223   3.384   0.601  10.001  1.6462 -1.1462  1.8802
 7530SOL    HW234224   3.353   0.466   9.943 -0.6863  0.0246  0.2451
 7531SOL     OW34225   0.110   3.003   3.840  0.1370  0.2738 -0.2491
 7531SOL    HW134226   0.135   3.065   3.908  0.4943 -2.7733  2.3764
 7531SOL    HW234227   0.078   2.923   3.882 -1.9116  2.5134  2.4756
 7532SOL     OW34228   4.155   2.953   5.022 -0.2199 -0.6195  0.3830
 7532SOL    HW134229   4.075   2.970   4.972  0.1184 -2.2626 -0.7200
 7532SOL    HW234230   4.126   2.987   5.106  2.6415  2.6876  0.0334
 7533SOL     OW34231   3.171   2.459   6.345 -0.2740  0.4866 -0.5206
 7533SOL    HW134232   3.252   2.469   6.295  0.8452 -0.1577  1.1312
 7533SOL    HW234233   3.094   2.460   6.288 -0.4900 -1.5340 -0.2958
 7534SOL     OW34234   2.579   4.111  11.466 -0.3412  0.2635  0.3088
 7534SOL    HW134235   2.605   4.125  11.557  0.4130  1.5799 -0.1126
 7534SOL    HW234236   2.547   4.196  11.438  0.1141  1.3920  3.2150
 7535SOL     OW34237   4.193   3.030   4.403 -0.0051  0.1955 -0.2035
 7535SOL    HW134238   4.256   3.060   4.469 -0.7898 -1.2879  1.2245
 7535SOL    HW234239   4.194   2.934   4.403  1.5600  0.2127 -0.8711
 7536SOL     OW34240   2.566   1.366  12.666 -0.5215  0.3424  0.1646
 7536SOL    HW134241   2.621   1.414  12.603 -0.3017 -0.1212  0.0078
 7536SOL    HW234242   2.485   1.412  12.643 -0.1700  0.0633 -1.6468
 7537SOL     OW34243   3.035   3.956  11.715 -0.3834 -0.2938 -0.4250
 7537SOL    HW134244   2.950   3.935  11.753 -0.2242  1.2781  0.8248
 7537SOL    HW234245   3.056   3.884  11.656  2.0900  0.5463 -0.5795
 7538SOL     OW34246   1.004   3.592   6.019 -0.0776 -0.2664 -0.2805
 7538SOL    HW134247   1.065   3.666   6.028 -0.8556  0.6790 -2.8712
 7538SOL    HW234248   1.054   3.519   6.055  0.7615  0.2136 -0.4737
 7539SOL     OW34249   0.754   0.878   6.950 -0.2556  0.1224  1.0857
 7539SOL    HW134250   0.810   0.948   6.983 -0.5510  0.7020  0.3502
 7539SOL    HW234251   0.706   0.932   6.887 -0.3820  1.0633  2.0090
 7540SOL     OW34252   2.672   0.198  17.656 -0.0978 -0.0503  0.3430
 7540SOL    HW134253   2.720   0.172  17.734  0.0494 -0.5002  0.1025
 7540SOL    HW234254   2.640   0.109  17.642 -1.6375  0.0078  3.5175
 7541SOL     OW34255   3.859   4.335   3.441  0.1803 -0.2724 -0.5378
 7541SOL    HW134256   3.950   4.304   3.444 -0.2315 -1.6224 -1.8328
 7541SOL    HW234257   3.838   4.323   3.534  0.7204  1.2599 -0.2149
 7542SOL     OW34258   2.210   1.977   0.903  0.4507  0.3029 -0.2069
 7542SOL    HW134259   2.201   1.986   0.808  2.0630 -1.2437 -0.4985
 7542SOL    HW234260   2.219   1.882   0.907 -0.9579  0.2624  1.4536
 7543SOL     OW34261   3.351   0.153   9.140  0.5976 -0.4593 -0.9685
 7543SOL    HW134262   3.360   0.221   9.074 -0.5338  1.0508  0.4266
 7543SOL    HW234263   3.306   0.079   9.097  0.7623 -0.0276 -1.8878
 7544SOL     OW34264   1.218   2.134   8.450 -0.5994  0.2277  0.1275
 7544SOL    HW134265   1.296   2.079   8.447  0.6947  2.0865  0.2127
 7544SOL    HW234266   1.179   2.128   8.362 -0.4026  1.1472 -0.0242
 7545SOL     OW34267   4.498   1.070  15.130 -0.1364  0.4463 -0.1508
 7545SOL    HW134268   4.578   1.122  15.119 -1.2306  1.9322 -1.0343
 7545SOL    HW234269   4.452   1.094  15.049  0.9968 -0.2614 -1.0111
 7546SOL     OW34270   0.573   0.503   6.118  0.0590 -0.4123 -0.0641
 7546SOL    HW134271   0.592   0.448   6.194 -0.6378 -0.5181  0.0406
 7546SOL    HW234272   0.490   0.543   6.145  2.6698  3.1498  2.6077
 7547SOL     OW34273   3.705   1.895   6.197 -0.7522 -1.0185  0.3381
 7547SOL    HW134274   3.618   1.857   6.206 -1.7884  1.7395  1.9861
 7547SOL    HW234275   3.743   1.899   6.285 -0.9574 -1.0121  0.4257
 7548SOL     OW34276   2.870   3.698   7.165 -0.3270  0.5379 -0.1848
 7548SOL    HW134277   2.837   3.787   7.178  0.2916  0.7069  0.2442
 7548SOL    HW234278   2.829   3.665   7.085  0.4812  0.3050 -0.5019
 7549SOL     OW34279   2.383   3.345   1.621 -0.2842  0.0925  0.3032
 7549SOL    HW134280   2.342   3.259   1.623  2.7502 -1.3989 -0.7701
 7549SOL    HW234281   2.446   3.321   1.553 -1.7048 -1.3511 -0.4829
 7550SOL     OW34282   0.504   2.889  13.311  0.0932  0.3088 -0.6454
 7550SOL    HW134283   0.541   2.801  13.321  0.2981  0.1735 -2.5084
 7550SOL    HW234284   0.581   2.944  13.326  0.0232  0.1915  0.1385
 7551SOL     OW34285   2.516   4.295   8.796 -0.4464 -0.2353  0.5177
 7551SOL    HW134286   2.477   4.233   8.734 -2.4057  1.9423 -0.4443
 7551SOL    HW234287   2.589   4.325   8.741  1.3125 -2.3904  1.6836
 7552SOL     OW34288   1.170   2.098   3.769  0.0678 -1.0200  0.1319
 7552SOL    HW134289   1.146   2.006   3.776 -1.4319 -0.5441  1.2186
 7552SOL    HW234290   1.180   2.132   3.858  3.0629 -0.2561 -0.5072
 7553SOL     OW34291   2.451   2.260   6.217  0.1160  0.2437 -0.5008
 7553SOL    HW134292   2.501   2.191   6.261 -1.3598  0.1453  1.0362
 7553SOL    HW234293   2.368   2.255   6.264  0.1418  1.6990 -0.3176
 7554SOL     OW34294   2.156   2.830   5.198  0.1349 -0.5324  0.1038
 7554SOL    HW134295   2.177   2.792   5.284  1.0887 -0.4000 -0.0708
 7554SOL    HW234296   2.211   2.908   5.193 -0.3334 -0.3335 -1.9707
 7555SOL     OW34297   0.210   0.523  14.775 -0.1069 -0.0365 -0.6730
 7555SOL    HW134298   0.181   0.532  14.684  0.2710  1.0216 -0.6933
 7555SOL    HW234299   0.135   0.563  14.818 -1.0699  2.0719 -4.2777
 7556SOL     OW34300   2.894   1.220   2.945 -0.1620 -0.5002 -0.2132
 7556SOL    HW134301   2.859   1.144   2.992 -0.2246 -0.1307  0.3469
 7556SOL    HW234302   2.860   1.194   2.860 -0.1105  1.7090 -0.9160
 7557SOL     OW34303   2.570   3.860  12.719  0.3007 -0.6504 -0.3984
 7557SOL    HW134304   2.546   3.782  12.669  0.3665 -0.4816 -0.6977
 7557SOL    HW234305   2.662   3.869  12.694  0.6810 -0.3940  1.1391
 7558SOL     OW34306   2.067   0.075  17.088  0.6214 -0.1016  0.2978
 7558SOL    HW134307   2.002   0.005  17.086  1.3622 -0.7714 -0.6370
 7558SOL    HW234308   2.105   0.065  17.001 -0.1370 -1.1592  0.0895
 7559SOL     OW34309   1.018   2.364   1.836 -0.2032  0.4020  0.8063
 7559SOL    HW134310   0.941   2.310   1.818  1.3221 -1.6888  0.5732
 7559SOL    HW234311   0.999   2.454   1.809  0.8821  0.5777  0.6543
 7560SOL     OW34312   1.108   0.394   5.805 -0.1291  0.2373  0.1963
 7560SOL    HW134313   1.024   0.435   5.825  0.7909  0.9244  2.7265
 7560SOL    HW234314   1.150   0.471   5.767 -0.9299  0.2430 -0.6497
 7561SOL     OW34315   2.447   0.536   2.872  0.2387 -0.2075  0.2755
 7561SOL    HW134316   2.499   0.457   2.888 -0.0653 -0.6295 -0.7495
 7561SOL    HW234317   2.518   0.598   2.855  0.4045  0.1170  2.2472
 7562SOL     OW34318   2.436   0.668  15.957  0.1348  0.3533  0.0157
 7562SOL    HW134319   2.386   0.676  15.876  0.7803 -0.4418 -0.4558
 7562SOL    HW234320   2.448   0.573  15.951  1.7954  0.7749 -3.5342
 7563SOL     OW34321   2.384   4.449   6.516 -0.3692 -0.1677  0.0146
 7563SOL    HW134322   2.366   4.497   6.436  3.2029  0.6765 -0.2809
 7563SOL    HW234323   2.294   4.449   6.549  0.3163 -0.8486  1.8893
 7564SOL     OW34324   0.779   2.257   7.791  0.4367  0.5830 -0.2335
 7564SOL    HW134325   0.804   2.235   7.880 -1.0169  0.5545  0.1738
 7564SOL    HW234326   0.855   2.222   7.745  0.5109  0.4436 -0.0049
 7565SOL     OW34327   0.820   0.480   6.026  0.2309  0.0975 -0.2699
 7565SOL    HW134328   0.744   0.522   6.066  0.0045 -0.5560 -0.0223
 7565SOL    HW234329   0.808   0.392   6.060  3.7799 -0.4288 -0.4038
 7566SOL     OW34330   4.110   3.222   7.480  0.1929 -0.2318  0.0650
 7566SOL    HW134331   4.172   3.179   7.421 -0.0290  0.3451 -0.5790
 7566SOL    HW234332   4.102   3.312   7.448 -1.0602 -0.4321 -0.2160
 7567SOL     OW34333   1.195   0.303   8.062  0.2812  0.5020 -0.0681
 7567SOL    HW134334   1.153   0.348   7.989 -1.2156 -0.2040  0.3641
 7567SOL    HW234335   1.181   0.217   8.022 -0.8142  0.5107  0.2976
 7568SOL     OW34336   0.445   4.006   6.704 -0.2781 -0.0094 -0.2024
 7568SOL    HW134337   0.506   4.068   6.744 -1.4866  0.9447  0.1639
 7568SOL    HW234338   0.410   3.962   6.782  0.3489 -0.1636 -0.0106
 7569SOL     OW34339   1.594   2.399  13.651  0.3812  0.2555 -0.2595
 7569SOL    HW134340   1.559   2.381  13.563 -0.2120  2.6633 -0.5151
 7569SOL    HW234341   1.589   2.495  13.654  0.5596  0.2796 -0.7591
 7570SOL     OW34342   1.917   0.649   7.700  0.0042  0.0161  0.0035
 7570SOL    HW134343   1.955   0.734   7.678  0.1990  0.2452  1.2399
 7570SOL    HW234344   1.849   0.677   7.762  1.2722  2.9212  0.1090
 7571SOL     OW34345   2.116   1.792   4.670  0.0930 -0.9381 -0.1468
 7571SOL    HW134346   2.195   1.775   4.722 -0.2478 -0.6772  0.4483
 7571SOL    HW234347   2.099   1.709   4.625 -0.5665 -0.0884 -1.4483
 7572SOL     OW34348   1.563   3.887  16.593  0.2355  0.1904 -0.9952
 7572SOL    HW134349   1.566   3.849  16.505 -1.8204 -1.9945 -0.0953
 7572SOL    HW234350   1.484   3.941  16.599  0.6662  0.3538  2.8317
 7573SOL     OW34351   4.707   0.598  13.758  0.1828 -0.0249 -0.3487
 7573SOL    HW134352   4.630   0.652  13.776 -0.6700 -1.2096 -0.3861
 7573SOL    HW234353   4.662   0.514  13.748 -1.7467  0.9062  0.4880
 7574SOL     OW34354   2.717   3.335   0.492  0.1475 -0.1493 -0.4308
 7574SOL    HW134355   2.806   3.356   0.465 -0.0394 -1.8097 -2.3634
 7574SOL    HW234356   2.734   3.310   0.583  1.5563  2.1094 -0.0937
 7575SOL     OW34357   3.550   0.780  12.560 -0.2633 -0.2222 -0.1073
 7575SOL    HW134358   3.584   0.843  12.624  1.3081 -1.3281  0.1484
 7575SOL    HW234359   3.560   0.693  12.598  0.3871 -0.9756 -2.0236
 7576SOL     OW34360   2.222   4.403  12.223  0.3266 -0.2482  0.0005
 7576SOL    HW134361   2.219   4.470  12.155  1.3585 -0.8889 -0.6842
 7576SOL    HW234362   2.306   4.359  12.212  0.2526 -0.8903  2.0695
 7577SOL     OW34363   2.544   3.825   6.379 -0.5232  0.7449 -0.0842
 7577SOL    HW134364   2.480   3.832   6.449 -2.6776  1.0658 -2.1080
 7577SOL    HW234365   2.604   3.755   6.408 -0.0321  0.5158 -1.6045
 7578SOL     OW34366   3.580   2.691  11.632 -0.4932 -0.1763 -0.0862
 7578SOL    HW134367   3.674   2.671  11.625 -0.3729  0.2631  0.2904
 7578SOL    HW234368   3.554   2.653  11.548  1.1271 -0.5741 -0.4170
 7579SOL     OW34369   2.831   3.731   6.169  0.6786 -0.0058  0.1675
 7579SOL    HW134370   2.858   3.663   6.230 -0.2542  0.1411  0.7422
 7579SOL    HW234371   2.910   3.785   6.172  0.9606 -0.2757 -2.0114
 7580SOL     OW34372   0.638   2.051  11.282  0.2517  0.1810  0.4412
 7580SOL    HW134373   0.704   2.093  11.228 -1.1592  2.5029  0.4862
 7580SOL    HW234374   0.609   1.979  11.226 -0.6069  1.7200 -1.0958
 7581SOL     OW34375   1.358   2.376  14.266  0.2251  0.0217 -0.0037
 7581SOL    HW134376   1.409   2.306  14.308 -1.6010 -1.3587 -0.0872
 7581SOL    HW234377   1.280   2.327  14.240 -0.5143  1.1412  0.1092
 7582SOL     OW34378   3.996   3.983   7.028  0.0762  0.4434 -0.2063
 7582SOL    HW134379   3.913   4.021   7.000  0.3330  0.6699 -0.6602
 7582SOL    HW234380   4.071   4.030   6.992  0.3365  0.7392  0.7410
 7583SOL     OW34381   2.748   4.127   9.334  0.4985  0.1036  0.2500
 7583SOL    HW134382   2.664   4.141   9.378 -0.8626 -0.8531 -2.0509
 7583SOL    HW234383   2.802   4.185   9.386  0.6133 -1.1495  1.5254
 7584SOL     OW34384   1.007   2.608  15.012  0.2220  0.0399 -0.0945
 7584SOL    HW134385   1.094   2.637  15.040 -0.2044  3.4010 -2.1919
 7584SOL    HW234386   0.999   2.521  15.051 -0.3308  1.3967  2.7978
 7585SOL     OW34387   2.558   4.430   3.271  0.4639 -0.1229 -0.0286
 7585SOL    HW134388   2.552   4.337   3.293  5.2365 -0.9530 -2.2214
 7585SOL    HW234389   2.512   4.440   3.187 -0.6547  0.7663  0.6799
 7586SOL     OW34390   0.313   0.531  17.071  0.0892 -0.1240  0.1094
 7586SOL    HW134391   0.407   0.512  17.069 -0.0925 -0.9813 -0.5435
 7586SOL    HW234392   0.280   0.457  17.122  0.0059 -0.3245 -0.2325
 7587SOL     OW34393   0.310   1.890   3.933 -0.0112 -0.3397  0.2677
 7587SOL    HW134394   0.314   1.956   4.002 -0.9497  0.0314 -0.0418
 7587SOL    HW234395   0.278   1.810   3.975  0.9336 -0.9833 -0.2413
 7588SOL     OW34396   1.757   1.513   5.846 -0.9518  0.1255 -0.0402
 7588SOL    HW134397   1.777   1.469   5.764  0.1679 -1.6706  1.1927
 7588SOL    HW234398   1.828   1.577   5.839 -0.1024 -0.9842 -1.4733
 7589SOL     OW34399   2.699   4.208  11.767  0.0882  0.1055  0.1778
 7589SOL    HW134400   2.791   4.234  11.756  0.5985 -1.7047  0.1462
 7589SOL    HW234401   2.678   4.271  11.837 -1.4576 -2.8714  2.3644
 7590SOL     OW34402   2.835   4.380   7.694 -0.4364 -0.3824  0.2140
 7590SOL    HW134403   2.786   4.357   7.615  0.8302 -0.8926 -0.4360
 7590SOL    HW234404   2.860   4.470   7.669  0.8048 -0.7236  0.2258
 7591SOL     OW34405   2.129   3.350  17.649  0.5499 -0.3609  0.3184
 7591SOL    HW134406   2.204   3.402  17.620 -0.2536  1.3046  1.2620
 7591SOL    HW234407   2.175   3.272  17.679  0.0010 -1.0798 -0.7133
 7592SOL     OW34408   3.052   4.090   3.449  0.2519 -0.1314  0.4960
 7592SOL    HW134409   3.138   4.130   3.436 -0.0625 -0.1887 -1.7509
 7592SOL    HW234410   3.023   4.130   3.367 -0.9137  2.4202  2.1330
 7593SOL     OW34411   4.111   3.404  16.447  0.2389 -0.0131  0.2941
 7593SOL    HW134412   4.109   3.470  16.515 -0.0237  0.7615 -0.4635
 7593SOL    HW234413   4.195   3.424  16.406 -0.5042  0.3109 -1.0631
 7594SOL     OW34414   1.105   3.800  13.004 -0.5174  0.6914 -0.2871
 7594SOL    HW134415   1.180   3.858  13.011  0.7121 -0.9670  0.2197
 7594SOL    HW234416   1.147   3.715  13.012 -0.6929  0.7784  1.4723
 7595SOL     OW34417   4.630   2.254   8.198 -0.0442 -0.3371 -0.1489
 7595SOL    HW134418   4.594   2.326   8.146 -0.6041 -0.4555  0.0709
 7595SOL    HW234419   4.608   2.285   8.285 -0.4521 -3.4689  0.8543
 7596SOL     OW34420   1.587   1.873   7.044  0.0515 -0.2993  1.0384
 7596SOL    HW134421   1.545   1.944   7.092 -0.9035 -0.6492  0.7092
 7596SOL    HW234422   1.672   1.916   7.029 -1.1064  0.7228 -2.7077
 7597SOL     OW34423   1.968   3.857   3.662 -0.1732 -0.5025  0.2742
 7597SOL    HW134424   1.974   3.795   3.734 -0.0210 -0.3899  0.3573
 7597SOL    HW234425   1.995   3.800   3.590 -1.2679 -1.7931  0.8741
 7598SOL     OW34426   4.318   0.383   5.105 -0.4901  0.1285 -0.1380
 7598SOL    HW134427   4.350   0.315   5.165  0.7588 -0.6234 -1.6461
 7598SOL    HW234428   4.261   0.433   5.163 -0.9890 -0.4120 -0.1558
 7599SOL     OW34429   4.200   1.936   3.783  0.9826 -0.8670  0.4961
 7599SOL    HW134430   4.124   1.889   3.818 -0.4970 -0.0723 -1.6332
 7599SOL    HW234431   4.237   1.974   3.863  0.4520  0.4876  0.1038
 7600SOL     OW34432   1.154   3.531   8.819  0.0244  0.0983 -0.4136
 7600SOL    HW134433   1.169   3.442   8.787 -0.2166 -0.4028  0.8755
 7600SOL    HW234434   1.243   3.558   8.799 -0.1914 -0.0646 -1.6051
 7601SOL     OW34435   0.629   1.358   1.823  0.2133 -0.2769 -0.0691
 7601SOL    HW134436   0.576   1.414   1.765 -0.3535 -0.5187  0.2127
 7601SOL    HW234437   0.560   1.308   1.867 -1.3962  0.2620 -1.9448
 7602SOL     OW34438   2.607   3.467   6.253  0.0241  0.3089  0.2317
 7602SOL    HW134439   2.627   3.411   6.328 -0.7079  1.0560  0.9891
 7602SOL    HW234440   2.684   3.456   6.197  0.2125 -0.6543  0.6847
 7603SOL     OW34441   3.929   0.507   2.702 -0.7278  0.1514  0.0805
 7603SOL    HW134442   3.979   0.480   2.780  0.7814  0.1487 -0.9034
 7603SOL    HW234443   3.862   0.558   2.748 -0.5961 -0.0874  0.5403
 7604SOL     OW34444   2.830   3.876   3.390  0.1484 -0.5130  0.4029
 7604SOL    HW134445   2.892   3.834   3.450 -0.5171 -3.3870 -0.9287
 7604SOL    HW234446   2.821   3.964   3.428  1.3571  0.0140 -0.5364
 7605SOL     OW34447   2.059   4.379   7.689  0.0114  0.0066 -0.4556
 7605SOL    HW134448   1.969   4.410   7.680 -0.2492  0.0465  2.2655
 7605SOL    HW234449   2.042   4.286   7.705 -2.1208  0.3035 -0.9160
 7606SOL     OW34450   3.116   1.523   1.099 -0.1600 -0.2650 -0.4055
 7606SOL    HW134451   3.192   1.578   1.083 -0.0697  0.2830  1.8995
 7606SOL    HW234452   3.116   1.528   1.195 -1.1839 -2.7732 -0.2742
 7607SOL     OW34453   0.123   3.298   7.987 -0.0344 -0.0660 -0.0377
 7607SOL    HW134454   0.097   3.257   8.069  1.0737 -0.1927  0.2380
 7607SOL    HW234455   0.045   3.352   7.973 -0.0529  0.0719  0.6069
 7608SOL     OW34456   2.503   3.655  13.839 -0.4280  0.0748 -0.0559
 7608SOL    HW134457   2.567   3.711  13.795 -2.2101  2.5672  0.5727
 7608SOL    HW234458   2.466   3.604  13.767 -0.1677  1.8268 -1.4174
 7609SOL     OW34459   3.807   4.717   8.207 -0.1950  0.3963  0.1930
 7609SOL    HW134460   3.780   4.636   8.163  0.8067 -0.1789  0.6451
 7609SOL    HW234461   3.878   4.691   8.265  0.3065  0.1701 -0.5213
 7610SOL     OW34462   3.120   1.423   6.230  0.3978 -0.3437 -0.2503
 7610SOL    HW134463   3.177   1.363   6.183  1.5217  1.4288 -1.1713
 7610SOL    HW234464   3.157   1.424   6.318  1.4593  0.5572 -0.7023
 7611SOL     OW34465   3.251   1.928  14.048  0.7661  0.2682 -0.3282
 7611SOL    HW134466   3.198   1.998  14.087 -0.8206 -1.5920  0.8622
 7611SOL    HW234467   3.332   1.962  14.088  0.1820  1.7090 -0.3734
 7612SOL     OW34468   3.830   3.010  12.516 -1.0474 -0.1106 -0.2581
 7612SOL    HW134469   3.888   2.934  12.511  2.4067  2.5015 -0.0271
 7612SOL    HW234470   3.852   3.059  12.595 -1.8951  0.5458 -0.4393
 7613SOL     OW34471   3.208   2.663  17.140 -0.4050  0.2342  0.6132
 7613SOL    HW134472   3.193   2.571  17.116 -1.3655  0.7619 -0.8270
 7613SOL    HW234473   3.129   2.678  17.192 -0.6944  1.4298 -0.1577
 7614SOL     OW34474   3.043   2.537   8.851 -0.5080 -0.5696  0.4740
 7614SOL    HW134475   2.991   2.462   8.822 -0.3060 -0.5466  0.0654
 7614SOL    HW234476   2.979   2.608   8.854  1.9451  1.6376 -0.3772
 7615SOL     OW34477   3.492   1.894   2.080 -0.2195 -0.6395  0.3252
 7615SOL    HW134478   3.409   1.939   2.096  0.2345  0.7734 -1.2390
 7615SOL    HW234479   3.491   1.845   2.162  0.7907 -3.2731 -1.2487
 7616SOL     OW34480   0.433   3.962   5.384  0.0762 -0.3003 -0.2514
 7616SOL    HW134481   0.429   3.924   5.297  1.6626  1.0580 -0.9087
 7616SOL    HW234482   0.522   3.938   5.411  0.5187  0.5659 -0.9437
 7617SOL     OW34483   4.315   1.987  17.156 -0.0539  0.0299  0.4788
 7617SOL    HW134484   4.403   1.949  17.155  0.2890  0.8503 -0.4813
 7617SOL    HW234485   4.341   2.077  17.176 -1.3220  0.2189  1.2466
 7618SOL     OW34486   0.981   0.461   3.602  0.3222 -0.3525 -0.1346
 7618SOL    HW134487   1.005   0.547   3.635 -0.6531 -0.6197  1.2824
 7618SOL    HW234488   1.044   0.406   3.648  0.2893 -0.2519  0.0292
 7619SOL     OW34489   2.045   0.026   5.681  0.1914 -0.6705 -0.0439
 7619SOL    HW134490   2.098   4.734   5.753  0.7325 -0.6830 -0.4445
 7619SOL    HW234491   2.064   4.696   5.619 -0.0551 -0.1750 -0.6946
 7620SOL     OW34492   2.344   4.480   5.467  0.4131 -0.5323 -0.4409
 7620SOL    HW134493   2.406   4.438   5.527  2.1838  1.7553 -0.6934
 7620SOL    HW234494   2.324   4.404   5.414 -1.9585  0.4165 -0.9087
 7621SOL     OW34495   3.872   0.334  17.436  0.0416  0.1381 -0.7539
 7621SOL    HW134496   3.954   0.295  17.467 -1.1645 -0.1738  2.0486
 7621SOL    HW234497   3.884   0.282  17.356 -1.4208  0.0017 -0.8859
 7622SOL     OW34498   3.318   3.172   2.764  0.1540  0.4165  0.0432
 7622SOL    HW134499   3.322   3.190   2.858  2.2459 -2.5652  0.5163
 7622SOL    HW234500   3.298   3.256   2.724 -2.3575  0.3563  1.1434
 7623SOL     OW34501   1.197   0.442   8.295 -0.0012 -0.4087 -0.0014
 7623SOL    HW134502   1.230   0.367   8.246 -0.9151 -0.2150 -0.8923
 7623SOL    HW234503   1.108   0.413   8.315 -0.0028 -2.2329 -2.6135
 7624SOL     OW34504   4.644   2.525  17.069  0.1070  0.3819  0.4453
 7624SOL    HW134505   4.677   2.456  17.126 -0.1561 -1.0457 -1.1355
 7624SOL    HW234506   4.597   2.473  17.005 -0.3041 -1.2932  2.1083
 7625SOL     OW34507   4.074   1.186   3.048 -0.0797  0.0452 -0.2319
 7625SOL    HW134508   4.081   1.115   2.984 -0.7453 -0.3172  0.0978
 7625SOL    HW234509   4.162   1.219   3.066 -1.7219  3.6971  0.9735
 7626SOL     OW34510   3.228   2.895   1.933 -0.0527 -0.4692  0.1964
 7626SOL    HW134511   3.214   2.808   1.970 -1.6722 -0.1762  0.2994
 7626SOL    HW234512   3.193   2.941   2.010 -0.5774 -1.1892  0.3873
 7627SOL     OW34513   4.592   2.808  11.860 -0.2129 -0.2984  0.6599
 7627SOL    HW134514   4.640   2.800  11.942 -1.3440  0.5365  1.4083
 7627SOL    HW234515   4.531   2.880  11.879 -1.0968 -1.6608  3.0120
 7628SOL     OW34516   1.565   0.074  11.667  0.3742 -0.4054  0.2412
 7628SOL    HW134517   1.629   0.105  11.730  0.4415 -1.3393  0.6232
 7628SOL    HW234518   1.487   0.061  11.721 -0.2673  0.0990 -0.5593
 7629SOL     OW34519   2.337   1.970   7.978  0.0599  0.5145  0.2280
 7629SOL    HW134520   2.320   1.898   7.918  0.0173  0.9748 -0.3137
 7629SOL    HW234521   2.363   2.039   7.917  0.5730 -0.4812 -0.6862
 7630SOL     OW34522   1.868   4.314   6.045 -0.2319  0.0279 -0.2349
 7630SOL    HW134523   1.916   4.364   5.979  1.6143  0.5415  1.4911
 7630SOL    HW234524   1.941   4.270   6.088 -1.5354 -2.8039 -0.9537
 7631SOL     OW34525   0.738   0.323   6.940  0.3278 -0.2248 -0.2408
 7631SOL    HW134526   0.717   0.392   7.002 -1.5458 -0.5583 -0.4827
 7631SOL    HW234527   0.819   0.352   6.898  1.9007 -1.7490  1.7426
 7632SOL     OW34528   4.619   3.816   6.418 -0.5410  0.1959 -0.6687
 7632SOL    HW134529   4.691   3.832   6.479 -0.7400  0.8159 -0.5885
 7632SOL    HW234530   4.650   3.857   6.337 -2.8985  2.2386 -0.5423
 7633SOL     OW34531   2.332   2.851   3.807 -0.1021  0.0523  0.3182
 7633SOL    HW134532   2.405   2.904   3.776  1.4719 -1.9695  0.5711
 7633SOL    HW234533   2.258   2.912   3.799  1.5175  1.7487 -1.9453
 7634SOL     OW34534   2.008   1.995   2.519 -0.4535 -0.1537 -0.0791
 7634SOL    HW134535   2.034   2.035   2.602  1.6434 -0.5063 -0.5565
 7634SOL    HW234536   2.068   1.920   2.523  1.2155  1.0954 -2.0297
 7635SOL     OW34537   3.525   2.304   8.058  0.0491 -0.8989 -0.4105
 7635SOL    HW134538   3.491   2.334   7.974  0.1335 -2.2673 -0.9379
 7635SOL    HW234539   3.556   2.385   8.099 -1.8987  0.6809 -2.0511
 7636SOL     OW34540   0.619   4.464   6.315 -0.3957 -0.0382  0.1184
 7636SOL    HW134541   0.644   4.392   6.374  0.8770  0.3979  0.1071
 7636SOL    HW234542   0.534   4.439   6.278 -0.2206 -0.1056 -0.2384
 7637SOL     OW34543   1.128   3.917   9.975  0.3807 -0.0998 -0.6951
 7637SOL    HW134544   1.140   3.871  10.058 -0.7647  1.4252  0.3146
 7637SOL    HW234545   1.066   3.865   9.924 -1.0068  1.3525 -0.4785
 7638SOL     OW34546   0.444   4.408   1.487 -0.7865  0.1216  0.0000
 7638SOL    HW134547   0.355   4.382   1.463 -1.2679  0.9704  0.8583
 7638SOL    HW234548   0.437   4.503   1.480 -0.4520  0.1789  0.4376
 7639SOL     OW34549   2.246   4.574  12.002  0.4418  0.0946 -0.2142
 7639SOL    HW134550   2.275   4.562  11.912 -1.1037  1.7022 -0.9483
 7639SOL    HW234551   2.291   4.657  12.017 -0.3653 -0.1354  3.7092
 7640SOL     OW34552   3.919   4.046   7.322 -0.3823  0.3526 -0.1932
 7640SOL    HW134553   3.900   4.136   7.295 -1.8773 -0.3394 -1.4615
 7640SOL    HW234554   3.936   3.998   7.241  0.0278 -0.8530  0.6172
 7641SOL     OW34555   2.065   1.804   3.889  0.2157  0.0842  0.3199
 7641SOL    HW134556   2.050   1.796   3.983 -3.3567 -0.0705 -0.2636
 7641SOL    HW234557   2.161   1.810   3.891  0.1086  0.6074  3.3836
 7642SOL     OW34558   2.363   0.267  10.476  0.6640 -0.0453  0.2244
 7642SOL    HW134559   2.438   0.209  10.488  1.9677  1.6440  0.1800
 7642SOL    HW234560   2.383   0.298  10.388 -1.0015 -1.7750 -0.7734
 7643SOL     OW34561   0.623   1.638   8.012 -0.2355  0.0355 -0.2138
 7643SOL    HW134562   0.696   1.697   7.994 -0.1198 -0.7114 -2.0835
 7643SOL    HW234563   0.553   1.687   7.968  0.3316 -0.2954 -1.4708
 7644SOL     OW34564   0.539   2.261   8.478 -0.6666  0.1844 -0.2320
 7644SOL    HW134565   0.444   2.262   8.488 -0.4814 -0.7407  1.7138
 7644SOL    HW234566   0.540   2.245   8.384 -1.8409 -0.1752 -0.1771
 7645SOL     OW34567   2.269   2.685   8.089 -0.1113  0.1909 -0.2765
 7645SOL    HW134568   2.195   2.735   8.123 -0.9883 -0.8841 -0.6170
 7645SOL    HW234569   2.339   2.750   8.089  1.3303 -1.4050 -4.0758
 7646SOL     OW34570   3.901   2.986   1.948 -0.0569  0.3081 -0.0678
 7646SOL    HW134571   3.872   3.035   1.871 -0.6545  0.1074  0.0332
 7646SOL    HW234572   3.983   2.955   1.911 -0.1443  0.9160 -0.7942
 7647SOL     OW34573   0.075   0.253   5.187 -0.0404  0.0913  0.2074
 7647SOL    HW134574   0.144   0.239   5.253  1.8927  0.9456 -1.6511
 7647SOL    HW234575   0.092   0.340   5.151  0.1775 -0.1539 -0.2804
 7648SOL     OW34576   3.428   0.487  15.633 -0.4702 -0.5051  0.8776
 7648SOL    HW134577   3.390   0.531  15.556 -1.6114 -1.5159  0.8657
 7648SOL    HW234578   3.521   0.507  15.623 -0.5890 -0.3745  0.0084
 7649SOL     OW34579   3.517   3.985  15.433 -0.1846  0.0035 -0.5448
 7649SOL    HW134580   3.471   3.987  15.349  2.7656 -0.1576 -2.1426
 7649SOL    HW234581   3.471   4.043  15.494  1.5678  0.9960 -0.1755
 7650SOL     OW34582   0.586   2.871  12.225 -0.4045  0.5783 -0.2831
 7650SOL    HW134583   0.523   2.904  12.161  0.1338 -0.9588 -1.6045
 7650SOL    HW234584   0.642   2.946  12.246  0.4809 -0.3427  0.5873
 7651SOL     OW34585   3.284   1.017   2.883  0.2832  0.0986  0.5891
 7651SOL    HW134586   3.335   1.079   2.934  0.6043  0.6926 -0.4591
 7651SOL    HW234587   3.210   1.005   2.943 -0.8183  2.8096 -0.2371
 7652SOL     OW34588   3.757   4.522  14.323  0.1392 -0.4318 -0.1112
 7652SOL    HW134589   3.821   4.589  14.296  0.4380  0.1791  2.1209
 7652SOL    HW234590   3.763   4.457  14.253  0.9861  0.3771 -0.7943
 7653SOL     OW34591   4.293   3.996   8.284  0.0102 -0.1081 -0.3853
 7653SOL    HW134592   4.245   4.053   8.344  3.3959  1.6528  0.6459
 7653SOL    HW234593   4.378   3.996   8.330  0.8634  0.2249 -1.9559
 7654SOL     OW34594   4.572   4.208   2.319 -0.7592 -0.0497  0.6815
 7654SOL    HW134595   4.500   4.174   2.267 -0.2012  1.2774 -0.9739
 7654SOL    HW234596   4.629   4.132   2.310 -1.1071 -0.2884  0.5139
 7655SOL     OW34597   0.714   2.092  13.293 -0.2465 -0.1408 -0.5483
 7655SOL    HW134598   0.696   2.078  13.386  2.2342  1.7605  0.2334
 7655SOL    HW234599   0.734   2.185  13.281 -1.0467  0.0449 -0.4261
 7656SOL     OW34600   4.271   3.630   5.580 -0.6426  0.0959  0.3954
 7656SOL    HW134601   4.225   3.713   5.574 -0.9349  0.0651  2.3196
 7656SOL    HW234602   4.330   3.642   5.505 -1.1353  2.2267  0.3545
 7657SOL     OW34603   2.014   2.716   4.622  0.0653  0.7687 -0.3822
 7657SOL    HW134604   1.919   2.709   4.622  0.3835 -3.6054 -0.6254
 7657SOL    HW234605   2.028   2.801   4.580 -0.6454  1.5891  1.0675
 7658SOL     OW34606   2.048   3.077   2.932  0.4653 -0.3676  0.3153
 7658SOL    HW134607   2.003   3.010   2.984  2.1881 -0.9659  1.0027
 7658SOL    HW234608   2.029   3.036   2.848 -1.2187  0.4521  0.2909
 7659SOL     OW34609   2.440   3.145   3.214 -0.1986  0.2330 -0.0759
 7659SOL    HW134610   2.493   3.170   3.139  1.2120  1.3602  1.3057
 7659SOL    HW234611   2.353   3.162   3.177 -0.9614 -1.2625  0.9920
 7660SOL     OW34612   1.179   0.499  13.206  0.2084  0.2083 -0.2435
 7660SOL    HW134613   1.156   0.406  13.205 -0.5135  0.3414  3.8874
 7660SOL    HW234614   1.232   0.499  13.286  1.8632 -0.5175 -1.3352
 7661SOL     OW34615   0.318   0.210   3.355 -0.2474  0.1220  0.5499
 7661SOL    HW134616   0.394   0.157   3.379 -0.3187 -0.8029 -1.2097
 7661SOL    HW234617   0.356   0.290   3.321 -1.6086 -0.0972 -1.4932
 7662SOL     OW34618   4.030   0.904   8.730 -0.9643 -0.0200  0.2060
 7662SOL    HW134619   4.101   0.869   8.785 -2.7619 -0.3746  2.2802
 7662SOL    HW234620   4.074   0.955   8.661  0.4090 -2.2526 -0.5619
 7663SOL     OW34621   0.224   1.480  13.985  0.1051  0.3420 -0.1645
 7663SOL    HW134622   0.257   1.399  14.024 -4.5188 -0.9188  1.2324
 7663SOL    HW234623   0.269   1.488  13.902 -0.6729  1.7176 -0.4549
 7664SOL     OW34624   3.820   3.984   7.596  0.3678 -0.2045  0.2822
 7664SOL    HW134625   3.792   3.898   7.562 -0.9212  1.0401 -1.7998
 7664SOL    HW234626   3.881   4.011   7.527 -1.7474 -0.1268 -1.5612
 7665SOL     OW34627   1.097   3.843   0.340  0.2321  0.4327  0.0620
 7665SOL    HW134628   1.014   3.846   0.293 -0.2048  0.1120  0.8088
 7665SOL    HW234629   1.145   3.778   0.288 -1.9489  1.4964 -3.2087
 7666SOL     OW34630   4.094   2.384   3.622 -0.8003  0.0003 -0.4602
 7666SOL    HW134631   4.156   2.453   3.600 -0.7145  0.6219  1.7467
 7666SOL    HW234632   4.020   2.384   3.561 -0.2653 -1.9180 -1.1155
 7667SOL     OW34633   4.222   3.886   5.938 -0.1459 -0.1090  0.0445
 7667SOL    HW134634   4.231   3.956   5.873  1.1607 -0.5192 -0.2237
 7667SOL    HW234635   4.143   3.843   5.907  0.1259 -0.3190 -0.3634
 7668SOL     OW34636   1.366   3.767   6.580  0.5029  0.8435 -0.0559
 7668SOL    HW134637   1.365   3.856   6.544 -3.7331 -1.0508 -4.5730
 7668SOL    HW234638   1.397   3.723   6.501 -1.7160  1.7013 -1.4032
 7669SOL     OW34639   3.777   1.348   5.785 -0.0296  0.2278  0.1809
 7669SOL    HW134640   3.717   1.381   5.852 -1.1173 -0.0327 -0.6589
 7669SOL    HW234641   3.718   1.343   5.710  0.0091 -0.9258  0.2234
 7670SOL     OW34642   0.624   1.304   9.863  0.5698 -0.5392  0.0248
 7670SOL    HW134643   0.569   1.234   9.897  0.9810 -1.1226 -0.4978
 7670SOL    HW234644   0.707   1.281   9.906  1.4936 -1.8148 -2.4159
 7671SOL     OW34645   2.606   2.368  13.849 -0.0309 -0.7098 -0.1533
 7671SOL    HW134646   2.544   2.410  13.790 -1.1603 -0.3864  1.2852
 7671SOL    HW234647   2.613   2.289  13.795 -2.2109  0.7482 -2.5016
 7672SOL     OW34648   3.819   1.729   8.469  0.5710  0.7476  0.4400
 7672SOL    HW134649   3.795   1.807   8.519 -0.4767  1.3447 -0.9869
 7672SOL    HW234650   3.739   1.679   8.483  0.1182  1.1290 -0.7479
 7673SOL     OW34651   3.288   0.254   5.586  0.5678  0.4325 -0.3408
 7673SOL    HW134652   3.379   0.268   5.559  0.6634  0.9542  0.2582
 7673SOL    HW234653   3.237   0.305   5.523 -0.7692  0.7178  0.9581
 7674SOL     OW34654   2.553   2.426   7.966  0.4714 -0.3860  0.2009
 7674SOL    HW134655   2.615   2.400   7.898 -2.3829  0.7868 -2.8517
 7674SOL    HW234656   2.575   2.519   7.971 -1.8536  0.1108  1.4855
 7675SOL     OW34657   4.272   4.094  15.067 -0.3681 -0.2498 -0.2395
 7675SOL    HW134658   4.280   4.186  15.090 -3.4040  0.1604 -0.9473
 7675SOL    HW234659   4.365   4.074  15.051  0.2675  2.1234  0.5589
 7676SOL     OW34660   2.665   4.282  12.432 -0.4689  0.3522  0.0255
 7676SOL    HW134661   2.619   4.351  12.383 -1.6668 -1.0417 -0.8221
 7676SOL    HW234662   2.702   4.336  12.502 -1.6948 -1.0645  1.7896
 7677SOL     OW34663   3.533   2.790   1.154  0.4524  0.6838  0.1492
 7677SOL    HW134664   3.473   2.716   1.145  1.0173  0.0722  1.4241
 7677SOL    HW234665   3.533   2.800   1.250  3.1070  1.0059  0.1227
 7678SOL     OW34666   0.428   2.492   6.763  0.6829  0.0414  0.2414
 7678SOL    HW134667   0.369   2.566   6.748 -0.3236 -0.5831  1.1587
 7678SOL    HW234668   0.499   2.533   6.812  0.8047  1.3048 -0.9564
 7679SOL     OW34669   0.860   2.307   1.556 -0.1674 -0.6458  0.4110
 7679SOL    HW134670   0.950   2.337   1.570 -0.8343  0.9936  1.1494
 7679SOL    HW234671   0.815   2.310   1.641 -0.7500 -0.7951  0.1073
 7680SOL     OW34672   3.535   4.367   1.096 -0.1290 -0.0942 -0.4402
 7680SOL    HW134673   3.520   4.274   1.079 -0.9128  0.4743 -2.8446
 7680SOL    HW234674   3.614   4.372   1.150 -1.5420 -0.4176  1.6615
 7681SOL     OW34675   2.028   4.279   3.499  0.3756  0.0458  0.3285
 7681SOL    HW134676   2.094   4.230   3.547  0.9855 -0.6945 -1.2759
 7681SOL    HW234677   1.948   4.246   3.541 -0.5451 -0.8185 -2.1140
 7682SOL     OW34678   1.764   3.881   3.298  0.0758  0.6635  0.1595
 7682SOL    HW134679   1.816   3.962   3.302  1.9407 -0.5704  0.8284
 7682SOL    HW234680   1.698   3.914   3.236  0.0439 -0.9262 -0.6418
 7683SOL     OW34681   1.525   2.317   9.809 -0.6884  0.0455  0.7920
 7683SOL    HW134682   1.472   2.300   9.888 -1.0411  0.1782  0.5809
 7683SOL    HW234683   1.555   2.228   9.791  0.0680  0.1627  1.4843
 7684SOL     OW34684   2.703   2.845  12.657 -0.0973 -0.3865 -1.5111
 7684SOL    HW134685   2.690   2.829  12.564 -0.9928 -4.1903 -0.7252
 7684SOL    HW234686   2.787   2.801  12.674  1.4471  2.9340 -0.5269
 7685SOL     OW34687   1.546   1.512   8.392 -0.1554 -0.2014  0.1380
 7685SOL    HW134688   1.467   1.469   8.359  1.4575 -1.3612 -2.2377
 7685SOL    HW234689   1.598   1.441   8.428 -1.7033 -1.4705 -0.1065
 7686SOL     OW34690   1.657   2.872  14.286 -0.4588 -0.2719  0.1502
 7686SOL    HW134691   1.746   2.881  14.253 -0.6426 -2.1517 -0.8254
 7686SOL    HW234692   1.634   2.965  14.289 -1.2750 -0.4474 -0.5436
 7687SOL     OW34693   0.041   1.709   7.924  0.4330  0.1662 -0.5614
 7687SOL    HW134694   0.066   1.651   7.852  2.0210 -1.4186  1.2611
 7687SOL    HW234695   4.715   1.762   7.882 -0.5319  0.9715  2.0401
 7688SOL     OW34696   0.059   3.272   6.081 -0.0259  1.0252  0.3210
 7688SOL    HW134697   0.045   3.361   6.050 -0.3347  1.2239  1.0407
 7688SOL    HW234698   0.148   3.260   6.050 -1.0324  0.3111 -2.3046
 7689SOL     OW34699   3.136   0.458   7.852 -0.2074 -0.0774  0.6466
 7689SOL    HW134700   3.158   0.419   7.767  1.5444 -0.2147  1.1653
 7689SOL    HW234701   3.051   0.486   7.818 -0.1069 -1.8314 -1.0542
 7690SOL     OW34702   3.907   3.740   2.721  0.3340  0.4803 -0.2391
 7690SOL    HW134703   3.868   3.788   2.649 -1.5429 -2.4455 -1.1869
 7690SOL    HW234704   3.845   3.744   2.794  0.2998 -2.4917 -0.0980
 7691SOL     OW34705   1.299   3.681   2.929 -0.3820  0.7225  0.0262
 7691SOL    HW134706   1.263   3.762   2.891 -1.2854  0.3544  0.0914
 7691SOL    HW234707   1.391   3.691   2.905 -0.4821 -0.1393 -0.7497
 7692SOL     OW34708   3.367   0.984   6.251  0.3167  0.4178  0.4521
 7692SOL    HW134709   3.348   0.892   6.267  1.0134  0.5951  2.3230
 7692SOL    HW234710   3.293   1.017   6.200  0.2941 -1.7637 -0.9404
 7693SOL     OW34711   1.916   1.847   8.708  0.9549 -0.6062  0.1361
 7693SOL    HW134712   1.907   1.894   8.791 -1.4081 -1.2713  0.2584
 7693SOL    HW234713   1.844   1.887   8.658 -0.8671 -2.8061  0.9680
 7694SOL     OW34714   2.768   2.371   3.000 -0.2069  0.2576 -0.4968
 7694SOL    HW134715   2.706   2.320   2.948  2.2601 -2.4848 -0.7266
 7694SOL    HW234716   2.778   2.310   3.073 -0.7773  1.6156  0.7192
 7695SOL     OW34717   3.685   1.421   3.227 -0.0495  0.1871  0.4103
 7695SOL    HW134718   3.780   1.416   3.227  0.0011  1.1006 -1.7231
 7695SOL    HW234719   3.673   1.492   3.163  0.4161 -0.3211 -0.2363
 7696SOL     OW34720   4.099   3.475  14.702  0.2449  0.4863  0.7475
 7696SOL    HW134721   4.030   3.537  14.675  2.0715  1.2267 -2.1712
 7696SOL    HW234722   4.083   3.407  14.636 -1.3244  1.0617  0.5205
 7697SOL     OW34723   3.089   2.289   2.251 -0.5338 -0.1738 -0.7388
 7697SOL    HW134724   3.003   2.268   2.290 -0.2665  0.5842  0.2545
 7697SOL    HW234725   3.132   2.312   2.333 -1.2307 -1.8847  0.1272
 7698SOL     OW34726   0.825   0.360   2.535 -0.1110 -0.4637 -0.4008
 7698SOL    HW134727   0.839   0.281   2.483 -0.0879 -0.1745 -0.8386
 7698SOL    HW234728   0.900   0.414   2.510  0.5256 -1.2643 -0.2103
 7699SOL     OW34729   0.134   2.602   9.129  0.6444 -0.3211 -0.4476
 7699SOL    HW134730   0.199   2.544   9.090  0.3415  0.3085 -1.8932
 7699SOL    HW234731   0.082   2.540   9.181 -0.5241  1.6094  0.7019
 7700SOL     OW34732   3.899   0.294   8.353 -0.0662 -0.0055 -0.5158
 7700SOL    HW134733   3.962   0.282   8.424  0.4687 -2.3412 -1.3819
 7700SOL    HW234734   3.958   0.350   8.302 -0.9088  2.7116  1.4549
 7701SOL     OW34735   1.246   1.449   9.072  0.1761 -0.2513  0.3003
 7701SOL    HW134736   1.305   1.518   9.041 -1.2150  0.2646 -1.1961
 7701SOL    HW234737   1.193   1.425   8.996  2.1523 -3.4188 -0.0836
 7702SOL     OW34738   1.501   3.481   7.825 -0.0710 -0.9083 -0.2747
 7702SOL    HW134739   1.579   3.481   7.769 -0.0869  3.1021 -0.3042
 7702SOL    HW234740   1.521   3.442   7.910  1.6913  1.0524  0.2203
 7703SOL     OW34741   2.140   4.357  13.179  0.1097  0.2223 -0.0326
 7703SOL    HW134742   2.078   4.332  13.111  1.3274  0.3135 -1.1597
 7703SOL    HW234743   2.087   4.350  13.259  0.5993 -1.4411  0.1564
 7704SOL     OW34744   4.741   3.933   2.053  0.1263  0.2522 -0.0212
 7704SOL    HW134745   4.695   3.919   1.970 -0.6252 -0.7847  0.5802
 7704SOL    HW234746   0.075   3.982   2.022 -0.4963  2.2563  1.6497
 7705SOL     OW34747   0.811   2.626   6.728 -0.1294  0.1938 -0.3472
 7705SOL    HW134748   0.791   2.596   6.640 -0.6545 -0.2923 -0.0638
 7705SOL    HW234749   0.723   2.642   6.762  0.8020  1.9756  1.2407
 7706SOL     OW34750   3.334   2.341   7.244 -0.2135 -0.2675  0.2349
 7706SOL    HW134751   3.274   2.343   7.170 -1.0185 -2.1880  0.8469
 7706SOL    HW234752   3.275   2.377   7.311  3.1631  2.2840  1.8540
 7707SOL     OW34753   4.431   2.575  11.813 -0.6056 -0.3450  0.0771
 7707SOL    HW134754   4.457   2.663  11.785  3.5637 -0.5735  3.1948
 7707SOL    HW234755   4.500   2.518  11.778  0.6066 -0.3280  2.4029
 7708SOL     OW34756   1.075   4.431   5.106  0.0699  0.2871  0.1977
 7708SOL    HW134757   1.054   4.343   5.074  1.6240  0.4325 -1.2679
 7708SOL    HW234758   1.170   4.427   5.095 -0.1209 -0.8826 -1.1474
 7709SOL     OW34759   1.487   2.036  17.424 -0.1481 -0.4976  0.0163
 7709SOL    HW134760   1.578   2.062  17.443 -0.5505  0.4756  0.6196
 7709SOL    HW234761   1.495   1.985  17.343 -2.4554 -1.4604  0.3809
 7710SOL     OW34762   0.882   0.852   4.138 -0.5937  0.0615 -0.5773
 7710SOL    HW134763   0.834   0.775   4.170  0.6193 -1.2796 -1.9763
 7710SOL    HW234764   0.840   0.922   4.188 -1.7073 -1.4279  0.5599
 7711SOL     OW34765   3.984   1.406   8.771  0.4836 -0.2178 -0.2067
 7711SOL    HW134766   3.986   1.500   8.754  0.1479 -0.3439 -0.9464
 7711SOL    HW234767   3.921   1.381   8.703  0.0192  0.8902 -0.1765
 7712SOL     OW34768   3.430   1.956   2.533  0.1512  0.3469 -0.4386
 7712SOL    HW134769   3.518   1.920   2.531 -0.4092 -1.2736  4.1073
 7712SOL    HW234770   3.419   2.011   2.455  1.3811  0.2415 -0.6878
 7713SOL     OW34771   4.048   2.767  15.777  0.3872 -0.2579  0.1646
 7713SOL    HW134772   3.963   2.723  15.764  0.5400 -0.3488 -0.5183
 7713SOL    HW234773   4.035   2.841  15.836 -0.4044 -1.1999  1.1769
 7714SOL     OW34774   3.193   4.119  11.851 -0.5323  0.5818 -0.0302
 7714SOL    HW134775   3.241   4.066  11.915  0.7620  0.9348 -0.7032
 7714SOL    HW234776   3.129   4.058  11.814 -1.2028  2.1774 -1.5015
 7715SOL     OW34777   0.363   1.426   7.086  0.2100 -0.6433  0.0996
 7715SOL    HW134778   0.426   1.491   7.055 -0.1285  0.1846  1.1302
 7715SOL    HW234779   0.299   1.487   7.122 -0.1463  0.6012 -2.6519
 7716SOL     OW34780   2.593   4.414   0.790  0.2142  0.0969 -0.3836
 7716SOL    HW134781   2.558   4.331   0.758  1.1713 -0.2997 -0.4046
 7716SOL    HW234782   2.653   4.376   0.855  2.4287  0.3510 -2.2685
 7717SOL     OW34783   1.814   0.373   0.629  0.2387  0.4013  0.4395
 7717SOL    HW134784   1.846   0.348   0.542  1.1511 -2.0784  1.5166
 7717SOL    HW234785   1.735   0.419   0.602  0.1791  0.6437  1.0315
 7718SOL     OW34786   1.082   0.717   3.645  0.2999 -0.1613 -0.1647
 7718SOL    HW134787   1.128   0.725   3.561 -1.4066  0.2277 -1.0589
 7718SOL    HW234788   1.158   0.707   3.703 -0.8028  0.2581  1.3289
 7719SOL     OW34789   4.676   1.262   9.246  0.0693 -0.1911  0.0808
 7719SOL    HW134790   4.600   1.221   9.289 -0.9135  0.7816 -0.7202
 7719SOL    HW234791   0.003   1.204   9.277  1.1045  0.3200 -1.2841
 7720SOL     OW34792   3.020   0.370   8.973  0.2645 -0.0021  0.0864
 7720SOL    HW134793   2.965   0.414   9.037  1.6195 -0.6313  1.6937
 7720SOL    HW234794   3.095   0.348   9.029  0.3471  0.9930  0.3604
 7721SOL     OW34795   2.328   3.050   9.313 -0.1564  0.3787 -0.2468
 7721SOL    HW134796   2.277   2.976   9.348  1.3572 -1.2393 -1.4627
 7721SOL    HW234797   2.411   3.028   9.354 -0.5309  0.6706  0.6746
 7722SOL     OW34798   4.011   4.541   8.819 -0.4060 -0.2989  0.1104
 7722SOL    HW134799   4.003   4.608   8.752 -2.4184 -0.2416  0.4080
 7722SOL    HW234800   4.103   4.517   8.811 -0.1452  1.0293 -0.7523
 7723SOL     OW34801   2.591   0.498   6.244  0.2969  0.4227  0.0014
 7723SOL    HW134802   2.638   0.576   6.273 -2.1159  2.9939 -3.1216
 7723SOL    HW234803   2.599   0.437   6.317  2.2922  0.0294 -0.5264
 7724SOL     OW34804   0.069   2.390  13.525 -0.5113 -0.2143 -0.0973
 7724SOL    HW134805   0.085   2.333  13.450 -0.3313  1.3744 -1.2653
 7724SOL    HW234806   0.020   2.459  13.481 -0.0425 -0.2497 -0.6764
 7725SOL     OW34807   2.872   2.001   7.429 -0.0535 -0.2577 -0.1334
 7725SOL    HW134808   2.902   1.912   7.410 -0.1053 -0.2556 -0.2230
 7725SOL    HW234809   2.913   2.011   7.515  1.6840  0.6370 -1.0524
 7726SOL     OW34810   0.377   1.378   4.500 -0.3040 -0.2917  0.1445
 7726SOL    HW134811   0.348   1.416   4.583 -2.3413 -0.2041 -0.6095
 7726SOL    HW234812   0.331   1.294   4.504 -0.9457  0.0551 -0.0317
 7727SOL     OW34813   4.576   4.401  16.156 -0.1180 -0.5841  0.7557
 7727SOL    HW134814   4.541   4.315  16.135  1.4494 -0.1564 -3.6771
 7727SOL    HW234815   4.502   4.462  16.153  0.0354 -0.5248 -1.6177
 7728SOL     OW34816   4.069   2.876   3.079  0.6499 -0.9159  0.1156
 7728SOL    HW134817   4.086   2.838   2.993 -0.7194  0.9463 -0.9915
 7728SOL    HW234818   4.003   2.814   3.111  1.7757 -2.8740 -1.4163
 7729SOL     OW34819   3.966   1.183   2.714  0.2929  0.2689  0.4099
 7729SOL    HW134820   3.993   1.097   2.744  0.7124  0.4992  0.6926
 7729SOL    HW234821   4.040   1.241   2.728 -0.6338  1.3407  0.9498
 7730SOL     OW34822   3.923   3.755   8.888 -0.6264 -0.0542 -0.6926
 7730SOL    HW134823   4.005   3.740   8.842  1.7384  4.9733  1.9082
 7730SOL    HW234824   3.956   3.738   8.976  1.9361 -2.1899 -2.0700
 7731SOL     OW34825   1.693   0.689   7.878  0.2222 -0.0498  0.2780
 7731SOL    HW134826   1.673   0.688   7.972 -0.4270 -0.7058  0.1327
 7731SOL    HW234827   1.609   0.693   7.833  1.4967 -1.1471 -2.1853
 7732SOL     OW34828   0.111   0.054   8.311 -0.4392 -0.2631  0.0033
 7732SOL    HW134829   0.094   0.071   8.403 -0.8651 -0.5707 -0.0217
 7732SOL    HW234830   0.202   0.024   8.307 -0.6954 -0.9915 -0.2294
 7733SOL     OW34831   4.527   4.512   6.371 -0.5584  0.2475 -0.2562
 7733SOL    HW134832   4.525   4.552   6.458  2.9991  2.2739 -1.0920
 7733SOL    HW234833   4.581   4.569   6.317 -0.4380  0.5074  0.1341
 7734SOL     OW34834   1.171   0.457  14.479  0.2310 -0.6353 -0.6934
 7734SOL    HW134835   1.098   0.463  14.417  0.3618  0.5580 -0.7254
 7734SOL    HW234836   1.163   0.366  14.506  1.8633 -1.1570 -1.9841
 7735SOL     OW34837   0.271   0.702   7.938 -0.3970  0.2067 -0.4975
 7735SOL    HW134838   0.298   0.631   7.879 -0.8960  2.2235 -3.1904
 7735SOL    HW234839   0.176   0.696   7.928 -0.6114  1.4961  0.7566
 7736SOL     OW34840   1.861   2.323   8.148 -0.0028 -0.0976  0.8304
 7736SOL    HW134841   1.927   2.281   8.093  2.2688  1.6805  2.1804
 7736SOL    HW234842   1.890   2.303   8.237  2.2196  2.2109  0.6117
 7737SOL     OW34843   1.621   0.002   5.054 -0.1916  0.2877 -0.1637
 7737SOL    HW134844   1.637   0.094   5.032 -0.5448  0.1123 -1.1931
 7737SOL    HW234845   1.614   0.003   5.149 -1.6843 -2.2981 -0.2360
 7738SOL     OW34846   2.155   3.294   4.148  0.2544 -0.2105 -0.9896
 7738SOL    HW134847   2.116   3.210   4.125 -1.6555  0.3102  0.3071
 7738SOL    HW234848   2.142   3.336   4.063  2.5212 -0.5320 -1.5002
 7739SOL     OW34849   0.617   3.296  17.247  0.0389  0.2880  0.8052
 7739SOL    HW134850   0.581   3.382  17.227 -2.4489 -1.2602 -1.4283
 7739SOL    HW234851   0.603   3.293  17.342 -1.1113  3.3913  0.7282
 7740SOL     OW34852   0.840   0.447  15.208  0.2915  0.0598  0.1361
 7740SOL    HW134853   0.811   0.488  15.289  1.0353 -0.6976  0.7849
 7740SOL    HW234854   0.935   0.451  15.215  0.2672  0.6942  0.1228
 7741SOL     OW34855   1.198   4.531   5.453 -0.1263  0.8860  0.2711
 7741SOL    HW134856   1.221   4.545   5.545 -1.5146  1.3853  0.5547
 7741SOL    HW234857   1.106   4.501   5.453 -0.1975  1.0611  2.6969
 7742SOL     OW34858   4.146   2.674   8.439  0.1165  0.0405 -0.3783
 7742SOL    HW134859   4.118   2.759   8.472 -2.4534 -1.2985  0.8789
 7742SOL    HW234860   4.222   2.702   8.389  1.0254  0.8333  1.4522
 7743SOL     OW34861   1.736   0.265   2.320  0.0114 -0.1455  0.3776
 7743SOL    HW134862   1.770   0.306   2.240 -0.2294  1.9080  1.3433
 7743SOL    HW234863   1.655   0.226   2.287  0.2219 -0.4755  0.2458
 7744SOL     OW34864   0.424   0.054   7.786  0.2775  0.5168  0.6264
 7744SOL    HW134865   0.341   0.065   7.739 -0.5719 -0.3291  1.9228
 7744SOL    HW234866   0.470   4.722   7.746  1.4597  1.8762 -0.5129
 7745SOL     OW34867   2.369   4.088   8.077 -0.1197  0.5267  0.0025
 7745SOL    HW134868   2.350   4.034   8.000  1.4509 -1.0291  0.6947
 7745SOL    HW234869   2.449   4.137   8.059  0.2993  0.1617  0.8788
 7746SOL     OW34870   1.113   0.789   9.697 -0.0039  0.0345  0.1980
 7746SOL    HW134871   1.054   0.714   9.689  0.0609 -0.1468  1.3826
 7746SOL    HW234872   1.179   0.749   9.754 -1.6580 -1.2798  1.2012
 7747SOL     OW34873   0.381   3.140   4.472 -0.1926 -0.0973  0.1210
 7747SOL    HW134874   0.437   3.082   4.421 -0.4041 -0.7554  0.6360
 7747SOL    HW234875   0.328   3.073   4.514 -2.0567 -0.1592 -2.3064
 7748SOL     OW34876   1.748   2.617   8.982 -0.0014  0.3558 -0.3778
 7748SOL    HW134877   1.679   2.562   8.943 -1.9191  1.4737  1.4227
 7748SOL    HW234878   1.700   2.699   8.996 -0.9765 -0.4473  0.9764
 7749SOL     OW34879   3.555   1.846   8.084  0.0350 -0.3217  0.4820
 7749SOL    HW134880   3.478   1.901   8.067 -0.3517 -1.1969 -0.5907
 7749SOL    HW234881   3.606   1.906   8.139 -0.6496  1.7286 -1.1385
 7750SOL     OW34882   2.800   1.796   9.552  0.0041  0.1284 -0.4215
 7750SOL    HW134883   2.792   1.738   9.627  0.8280  0.3190 -0.1818
 7750SOL    HW234884   2.724   1.853   9.558 -1.7777 -2.5646  2.3501
 7751SOL     OW34885   2.526   3.949   3.246 -0.1152  0.1058 -0.4964
 7751SOL    HW134886   2.456   3.890   3.220  1.4247 -1.0872 -1.9671
 7751SOL    HW234887   2.590   3.950   3.174  1.1822 -0.9074  0.6302
 7752SOL     OW34888   3.985   0.215   3.264  0.0276 -0.2403  0.8771
 7752SOL    HW134889   4.000   0.301   3.225  1.7585 -1.6042 -1.4867
 7752SOL    HW234890   3.891   0.215   3.249  0.1689 -0.9337 -0.0245
 7753SOL     OW34891   1.128   0.557   8.579 -0.5965  0.2269 -0.2647
 7753SOL    HW134892   1.216   0.566   8.542 -1.0448  1.3331 -1.0650
 7753SOL    HW234893   1.084   0.619   8.521  0.0695  1.3570  0.4453
 7754SOL     OW34894   4.675   0.270   6.564 -0.6184  0.2321  0.2142
 7754SOL    HW134895   4.670   0.335   6.634 -1.8738  1.7264 -1.2534
 7754SOL    HW234896   4.601   0.211   6.577 -0.0158 -0.9038 -1.5736
 7755SOL     OW34897   3.179   0.866   8.718  0.1514 -0.0333  0.1344
 7755SOL    HW134898   3.145   0.787   8.761  0.2374  0.3760  0.9638
 7755SOL    HW234899   3.220   0.905   8.796  0.5284 -0.0141 -0.0709
 7756SOL     OW34900   1.266   3.921  16.336 -0.1466  0.0307 -0.4475
 7756SOL    HW134901   1.306   3.997  16.294 -0.4993  1.1193  1.1938
 7756SOL    HW234902   1.245   3.866  16.260  1.1801 -1.8202  0.5289
 7757SOL     OW34903   1.262   1.502   3.871  0.3322 -0.4638  0.4481
 7757SOL    HW134904   1.203   1.520   3.944  0.6244  0.9707  0.3460
 7757SOL    HW234905   1.200   1.511   3.798  0.6479 -0.1182  0.2182
 7758SOL     OW34906   0.984   2.308   2.482  0.0432 -0.1830 -0.1776
 7758SOL    HW134907   1.044   2.372   2.444  0.6430 -0.1670  0.8068
 7758SOL    HW234908   0.895   2.337   2.459  0.5275  1.1976 -0.3424
 7759SOL     OW34909   1.171   4.507  10.012  0.6404  0.3819 -0.1149
 7759SOL    HW134910   1.137   4.562  10.083 -0.5182  0.4335 -0.7060
 7759SOL    HW234911   1.095   4.507   9.954 -1.4814 -0.6759  2.6358
 7760SOL     OW34912   2.120   4.678   3.748 -0.5445  0.4148 -0.3266
 7760SOL    HW134913   2.187   4.716   3.693  0.6033 -0.4907  0.4426
 7760SOL    HW234914   2.185   4.651   3.812  1.2586 -0.3200 -2.4650
 7761SOL     OW34915   0.672   4.070   4.500 -0.0892  0.0739  0.0073
 7761SOL    HW134916   0.646   3.980   4.515 -1.1353  0.8200  2.7695
 7761SOL    HW234917   0.621   4.107   4.572 -0.2354  0.9006 -0.5081
 7762SOL     OW34918   1.016   2.061  15.587  0.0723  0.1489 -0.0339
 7762SOL    HW134919   1.073   2.022  15.520  0.0443  0.5221 -0.2767
 7762SOL    HW234920   1.079   2.125  15.622 -0.6475 -0.2000  1.9031
 7763SOL     OW34921   4.573   0.211   8.848  0.2537  0.2429  0.3682
 7763SOL    HW134922   4.545   0.298   8.877  0.2306 -0.3370  2.0595
 7763SOL    HW234923   4.667   0.207   8.865  0.3114  1.1610  0.2507
 7764SOL     OW34924   0.662   2.032  11.540 -0.3952 -0.5239  0.4408
 7764SOL    HW134925   0.658   2.046  11.445 -2.3021 -1.7744  0.3346
 7764SOL    HW234926   0.725   2.100  11.560 -0.0296 -0.6627 -0.2445
 7765SOL     OW34927   1.778   1.805   2.081  0.2112  0.6331  0.6576
 7765SOL    HW134928   1.759   1.862   2.007 -1.7694  0.2002  0.8318
 7765SOL    HW234929   1.695   1.797   2.128  0.4648 -1.9951  0.6972
 7766SOL     OW34930   4.383   3.243   3.216  0.7997 -0.0967 -0.1723
 7766SOL    HW134931   4.402   3.317   3.159  1.6067 -0.6627 -0.6425
 7766SOL    HW234932   4.334   3.180   3.164  0.4879  0.3075 -0.3674
 7767SOL     OW34933   2.353   1.804   5.702  0.0153  0.0821 -0.7841
 7767SOL    HW134934   2.281   1.840   5.753  0.9072 -1.1545  1.3208
 7767SOL    HW234935   2.359   1.878   5.640 -2.1756 -0.9874 -2.2595
 7768SOL     OW34936   3.024   3.909  17.275 -0.0403 -0.4731  0.1770
 7768SOL    HW134937   3.072   3.870  17.203 -1.1233 -0.6776 -0.4285
 7768SOL    HW234938   3.072   3.992  17.280 -0.8007 -0.0837  1.0495
 7769SOL     OW34939   2.380   1.328   3.577  0.2870 -0.0644 -0.5216
 7769SOL    HW134940   2.399   1.409   3.624  1.3168 -0.0865 -0.9123
 7769SOL    HW234941   2.285   1.336   3.575  0.0866 -2.2784 -0.1300
 7770SOL     OW34942   2.468   0.644  14.467 -1.0984  0.5446  0.4845
 7770SOL    HW134943   2.449   0.631  14.374 -0.5483  0.8753  0.3233
 7770SOL    HW234944   2.560   0.616  14.474 -1.3884 -0.5290 -0.0214
 7771SOL     OW34945   4.026   3.005   1.344 -0.0615 -0.6133  0.1910
 7771SOL    HW134946   4.025   3.101   1.345  0.4134 -0.6248  1.5719
 7771SOL    HW234947   3.968   2.987   1.271  1.6530  1.4963 -1.7143
 7772SOL     OW34948   0.534   4.114  12.573  0.3396 -0.5040  0.0568
 7772SOL    HW134949   0.588   4.173  12.626 -1.2683  1.3415 -0.3442
 7772SOL    HW234950   0.601   4.063  12.528 -1.0948 -1.2211 -1.2629
 7773SOL     OW34951   1.646   0.470   7.223 -0.2317  0.3704  0.3378
 7773SOL    HW134952   1.686   0.538   7.277  0.1051 -0.2850  0.9211
 7773SOL    HW234953   1.571   0.444   7.277 -0.1809  0.9251  0.6725
 7774SOL     OW34954   1.335   4.527  12.367  0.0116 -0.2603  0.0499
 7774SOL    HW134955   1.380   4.453  12.407 -0.0293 -0.8098 -0.9221
 7774SOL    HW234956   1.249   4.490  12.346 -0.3949  1.3037 -1.0834
 7775SOL     OW34957   2.293   4.435  15.667 -1.0417 -0.0906  0.6768
 7775SOL    HW134958   2.212   4.388  15.686 -1.3529 -0.6605 -1.9854
 7775SOL    HW234959   2.322   4.470  15.751  3.1014  1.9559 -1.5859
 7776SOL     OW34960   0.664   1.658   7.651  0.3094  0.3722  0.5110
 7776SOL    HW134961   0.641   1.713   7.726 -0.5263  0.9148 -0.1526
 7776SOL    HW234962   0.749   1.695   7.627  1.1644 -1.9542 -0.0198
 7777SOL     OW34963   3.113   3.247   0.983  0.4762  0.1547 -0.4786
 7777SOL    HW134964   3.174   3.177   0.957  0.2007 -0.0851 -0.4822
 7777SOL    HW234965   3.070   3.217   1.063  1.2548 -0.7495 -0.3956
 7778SOL     OW34966   3.854   0.568   7.671 -0.1655  0.3399  0.0726
 7778SOL    HW134967   3.843   0.519   7.589  0.8745  1.1444 -0.5439
 7778SOL    HW234968   3.921   0.518   7.717 -1.6381 -2.4751 -0.8186
 7779SOL     OW34969   2.707   4.433   8.624 -0.0785 -0.3196 -0.4649
 7779SOL    HW134970   2.798   4.407   8.637 -0.6569 -1.9135  0.4393
 7779SOL    HW234971   2.719   4.528   8.628  2.0424 -0.6119 -0.2194
 7780SOL     OW34972   1.396   3.727   5.279 -0.1582  0.5275  0.1414
 7780SOL    HW134973   1.430   3.793   5.217 -1.6951  1.1914  0.0043
 7780SOL    HW234974   1.358   3.782   5.347  0.3594  0.1333  0.7419
 7781SOL     OW34975   1.166   3.666   6.300  0.0597  0.3636  0.5026
 7781SOL    HW134976   1.111   3.743   6.283  0.1624  0.2541 -0.3064
 7781SOL    HW234977   1.099   3.598   6.294 -3.8164  4.2830 -1.0760
 7782SOL     OW34978   1.407   0.245   6.516  0.2111  0.2935  0.9220
 7782SOL    HW134979   1.473   0.211   6.577 -0.7928 -0.3508  1.6347
 7782SOL    HW234980   1.421   0.339   6.530 -0.1271  0.6197 -0.9568
 7783SOL     OW34981   0.741   2.030   2.312 -0.3433 -0.3894  0.0207
 7783SOL    HW134982   0.673   1.994   2.256 -1.7001 -0.5759  1.7622
 7783SOL    HW234983   0.727   1.998   2.402 -0.5007 -2.7681 -0.8643
 7784SOL     OW34984   1.884   2.881   4.109  0.1310  0.0337 -0.1050
 7784SOL    HW134985   1.891   2.977   4.105  2.6240 -0.1245  0.2902
 7784SOL    HW234986   1.791   2.882   4.090  0.1087  0.3533  0.0247
 7785SOL     OW34987   0.592   2.717   2.874  0.7220 -0.4075 -0.0455
 7785SOL    HW134988   0.508   2.728   2.830  2.0544 -1.7028 -2.9262
 7785SOL    HW234989   0.647   2.769   2.815  0.3579  0.0753  0.0412
 7786SOL     OW34990   1.388   1.721   8.375  0.3802  0.0207 -0.0395
 7786SOL    HW134991   1.437   1.799   8.401  0.3500 -0.2217  0.7785
 7786SOL    HW234992   1.460   1.665   8.406 -1.8467 -2.1415  1.1969
 7787SOL     OW34993   0.641   3.081   9.507  0.1803 -0.0979  0.1396
 7787SOL    HW134994   0.643   3.154   9.445  0.6437 -0.3320 -0.1223
 7787SOL    HW234995   0.654   3.008   9.446  1.4318 -1.0240  1.5049
 7788SOL     OW34996   3.059   1.659   3.099  0.0540  0.3570 -0.1014
 7788SOL    HW134997   3.070   1.575   3.144 -2.2902 -0.0948 -0.3528
 7788SOL    HW234998   2.975   1.636   3.059 -0.3017  5.3677 -2.2888
 7789SOL     OW34999   3.421   0.809  15.775  0.0266 -0.2167  0.1448
 7789SOL    HW135000   3.445   0.843  15.688  1.4264 -2.0633 -0.2036
 7789SOL    HW235001   3.508   0.795  15.812  0.6451 -0.0858 -1.2189
 7790SOL     OW35002   3.087   2.382   9.217 -0.0945  0.1560  0.3912
 7790SOL    HW135003   3.096   2.342   9.303  0.6921 -2.2280 -0.7800
 7790SOL    HW235004   3.069   2.475   9.231 -0.4451  0.3138 -1.1034
 7791SOL     OW35005   3.911   4.340   4.566  0.4344 -0.8169 -0.3284
 7791SOL    HW135006   3.983   4.402   4.572  1.0029 -1.6984  1.6530
 7791SOL    HW235007   3.966   4.270   4.601  1.6855  0.2329 -0.1992
 7792SOL     OW35008   0.161   4.276   5.950 -0.3247  0.0551 -0.2693
 7792SOL    HW135009   0.151   4.370   5.966  2.0254  0.8002 -3.2961
 7792SOL    HW235010   0.171   4.274   5.855 -2.1877 -0.3005 -0.4559
 7793SOL     OW35011   0.459   0.208  13.917  0.0507 -0.2706 -0.1811
 7793SOL    HW135012   0.448   0.264  13.993 -2.8457 -1.5427  0.3141
 7793SOL    HW235013   0.424   0.125  13.949 -2.2585  0.1919 -1.5282
 7794SOL     OW35014   1.365   4.119   7.023 -0.0523 -0.2835  0.0775
 7794SOL    HW135015   1.299   4.054   7.048 -2.1048  1.9114  0.3661
 7794SOL    HW235016   1.368   4.182   7.094 -1.0376 -0.2678  0.1015
 7795SOL     OW35017   0.390   3.447   7.278  0.0799  0.2968  0.0001
 7795SOL    HW135018   0.454   3.519   7.269 -1.1693  1.4888  0.6642
 7795SOL    HW235019   0.326   3.465   7.209  1.0532  0.6252 -0.8267
 7796SOL     OW35020   4.577   2.413   9.015 -0.8327  0.2096  0.1173
 7796SOL    HW135021   4.490   2.438   8.984 -0.4997  0.6237 -0.4822
 7796SOL    HW235022   4.590   2.500   9.055  0.2191 -0.0092  0.2383
 7797SOL     OW35023   3.640   4.071   5.053  0.2244 -0.0090 -0.1950
 7797SOL    HW135024   3.723   4.024   5.064 -1.6122 -2.8328  1.7489
 7797SOL    HW235025   3.573   4.002   5.058 -1.7256  1.8916 -0.2994
 7798SOL     OW35026   2.543   4.059   6.010  0.3672 -0.4530  0.5401
 7798SOL    HW135027   2.601   3.983   6.018  0.8203 -0.1259  0.3466
 7798SOL    HW235028   2.466   4.036   6.064 -0.0152 -1.2499 -0.3391
 7799SOL     OW35029   2.919   0.370  12.581 -0.5257 -0.4390 -0.1955
 7799SOL    HW135030   2.943   0.463  12.581  0.5938 -0.7346 -3.1993
 7799SOL    HW235031   2.852   0.374  12.513  0.2358  0.4755 -0.9060
 7800SOL     OW35032   1.920   2.292   3.735  0.0135  0.1087  0.2600
 7800SOL    HW135033   1.957   2.306   3.648 -0.1099 -1.7733 -0.0882
 7800SOL    HW235034   1.957   2.205   3.749  0.9801  0.0710 -2.5356
 7801SOL     OW35035   1.248   2.157   5.866  0.7424  0.0572  0.4161
 7801SOL    HW135036   1.284   2.228   5.920  3.1091 -0.6883 -0.2126
 7801SOL    HW235037   1.272   2.201   5.784 -3.0818  1.0923 -0.1785
 7802SOL     OW35038   4.548   0.294   2.816  0.6472 -0.6726  0.5695
 7802SOL    HW135039   4.477   0.247   2.772  0.7016 -0.4767  0.2763
 7802SOL    HW235040   4.541   0.251   2.901  1.1663 -0.8373  0.5253
 7803SOL     OW35041   1.013   4.277  17.090 -0.1379 -0.3113  0.4350
 7803SOL    HW135042   0.919   4.274  17.105 -0.4415 -0.8310 -1.5956
 7803SOL    HW235043   1.058   4.256  17.173  0.2728 -1.1574 -0.0059
 7804SOL     OW35044   0.592   4.503   4.008 -0.4962 -0.4656  0.5724
 7804SOL    HW135045   0.579   4.558   3.931 -4.4445 -0.5408  1.2250
 7804SOL    HW235046   0.686   4.485   3.997 -0.7684 -1.1381 -0.6763
 7805SOL     OW35047   1.711   1.073   1.585  0.0035  0.0447  0.0541
 7805SOL    HW135048   1.799   1.053   1.616 -1.1811 -1.9330  2.0846
 7805SOL    HW235049   1.724   1.165   1.559 -0.1077  0.6516  2.1732
 7806SOL     OW35050   0.979   1.752  10.784 -0.1303  0.0063 -0.2909
 7806SOL    HW135051   0.914   1.726  10.719 -0.4043 -1.5386  0.5895
 7806SOL    HW235052   1.024   1.668  10.798  0.9425  0.3812 -1.4271
 7807SOL     OW35053   1.079   3.727   5.555  0.2353 -0.4223  0.3924
 7807SOL    HW135054   1.012   3.665   5.581 -0.8926  0.1940 -1.0515
 7807SOL    HW235055   1.083   3.704   5.462  1.9821 -1.7884  0.8097
 7808SOL     OW35056   3.762   2.204   8.496 -0.2197 -0.4270 -0.7061
 7808SOL    HW135057   3.676   2.245   8.510 -1.2705 -2.9987  0.3144
 7808SOL    HW235058   3.814   2.266   8.548 -1.3102 -1.7716  1.9642
 7809SOL     OW35059   2.830   2.753   2.850  0.4550 -0.8851  0.4966
 7809SOL    HW135060   2.921   2.729   2.834  0.0934 -2.5652  1.0028
 7809SOL    HW235061   2.827   2.722   2.940 -0.4558  2.5781  1.6600
 7810SOL     OW35062   4.606   4.099   8.080 -0.4337 -0.3981 -0.5675
 7810SOL    HW135063   4.540   4.159   8.115  0.5571  0.5083 -0.2755
 7810SOL    HW235064   4.547   4.038   8.035  0.4105 -1.4784 -0.2188
 7811SOL     OW35065   4.309   2.816   3.656 -0.2911 -0.7488 -0.9338
 7811SOL    HW135066   4.257   2.895   3.645  2.7901  1.7406  2.3417
 7811SOL    HW235067   4.372   2.847   3.721 -1.5287  0.4126 -0.3099
 7812SOL     OW35068   4.117   0.494   9.201  0.7147 -0.2826 -0.1576
 7812SOL    HW135069   4.095   0.401   9.216 -1.4914  0.5229  1.6524
 7812SOL    HW235070   4.209   0.493   9.228  0.0730 -0.3719  2.0447
 7813SOL     OW35071   4.390   3.912   8.056 -0.5582  0.1004 -0.1914
 7813SOL    HW135072   4.344   3.833   8.028  0.1320 -1.0826  1.9924
 7813SOL    HW235073   4.340   3.937   8.134 -0.3683 -0.4208  0.0965
 7814SOL     OW35074   3.956   4.666  14.241  0.1567 -0.5221 -0.8323
 7814SOL    HW135075   3.994   4.682  14.327  2.2486  0.1053 -1.8728
 7814SOL    HW235076   4.036   4.653  14.190  1.3939  0.2055  0.8961
 7815SOL     OW35077   4.047   1.720   1.699  0.7601  0.6796  0.6311
 7815SOL    HW135078   4.022   1.637   1.658  1.6209  2.2915 -3.2304
 7815SOL    HW235079   4.021   1.774   1.624 -2.4288 -1.3879  0.2803
 7816SOL     OW35080   1.883   3.358   3.702 -0.4716 -0.2075  0.2210
 7816SOL    HW135081   1.818   3.294   3.673 -0.8817  0.5053 -0.4091
 7816SOL    HW235082   1.914   3.390   3.618  2.5223 -1.0327  1.0277
 7817SOL     OW35083   0.858   0.945   5.383 -0.3235 -0.1489  0.1377
 7817SOL    HW135084   0.838   0.858   5.416 -0.9837  0.1956  0.6680
 7817SOL    HW235085   0.924   0.927   5.316  2.6232  1.0997  2.6929
 7818SOL     OW35086   0.099   3.077   7.133 -0.1187 -0.0658 -0.5367
 7818SOL    HW135087   0.151   3.156   7.117  1.0782 -0.8221 -0.4055
 7818SOL    HW235088   0.071   3.100   7.221 -1.4006 -3.9083  0.0559
 7819SOL     OW35089   2.702   2.108   4.954  0.3365 -0.2274 -0.0688
 7819SOL    HW135090   2.789   2.090   4.919  1.0055  0.6177  1.1448
 7819SOL    HW235091   2.653   2.127   4.874 -0.7067  1.3727  0.9537
 7820SOL     OW35092   2.667   3.871   2.122  0.5390  0.4977  0.1576
 7820SOL    HW135093   2.759   3.845   2.117  0.0304 -0.7584 -2.6221
 7820SOL    HW235094   2.656   3.893   2.030 -2.2961  0.2310  0.4549
 7821SOL     OW35095   1.579   3.796   8.678 -0.4536 -0.1833  0.1188
 7821SOL    HW135096   1.564   3.841   8.595  2.0684 -1.0595 -0.7967
 7821SOL    HW235097   1.627   3.866   8.724  0.8942 -1.5408  0.7625
 7822SOL     OW35098   0.492   2.109   1.781 -0.3457 -0.4740  0.3845
 7822SOL    HW135099   0.440   2.068   1.850 -0.2276 -0.1948  0.6401
 7822SOL    HW235100   0.544   2.032   1.756 -1.8433 -1.6768  0.9748
 7823SOL     OW35101   3.289   0.798  12.496  0.7492 -0.0367 -0.2889
 7823SOL    HW135102   3.385   0.803  12.501  0.6802 -0.1407  1.1736
 7823SOL    HW235103   3.268   0.725  12.554 -0.5083 -1.6872 -2.8729
 7824SOL     OW35104   0.609   3.054  16.488  0.1210 -0.1335 -0.4324
 7824SOL    HW135105   0.538   3.085  16.544  0.1798  0.2217 -0.5566
 7824SOL    HW235106   0.600   2.959  16.485 -2.6094  0.1070  0.3907
 7825SOL     OW35107   2.479   0.547   3.142  0.1580 -0.7404  0.0781
 7825SOL    HW135108   2.484   0.633   3.182  1.6869 -0.6162 -0.3573
 7825SOL    HW235109   2.457   0.567   3.051  2.1638  1.5667  0.0952
 7826SOL     OW35110   3.209   0.651   5.297  0.2432 -0.6266  0.1456
 7826SOL    HW135111   3.281   0.642   5.234 -0.1150  0.7578 -0.4516
 7826SOL    HW235112   3.186   0.558   5.300  0.0747 -0.5753  0.4370
 7827SOL     OW35113   4.533   4.612   9.326 -0.1716 -0.1230  0.0393
 7827SOL    HW135114   4.623   4.591   9.301 -0.4887 -1.1266 -0.2279
 7827SOL    HW235115   4.548   4.673   9.399  0.0869 -3.1213  2.5188
 7828SOL     OW35116   3.416   2.148   9.179  0.6328  0.0239 -0.1150
 7828SOL    HW135117   3.407   2.241   9.198 -1.2998 -0.3230  0.7053
 7828SOL    HW235118   3.323   2.127   9.183  0.9159 -0.4681  3.6223
 7829SOL     OW35119   3.862   0.508   8.036 -0.7335 -0.9852 -0.2171
 7829SOL    HW135120   3.818   0.523   8.120 -0.3819 -0.0936 -0.1933
 7829SOL    HW235121   3.916   0.587   8.032  1.8209 -2.8248 -2.0681
 7830SOL     OW35122   0.297   0.696   3.039  0.1192 -0.0624  0.2168
 7830SOL    HW135123   0.278   0.677   2.948 -0.9962  0.2256  0.3964
 7830SOL    HW235124   0.228   0.761   3.049  0.1206 -0.0790  0.3377
 7831SOL     OW35125   0.407   0.842  13.259  0.2743 -0.2070 -0.3841
 7831SOL    HW135126   0.498   0.822  13.236  0.3002 -2.4678  1.7292
 7831SOL    HW235127   0.372   0.754  13.265  0.1491  0.0076  2.0115
 7832SOL     OW35128   2.979   2.852   6.152  0.0506 -0.6489  0.5506
 7832SOL    HW135129   2.911   2.841   6.219  1.5764 -2.4093  1.7995
 7832SOL    HW235130   3.016   2.937   6.176  1.0590 -1.3240  1.3638
 7833SOL     OW35131   3.683   0.093   3.309  0.1239  0.9337  0.2236
 7833SOL    HW135132   3.705   0.150   3.383  1.3847  0.5001  0.1936
 7833SOL    HW235133   3.676   0.005   3.346  2.7928  0.8481  0.5519
 7834SOL     OW35134   1.910   0.839   4.263 -0.0917 -0.0283 -0.3556
 7834SOL    HW135135   1.849   0.783   4.215 -0.4348  0.2113 -0.1969
 7834SOL    HW235136   1.851   0.870   4.332  0.6869 -1.3907  0.9281
 7835SOL     OW35137   4.649   3.612   1.892 -0.0381  0.6175 -0.5055
 7835SOL    HW135138   4.732   3.601   1.938  0.4545  2.1363 -1.0238
 7835SOL    HW235139   4.592   3.651   1.958 -0.0855 -1.0740  0.4724
 7836SOL     OW35140   1.022   3.696  11.939 -0.3103  0.1603  0.2974
 7836SOL    HW135141   1.060   3.749  11.870  0.3201  0.3756  0.8082
 7836SOL    HW235142   0.962   3.638  11.892 -0.7059 -1.1406  2.3640
 7837SOL     OW35143   2.656   0.607  10.697 -0.3939 -0.5414  0.4296
 7837SOL    HW135144   2.671   0.702  10.700  0.6821 -0.7237  0.9133
 7837SOL    HW235145   2.704   0.567  10.769 -0.9836 -0.2035  1.0108
 7838SOL     OW35146   1.885   4.446   1.718  0.2777  0.1127 -0.2380
 7838SOL    HW135147   1.907   4.509   1.787  0.3204 -3.0911  2.7182
 7838SOL    HW235148   1.818   4.388   1.756 -0.5021  0.9184 -0.3889
 7839SOL     OW35149   0.802   0.839   8.606  0.1284  0.2904  0.4421
 7839SOL    HW135150   0.711   0.815   8.620 -0.6019  1.6120 -2.0626
 7839SOL    HW235151   0.810   0.933   8.627  0.7242  0.3014  0.1879
 7840SOL     OW35152   2.093   2.103  12.617  0.1497 -0.1052  0.4029
 7840SOL    HW135153   2.149   2.179  12.632 -0.7655  0.4110  1.2005
 7840SOL    HW235154   2.006   2.143  12.617  0.3481  0.3291  1.7613
 7841SOL     OW35155   1.316   2.936   3.749 -0.2851  0.3651 -0.0419
 7841SOL    HW135156   1.352   2.878   3.682 -1.4847 -0.2041 -0.1726
 7841SOL    HW235157   1.393   2.982   3.784 -0.1295 -1.4966  2.0489
 7842SOL     OW35158   1.949   3.841  11.185 -0.3697  0.3909 -0.2564
 7842SOL    HW135159   1.927   3.748  11.190 -0.3831  0.3645 -0.9083
 7842SOL    HW235160   1.871   3.881  11.147  0.6405  3.2220  0.6047
 7843SOL     OW35161   0.510   0.921   4.054 -0.4988  0.9014  0.1550
 7843SOL    HW135162   0.471   0.887   4.135 -1.0975  1.7395  0.2271
 7843SOL    HW235163   0.587   0.961   4.096 -1.1713  0.4562  1.8391
 7844SOL     OW35164   4.153   4.106   8.842 -0.0764  0.0051 -0.0239
 7844SOL    HW135165   4.192   4.186   8.877 -2.0837  0.9828 -0.0213
 7844SOL    HW235166   4.059   4.123   8.841  0.3081  2.0009 -0.6917
 7845SOL     OW35167   0.435   3.873   7.414 -0.5059  0.1431 -0.3657
 7845SOL    HW135168   0.530   3.874   7.420 -0.5601  0.2821  0.6140
 7845SOL    HW235169   0.406   3.794   7.460  1.4089 -0.4241 -0.1505
 7846SOL     OW35170   1.376   0.588   2.194  0.2907  0.2699  0.4242
 7846SOL    HW135171   1.414   0.659   2.141  0.8046  0.6409  1.2812
 7846SOL    HW235172   1.406   0.518   2.137  0.3447  0.6741 -0.0420
 7847SOL     OW35173   4.211   0.606   5.262  0.2610  0.0420  0.2773
 7847SOL    HW135174   4.165   0.688   5.281  0.3110  0.7273 -2.5960
 7847SOL    HW235175   4.292   0.621   5.312 -0.6488  0.0712  1.7439
 7848SOL     OW35176   1.932   0.148   3.466  0.1014  0.1099  0.2948
 7848SOL    HW135177   1.956   0.141   3.373  2.0959 -0.0731  0.8259
 7848SOL    HW235178   1.905   0.058   3.485 -2.5152  1.2423  1.8846
 7849SOL     OW35179   4.096   4.089   4.980 -1.2377 -0.1412  0.3761
 7849SOL    HW135180   4.011   4.050   5.003 -2.1890  2.0699  0.6120
 7849SOL    HW235181   4.087   4.164   5.038 -2.1019 -0.5761  0.8111
 7850SOL     OW35182   0.781   4.382   2.687  0.2945  0.3223 -0.6693
 7850SOL    HW135183   0.733   4.304   2.659 -1.3647  0.2075  2.5124
 7850SOL    HW235184   0.836   4.405   2.612  2.1546 -0.0463  0.5967
 7851SOL     OW35185   3.612   1.274   5.145 -0.2765 -0.3230  0.0645
 7851SOL    HW135186   3.673   1.295   5.074 -1.6989  0.2617 -0.9789
 7851SOL    HW235187   3.546   1.225   5.095  1.5743  0.3178 -3.0074
 7852SOL     OW35188   1.352   0.506  11.971  0.6933  0.1695 -0.0860
 7852SOL    HW135189   1.298   0.515  12.050  0.8525 -1.1362  0.1632
 7852SOL    HW235190   1.410   0.582  11.978  1.6328 -0.4527 -1.1449
 7853SOL     OW35191   2.143   0.640   5.744  0.0507 -0.6309  0.0842
 7853SOL    HW135192   2.230   0.672   5.721  0.2561 -1.6312 -0.5219
 7853SOL    HW235193   2.161   0.596   5.828 -1.2978  0.0306  0.7209
 7854SOL     OW35194   4.219   3.689  10.925  0.5712 -0.3325 -0.3559
 7854SOL    HW135195   4.180   3.773  10.899 -0.6483 -0.7313  0.1882
 7854SOL    HW235196   4.236   3.708  11.017  0.4428 -2.3828  0.0783
 7855SOL     OW35197   4.648   3.070   1.365  0.2243 -0.5631 -0.2586
 7855SOL    HW135198   4.734   3.074   1.323 -0.3245 -0.9166 -1.4273
 7855SOL    HW235199   4.666   3.067   1.459  2.3834  0.9088 -0.6250
 7856SOL     OW35200   3.096   4.301  12.755  0.1965  0.0098  0.0508
 7856SOL    HW135201   3.134   4.386  12.734 -1.6477  1.7328  3.7182
 7856SOL    HW235202   3.005   4.315  12.730  0.7553 -1.2321 -2.7744
 7857SOL     OW35203   0.017   1.033  16.192  0.9165 -0.0959  0.5441
 7857SOL    HW135204   4.724   0.950  16.226  1.3528  0.4483  2.3241
 7857SOL    HW235205   4.695   1.095  16.228  0.9893  0.3340 -0.0855
 7858SOL     OW35206   1.281   2.460   5.067 -0.3003 -0.2799 -0.2823
 7858SOL    HW135207   1.330   2.395   5.116  0.6877  0.9423  0.3684
 7858SOL    HW235208   1.342   2.535   5.059  0.3719 -0.8949 -0.9253
 7859SOL     OW35209   4.675   2.506   4.481  0.1401  0.1322  0.4528
 7859SOL    HW135210   4.705   2.543   4.564 -1.8816  0.2116  1.1497
 7859SOL    HW235211   0.003   2.444   4.460  1.0349  0.1937  3.2409
 7860SOL     OW35212   0.975   1.928   2.973 -0.1666 -0.2643 -0.3650
 7860SOL    HW135213   1.013   1.888   3.051 -0.7001  0.5741  0.3211
 7860SOL    HW235214   1.026   1.907   2.895  0.1325 -2.2270  0.3800
 7861SOL     OW35215   2.227   4.462   4.757 -0.5515  0.1620 -0.3179
 7861SOL    HW135216   2.263   4.428   4.839 -0.0071 -0.5499 -0.8473
 7861SOL    HW235217   2.211   4.550   4.789 -2.2965 -0.3934  0.3693
 7862SOL     OW35218   4.565   1.101  10.878  0.1732  0.0886 -0.0564
 7862SOL    HW135219   4.489   1.104  10.935  1.2668  2.2303  1.2996
 7862SOL    HW235220   4.599   1.012  10.881 -0.2956 -0.1488 -1.6710
 7863SOL     OW35221   0.248   3.450   4.825 -0.1131 -0.3680  0.0112
 7863SOL    HW135222   0.237   3.449   4.730 -1.1373  0.4316  0.1225
 7863SOL    HW235223   0.343   3.443   4.819 -0.0067  0.8366  0.3421
 7864SOL     OW35224   3.859   1.756   7.718  0.4211  0.2052  0.4826
 7864SOL    HW135225   3.774   1.737   7.756  0.6336  0.2218  0.9615
 7864SOL    HW235226   3.890   1.667   7.703 -0.3191  0.1062 -0.4610
 7865SOL     OW35227   4.404   3.942   6.511  0.1166 -0.2173  0.0715
 7865SOL    HW135228   4.470   3.889   6.468 -1.3408 -0.6069 -1.6610
 7865SOL    HW235229   4.407   3.900   6.597 -3.2635 -0.6031 -0.0038
 7866SOL     OW35230   0.602   0.679   4.535 -0.0267 -0.5978 -0.1014
 7866SOL    HW135231   0.565   0.749   4.590 -0.2393  0.1908 -1.2493
 7866SOL    HW235232   0.654   0.728   4.471 -1.2887  0.8327 -0.0498
 7867SOL     OW35233   3.731   3.362   6.047 -0.3162  0.7673 -0.0282
 7867SOL    HW135234   3.731   3.298   6.118 -1.6343  1.3435  0.5021
 7867SOL    HW235235   3.818   3.350   6.011 -0.3717 -1.9941  0.7990
 7868SOL     OW35236   0.345   3.282   5.651  0.0590  0.4518  0.1581
 7868SOL    HW135237   0.429   3.324   5.633  1.8938 -3.1547  0.2051
 7868SOL    HW235238   0.311   3.343   5.716 -0.2103  3.1687 -2.5920
 7869SOL     OW35239   4.616   1.794  16.775  0.8254 -0.2030 -0.4987
 7869SOL    HW135240   4.602   1.810  16.682 -0.7245 -0.2418 -0.2670
 7869SOL    HW235241   4.614   1.699  16.791 -1.2256 -0.2081 -0.8307
 7870SOL     OW35242   2.449   1.685  11.758  0.3060  0.0949  0.8992
 7870SOL    HW135243   2.437   1.721  11.847  2.3281  1.5800  0.5885
 7870SOL    HW235244   2.366   1.642  11.740  0.1668  0.9672 -0.4985
 7871SOL     OW35245   2.846   0.515  13.336  0.0202  0.2338  0.3061
 7871SOL    HW135246   2.821   0.563  13.414 -1.3045  1.4147 -0.8416
 7871SOL    HW235247   2.760   0.487  13.303 -0.3703  0.2332  1.3200
 7872SOL     OW35248   1.401   0.299  13.327  0.3339 -0.0262 -0.0176
 7872SOL    HW135249   1.383   0.377  13.380 -4.3232 -1.9265  1.2172
 7872SOL    HW235250   1.417   0.237  13.397  1.5360  0.3434  0.0331
 7873SOL     OW35251   4.164   2.229  17.662 -0.8278 -0.4082 -0.0139
 7873SOL    HW135252   4.131   2.164  17.601  0.9531 -1.4125  0.1039
 7873SOL    HW235253   4.150   2.310  17.613 -0.4741 -1.4022 -1.7482
 7874SOL     OW35254   3.477   4.603   9.416 -0.3633 -0.0910  0.6101
 7874SOL    HW135255   3.405   4.582   9.356 -0.1792  0.0309  0.3444
 7874SOL    HW235256   3.528   4.657   9.356  0.3134  1.4062  2.5657
 7875SOL     OW35257   0.306   2.496   1.788  0.0235  0.0429 -0.5435
 7875SOL    HW135258   0.305   2.533   1.700  0.8823  1.2466 -0.0464
 7875SOL    HW235259   0.262   2.565   1.836 -1.4597 -3.3372  2.9492
 7876SOL     OW35260   3.979   3.880   8.095  0.3277  0.3424  0.1750
 7876SOL    HW135261   4.051   3.828   8.059  0.1519 -1.7513  2.9542
 7876SOL    HW235262   4.034   3.957   8.110  1.1291  0.6717 -4.2366
 7877SOL     OW35263   4.085   1.216   5.222 -0.0550  0.1877  0.0798
 7877SOL    HW135264   4.033   1.188   5.147 -0.4686 -0.7333  0.7071
 7877SOL    HW235265   4.024   1.210   5.296  0.6610 -1.1054  0.5689
 7878SOL     OW35266   2.999   1.530   4.368  0.2938 -0.0239  0.2661
 7878SOL    HW135267   3.066   1.565   4.426 -0.4180  0.7392  0.6337
 7878SOL    HW235268   3.027   1.440   4.351 -1.6524 -0.6321  0.2421
 7879SOL     OW35269   1.132   2.943   5.002  0.6325 -0.2315  0.2257
 7879SOL    HW135270   1.143   2.885   4.927  3.0659  0.1468  0.3027
 7879SOL    HW235271   1.065   2.890   5.045 -0.5296  2.7593  2.1215
 7880SOL     OW35272   2.536   0.178   7.724  0.2892 -0.2058  0.3070
 7880SOL    HW135273   2.530   0.083   7.725 -1.1798 -0.1260  0.4446
 7880SOL    HW235274   2.630   0.193   7.721 -0.0804  2.2742  0.6841
 7881SOL     OW35275   4.211   4.632   5.045 -0.0842  0.6609  0.2942
 7881SOL    HW135276   4.293   4.612   5.000 -0.4244  0.1504 -0.1076
 7881SOL    HW235277   4.205   4.723   5.016  1.3069  0.7051  0.1531
 7882SOL     OW35278   3.038   2.875  10.108 -0.0618  0.1746  0.6836
 7882SOL    HW135279   3.125   2.835  10.113  1.7032  4.2581  2.2167
 7882SOL    HW235280   3.005   2.845  10.193 -1.2094 -2.4506 -0.6781
 7883SOL     OW35281   3.883   3.799   2.429  0.5575  0.3446 -0.1839
 7883SOL    HW135282   3.978   3.801   2.435  0.4846 -1.6696  1.4220
 7883SOL    HW235283   3.868   3.732   2.362 -1.9673 -1.6278  2.4145
 7884SOL     OW35284   3.516   3.640   7.620 -0.5671  0.2612 -0.3472
 7884SOL    HW135285   3.559   3.595   7.693  0.3120  2.9114  0.7526
 7884SOL    HW235286   3.503   3.725   7.662 -0.3791 -0.7374  1.7132
 7885SOL     OW35287   1.814   1.471   3.420  0.0589 -0.4224 -0.1356
 7885SOL    HW135288   1.765   1.389   3.415 -0.0347 -0.2463 -2.2153
 7885SOL    HW235289   1.772   1.524   3.351 -2.9180 -2.8414 -0.1691
 7886SOL     OW35290   2.295   4.689   5.804 -0.0971  0.7996 -0.2928
 7886SOL    HW135291   2.282   4.605   5.849 -0.1112  0.6895 -0.5064
 7886SOL    HW235292   2.373   4.666   5.754 -0.5061 -1.9684  0.3494
 7887SOL     OW35293   2.859   0.373   9.346 -0.5742 -0.0015  0.5829
 7887SOL    HW135294   2.777   0.322   9.348 -0.5666  0.0545  2.2772
 7887SOL    HW235295   2.898   0.346   9.429  0.9642  0.2275 -0.0667
 7888SOL     OW35296   0.148   0.769  15.965  0.1302 -0.4370 -0.0349
 7888SOL    HW135297   0.089   0.792  16.037 -2.6709 -0.4728 -2.3303
 7888SOL    HW235298   0.092   0.786  15.889  0.1401  3.4284  0.8208
 7889SOL     OW35299   1.793   3.520  14.000  0.0219 -0.4567  0.8588
 7889SOL    HW135300   1.719   3.581  14.003  1.2647  0.9626  3.0756
 7889SOL    HW235301   1.863   3.583  13.984  2.1025 -2.6882  1.1282
 7890SOL     OW35302   4.486   4.044   1.927  0.0272 -0.4626 -0.1028
 7890SOL    HW135303   4.469   3.981   1.997 -0.7464 -1.4016 -1.1109
 7890SOL    HW235304   4.468   3.993   1.847  0.8417  1.6686 -1.6345
 7891SOL     OW35305   1.408   4.013   4.409  0.3672 -0.3245  0.3284
 7891SOL    HW135306   1.360   4.078   4.357 -1.0265  0.1132  2.1390
 7891SOL    HW235307   1.491   4.053   4.436  0.7360 -1.5343  0.9989
 7892SOL     OW35308   4.670   0.293   3.438 -0.0003 -0.5177 -0.3477
 7892SOL    HW135309   4.732   0.225   3.409  1.4247  1.6975 -2.5161
 7892SOL    HW235310   4.645   0.248   3.518 -0.4533 -1.3631 -0.9664
 7893SOL     OW35311   1.496   1.115   5.810  0.5215  0.5055 -0.5225
 7893SOL    HW135312   1.539   1.170   5.876 -0.2203 -0.9983  1.2264
 7893SOL    HW235313   1.543   1.134   5.729  0.2352 -0.4063 -0.9105
 7894SOL     OW35314   2.084   4.716   8.086  0.2830 -0.0199 -0.4562
 7894SOL    HW135315   2.112   4.658   8.157  0.7796 -1.5822 -1.9236
 7894SOL    HW235316   2.168   0.009   8.056  1.1071 -0.8578  0.8881
 7895SOL     OW35317   3.834   0.800   3.821  0.3845  0.1313  0.3756
 7895SOL    HW135318   3.749   0.797   3.775  1.1326  0.0005 -0.9955
 7895SOL    HW235319   3.895   0.814   3.748  1.7830  0.7595  1.6824
 7896SOL     OW35320   1.326   2.105  11.063 -0.3131  0.4795  0.6983
 7896SOL    HW135321   1.320   2.022  11.015 -0.6252  1.9487 -1.8104
 7896SOL    HW235322   1.245   2.145  11.032 -1.5486 -3.1647 -0.7457
 7897SOL     OW35323   1.359   2.702   7.527 -1.0871  0.0826 -0.1142
 7897SOL    HW135324   1.439   2.739   7.566 -1.9756 -0.1606  1.9398
 7897SOL    HW235325   1.324   2.659   7.605  0.7896  0.4855  0.9514
 7898SOL     OW35326   1.632   4.561   4.118  0.2803  0.0899  0.0033
 7898SOL    HW135327   1.556   4.582   4.172  0.1746 -1.4520  0.4525
 7898SOL    HW235328   1.700   4.539   4.181  1.5373  1.2060 -0.9846
 7899SOL     OW35329   2.989   1.794  10.443 -0.3524  0.5019 -0.2389
 7899SOL    HW135330   2.994   1.748  10.527 -1.1484 -0.6314 -0.8262
 7899SOL    HW235331   3.053   1.746  10.391  1.8600  2.1290  0.9605
 7900SOL     OW35332   3.181   1.532   2.239  0.1386 -0.2232  0.1368
 7900SOL    HW135333   3.090   1.530   2.212  0.3708 -0.5529 -0.6108
 7900SOL    HW235334   3.215   1.594   2.175 -1.5907 -1.2440 -1.7293
 7901SOL     OW35335   0.646   2.246   5.000 -0.7818  0.2643  0.0135
 7901SOL    HW135336   0.583   2.176   5.016  1.5498 -2.1401 -1.4709
 7901SOL    HW235337   0.679   2.223   4.913  0.8545  0.2440  0.6470
 7902SOL     OW35338   4.460   2.467  17.450 -0.0337 -0.5914 -0.5227
 7902SOL    HW135339   4.542   2.510  17.424 -1.4552  1.3402 -1.8099
 7902SOL    HW235340   4.399   2.522  17.400  0.6456 -1.2174 -2.0668
 7903SOL     OW35341   4.483   4.182   5.459 -0.0434 -0.1408 -0.0684
 7903SOL    HW135342   4.479   4.257   5.398  0.7771 -0.6616 -0.7593
 7903SOL    HW235343   4.393   4.152   5.444  0.0930 -1.3866  1.6578
 7904SOL     OW35344   2.045   0.419  11.122 -0.0722 -0.8576  0.0366
 7904SOL    HW135345   2.105   0.431  11.196  1.1048 -0.8955 -0.9163
 7904SOL    HW235346   1.990   0.347  11.154 -1.9785  0.1404 -1.0417
 7905SOL     OW35347   2.013   3.137   2.367 -0.1599  0.6780 -0.3268
 7905SOL    HW135348   2.103   3.103   2.368 -0.7946 -1.0167  0.4033
 7905SOL    HW235349   2.009   3.167   2.457  1.5972  0.1787 -0.0801
 7906SOL     OW35350   3.111   0.613   6.199  0.0875 -0.2650  0.1060
 7906SOL    HW135351   3.048   0.549   6.230 -1.1610  0.4064 -1.0626
 7906SOL    HW235352   3.079   0.619   6.109  1.0857  1.1202 -0.1552
 7907SOL     OW35353   2.532   0.750   3.950 -0.3241  0.1522 -0.0231
 7907SOL    HW135354   2.613   0.751   3.898 -0.5832 -0.8691 -0.4539
 7907SOL    HW235355   2.516   0.656   3.942  0.9577 -0.1622  1.0000
 7908SOL     OW35356   1.765   0.091   4.670 -0.5916  0.0840  0.0090
 7908SOL    HW135357   1.825   0.056   4.736  2.9525  1.5709 -2.4259
 7908SOL    HW235358   1.742   0.172   4.715  0.9502 -0.0938  1.0910
 7909SOL     OW35359   3.305   4.443   6.474  0.1266  0.4609 -0.2670
 7909SOL    HW135360   3.223   4.488   6.495 -0.1777 -0.2981  0.1565
 7909SOL    HW235361   3.361   4.476   6.544  1.2504  2.5840 -2.1760
 7910SOL     OW35362   2.762   2.454  17.124  0.2346  0.1315 -0.4908
 7910SOL    HW135363   2.776   2.465  17.030 -0.0921 -1.4585 -0.7343
 7910SOL    HW235364   2.686   2.395  17.120  0.6770 -0.5491  1.1840
 7911SOL     OW35365   1.228   1.360   9.580 -0.1945 -0.0655  0.1618
 7911SOL    HW135366   1.171   1.322   9.647  0.7123  1.0851  1.5768
 7911SOL    HW235367   1.187   1.445   9.563  0.7600  0.1999 -0.8177
 7912SOL     OW35368   3.506   1.712   3.050 -0.4270  0.5412 -0.3492
 7912SOL    HW135369   3.424   1.688   3.006  0.3100 -1.4137 -0.6501
 7912SOL    HW235370   3.561   1.637   3.029  2.3094  2.2363  0.6803
 7913SOL     OW35371   3.168   1.390   2.582  0.3197  0.5846 -0.4891
 7913SOL    HW135372   3.141   1.310   2.537 -0.8968 -1.0567  3.1010
 7913SOL    HW235373   3.114   1.378   2.661  1.4965 -0.2388  0.2062
 7914SOL     OW35374   1.481   1.149   7.597 -0.0692 -0.4843 -0.1976
 7914SOL    HW135375   1.508   1.235   7.563  0.2684 -0.7813 -0.6870
 7914SOL    HW235376   1.419   1.108   7.535  0.2496 -1.3111  0.0287
 7915SOL     OW35377   1.927   2.665  14.249 -0.3005  0.4851 -0.1859
 7915SOL    HW135378   1.890   2.751  14.228 -0.2284  0.6565  0.3841
 7915SOL    HW235379   2.018   2.690  14.266 -0.5221  1.5286 -0.4961
 7916SOL     OW35380   2.824   0.200   1.267  0.2545 -0.3794  0.0076
 7916SOL    HW135381   2.884   0.158   1.206  0.2261  0.1993 -0.4194
 7916SOL    HW235382   2.864   0.281   1.300 -0.0858  0.2887 -1.2344
 7917SOL     OW35383   0.741   2.928   2.187 -0.1881  0.0478 -0.1719
 7917SOL    HW135384   0.728   2.884   2.271 -2.3529  0.1672 -0.4449
 7917SOL    HW235385   0.652   2.963   2.181  1.4379  4.1367 -0.1478
 7918SOL     OW35386   3.018   0.471  12.228 -0.0931  0.1776  0.3984
 7918SOL    HW135387   3.112   0.480  12.243  0.3273 -0.8561 -1.6174
 7918SOL    HW235388   3.023   0.391  12.176 -0.5499  0.1074  0.4592
 7919SOL     OW35389   1.448   0.199   1.674  1.0357 -0.0336  0.1036
 7919SOL    HW135390   1.410   0.171   1.757  0.3392  0.5420 -0.0215
 7919SOL    HW235391   1.517   0.134   1.665  1.1832 -0.0958  1.6273
 7920SOL     OW35392   4.494   0.571  14.000  0.2633 -0.6071  0.5128
 7920SOL    HW135393   4.410   0.573  14.044  0.4867  3.1465  0.7050
 7920SOL    HW235394   4.490   0.651  13.948 -2.7856 -0.9720  0.1817
 7921SOL     OW35395   4.061   4.436   1.995 -0.3225 -0.2990 -0.3407
 7921SOL    HW135396   3.969   4.439   2.021  0.2230 -1.1955  1.6741
 7921SOL    HW235397   4.092   4.421   2.085 -1.0696 -1.1163 -0.2255
 7922SOL     OW35398   4.701   3.997   7.719  0.2171  0.9827  0.0315
 7922SOL    HW135399   0.005   4.053   7.656 -0.2719  2.1752  0.7263
 7922SOL    HW235400   0.016   4.007   7.795 -0.7840  3.2494  0.4899
 7923SOL     OW35401   0.895   0.327   4.041  0.5230  0.4426 -0.0350
 7923SOL    HW135402   0.927   0.326   4.131 -0.2031  0.0498  0.2120
 7923SOL    HW235403   0.975   0.371   4.012  2.3701 -3.2842 -0.5658
 7924SOL     OW35404   0.655   2.828  16.206 -0.0641  0.1516  0.4536
 7924SOL    HW135405   0.631   2.740  16.177  3.3705 -0.7227  0.2621
 7924SOL    HW235406   0.722   2.814  16.273 -0.4245  0.1208  0.8082
 7925SOL     OW35407   1.492   3.478   5.578 -0.4166 -0.0554 -0.1113
 7925SOL    HW135408   1.504   3.571   5.596 -2.4983  0.3617 -0.9276
 7925SOL    HW235409   1.584   3.452   5.583  0.1425  1.8940 -0.1066
 7926SOL     OW35410   0.158   1.622   7.215  0.4319  0.4081  0.2903
 7926SOL    HW135411   0.070   1.589   7.199  0.7015 -0.3650  0.3915
 7926SOL    HW235412   0.153   1.648   7.307 -2.2769  0.1178  0.2134
 7927SOL     OW35413   2.906   0.861   4.324  0.0545  0.4997  0.9098
 7927SOL    HW135414   2.828   0.806   4.329  1.6974 -1.6056  3.3309
 7927SOL    HW235415   2.880   0.933   4.267 -0.1844  0.1678  0.6037
 7928SOL     OW35416   0.491   4.642  16.815  0.0579  0.0162 -0.0155
 7928SOL    HW135417   0.495   4.728  16.856  1.1193  0.3690 -0.8495
 7928SOL    HW235418   0.412   4.609  16.858  0.2575 -0.9223 -0.3666
 7929SOL     OW35419   0.869   3.873  13.086 -0.0614 -0.0179  0.4683
 7929SOL    HW135420   0.954   3.838  13.062  0.6653  0.3193  2.5521
 7929SOL    HW235421   0.895   3.961  13.114  0.3524 -0.2269  0.7335
 7930SOL     OW35422   3.810   0.700  10.982 -0.0601  0.4263  0.4693
 7930SOL    HW135423   3.715   0.705  10.976  0.0188  2.5192  1.0495
 7930SOL    HW235424   3.818   0.687  11.076 -0.9554  1.8553  0.7437
 7931SOL     OW35425   0.877   1.371   1.744  0.1696  0.3057  0.0856
 7931SOL    HW135426   0.883   1.446   1.803 -0.6236  1.3439 -1.1407
 7931SOL    HW235427   0.786   1.346   1.756  0.0355  0.2240 -1.0369
 7932SOL     OW35428   3.831   1.506   3.988  0.8186 -0.0699  0.1285
 7932SOL    HW135429   3.758   1.544   4.037  1.8243 -1.2305  2.5475
 7932SOL    HW235430   3.837   1.549   3.903  0.9424  2.1031  1.2209
 7933SOL     OW35431   0.713   1.367   3.674  0.3904 -0.5381 -0.6020
 7933SOL    HW135432   0.786   1.424   3.700 -1.2079  0.5946  1.4573
 7933SOL    HW235433   0.752   1.280   3.677 -0.9939 -1.0986  1.6487
 7934SOL     OW35434   1.348   2.893   1.189  0.0715  0.2102  0.3104
 7934SOL    HW135435   1.307   2.854   1.266 -0.0599  2.3038  1.3072
 7934SOL    HW235436   1.278   2.884   1.125  1.1254  0.6312 -0.9020
 7935SOL     OW35437   1.375   4.404   8.707  0.0802  0.5699 -0.1031
 7935SOL    HW135438   1.346   4.495   8.700 -1.4070  0.2296  1.4591
 7935SOL    HW235439   1.337   4.382   8.792  1.5988 -2.8252 -0.3072
 7936SOL     OW35440   3.939   4.707   4.294  0.0158 -0.4440  0.3425
 7936SOL    HW135441   3.935   4.694   4.199 -2.7248  0.4007  0.3428
 7936SOL    HW235442   3.876   4.643   4.325 -2.6102  1.0991 -1.7803
 7937SOL     OW35443   0.145   1.980   6.602 -0.0917 -0.4772  0.1352
 7937SOL    HW135444   0.207   1.953   6.534  0.3269  0.7737  0.0127
 7937SOL    HW235445   0.111   1.894   6.624 -2.6503  0.5742  0.2980
 7938SOL     OW35446   4.102   2.119   0.144  0.3405  0.6867  0.1620
 7938SOL    HW135447   4.103   2.207   0.182  1.3615  0.8880 -0.3026
 7938SOL    HW235448   4.112   2.139   0.050  1.1049 -2.8287 -0.4886
 7939SOL     OW35449   3.056   4.694   6.843 -0.2315 -0.4565  0.1535
 7939SOL    HW135450   3.099   4.657   6.920  0.8341  0.5380  0.0415
 7939SOL    HW235451   3.082   4.641   6.768  0.3974 -1.2820  0.9528
 7940SOL     OW35452   1.920   1.746   9.618  0.2520 -0.6004 -0.4556
 7940SOL    HW135453   1.873   1.825   9.646 -0.2145 -0.2716 -2.1664
 7940SOL    HW235454   1.953   1.695   9.692  0.4096  1.4221  0.8549
 7941SOL     OW35455   3.083   3.506   9.163  0.1505 -0.4120  0.0126
 7941SOL    HW135456   3.176   3.489   9.148  0.2641  0.3527 -0.1497
 7941SOL    HW235457   3.053   3.542   9.080 -0.0205  0.5093  0.4762
 7942SOL     OW35458   1.672   4.177   8.003 -0.4227  0.5507  0.4272
 7942SOL    HW135459   1.749   4.226   7.976  0.1049 -0.6138 -0.1776
 7942SOL    HW235460   1.608   4.232   7.958  0.2089  0.5426 -0.4813
 7943SOL     OW35461   2.798   4.434   6.649  0.4959  0.1900  0.1056
 7943SOL    HW135462   2.762   4.468   6.732  1.0046  1.0900 -0.0367
 7943SOL    HW235463   2.828   4.346   6.669  0.7584  0.5371  1.2473
 7944SOL     OW35464   3.768   3.370  14.349  0.1106  0.6898 -0.1921
 7944SOL    HW135465   3.839   3.319  14.311 -1.6575 -2.6641  0.9706
 7944SOL    HW235466   3.785   3.461  14.323  0.1049  0.5035 -0.8299
 7945SOL     OW35467   2.050   3.689   9.952 -0.2658  0.1451  0.4298
 7945SOL    HW135468   2.100   3.741  10.016  2.4085 -0.4616 -1.1888
 7945SOL    HW235469   1.961   3.693   9.987  0.3307  0.2777  1.9601
 7946SOL     OW35470   2.769   4.120   3.501 -0.5410 -0.4330 -0.3975
 7946SOL    HW135471   2.790   4.177   3.427  1.3428 -1.0008 -0.2923
 7946SOL    HW235472   2.755   4.168   3.582  0.7992 -0.2033 -0.3120
 7947SOL     OW35473   2.364   1.689   6.264 -0.4545  0.0994  0.3784
 7947SOL    HW135474   2.293   1.720   6.208  2.3630  2.3745 -1.9364
 7947SOL    HW235475   2.318   1.644   6.335 -1.5120 -1.1735 -1.1301
 7948SOL     OW35476   2.149   2.031   3.498 -0.2964 -0.6357 -0.1431
 7948SOL    HW135477   2.124   1.938   3.493  0.9936 -1.0121  0.1758
 7948SOL    HW235478   2.244   2.020   3.512 -0.4309 -0.7056  0.7314
 7949SOL     OW35479   2.414   1.792  13.365 -0.9065  0.5238 -0.0261
 7949SOL    HW135480   2.406   1.747  13.281 -0.8562  0.8940 -0.2282
 7949SOL    HW235481   2.499   1.834  13.355 -0.2769 -0.2507  2.0910
 7950SOL     OW35482   3.961   0.872  12.027  0.6172 -0.1281 -0.8020
 7950SOL    HW135483   3.952   0.946  11.967 -1.5205 -0.4492 -0.8912
 7950SOL    HW235484   4.011   0.811  11.974 -0.2227 -1.0338 -0.5727
 7951SOL     OW35485   1.624   3.295  11.446 -0.5695  0.3748  0.3463
 7951SOL    HW135486   1.577   3.300  11.363  1.3058  0.2274 -0.7396
 7951SOL    HW235487   1.613   3.385  11.474 -1.4513 -0.6902  3.4413
 7952SOL     OW35488   4.366   3.545  16.764 -0.0379 -0.1998 -0.4166
 7952SOL    HW135489   4.278   3.547  16.726 -0.1002 -1.9137 -0.3919
 7952SOL    HW235490   4.389   3.455  16.739 -0.7885 -1.0338  1.8723
 7953SOL     OW35491   2.955   1.717   6.329 -0.6152  0.3571  0.3308
 7953SOL    HW135492   2.916   1.636   6.297  2.8988 -0.7819 -1.1060
 7953SOL    HW235493   2.890   1.781   6.299  0.3723  1.9279  1.5475
 7954SOL     OW35494   3.639   1.591   6.671 -0.2598 -0.1602 -0.0668
 7954SOL    HW135495   3.562   1.585   6.729  0.0494 -0.1182  0.3443
 7954SOL    HW235496   3.593   1.587   6.587  0.2343 -3.1989 -0.1743
 7955SOL     OW35497   2.353   2.721   3.398  0.0518  0.4282  0.2828
 7955SOL    HW135498   2.320   2.800   3.440  0.4679  0.3494  0.7575
 7955SOL    HW235499   2.309   2.660   3.458 -1.3534 -1.6916 -2.9016
 7956SOL     OW35500   2.765   2.375   6.362 -0.4513 -0.0309  0.0796
 7956SOL    HW135501   2.725   2.405   6.444  1.7078  0.5292  0.9438
 7956SOL    HW235502   2.824   2.306   6.393 -1.8687 -0.9266  0.7920
 7957SOL     OW35503   4.324   0.232   4.121  0.2639  0.2433 -0.0769
 7957SOL    HW135504   4.263   0.231   4.195  2.1861 -1.8516  1.5242
 7957SOL    HW235505   4.384   0.305   4.140  0.7445 -0.0049 -0.6437
 7958SOL     OW35506   1.521   2.803   1.865  0.1024 -0.2164 -0.4145
 7958SOL    HW135507   1.610   2.839   1.868 -0.8378  2.1461 -0.4728
 7958SOL    HW235508   1.493   2.853   1.942  1.6783 -0.1532  0.1148
 7959SOL     OW35509   3.582   1.508   3.453 -0.3479  0.4523  0.1002
 7959SOL    HW135510   3.616   1.456   3.380 -1.2167  1.8483 -1.3134
 7959SOL    HW235511   3.502   1.545   3.417  0.7602  1.7114 -1.0684
 7960SOL     OW35512   2.830   4.453  15.288 -0.0128 -0.3723 -0.3576
 7960SOL    HW135513   2.762   4.517  15.309 -0.4239 -1.2933  1.1017
 7960SOL    HW235514   2.770   4.382  15.311 -0.4967 -0.2288 -1.1863
 7961SOL     OW35515   3.547   0.059  13.781  0.1628  0.3864  0.6833
 7961SOL    HW135516   3.516   0.078  13.870  0.0387  1.4810  0.3985
 7961SOL    HW235517   3.511   0.137  13.741 -1.2190 -0.6346 -0.0498
 7962SOL     OW35518   2.711   3.836   8.875 -0.3696  0.3063 -0.2606
 7962SOL    HW135519   2.795   3.872   8.903 -0.6456 -0.2221  1.2586
 7962SOL    HW235520   2.656   3.845   8.953  0.7383 -0.1531  0.5679
 7963SOL     OW35521   4.670   2.552   2.155  0.0380 -0.0715  0.6401
 7963SOL    HW135522   0.008   2.595   2.123 -0.5411  1.0071  0.6167
 7963SOL    HW235523   4.614   2.546   2.077 -1.5948  2.8857  1.5402
 7964SOL     OW35524   1.856   3.187  11.354 -0.6764 -0.8303  0.2361
 7964SOL    HW135525   1.914   3.255  11.389 -0.5507 -1.2820  0.8979
 7964SOL    HW235526   1.780   3.200  11.410 -1.0275  1.6168 -0.7996
 7965SOL     OW35527   4.208   2.618   5.136 -0.6810  0.5098 -0.0450
 7965SOL    HW135528   4.171   2.625   5.224 -0.1878 -0.8545  0.2635
 7965SOL    HW235529   4.143   2.662   5.082  0.3595  1.4019 -0.5779
 7966SOL     OW35530   0.070   0.112   3.317 -0.1442 -0.0391 -0.1546
 7966SOL    HW135531   0.162   0.138   3.312 -0.3232  0.7586  0.8110
 7966SOL    HW235532   0.057   0.050   3.245 -2.0320  0.2322 -0.0355
 7967SOL     OW35533   0.217   3.104  13.932  0.3971  0.3671  0.8512
 7967SOL    HW135534   0.225   3.009  13.929 -1.1953  0.2960 -1.2789
 7967SOL    HW235535   0.299   3.129  13.890  0.2065 -1.8921 -0.8355
 7968SOL     OW35536   1.917   3.122   9.424  0.2207 -0.3170  0.2527
 7968SOL    HW135537   1.947   3.084   9.506  2.0827  1.8690  0.5959
 7968SOL    HW235538   1.988   3.186   9.415  0.2281 -0.0651  2.1822
 7969SOL     OW35539   0.373   3.872   6.348  0.4113 -0.4049  0.7281
 7969SOL    HW135540   0.459   3.905   6.326 -0.1923  0.3913 -0.4443
 7969SOL    HW235541   0.323   3.884   6.267 -1.1091 -1.3128  1.5315
 7970SOL     OW35542   2.656   0.542   2.182  0.2126  0.3044 -0.1734
 7970SOL    HW135543   2.625   0.632   2.177 -0.7139 -0.0131 -0.2269
 7970SOL    HW235544   2.735   0.550   2.235 -0.3206 -0.1397  0.6882
 7971SOL     OW35545   4.710   0.088   9.340 -0.2639 -0.1330 -0.6700
 7971SOL    HW135546   0.011   0.002   9.336 -1.4487 -0.7392  0.0319
 7971SOL    HW235547   0.031   0.122   9.404  1.2221  0.4496 -2.4081
 7972SOL     OW35548   1.639   3.380  13.479  0.1188  0.0547 -0.0432
 7972SOL    HW135549   1.621   3.303  13.534  0.4946 -0.4753 -0.6574
 7972SOL    HW235550   1.665   3.438  13.550  1.4756 -1.2907  0.5508
 7973SOL     OW35551   4.291   0.322   8.561  0.5589 -0.0077 -0.1265
 7973SOL    HW135552   4.310   0.392   8.499 -2.9187 -0.9661 -2.3056
 7973SOL    HW235553   4.340   0.249   8.524  0.9409  0.4509 -0.5315
 7974SOL     OW35554   1.733   2.274   2.518  0.8025 -0.0605  0.3639
 7974SOL    HW135555   1.792   2.316   2.456 -1.2561  2.3808  0.0702
 7974SOL    HW235556   1.787   2.270   2.597 -0.5230  1.6077  1.3524
 7975SOL     OW35557   0.115   4.593   7.043 -0.2161  0.0196 -0.3264
 7975SOL    HW135558   0.124   4.513   7.095 -1.4831  0.9633  1.3587
 7975SOL    HW235559   0.164   4.565   6.966 -0.5456  1.1263 -0.9471
 7976SOL     OW35560   1.076   1.477   6.680  0.0900  0.6080 -0.0726
 7976SOL    HW135561   1.124   1.560   6.676  2.2429 -0.8116 -3.6305
 7976SOL    HW235562   1.140   1.413   6.648  0.2375  0.2361  0.9527
 7977SOL     OW35563   0.442   4.303   7.242  0.6478 -0.1278 -0.0362
 7977SOL    HW135564   0.506   4.334   7.178  2.8188 -2.4253  1.0229
 7977SOL    HW235565   0.414   4.390   7.270 -1.2355 -1.2530  1.5714
 7978SOL     OW35566   2.494   3.173  12.999 -0.8869  0.1060  0.4853
 7978SOL    HW135567   2.441   3.094  12.988 -1.0027  0.3213 -0.4708
 7978SOL    HW235568   2.534   3.166  12.913  0.9859 -1.1457  1.4479
 7979SOL     OW35569   2.251   1.059  15.319 -0.2827 -0.1817 -0.2098
 7979SOL    HW135570   2.187   0.987  15.316  0.7059 -1.0261 -1.1974
 7979SOL    HW235571   2.194   1.118  15.270 -0.6825 -0.2622  0.1611
 7980SOL     OW35572   0.712   3.022  10.664  0.6600  0.1823  0.1260
 7980SOL    HW135573   0.793   3.016  10.715  0.9950 -1.0308 -0.5437
 7980SOL    HW235574   0.642   2.993  10.722 -1.8718 -0.2264 -3.1343
 7981SOL     OW35575   1.988   3.504   2.450 -0.1071 -0.5058 -0.2731
 7981SOL    HW135576   1.986   3.511   2.354 -0.6078  0.9795 -0.1467
 7981SOL    HW235577   1.912   3.559   2.469 -2.0858 -2.6081 -1.9961
 7982SOL     OW35578   4.127   3.605   6.778  0.5572  0.3347  0.3983
 7982SOL    HW135579   4.113   3.520   6.735  2.2781 -1.0224  2.5514
 7982SOL    HW235580   4.118   3.577   6.869  0.2902 -1.3610 -0.1452
 7983SOL     OW35581   0.572   2.889   8.750 -0.2519 -0.3744 -0.0641
 7983SOL    HW135582   0.513   2.868   8.823  0.6323 -1.0621  0.4536
 7983SOL    HW235583   0.607   2.800   8.744 -1.2231 -0.7231 -0.5562
 7984SOL     OW35584   1.467   1.648  16.217  0.1353  0.4249  0.0317
 7984SOL    HW135585   1.533   1.583  16.193 -0.5514 -0.2488 -0.0491
 7984SOL    HW235586   1.452   1.684  16.130 -3.7168  0.0549  0.5300
 7985SOL     OW35587   2.278   4.447  13.963  0.2355  0.3179  0.9452
 7985SOL    HW135588   2.194   4.485  13.939 -0.8295 -1.3285  2.0420
 7985SOL    HW235589   2.325   4.523  13.997  0.9223  0.6086 -0.6405
 7986SOL     OW35590   2.843   1.653   7.288 -0.3986  0.1402 -0.4462
 7986SOL    HW135591   2.912   1.710   7.322 -0.5198  0.4149 -0.6541
 7986SOL    HW235592   2.881   1.576   7.246 -0.8756  0.4731 -1.5034
 7987SOL     OW35593   4.384   1.696  15.422 -0.4591 -0.1193 -0.3254
 7987SOL    HW135594   4.429   1.748  15.355  2.1819 -0.1617  1.4004
 7987SOL    HW235595   4.422   1.610  15.404 -1.9526 -1.1474  1.4313
 7988SOL     OW35596   0.201   1.172   3.539  0.1726  0.0971  0.9910
 7988SOL    HW135597   0.214   1.177   3.634  0.2217  4.0601  0.7707
 7988SOL    HW235598   0.110   1.143   3.536  0.0567  0.4123  1.3997
 7989SOL     OW35599   1.303   2.434   4.305  0.0660 -0.3769 -0.3306
 7989SOL    HW135600   1.387   2.438   4.260  0.0757  1.9856 -0.1214
 7989SOL    HW235601   1.320   2.355   4.356 -3.1005 -0.8523 -0.0034
 7990SOL     OW35602   2.595   0.281   2.906 -0.4165  0.0715 -0.3782
 7990SOL    HW135603   2.541   0.211   2.943 -0.6252  0.4398  0.0024
 7990SOL    HW235604   2.561   0.298   2.818  1.4615  3.0121 -0.5633
 7991SOL     OW35605   0.925   4.727   3.544  0.3697  0.1464 -0.1315
 7991SOL    HW135606   0.879   0.069   3.537  2.1354  1.2457  1.6905
 7991SOL    HW235607   0.876   4.684   3.614 -0.6388 -2.1233 -2.2124
 7992SOL     OW35608   2.361   2.357   6.546 -0.9618 -0.0384 -0.1984
 7992SOL    HW135609   2.436   2.314   6.504 -0.3204  0.6388  0.2499
 7992SOL    HW235610   2.300   2.350   6.474 -0.3211 -1.0605 -0.6370
 7993SOL     OW35611   1.317   1.208  16.857  0.3741  0.7389 -0.4159
 7993SOL    HW135612   1.397   1.238  16.813 -0.3491 -0.4261 -2.4821
 7993SOL    HW235613   1.289   1.139  16.797 -0.4957 -0.2190  1.0898
 7994SOL     OW35614   1.756   1.775  17.356  0.0596 -0.0299  0.8364
 7994SOL    HW135615   1.688   1.814  17.412 -0.7481 -0.1632 -0.0568
 7994SOL    HW235616   1.764   1.684  17.383 -1.5376  0.1456  1.9480
 7995SOL     OW35617   2.911   1.776  15.663 -0.8062 -0.3295 -0.1422
 7995SOL    HW135618   2.936   1.687  15.687  1.2069  0.1258 -0.6265
 7995SOL    HW235619   2.854   1.760  15.587  0.4173 -0.4604 -1.0343
 7996SOL     OW35620   0.645   3.857  16.424 -0.3966  0.0287 -0.4000
 7996SOL    HW135621   0.718   3.811  16.466 -0.9342  0.9293  1.5075
 7996SOL    HW235622   0.591   3.874  16.501  1.3186  3.3693  0.0594
 7997SOL     OW35623   1.399   0.805   0.698 -0.4279 -0.4716  0.3591
 7997SOL    HW135624   1.482   0.773   0.734  0.3930  2.4227  1.0131
 7997SOL    HW235625   1.442   0.848   0.623 -1.4162 -0.7711 -0.3826
 7998SOL     OW35626   4.162   3.545  12.035  0.6669  0.0732 -0.0032
 7998SOL    HW135627   4.240   3.490  12.041 -0.6583 -1.8523 -0.5807
 7998SOL    HW235628   4.179   3.599  12.113 -1.2886 -0.0039  0.4584
 7999SOL     OW35629   2.174   3.729   8.002  0.4050  0.2888 -0.3730
 7999SOL    HW135630   2.199   3.682   8.082 -0.7435  0.5162  0.1149
 7999SOL    HW235631   2.123   3.803   8.034  0.8751  0.0239  1.0146
 8000SOL     OW35632   3.512   2.128   4.728 -0.1751  0.0842 -0.1063
 8000SOL    HW135633   3.547   2.039   4.737  0.0827  0.1307 -0.6701
 8000SOL    HW235634   3.441   2.107   4.668 -0.0700 -0.9392  0.1205
 8001SOL     OW35635   3.600   0.785   7.209 -0.6533 -0.1182  0.2760
 8001SOL    HW135636   3.541   0.776   7.284 -1.6540 -0.3167 -0.5367
 8001SOL    HW235637   3.672   0.831   7.252 -0.0313 -0.9385  0.1151
 8002SOL     OW35638   0.756   2.284   1.808 -0.5438  0.9238  0.4796
 8002SOL    HW135639   0.677   2.230   1.798  0.5804 -0.5762 -0.3201
 8002SOL    HW235640   0.718   2.368   1.783 -0.4145  1.1521  1.0592
 8003SOL     OW35641   0.461   1.142  12.182 -0.0662  0.4023 -0.5565
 8003SOL    HW135642   0.427   1.070  12.131 -0.4380  0.3442 -0.2318
 8003SOL    HW235643   0.548   1.160  12.147 -0.0488  1.9432  0.2727
 8004SOL     OW35644   0.838   1.941   9.211 -0.5060  0.0730 -0.1466
 8004SOL    HW135645   0.911   1.972   9.265 -2.8135 -0.0541  3.1035
 8004SOL    HW235646   0.880   1.948   9.126  1.4894 -2.2968  0.6252
 8005SOL     OW35647   1.828   2.606  13.827 -0.0982  0.1631 -0.0389
 8005SOL    HW135648   1.919   2.604  13.856 -0.4847  1.6469  1.2044
 8005SOL    HW235649   1.823   2.698  13.802  1.5849  0.0061 -0.9865
 8006SOL     OW35650   2.635   4.056   8.707 -0.1913  0.1748  0.0889
 8006SOL    HW135651   2.555   4.064   8.654 -0.6462 -0.7135  0.6495
 8006SOL    HW235652   2.634   3.970   8.748  0.7681  0.7378  1.2766
 8007SOL     OW35653   0.945   1.538   9.134 -0.1504 -0.1751 -0.0255
 8007SOL    HW135654   1.008   1.608   9.113  1.8553 -2.0473 -0.2885
 8007SOL    HW235655   0.957   1.486   9.054  0.7071  0.2121 -0.1506
 8008SOL     OW35656   0.510   1.938   0.810 -0.6142  0.0261  0.2198
 8008SOL    HW135657   0.560   1.880   0.868  0.3338  2.4978  1.8866
 8008SOL    HW235658   0.556   2.021   0.825 -0.9891  0.4859 -1.2049
 8009SOL     OW35659   3.338   3.026   7.266 -0.0028  0.1171 -0.1534
 8009SOL    HW135660   3.266   3.088   7.255 -0.8467 -1.0563 -1.4063
 8009SOL    HW235661   3.381   3.023   7.180 -0.1751  1.1833 -0.2731
 8010SOL     OW35662   3.043   2.123   8.411 -0.4196  0.0861 -0.2338
 8010SOL    HW135663   2.988   2.049   8.436 -0.3173  0.9057  2.3823
 8010SOL    HW235664   3.021   2.191   8.475  2.5037  2.2068 -1.4501
 8011SOL     OW35665   3.360   1.676   4.167  0.1573 -0.0144 -0.4015
 8011SOL    HW135666   3.312   1.743   4.216  0.1489  0.7504 -1.4573
 8011SOL    HW235667   3.338   1.680   4.074 -1.1190 -0.5189 -0.1268
 8012SOL     OW35668   1.174   0.759   8.255  0.0555  0.0008 -0.0586
 8012SOL    HW135669   1.099   0.730   8.306  0.9202 -1.4218  0.4184
 8012SOL    HW235670   1.197   0.838   8.305  0.5451  0.3655 -0.8592
 8013SOL     OW35671   3.973   3.237   2.598 -0.7500 -0.0526  0.8679
 8013SOL    HW135672   4.021   3.310   2.637 -0.8836  0.4682  0.0649
 8013SOL    HW235673   3.883   3.270   2.596 -0.5008  0.7748  3.0332
 8014SOL     OW35674   4.325   4.276   2.848 -0.1929  0.5056  0.2715
 8014SOL    HW135675   4.285   4.207   2.900  0.4705 -0.0536  0.0364
 8014SOL    HW235676   4.250   4.296   2.791 -0.1263  0.9287  0.3314
 8015SOL     OW35677   1.767   1.011   7.541 -0.1875 -0.1502 -0.0767
 8015SOL    HW135678   1.730   1.023   7.628 -0.7076  0.4905 -0.3840
 8015SOL    HW235679   1.847   0.968   7.570 -0.1510  0.4844  0.7570
 8016SOL     OW35680   2.003   2.335   7.775  0.2689  0.9693 -0.0606
 8016SOL    HW135681   1.957   2.259   7.740 -0.3151  1.1016  0.4141
 8016SOL    HW235682   2.032   2.302   7.860 -0.8964 -1.4643 -0.6177
 8017SOL     OW35683   4.051   2.560  16.344  0.3111  0.1067  0.0238
 8017SOL    HW135684   4.044   2.587  16.253  0.8798 -2.1497 -0.6865
 8017SOL    HW235685   4.042   2.642  16.394  2.5441 -0.6514  1.6763
 8018SOL     OW35686   3.805   2.513   1.180 -0.2819  0.4185 -0.1508
 8018SOL    HW135687   3.789   2.559   1.263 -0.2869 -0.6286  0.4244
 8018SOL    HW235688   3.720   2.500   1.138  0.9121 -2.1745 -1.7564
 8019SOL     OW35689   2.523   1.945   2.087 -0.1387 -0.6783  0.4003
 8019SOL    HW135690   2.472   1.868   2.110  0.4415 -0.5480  2.0965
 8019SOL    HW235691   2.485   2.010   2.146  0.7274 -1.0927  1.4021
 8020SOL     OW35692   3.757   2.530   3.057  0.1228  0.0842  0.1429
 8020SOL    HW135693   3.762   2.611   3.108  0.5914  0.2168 -0.1210
 8020SOL    HW235694   3.714   2.560   2.977 -1.1652 -2.7393 -0.2320
 8021SOL     OW35695   1.263   0.236   4.447  0.2648 -0.0425 -0.3904
 8021SOL    HW135696   1.279   0.146   4.476 -1.0264 -0.0894  0.1510
 8021SOL    HW235697   1.230   0.272   4.529 -0.5172  0.0287 -0.7392
 8022SOL     OW35698   2.445   2.799   4.815  0.1965 -0.2117 -0.4982
 8022SOL    HW135699   2.413   2.761   4.733 -1.6447  0.8137 -0.2551
 8022SOL    HW235700   2.388   2.872   4.837  0.0396 -0.6766  0.6257
 8023SOL     OW35701   0.503   1.757  13.384 -0.5889  0.1862  0.2762
 8023SOL    HW135702   0.475   1.764  13.475  2.6254 -0.5788  1.3478
 8023SOL    HW235703   0.472   1.839  13.345 -2.2990  0.0067  1.2635
 8024SOL     OW35704   3.989   2.196   6.250  0.2801  0.0680 -0.3058
 8024SOL    HW135705   3.925   2.225   6.315  0.7895 -0.9740  0.6704
 8024SOL    HW235706   3.949   2.233   6.171 -1.5458  0.5583  0.8457
 8025SOL     OW35707   0.647   4.556   5.904  0.0782 -0.0620 -0.6038
 8025SOL    HW135708   0.671   4.545   5.996 -2.2487  0.6299  0.0968
 8025SOL    HW235709   0.709   4.624   5.878 -0.1858  0.5083  0.2842
 8026SOL     OW35710   1.849   1.312  16.383 -0.2598  0.5744 -0.0104
 8026SOL    HW135711   1.931   1.361  16.377 -1.1907  1.9118 -1.6898
 8026SOL    HW235712   1.803   1.350  16.308  0.5755  1.0965 -0.2493
 8027SOL     OW35713   4.043   1.261   8.216  0.0162  0.4718  0.5359
 8027SOL    HW135714   4.080   1.310   8.143  1.6862 -0.9016  0.4653
 8027SOL    HW235715   4.021   1.321   8.288  0.7823 -0.7364  1.7717
 8028SOL     OW35716   0.883   1.562   6.848  0.1586 -0.2861 -0.3486
 8028SOL    HW135717   0.957   1.519   6.804  1.6066  1.6799  0.2057
 8028SOL    HW235718   0.935   1.622   6.901  2.0225 -1.0612 -1.2773
 8029SOL     OW35719   2.016   2.308   4.918 -0.4212 -0.4959 -0.3389
 8029SOL    HW135720   1.924   2.308   4.946 -0.2786 -0.1763  0.1253
 8029SOL    HW235721   2.042   2.400   4.924 -1.8714 -0.2127  1.7904
 8030SOL     OW35722   4.351   0.540  12.024  0.4459 -0.1902 -0.3247
 8030SOL    HW135723   4.387   0.621  12.060 -2.2849  1.2009 -0.7067
 8030SOL    HW235724   4.341   0.494  12.107  2.4114  2.8165  1.5557
 8031SOL     OW35725   3.447   3.937  11.064  0.1237  0.0446 -0.3139
 8031SOL    HW135726   3.463   3.991  10.987  2.2091  1.6657  1.2535
 8031SOL    HW235727   3.355   3.958  11.082 -0.1958 -0.7356 -1.0081
 8032SOL     OW35728   2.218   2.746   2.208 -0.0841  0.0228  0.2256
 8032SOL    HW135729   2.216   2.757   2.113 -0.5277  0.5532  0.2913
 8032SOL    HW235730   2.228   2.837   2.237 -1.0713  0.0369  0.5215
 8033SOL     OW35731   3.128   0.129  10.651  0.3359 -0.8402  0.1203
 8033SOL    HW135732   3.187   0.145  10.725  1.1717 -0.3338 -0.6484
 8033SOL    HW235733   3.119   0.034  10.660 -0.7625 -0.5655  1.7660
 8034SOL     OW35734   4.625   2.868   7.445 -0.6071  0.5360 -0.3926
 8034SOL    HW135735   4.669   2.916   7.376  1.6861 -1.1687 -0.1446
 8034SOL    HW235736   4.659   2.913   7.523 -0.1504 -0.4208 -0.0324
 8035SOL     OW35737   0.074   4.452   4.691  0.0128 -0.5301 -0.6223
 8035SOL    HW135738   0.113   4.448   4.778 -1.1275 -1.3157 -0.1547
 8035SOL    HW235739   0.091   4.540   4.657 -1.1373  0.1615  0.6013
 8036SOL     OW35740   0.327   0.909   2.108  0.5964  0.3316 -0.2210
 8036SOL    HW135741   0.405   0.910   2.164  0.5957 -1.3252 -0.2091
 8036SOL    HW235742   0.256   0.937   2.165  2.6202  2.7310  1.1596
 8037SOL     OW35743   0.267   2.527   7.336  0.3779  0.1341 -0.3852
 8037SOL    HW135744   0.297   2.545   7.425 -2.8767  0.1201  0.6917
 8037SOL    HW235745   0.173   2.537   7.346  0.5596  0.1826  1.2870
 8038SOL     OW35746   1.315   4.531   4.717  0.7154  0.0199 -0.1178
 8038SOL    HW135747   1.258   4.558   4.789 -1.9547  1.4159 -2.7683
 8038SOL    HW235748   1.302   4.436   4.722  2.1331 -0.2121 -0.6448
 8039SOL     OW35749   2.045   0.101   3.216  0.0261 -0.1221 -0.0695
 8039SOL    HW135750   2.044   0.165   3.144 -2.0675  1.3321  1.2491
 8039SOL    HW235751   2.103   0.030   3.190  0.2405 -0.8881  2.5319
 8040SOL     OW35752   3.356   4.493  13.766  0.2810 -1.0336  0.5714
 8040SOL    HW135753   3.442   4.495  13.807  1.8945 -1.0737 -2.8199
 8040SOL    HW235754   3.326   4.583  13.759  2.0893 -0.5894 -1.5237
 8041SOL     OW35755   3.897   2.047  12.569 -0.2975 -0.1775 -0.1769
 8041SOL    HW135756   3.979   2.023  12.527 -0.2529  0.6606 -0.5678
 8041SOL    HW235757   3.876   1.961  12.604 -0.3781  0.1973  0.6833
 8042SOL     OW35758   0.213   3.289   7.715  0.7365  0.1099 -0.0054
 8042SOL    HW135759   0.183   3.295   7.806  2.2114  1.1313  0.4125
 8042SOL    HW235760   0.173   3.370   7.684  3.1313  1.2094 -0.1928
 8043SOL     OW35761   1.047   4.404   6.188 -0.0751 -0.3305 -0.5040
 8043SOL    HW135762   1.104   4.410   6.111  2.3290  1.7719  1.4590
 8043SOL    HW235763   1.095   4.454   6.254 -1.3894 -1.3458  1.2075
 8044SOL     OW35764   1.666   0.746   0.790 -0.3587 -0.1727  0.0409
 8044SOL    HW135765   1.744   0.728   0.738  0.0465  1.3883  0.1321
 8044SOL    HW235766   1.688   0.693   0.867 -2.1316 -0.9322  0.0257
 8045SOL     OW35767   1.035   3.045  11.436  0.6966 -0.6436 -0.1404
 8045SOL    HW135768   0.955   3.066  11.483  0.1874  0.0272 -1.3004
 8045SOL    HW235769   1.098   3.089  11.492  0.9100 -2.0999  0.7684
 8046SOL     OW35770   2.216   3.106   1.920 -0.1327 -0.1091 -0.0213
 8046SOL    HW135771   2.173   3.146   1.844  0.8731 -0.7003 -0.8939
 8046SOL    HW235772   2.146   3.112   1.985  1.4445  0.2864  1.6357
 8047SOL     OW35773   2.054   1.114  15.091 -0.3110  0.5060 -0.2551
 8047SOL    HW135774   2.028   1.046  15.029  1.2639  1.0823 -1.5571
 8047SOL    HW235775   1.988   1.104  15.159 -0.0859 -1.1950 -0.2964
 8048SOL     OW35776   2.961   2.566   8.375 -0.2073  0.5429  0.7313
 8048SOL    HW135777   2.939   2.590   8.285  0.8192 -0.5217  0.1874
 8048SOL    HW235778   2.892   2.507   8.404  1.7134 -2.2015 -0.2214
 8049SOL     OW35779   1.789   0.619   4.698 -0.2297  0.7099  0.0836
 8049SOL    HW135780   1.848   0.554   4.661 -2.6924 -2.1352  1.2293
 8049SOL    HW235781   1.835   0.698   4.670 -1.2487  0.5974 -1.8793
 8050SOL     OW35782   2.066   3.839   5.218  0.1229  0.5231  0.0801
 8050SOL    HW135783   2.022   3.754   5.215  0.7129  0.2527 -0.9914
 8050SOL    HW235784   2.034   3.887   5.141  2.2314  1.2588 -0.3291
 8051SOL     OW35785   0.404   2.262   5.465 -1.3054 -0.3730  0.6064
 8051SOL    HW135786   0.323   2.308   5.485 -1.3041  0.1918 -0.6659
 8051SOL    HW235787   0.366   2.191   5.412  1.1540 -0.9846 -0.3840
 8052SOL     OW35788   4.347   4.071   8.545 -0.0904  0.2751 -0.0449
 8052SOL    HW135789   4.402   4.132   8.594  0.9642  0.6109 -1.6457
 8052SOL    HW235790   4.305   4.012   8.608  0.5871 -0.2320 -0.0723
 8053SOL     OW35791   0.838   2.056  12.252  0.4787  0.1821  0.7869
 8053SOL    HW135792   0.862   2.118  12.321  2.0456  1.3516 -0.8282
 8053SOL    HW235793   0.759   2.024  12.296  0.0938  0.3757  0.2362
 8054SOL     OW35794   1.465   3.963   9.653 -0.5362 -0.7088  0.4091
 8054SOL    HW135795   1.424   3.879   9.632 -1.4178  0.1778 -1.4078
 8054SOL    HW235796   1.558   3.943   9.643 -0.6787 -1.0778 -0.2227
 8055SOL     OW35797   1.757   1.773   5.557 -0.2741  0.5004 -0.2923
 8055SOL    HW135798   1.799   1.809   5.479 -2.1759 -0.2101 -1.6338
 8055SOL    HW235799   1.742   1.680   5.538 -0.6010  0.7303 -1.1569
 8056SOL     OW35800   3.860   2.555   5.577 -0.2188 -0.0154  0.2108
 8056SOL    HW135801   3.833   2.563   5.669  0.2834  1.0450  0.2664
 8056SOL    HW235802   3.780   2.574   5.528 -1.1651 -3.0357  0.5860
 8057SOL     OW35803   3.731   0.285   7.964  0.3126  0.0469  0.5352
 8057SOL    HW135804   3.775   0.370   7.976 -0.8964  0.8561 -0.7484
 8057SOL    HW235805   3.681   0.284   8.045 -1.3777 -2.3150 -0.5390
 8058SOL     OW35806   1.988   2.526   9.007  0.2524 -0.0763  0.1380
 8058SOL    HW135807   1.899   2.559   9.008 -0.0078 -0.7690 -0.4157
 8058SOL    HW235808   1.989   2.457   8.940  0.0326  0.1386 -0.0821
 8059SOL     OW35809   3.269   4.397   4.033  0.3399  0.2463 -0.0475
 8059SOL    HW135810   3.364   4.392   4.045 -0.0504 -2.4613  1.8360
 8059SOL    HW235811   3.260   4.342   3.955  0.0140 -1.8520  1.4736
 8060SOL     OW35812   1.619   1.428  10.826  0.5066 -0.4133 -0.4655
 8060SOL    HW135813   1.690   1.370  10.797  2.2234 -0.4209  3.8567
 8060SOL    HW235814   1.560   1.413  10.753 -0.2836 -1.0857  0.3156
 8061SOL     OW35815   1.883   2.131   5.920 -0.0680  0.2781 -0.2167
 8061SOL    HW135816   1.831   2.126   5.840 -0.9451  2.5837  0.2086
 8061SOL    HW235817   1.967   2.125   5.875  0.6221  2.5009  0.7595
 8062SOL     OW35818   3.483   2.477  14.893 -0.4616 -0.7513 -0.1096
 8062SOL    HW135819   3.499   2.568  14.917 -1.3654 -0.4532 -0.6124
 8062SOL    HW235820   3.431   2.436  14.962 -0.6523 -0.9331 -0.3606
 8063SOL     OW35821   3.394   2.872   6.649  0.2569  0.2808  0.7369
 8063SOL    HW135822   3.361   2.783   6.634  1.3037  0.1737 -1.0569
 8063SOL    HW235823   3.485   2.852   6.624 -0.1517 -0.5102 -0.1072
 8064SOL     OW35824   4.485   1.455   6.379  0.0258  0.1740  0.6373
 8064SOL    HW135825   4.558   1.509   6.348  0.9368 -1.2841  0.2504
 8064SOL    HW235826   4.539   1.389   6.422 -0.5074  0.2902  1.4812
 8065SOL     OW35827   4.352   3.684   4.943  0.6632 -0.2142 -0.8780
 8065SOL    HW135828   4.270   3.648   4.979  1.5949 -2.2630 -0.8113
 8065SOL    HW235829   4.319   3.767   4.910  1.3829  0.5149  0.2553
 8066SOL     OW35830   1.348   4.630   4.271  0.4681  0.0427 -0.0797
 8066SOL    HW135831   1.312   4.614   4.358 -1.2129  1.6254 -0.4677
 8066SOL    HW235832   1.430   4.677   4.288  0.5914  0.2013 -1.1087
 8067SOL     OW35833   1.207   4.137   3.212 -1.0278  0.0310  0.2803
 8067SOL    HW135834   1.155   4.058   3.197 -2.0938  0.8222 -0.1654
 8067SOL    HW235835   1.197   4.139   3.307  0.8191 -0.8522  0.4955
 8068SOL     OW35836   3.950   1.505   7.593  0.4185 -0.1326  0.1551
 8068SOL    HW135837   4.027   1.450   7.603  1.1452  1.0031  0.7566
 8068SOL    HW235838   3.971   1.566   7.523 -0.5627  0.0746  0.0411
 8069SOL     OW35839   2.591   0.029  11.054 -0.5481 -0.2822  0.9321
 8069SOL    HW135840   2.651   0.102  11.069  0.1895 -0.5926 -0.4151
 8069SOL    HW235841   2.594   0.011  10.960 -0.1292 -0.2897  0.9477
 8070SOL     OW35842   2.213   3.438   1.397  0.6417  0.4157  0.3942
 8070SOL    HW135843   2.274   3.389   1.451  2.0867  0.6241 -1.0352
 8070SOL    HW235844   2.201   3.513   1.456  2.8322  0.8207  0.3198
 8071SOL     OW35845   3.876   1.084   8.937 -0.1314  0.4722 -0.5472
 8071SOL    HW135846   3.929   1.156   8.972 -0.1683  0.5580 -0.6689
 8071SOL    HW235847   3.926   1.057   8.860 -0.6804 -1.1680 -0.3326
 8072SOL     OW35848   3.670   0.245   2.309 -0.1583  0.1845 -0.3957
 8072SOL    HW135849   3.738   0.265   2.374 -1.1901  0.8964  0.4541
 8072SOL    HW235850   3.612   0.193   2.364  1.7170 -0.6721  0.7604
 8073SOL     OW35851   4.454   3.701   3.226 -0.3223 -0.8883 -0.2933
 8073SOL    HW135852   4.377   3.686   3.281 -0.4807 -1.2653 -0.6232
 8073SOL    HW235853   4.493   3.614   3.232 -0.8283 -1.0477  0.8720
 8074SOL     OW35854   4.295   2.079   7.418  0.1706 -0.2518  0.2383
 8074SOL    HW135855   4.370   2.089   7.360 -1.0387 -1.2756 -1.5049
 8074SOL    HW235856   4.232   2.117   7.357  2.0413  0.5519 -1.1950
 8075SOL     OW35857   1.936   2.304   6.324 -0.0273  0.3059  0.0367
 8075SOL    HW135858   1.867   2.266   6.270  0.1236  0.5194 -0.3025
 8075SOL    HW235859   1.905   2.391   6.347  2.6535  0.9397  1.2143
 8076SOL     OW35860   2.549   3.869   9.105  0.0105 -0.5115 -0.0958
 8076SOL    HW135861   2.504   3.870   9.189 -1.1200  0.9134 -0.7061
 8076SOL    HW235862   2.535   3.962   9.084 -1.7036 -1.0692 -1.4138
 8077SOL     OW35863   2.013   0.963   5.452 -0.0176 -0.4327 -0.3904
 8077SOL    HW135864   2.044   0.950   5.542 -0.5695  0.4468 -0.0703
 8077SOL    HW235865   1.926   0.924   5.467  0.2876 -1.9147 -2.4550
 8078SOL     OW35866   2.323   1.130   0.248  0.1965 -0.2048 -0.3099
 8078SOL    HW135867   2.342   1.048   0.203 -2.0293 -0.8259 -0.1599
 8078SOL    HW235868   2.411   1.164   0.261  0.5348 -1.2066  0.0211
 8079SOL     OW35869   2.283   4.416   8.972 -0.6316 -0.3956  0.0407
 8079SOL    HW135870   2.285   4.388   9.064 -0.0963  2.1862  0.8165
 8079SOL    HW235871   2.357   4.367   8.936  0.2365 -0.6240  2.1258
 8080SOL     OW35872   1.736   0.102   6.920 -0.5294  0.3010  0.1470
 8080SOL    HW135873   1.813   0.053   6.891 -0.3338  0.2173  0.8023
 8080SOL    HW235874   1.765   0.151   6.997 -0.8380  3.1400 -1.5253
 8081SOL     OW35875   4.417   0.064   8.698 -0.5415 -0.0504  0.0381
 8081SOL    HW135876   4.337   0.111   8.675 -1.3088 -1.4981 -0.2354
 8081SOL    HW235877   4.467   0.123   8.753 -1.3006  0.2448  0.4008
 8082SOL     OW35878   4.028   0.907   5.609 -0.5515  0.4880 -1.1204
 8082SOL    HW135879   4.119   0.935   5.614 -0.0165 -1.8648  1.9302
 8082SOL    HW235880   3.979   0.986   5.589 -0.2271  1.0278  0.2390
 8083SOL     OW35881   0.420   1.820   8.161  0.3877  0.1087 -0.3245
 8083SOL    HW135882   0.436   1.914   8.154 -0.1374  0.2272 -0.0065
 8083SOL    HW235883   0.437   1.796   8.252 -0.4884  0.1700 -0.1393
 8084SOL     OW35884   4.199   1.628  13.210 -0.0341  0.2618  0.3130
 8084SOL    HW135885   4.269   1.630  13.276  1.2626 -1.4965 -1.0052
 8084SOL    HW235886   4.216   1.711  13.166 -0.4876 -0.1284 -0.6062
 8085SOL     OW35887   2.925   0.607   5.160 -0.2888 -0.1372  0.5210
 8085SOL    HW135888   2.998   0.552   5.187 -0.1901  0.2613  1.0535
 8085SOL    HW235889   2.873   0.591   5.239 -0.9267  2.9400  0.6922
 8086SOL     OW35890   4.719   0.663  10.737 -0.1668  1.0008  0.0265
 8086SOL    HW135891   4.715   0.733  10.801  2.5316 -0.2371  1.5076
 8086SOL    HW235892   0.049   0.611  10.773 -1.7227 -0.8591  0.4517
 8087SOL     OW35893   2.886   0.715  11.654  0.2547 -0.0416 -0.1777
 8087SOL    HW135894   2.816   0.771  11.684 -0.6348 -1.1397 -0.2065
 8087SOL    HW235895   2.938   0.712  11.734 -1.5461  0.2949  0.9990
 8088SOL     OW35896   3.720   4.637   8.981  0.0878  0.3140 -0.6820
 8088SOL    HW135897   3.698   4.553   8.941 -0.2508  0.3601 -0.5975
 8088SOL    HW235898   3.700   4.703   8.914 -0.3961 -0.0516 -0.9014
 8089SOL     OW35899   2.714   2.995   8.905  0.1120  0.3929  0.2736
 8089SOL    HW135900   2.730   3.025   8.995  2.2709  1.7737 -0.5738
 8089SOL    HW235901   2.719   3.074   8.852 -0.8337  1.3578  1.6303
 8090SOL     OW35902   1.224   2.220   7.951  0.1378 -0.5313  0.2389
 8090SOL    HW135903   1.293   2.231   7.886 -0.2054  1.3308  0.1951
 8090SOL    HW235904   1.147   2.220   7.894  0.4056 -1.1171 -0.1212
 8091SOL     OW35905   3.359   2.226   4.100  0.2080 -0.1859 -0.1782
 8091SOL    HW135906   3.400   2.193   4.179 -2.0303 -1.3837  0.4778
 8091SOL    HW235907   3.334   2.143   4.060  0.5586 -1.1941  1.6966
 8092SOL     OW35908   2.067   3.363   7.633  0.2831  0.0547  0.2064
 8092SOL    HW135909   2.124   3.404   7.699  1.7271 -0.2915 -0.8264
 8092SOL    HW235910   1.988   3.417   7.631 -0.4726 -1.2436 -3.1630
 8093SOL     OW35911   1.719   3.817  16.801 -0.8216 -0.5478 -0.3956
 8093SOL    HW135912   1.672   3.847  16.723 -2.4727 -0.5153  0.6133
 8093SOL    HW235913   1.643   3.766  16.829 -1.5299  0.0134 -1.2958
 8094SOL     OW35914   4.221   3.527   1.115 -0.1786 -0.1864  0.1281
 8094SOL    HW135915   4.189   3.444   1.079 -0.9901  0.3452 -0.3753
 8094SOL    HW235916   4.194   3.596   1.054 -0.9107 -0.9436 -0.3962
 8095SOL     OW35917   0.607   0.083  16.487  0.0329  0.5324 -0.2201
 8095SOL    HW135918   0.625   0.167  16.530 -2.4115  0.7110  0.4365
 8095SOL    HW235919   0.605   0.116  16.397 -1.1886 -1.3600 -0.8939
 8096SOL     OW35920   2.656   2.304   3.884 -0.0213 -0.5814  0.0750
 8096SOL    HW135921   2.632   2.229   3.830  1.8638 -0.9553 -0.2418
 8096SOL    HW235922   2.624   2.375   3.827 -1.4154 -0.4471  1.0232
 8097SOL     OW35923   4.269   0.427  10.258  0.4843  0.0457  0.0637
 8097SOL    HW135924   4.191   0.446  10.309  0.5510  0.3806  0.0413
 8097SOL    HW235925   4.320   0.506  10.277  2.4232 -0.7237 -1.9438
 8098SOL     OW35926   4.256   1.331  17.126  0.2924 -0.5625 -0.1722
 8098SOL    HW135927   4.254   1.362  17.216  1.6545 -0.2553 -0.2546
 8098SOL    HW235928   4.202   1.252  17.133  0.9837 -0.9961  0.2632
 8099SOL     OW35929   2.759   4.096  14.245  0.1048  0.2896 -0.4975
 8099SOL    HW135930   2.682   4.151  14.262 -0.5545 -0.8192  0.0753
 8099SOL    HW235931   2.719   4.013  14.222 -0.0430 -0.7333  3.5193
 8100SOL     OW35932   2.611   4.673   3.517 -0.5382  0.3850  0.1806
 8100SOL    HW135933   2.520   4.653   3.497 -0.5638  0.4563  0.2279
 8100SOL    HW235934   2.610   0.026   3.526  1.5800  0.6184 -1.9283
 8101SOL     OW35935   0.774   0.079   7.077  0.2176 -0.6206  0.0864
 8101SOL    HW135936   0.769   0.132   6.997  0.5227  3.1459  2.6152
 8101SOL    HW235937   0.830   0.130   7.134 -1.1080 -0.1426  0.9518
 8102SOL     OW35938   0.223   0.423  13.833  0.0440  0.0995 -0.2664
 8102SOL    HW135939   0.267   0.346  13.869 -1.1138 -0.4131  0.0595
 8102SOL    HW235940   0.213   0.405  13.740 -0.8070  1.3626 -0.4099
 8103SOL     OW35941   2.706   1.231   4.114  0.1075 -0.2859  0.3980
 8103SOL    HW135942   2.678   1.228   4.206  0.4146  0.9802  0.5356
 8103SOL    HW235943   2.710   1.139   4.089  0.2727 -0.7132  1.9886
 8104SOL     OW35944   0.579   2.661  11.945 -0.0678  0.6253 -0.6198
 8104SOL    HW135945   0.518   2.685  12.015 -0.6037  0.5301 -1.0550
 8104SOL    HW235946   0.607   2.748  11.918 -0.6235  0.9565 -0.1441
 8105SOL     OW35947   3.462   2.572   2.276 -0.1680 -0.3728  0.3646
 8105SOL    HW135948   3.427   2.636   2.339 -0.4498  1.4070 -1.6149
 8105SOL    HW235949   3.483   2.499   2.335 -2.4797 -1.4126 -0.1104
 8106SOL     OW35950   1.133   4.720   2.966 -0.8434 -0.2146 -0.2284
 8106SOL    HW135951   1.106   4.653   3.028  2.9244 -0.6948  0.8662
 8106SOL    HW235952   1.202   0.022   3.015  1.2146 -1.1747 -2.2542
 8107SOL     OW35953   1.432   4.517   6.886  0.0682 -0.5515 -0.1679
 8107SOL    HW135954   1.495   4.458   6.846 -1.2072  0.7155 -3.9849
 8107SOL    HW235955   1.353   4.469   6.862 -0.5978  0.4270  0.0854
 8108SOL     OW35956   0.193   3.741   6.749 -0.4112 -0.1642 -0.3683
 8108SOL    HW135957   0.265   3.761   6.809  0.6338  0.1236 -1.7141
 8108SOL    HW235958   0.119   3.763   6.805 -1.4299 -1.1294 -1.3382
 8109SOL     OW35959   4.095   3.011   6.459 -0.4567  0.0817  0.0989
 8109SOL    HW135960   4.071   3.089   6.408 -1.4085 -2.6008 -3.4920
 8109SOL    HW235961   4.187   3.036   6.468 -0.5172  0.4178 -0.1935
 8110SOL     OW35962   1.483   0.481   0.884  0.8418  0.5531  0.2879
 8110SOL    HW135963   1.428   0.480   0.962  0.2403 -2.2181 -0.1703
 8110SOL    HW235964   1.470   0.395   0.844  0.3660  1.5314 -1.6646
 8111SOL     OW35965   3.991   3.035   5.989 -0.4225  0.2676  0.3209
 8111SOL    HW135966   4.084   3.043   5.967 -0.4107 -0.2541  0.1970
 8111SOL    HW235967   3.957   3.125   5.990 -2.6405 -0.5685  0.7818
 8112SOL     OW35968   1.762   1.146  10.385  0.7012 -0.2508  0.2585
 8112SOL    HW135969   1.751   1.054  10.410 -0.1021 -1.0241 -2.9130
 8112SOL    HW235970   1.681   1.175  10.344  1.0261 -1.0699 -0.9927
 8113SOL     OW35971   4.567   3.333   5.409  0.0138 -0.2171  0.2288
 8113SOL    HW135972   4.518   3.398   5.357  1.8697 -0.5289 -1.9201
 8113SOL    HW235973   4.639   3.377   5.454  0.2842  0.4031 -0.8086
 8114SOL     OW35974   2.345   2.405  15.660 -0.0088  0.0627 -0.1704
 8114SOL    HW135975   2.276   2.468  15.639 -1.5946 -1.1134  1.5395
 8114SOL    HW235976   2.367   2.423  15.751 -1.9805 -1.5355  0.6020
 8115SOL     OW35977   1.505   0.076   6.303 -0.5751  0.0348 -0.7329
 8115SOL    HW135978   1.497   0.077   6.398  1.7303 -0.2092 -0.5173
 8115SOL    HW235979   1.477   0.165   6.282  1.4889  0.5489 -1.3880
 8116SOL     OW35980   3.398   4.484   4.685 -0.4067  0.3826 -0.1098
 8116SOL    HW135981   3.338   4.428   4.636  1.2787 -1.6674  0.1302
 8116SOL    HW235982   3.482   4.483   4.639 -0.6674 -1.1824 -0.5662
 8117SOL     OW35983   4.214   2.035   4.075 -0.4185  0.5204  0.3930
 8117SOL    HW135984   4.177   2.064   4.158  2.0593  3.9841  0.2978
 8117SOL    HW235985   4.158   1.961   4.052  0.0908  0.3451 -0.2976
 8118SOL     OW35986   0.536   4.653  12.891  0.3445  0.1431  0.7904
 8118SOL    HW135987   0.498   4.566  12.885 -0.9238  0.7021  0.8878
 8118SOL    HW235988   0.572   4.648  12.980  3.7151 -1.4348 -0.6528
 8119SOL     OW35989   0.588   2.414   3.697  0.5236 -0.1198 -0.5350
 8119SOL    HW135990   0.511   2.450   3.740  0.3990 -1.7180  0.5701
 8119SOL    HW235991   0.556   2.326   3.681  3.3783 -0.9798 -1.5954
 8120SOL     OW35992   0.037   1.646   3.640 -0.3496  0.2226  0.1900
 8120SOL    HW135993   0.069   1.736   3.647  0.9726 -0.1853 -0.6882
 8120SOL    HW235994   0.090   1.595   3.701  0.4455  1.8649  0.8791
 8121SOL     OW35995   2.943   1.288   9.182 -0.1099 -0.1381  0.2711
 8121SOL    HW135996   2.973   1.377   9.199 -1.3027  0.1410  0.9058
 8121SOL    HW235997   2.848   1.303   9.180 -0.1327 -0.4103 -1.1295
 8122SOL     OW35998   3.776   2.068  16.646  0.0995 -0.5508  0.9864
 8122SOL    HW135999   3.788   2.011  16.570 -0.4273 -1.0748  1.3085
 8122SOL    HW236000   3.719   2.135  16.609 -0.2571 -0.8582  0.9809
 8123SOL     OW36001   0.503   2.188   3.575  0.3327  0.1701  0.0829
 8123SOL    HW136002   0.431   2.130   3.549 -1.8458  2.3797  1.2402
 8123SOL    HW236003   0.577   2.131   3.595 -0.7166 -1.7950 -1.7033
 8124SOL     OW36004   2.736   1.819   2.555 -0.1256  0.2682  0.8979
 8124SOL    HW136005   2.824   1.834   2.588 -0.7592  1.2546  2.1253
 8124SOL    HW236006   2.698   1.782   2.634  1.4037 -1.5947  0.7453
 8125SOL     OW36007   3.986   3.535   1.290 -0.9360  0.1497 -0.5549
 8125SOL    HW136008   4.066   3.546   1.239 -0.6534 -0.8269 -0.3155
 8125SOL    HW236009   3.925   3.597   1.250 -2.2254 -0.1451  0.9359
 8126SOL     OW36010   2.588   2.669   7.790 -0.5436  0.0201  0.5919
 8126SOL    HW136011   2.507   2.635   7.829 -1.0174 -0.7651 -1.1022
 8126SOL    HW236012   2.564   2.761   7.778  0.7360  0.7328  3.4080
 8127SOL     OW36013   4.127   0.835   7.915  0.1368 -0.2131  0.0185
 8127SOL    HW136014   4.035   0.860   7.907  0.1055 -0.7793 -1.3573
 8127SOL    HW236015   4.173   0.915   7.890  1.3519 -0.8763  0.1127
 8128SOL     OW36016   0.447   4.606  14.367 -0.2432 -0.4384  0.3478
 8128SOL    HW136017   0.416   4.690  14.333  1.6798  0.2693  0.3279
 8128SOL    HW236018   0.375   4.585  14.426 -1.5670  1.8148 -0.4479
 8129SOL     OW36019   3.322   4.059   4.179 -0.3236 -0.0249 -0.4689
 8129SOL    HW136020   3.248   4.092   4.129 -1.3449 -1.4730  0.0792
 8129SOL    HW236021   3.336   3.977   4.133  1.1120 -0.1197  0.1387
 8130SOL     OW36022   2.715   2.015   2.386 -0.1422 -0.1632  0.5188
 8130SOL    HW136023   2.725   1.933   2.435  0.5243 -0.1505  0.4039
 8130SOL    HW236024   2.625   2.039   2.409 -0.0427 -0.4448  1.1918
 8131SOL     OW36025   0.574   0.757   4.895  0.5162 -0.4903  0.1604
 8131SOL    HW136026   0.623   0.683   4.932 -2.4471 -1.6653  1.6972
 8131SOL    HW236027   0.522   0.776   4.973  1.8867  2.0800  0.4442
 8132SOL     OW36028   3.459   1.892   4.478 -0.4785 -0.1127 -0.6410
 8132SOL    HW136029   3.463   1.843   4.560 -0.9511  1.4299  0.3075
 8132SOL    HW236030   3.432   1.822   4.418  1.0323 -0.9621 -0.3314
 8133SOL     OW36031   4.280   1.705  16.963 -0.7563  0.0746 -0.0264
 8133SOL    HW136032   4.254   1.758  17.039 -1.4871 -0.0250 -0.2066
 8133SOL    HW236033   4.232   1.623  16.970  1.6587 -1.2415  0.8539
 8134SOL     OW36034   3.304   4.547   8.924 -0.1079 -0.0739  0.2266
 8134SOL    HW136035   3.341   4.532   8.837  0.2075 -0.5068  0.4293
 8134SOL    HW236036   3.263   4.461   8.938  0.7194 -0.5429 -0.2486
 8135SOL     OW36037   2.669   4.364   4.201  0.1086  0.2981 -0.1509
 8135SOL    HW136038   2.727   4.372   4.276  0.2233  0.1249 -0.2199
 8135SOL    HW236039   2.727   4.329   4.133  1.1578 -0.7041  1.2555
 8136SOL     OW36040   2.600   1.394   7.026  0.4085 -0.0947 -0.0068
 8136SOL    HW136041   2.634   1.304   7.030  1.9165  0.4037 -1.4953
 8136SOL    HW236042   2.595   1.415   7.119 -0.7172  0.3934 -0.1775
 8137SOL     OW36043   4.056   0.601   0.837  0.7261  0.1203  0.5968
 8137SOL    HW136044   4.127   0.569   0.891 -2.5897 -1.9789  3.7093
 8137SOL    HW236045   3.998   0.525   0.828 -0.5638  1.2537 -0.7848
 8138SOL     OW36046   2.533   3.347  11.786 -0.6744  0.4059  0.1422
 8138SOL    HW136047   2.578   3.273  11.744  0.1096  0.4488  0.8950
 8138SOL    HW236048   2.595   3.419  11.775 -0.8086  0.9222  2.7491
 8139SOL     OW36049   1.473   0.508   2.681  0.5369 -0.1120  0.1971
 8139SOL    HW136050   1.445   0.568   2.612  1.7239  0.3095  0.0821
 8139SOL    HW236051   1.552   0.477   2.636  1.9890  1.4448  1.6434
 8140SOL     OW36052   0.954   2.236   5.163 -0.5354  0.5221  0.2739
 8140SOL    HW136053   0.991   2.210   5.247 -1.4871 -0.2572  0.4463
 8140SOL    HW236054   0.868   2.274   5.179 -0.3420  0.7993  0.6527
 8141SOL     OW36055   1.610   3.916   0.842 -0.0463 -0.1483  0.6004
 8141SOL    HW136056   1.639   3.839   0.794 -3.5962 -1.4825  0.6123
 8141SOL    HW236057   1.692   3.965   0.855 -0.7020  0.6537  1.7317
 8142SOL     OW36058   0.407   0.031   4.118 -0.0945 -1.1745 -0.3030
 8142SOL    HW136059   0.410   0.036   4.022 -1.8607  1.0278 -0.2486
 8142SOL    HW236060   0.474   0.092   4.148 -0.1752 -1.4152  0.3570
 8143SOL     OW36061   4.503   1.446   2.752  0.5501  0.1544 -0.3850
 8143SOL    HW136062   4.558   1.369   2.737  0.6063  0.1697 -0.2565
 8143SOL    HW236063   4.534   1.472   2.839 -2.7631  0.0383  0.8478
 8144SOL     OW36064   2.444   3.668   5.060  0.5022  0.0378  0.4346
 8144SOL    HW136065   2.382   3.645   5.129  1.2657 -3.0719  0.0610
 8144SOL    HW236066   2.425   3.594   5.002 -0.7441 -0.2170  1.1681
 8145SOL     OW36067   2.637   3.962   5.548  0.1045  0.0005  0.1095
 8145SOL    HW136068   2.731   3.944   5.556  0.0090 -0.0187  1.1759
 8145SOL    HW236069   2.639   4.042   5.496  1.0843  0.2258  0.4927
 8146SOL     OW36070   4.727   4.668   6.239 -0.1201  0.3839  0.0226
 8146SOL    HW136071   0.048   4.684   6.309  1.4471 -2.6258 -0.7382
 8146SOL    HW236072   4.708   0.019   6.220 -0.5415  0.1376 -0.7426
 8147SOL     OW36073   0.009   1.533   4.872 -0.2089  0.4820  0.0774
 8147SOL    HW136074   4.688   1.604   4.862 -1.6719 -0.7855  0.2920
 8147SOL    HW236075   0.059   1.555   4.793  0.6641  0.2680  0.5593
 8148SOL     OW36076   2.938   2.844   5.854 -0.4902  0.7332 -0.0170
 8148SOL    HW136077   2.984   2.927   5.842  1.2092  0.0908  2.0381
 8148SOL    HW236078   2.951   2.821   5.946 -2.2092  3.5635  0.9298
 8149SOL     OW36079   2.505   2.910   0.559  0.4329  0.5677 -0.3328
 8149SOL    HW136080   2.577   2.898   0.621  1.4132  1.1733 -1.3834
 8149SOL    HW236081   2.433   2.924   0.622  1.6356 -2.4177  1.7250
 8150SOL     OW36082   3.975   2.170   7.571  0.1048 -0.2223 -0.8508
 8150SOL    HW136083   3.895   2.211   7.604 -0.1851 -1.9464  0.6099
 8150SOL    HW236084   4.008   2.114   7.641 -1.1837  0.7391  0.5201
 8151SOL     OW36085   0.721   2.325   5.247  0.8541 -0.3659 -0.0235
 8151SOL    HW136086   0.686   2.413   5.262  1.1575 -0.7470  2.8200
 8151SOL    HW236087   0.684   2.317   5.159  0.8876  1.3381 -0.2048
 8152SOL     OW36088   0.916   1.166  12.884  0.2377 -0.2535  0.3714
 8152SOL    HW136089   0.951   1.081  12.912  0.4935 -0.1737  0.2941
 8152SOL    HW236090   0.822   1.152  12.875 -0.2090  2.3713  1.1330
 8153SOL     OW36091   2.827   4.077  12.677 -0.5818  0.1422 -0.6764
 8153SOL    HW136092   2.805   4.009  12.614  0.1425 -0.3762 -0.3801
 8153SOL    HW236093   2.905   4.031  12.709 -1.1031  0.2817  0.8020
 8154SOL     OW36094   3.208   3.959   7.029 -0.2296 -0.5329 -0.0852
 8154SOL    HW136095   3.152   3.881   7.020  1.3748 -1.8476  1.3973
 8154SOL    HW236096   3.287   3.922   6.990  0.3661  2.9178 -2.1170
 8155SOL     OW36097   3.361   0.986  10.813 -0.4754  0.2812  0.0923
 8155SOL    HW136098   3.384   1.048  10.883 -1.0945 -0.1113  0.6370
 8155SOL    HW236099   3.352   0.903  10.858  1.6500 -0.8895 -1.6132
 8156SOL     OW36100   1.384   4.518   3.399 -0.4943 -0.5771  0.2435
 8156SOL    HW136101   1.474   4.512   3.432  0.7882 -1.0718 -3.3917
 8156SOL    HW236102   1.398   4.577   3.325 -0.8751  0.5798  1.0991
 8157SOL     OW36103   4.490   0.184  15.239  0.3249  0.1137  0.0685
 8157SOL    HW136104   4.558   0.223  15.293 -0.7742  2.0805  0.0568
 8157SOL    HW236105   4.535   0.153  15.161  1.5219  3.7180 -0.6357
 8158SOL     OW36106   1.311   1.915   5.073  0.5047 -0.4228  0.0700
 8158SOL    HW136107   1.400   1.878   5.081  0.0282 -1.5157  0.3369
 8158SOL    HW236108   1.286   1.869   4.993 -1.0566 -1.9270  1.4292
 8159SOL     OW36109   3.964   3.758  17.478 -0.0036 -0.2705  0.3721
 8159SOL    HW136110   3.901   3.694  17.512  0.2000 -0.5272  0.2590
 8159SOL    HW236111   3.934   3.832  17.531 -0.4969 -0.5751  0.5149
 8160SOL     OW36112   2.150   2.081   1.673  0.3662  0.4158 -0.4449
 8160SOL    HW136113   2.198   2.010   1.716  0.0160 -0.6997 -1.8979
 8160SOL    HW236114   2.187   2.078   1.585  1.2279  1.1055 -0.1101
 8161SOL     OW36115   0.064   2.081   1.488  0.6166 -0.0835  0.1134
 8161SOL    HW136116   4.721   2.113   1.457  0.1988 -1.2735  0.0107
 8161SOL    HW236117   0.126   2.123   1.429  1.0008  0.3829  0.8497
 8162SOL     OW36118   3.294   2.855  10.223  0.1665 -0.2920 -0.4782
 8162SOL    HW136119   3.376   2.904  10.230  0.5942 -0.7636 -2.2153
 8162SOL    HW236120   3.239   2.907  10.283  1.3614  2.8993 -2.1209
 8163SOL     OW36121   4.478   2.500   9.907 -0.1998  0.6832  0.0460
 8163SOL    HW136122   4.560   2.501   9.956 -0.0060  1.7749 -0.3147
 8163SOL    HW236123   4.505   2.497   9.815 -2.4537 -0.7067 -0.5693
 8164SOL     OW36124   2.705   1.266   8.867  0.5415  0.0842 -0.1160
 8164SOL    HW136125   2.684   1.291   8.957 -0.9201  2.6578 -1.1460
 8164SOL    HW236126   2.699   1.172   8.879 -2.8929  0.4703  1.0654
 8165SOL     OW36127   4.449   2.473   5.962 -0.0732 -0.2433  0.2267
 8165SOL    HW136128   4.388   2.408   5.999 -0.6495  0.6200  0.7864
 8165SOL    HW236129   4.397   2.551   5.944  0.4556 -0.0674 -0.5521
 8166SOL     OW36130   4.073   0.451   1.789  0.0805 -0.2552  0.5493
 8166SOL    HW136131   4.115   0.516   1.733 -0.5645  2.7647  3.5688
 8166SOL    HW236132   4.090   0.477   1.880  1.3650  0.2074  0.1766
 8167SOL     OW36133   3.427   0.675  15.434 -0.1857 -0.4724  0.2218
 8167SOL    HW136134   3.489   0.728  15.485 -1.3006  1.1329 -0.0684
 8167SOL    HW236135   3.395   0.728  15.361 -0.1831 -0.9384 -0.1187
 8168SOL     OW36136   2.779   2.229  15.469 -0.5550  0.9563 -0.2601
 8168SOL    HW136137   2.734   2.165  15.524 -0.5085  0.6043 -0.6229
 8168SOL    HW236138   2.870   2.199  15.470 -0.6692  0.6709  1.1384
 8169SOL     OW36139   0.748   3.098  10.970  0.5701 -0.4887  0.3528
 8169SOL    HW136140   0.657   3.093  10.940  0.1821 -2.9809  1.9289
 8169SOL    HW236141   0.761   3.193  10.963 -1.9593 -0.2311 -0.8439
 8170SOL     OW36142   1.336   4.069  16.569 -0.1512 -0.2016 -0.2151
 8170SOL    HW136143   1.269   4.104  16.627 -0.1115  1.7892 -1.3844
 8170SOL    HW236144   1.287   4.013  16.509  1.4015 -0.0686 -1.6055
 8171SOL     OW36145   1.099   2.473   0.603  0.2496  0.4112  0.4196
 8171SOL    HW136146   1.095   2.377   0.604 -1.6943  0.4932 -2.3711
 8171SOL    HW236147   1.119   2.491   0.512 -0.6174 -1.3320 -0.1232
 8172SOL     OW36148   0.781   2.989  16.834  0.4005  0.1551  0.4072
 8172SOL    HW136149   0.723   3.011  16.761 -0.0846  0.0006  0.7456
 8172SOL    HW236150   0.759   3.045  16.908  1.7864 -0.5744  1.3660
 8173SOL     OW36151   1.723   0.285   4.022 -0.0903  0.0300  0.1593
 8173SOL    HW136152   1.737   0.253   3.932  0.1413 -0.4621  0.3690
 8173SOL    HW236153   1.692   0.374   4.006  1.8670  0.8303  0.9074
 8174SOL     OW36154   3.594   4.438  17.644  0.2471  0.1777 -0.5228
 8174SOL    HW136155   3.689   4.437  17.653  0.1539 -0.6193  0.4713
 8174SOL    HW236156   3.577   4.521  17.689 -0.9681 -0.5212  0.3167
 8175SOL     OW36157   0.260   4.717  14.024 -0.1321 -0.2347  0.0877
 8175SOL    HW136158   0.262   4.715  13.929  0.2423 -1.8272  0.1320
 8175SOL    HW236159   0.227   4.629  14.042 -1.3712  0.8249  3.1395
 8176SOL     OW36160   4.739   3.041   0.505  0.2864  0.2915 -0.0861
 8176SOL    HW136161   0.019   2.949   0.492 -1.6930  0.1162 -2.1834
 8176SOL    HW236162   4.683   3.053   0.428  1.1349 -0.5909 -0.8285
 8177SOL     OW36163   0.365   0.971   7.936 -0.0890 -0.4111 -0.2260
 8177SOL    HW136164   0.345   0.888   7.979  1.1879  0.0432  1.2573
 8177SOL    HW236165   0.413   0.945   7.857 -0.6773 -0.8523 -0.4330
 8178SOL     OW36166   3.171   0.751   4.328 -0.1082 -0.2295  0.0276
 8178SOL    HW136167   3.157   0.666   4.371  0.6843 -1.2226 -1.6639
 8178SOL    HW236168   3.081   0.780   4.320 -0.7878 -2.3952 -0.3850
 8179SOL     OW36169   0.440   0.213   8.728 -0.1521  0.0714 -0.1510
 8179SOL    HW136170   0.491   0.293   8.724  0.7089 -0.5468 -1.6700
 8179SOL    HW236171   0.443   0.202   8.823 -0.0871  1.3744 -0.0045
 8180SOL     OW36172   4.137   0.680   1.642 -0.6371  0.0158 -0.7280
 8180SOL    HW136173   4.066   0.731   1.682 -1.1377  0.3079 -2.0045
 8180SOL    HW236174   4.141   0.714   1.553 -0.1821  1.4251 -0.1661
 8181SOL     OW36175   2.389   3.860   8.242  0.3635 -0.3128 -0.2488
 8181SOL    HW136176   2.385   3.940   8.190 -0.1047 -1.4598 -1.9869
 8181SOL    HW236177   2.461   3.885   8.301 -1.1411  0.9549  1.0703
 8182SOL     OW36178   3.206   0.025   9.645 -0.0026 -0.3859 -0.2630
 8182SOL    HW136179   3.222   0.027   9.551  0.5679 -3.0955 -0.2169
 8182SOL    HW236180   3.191   0.119   9.657  0.6041 -0.6515  2.7551
 8183SOL     OW36181   1.009   2.655   9.068  0.6194 -0.2996 -0.0632
 8183SOL    HW136182   1.014   2.610   9.152 -1.0312  0.8745  0.6570
 8183SOL    HW236183   0.920   2.690   9.069  0.5868 -0.3682 -0.6726
 8184SOL     OW36184   0.383   0.106   8.094 -0.0447  0.4976 -0.1528
 8184SOL    HW136185   0.398   0.067   8.008  0.6880  0.8332 -0.1750
 8184SOL    HW236186   0.366   0.022   8.137  0.4020  0.7685  0.5293
 8185SOL     OW36187   2.103   3.378   5.934  0.7849  0.7678  0.1440
 8185SOL    HW136188   2.119   3.326   6.012 -2.5027 -0.3509  0.0854
 8185SOL    HW236189   2.064   3.457   5.973 -0.9941 -1.6013  3.1791
 8186SOL     OW36190   2.620   3.921  15.217 -0.2186  0.0600  0.6235
 8186SOL    HW136191   2.690   3.861  15.243 -1.1934 -1.6428 -0.6564
 8186SOL    HW236192   2.549   3.901  15.277  0.0505  1.4565  1.4240
 8187SOL     OW36193   3.295   0.711   4.890  0.2158  0.8644  0.4562
 8187SOL    HW136194   3.306   0.696   4.796 -4.2529 -1.9555  0.3655
 8187SOL    HW236195   3.206   0.744   4.898  0.6812  1.9833  0.8717
 8188SOL     OW36196   4.670   1.469  14.087 -0.2701 -0.4238  0.1924
 8188SOL    HW136197   4.654   1.392  14.032 -1.9965  1.8168 -2.4590
 8188SOL    HW236198   0.022   1.479  14.066  0.3775 -2.5674  2.0802
 8189SOL     OW36199   3.375   1.077   3.769 -0.0569  0.3489  0.3199
 8189SOL    HW136200   3.311   1.032   3.714 -0.5864 -1.1288  2.1547
 8189SOL    HW236201   3.384   1.161   3.724  0.0814 -0.7065 -1.6455
 8190SOL     OW36202   3.258   3.256   4.149 -0.2476  0.2639  0.0864
 8190SOL    HW136203   3.325   3.200   4.188 -1.5789 -0.5125  1.2237
 8190SOL    HW236204   3.184   3.198   4.164  1.3531 -1.0888  2.7240
 8191SOL     OW36205   3.808   2.257   5.230  0.1640  0.1097  0.2437
 8191SOL    HW136206   3.857   2.178   5.207  1.4342  0.6533  1.1379
 8191SOL    HW236207   3.814   2.309   5.149  0.0132 -0.7574 -0.3279
 8192SOL     OW36208   2.922   3.096   6.426  0.4211  0.0964  0.0837
 8192SOL    HW136209   2.869   3.030   6.381 -0.2980  0.0068  1.0904
 8192SOL    HW236210   2.991   3.040   6.463  1.2674 -0.0713 -1.7348
 8193SOL     OW36211   2.108   4.424   6.485  0.1587  0.1283 -0.4617
 8193SOL    HW136212   2.126   4.423   6.391 -2.9436  1.0087 -1.0622
 8193SOL    HW236213   2.013   4.413   6.481  0.4325 -3.1852  2.1124
 8194SOL     OW36214   0.907   1.271   2.066  0.0744  0.0200  0.1094
 8194SOL    HW136215   0.968   1.305   2.000  0.2283 -0.9637 -0.2487
 8194SOL    HW236216   0.949   1.290   2.150  1.8046 -1.3710 -0.4385
 8195SOL     OW36217   4.052   4.290  13.709  0.6516  0.4265 -0.0364
 8195SOL    HW136218   3.993   4.346  13.658 -0.5845 -0.3366  0.5450
 8195SOL    HW236219   4.128   4.346  13.722  1.5609 -1.0002  0.9517
 8196SOL     OW36220   4.007   2.469  15.859 -0.1071  0.2877 -0.6187
 8196SOL    HW136221   4.069   2.399  15.839  0.4857  0.8421 -0.7170
 8196SOL    HW236222   3.929   2.421  15.887  1.3826  0.3652  3.7392
 8197SOL     OW36223   0.760   0.388   1.848 -0.1606 -0.4616 -0.5052
 8197SOL    HW136224   0.821   0.460   1.831 -1.2392  0.0122 -2.3376
 8197SOL    HW236225   0.680   0.435   1.829  1.4441  2.3155 -0.4045
 8198SOL     OW36226   2.615   3.267   9.029 -0.0014 -0.3982 -0.4397
 8198SOL    HW136227   2.666   3.343   9.001  1.1661 -1.0402 -0.0657
 8198SOL    HW236228   2.671   3.234   9.099  0.2373  0.9692  0.0178
 8199SOL     OW36229   1.103   0.251  13.446  0.6997  0.2027 -0.4960
 8199SOL    HW136230   1.103   0.274  13.538  0.2018 -0.3821 -0.3468
 8199SOL    HW236231   1.175   0.188  13.441  0.7084  0.1445  0.4135
 8200SOL     OW36232   2.551   0.461   3.421 -0.0428  0.2998 -0.9396
 8200SOL    HW136233   2.484   0.469   3.354 -2.2868  1.1774  1.3839
 8200SOL    HW236234   2.507   0.498   3.499  0.9512  0.2353 -0.3465
 8201SOL     OW36235   4.674   1.989  17.128  0.4034 -0.6178 -0.4003
 8201SOL    HW136236   4.719   1.945  17.056 -0.5357 -1.7115 -0.3313
 8201SOL    HW236237   4.676   1.923  17.197 -0.8849 -2.7526 -2.3707
 8202SOL     OW36238   3.231   0.315   9.942 -0.0437  0.4270 -0.0669
 8202SOL    HW136239   3.210   0.285   9.854  0.1870  0.4269 -0.1215
 8202SOL    HW236240   3.228   0.230   9.985 -1.7054 -0.0767 -1.2057
 8203SOL     OW36241   1.973   4.726   2.554  0.3336 -0.2028  0.0893
 8203SOL    HW136242   2.009   4.702   2.469 -0.5445  0.5843 -0.5099
 8203SOL    HW236243   1.880   0.003   2.537  0.6188  1.3030  0.2434
 8204SOL     OW36244   3.604   4.042  14.029  0.5648  0.0283  0.5750
 8204SOL    HW136245   3.562   4.123  13.999  0.1248 -0.7903 -1.0257
 8204SOL    HW236246   3.574   3.990  13.954 -1.4096  1.9928 -0.0166
 8205SOL     OW36247   1.622   4.324   4.699  0.3557  0.0390  0.2487
 8205SOL    HW136248   1.614   4.408   4.744 -2.1059 -0.5033  0.7958
 8205SOL    HW236249   1.626   4.269   4.777  1.3197  1.1656  0.9947
 8206SOL     OW36250   2.109   3.891   2.263 -0.2205 -0.0964  0.1799
 8206SOL    HW136251   2.143   3.806   2.293  1.4942 -0.0156 -1.4699
 8206SOL    HW236252   2.174   3.905   2.193 -1.3720 -0.3885 -0.9513
 8207SOL     OW36253   4.412   2.266   3.994  0.1846  0.4366 -0.0636
 8207SOL    HW136254   4.396   2.250   3.901 -0.2160  0.2059  0.0465
 8207SOL    HW236255   4.329   2.249   4.039 -1.0508  0.4801 -2.3653
 8208SOL     OW36256   2.334   2.940   5.713 -0.5922  0.0509  0.0942
 8208SOL    HW136257   2.387   2.875   5.668 -0.6105 -0.2328  0.4822
 8208SOL    HW236258   2.373   2.923   5.799  2.1935  0.2498 -1.1393
 8209SOL     OW36259   3.972   3.040   6.727 -0.0284 -0.0641  0.0737
 8209SOL    HW136260   3.944   2.959   6.769 -1.7117 -0.1997 -1.3088
 8209SOL    HW236261   4.007   3.012   6.643  1.7554  0.7705  0.5344
 8210SOL     OW36262   4.221   3.785   6.215 -0.5054  0.4084  0.2815
 8210SOL    HW136263   4.229   3.879   6.231 -0.9102  0.1961  1.7150
 8210SOL    HW236264   4.213   3.789   6.120  0.4412 -1.2937  0.1365
 8211SOL     OW36265   4.728   1.710  10.906  0.2683  0.7392 -0.2727
 8211SOL    HW136266   4.633   1.723  10.904  0.2905  0.8071 -0.8604
 8211SOL    HW236267   4.737   1.721  11.001  2.4450 -0.9420 -0.2719
 8212SOL     OW36268   1.658   0.160  15.325  0.0123  0.2005 -0.2475
 8212SOL    HW136269   1.629   0.072  15.301 -2.3383  1.0417 -0.4953
 8212SOL    HW236270   1.635   0.172  15.417  2.7739 -1.1582  0.6088
 8213SOL     OW36271   2.548   4.252   4.972  0.0109 -0.3386  0.2188
 8213SOL    HW136272   2.454   4.243   4.984 -0.5526  1.7833 -2.5280
 8213SOL    HW236273   2.565   4.345   4.989 -0.9034  0.0908 -1.1454
 8214SOL     OW36274   3.320   4.503  10.766 -0.4266 -0.0481 -0.4974
 8214SOL    HW136275   3.414   4.499  10.786 -0.6935 -2.4195  0.3060
 8214SOL    HW236276   3.330   4.597  10.754  0.2050 -0.3571 -2.3039
 8215SOL     OW36277   4.306   2.844   7.489 -0.4015 -0.7060  0.0157
 8215SOL    HW136278   4.386   2.809   7.450  0.0606 -0.5343  0.8209
 8215SOL    HW236279   4.304   2.928   7.445  0.7024 -0.6908  0.0083
 8216SOL     OW36280   0.135   3.329   6.977  0.2365  0.2293 -0.7243
 8216SOL    HW136281   0.178   3.411   7.001  3.0573 -1.5161  0.2841
 8216SOL    HW236282   0.124   3.354   6.886 -0.5149 -2.1478 -1.2808
 8217SOL     OW36283   3.390   1.109   5.362 -0.3519 -0.3760  0.5113
 8217SOL    HW136284   3.438   1.167   5.421  3.0761  0.4512 -3.1269
 8217SOL    HW236285   3.460   1.056   5.323 -0.7854  0.0456 -0.8454
 8218SOL     OW36286   1.030   3.886   6.269  0.4001 -0.3342 -0.6549
 8218SOL    HW136287   0.997   3.972   6.244  1.3757 -0.4236 -2.2564
 8218SOL    HW236288   0.950   3.835   6.256 -0.4473  0.7336  0.4093
 8219SOL     OW36289   1.350   3.977   1.256 -0.3702 -0.4839 -0.4512
 8219SOL    HW136290   1.363   3.905   1.317 -1.4096  0.3939  0.7953
 8219SOL    HW236291   1.255   3.976   1.247 -0.2464  3.3670 -2.6986
 8220SOL     OW36292   3.844   3.906   5.089 -0.0688 -0.1603 -0.5201
 8220SOL    HW136293   3.876   3.835   5.035  0.1731  0.1035 -0.7269
 8220SOL    HW236294   3.832   3.868   5.176  0.0777  0.3780 -0.2625
 8221SOL     OW36295   3.531   1.361   9.025 -0.3625 -0.1928 -0.5464
 8221SOL    HW136296   3.503   1.305   9.098 -1.2847  1.0144  0.0281
 8221SOL    HW236297   3.606   1.403   9.066 -1.5452  1.9906 -0.6367
 8222SOL     OW36298   0.551   1.947   4.602  0.4721 -0.2514  0.1936
 8222SOL    HW136299   0.631   1.948   4.655  1.2889  2.9462 -1.0652
 8222SOL    HW236300   0.587   1.920   4.518  0.3419  1.1336 -0.3117
 8223SOL     OW36301   2.209   2.269   9.222  0.1601 -0.4289  0.0243
 8223SOL    HW136302   2.194   2.293   9.314  1.5773  0.7508 -0.0506
 8223SOL    HW236303   2.304   2.258   9.219  0.3848  0.6940  2.6438
 8224SOL     OW36304   3.350   0.257   8.575 -0.1441  0.4109  0.4846
 8224SOL    HW136305   3.371   0.334   8.522 -4.3116  0.8400 -0.4986
 8224SOL    HW236306   3.364   0.292   8.663 -1.4363  0.7970  0.5350
 8225SOL     OW36307   3.527   3.112  16.840  0.8950 -0.7434 -0.3994
 8225SOL    HW136308   3.551   3.050  16.908 -1.7621 -3.1458 -1.6633
 8225SOL    HW236309   3.441   3.149  16.858  1.9816  1.0708  1.0807
 8226SOL     OW36310   2.558   2.678   0.433 -0.1539  0.1510 -0.1968
 8226SOL    HW136311   2.478   2.636   0.467  0.9005  0.1829  2.3193
 8226SOL    HW236312   2.548   2.763   0.475  1.1434 -0.8285  2.1300
 8227SOL     OW36313   3.782   2.991  16.001  1.0370  0.3925  0.4060
 8227SOL    HW136314   3.750   2.916  15.950 -0.9463  2.1335 -0.8891
 8227SOL    HW236315   3.846   3.031  15.942  1.6618 -2.5117 -0.9106
 8228SOL     OW36316   3.149   1.829   8.238 -0.2252 -0.0175  0.5688
 8228SOL    HW136317   3.202   1.847   8.315  0.1051 -0.2968  0.4052
 8228SOL    HW236318   3.204   1.765   8.193 -1.5901 -1.1974  0.5689
 8229SOL     OW36319   0.093   0.336   7.864  0.0458 -0.0759 -0.6757
 8229SOL    HW136320   0.134   0.356   7.780 -1.6843 -0.9643 -1.7381
 8229SOL    HW236321   0.170   0.346   7.920  0.9351  0.1088 -1.9424
 8230SOL     OW36322   0.901   3.406  10.523 -0.7271 -0.2118 -0.1640
 8230SOL    HW136323   0.894   3.319  10.483 -0.9152 -0.2651 -0.0124
 8230SOL    HW236324   0.858   3.465  10.461  1.0704  0.6658 -0.5689
 8231SOL     OW36325   3.714   1.766   3.552  0.0722  0.2252  0.2735
 8231SOL    HW136326   3.643   1.829   3.566 -1.2300 -1.2981  0.5728
 8231SOL    HW236327   3.684   1.732   3.467  0.4724 -1.0663  0.6539
 8232SOL     OW36328   1.178   1.285   4.254 -0.1307  0.1454 -0.4351
 8232SOL    HW136329   1.224   1.228   4.316  1.0617  1.3740 -0.1891
 8232SOL    HW236330   1.149   1.356   4.311 -0.9103 -0.9102  0.4758
 8233SOL     OW36331   0.967   2.071   8.977 -0.0296 -0.3432  0.5223
 8233SOL    HW136332   0.946   2.161   8.954  1.5904  0.5166  2.4084
 8233SOL    HW236333   0.908   2.024   8.918  0.0297 -2.5610  2.2213
 8234SOL     OW36334   0.013   0.964   2.691  0.7311  0.3256 -0.0323
 8234SOL    HW136335   4.668   0.934   2.663  1.2076  0.4948 -1.7000
 8234SOL    HW236336   0.069   0.893   2.661  0.8930 -0.0285  1.1554
 8235SOL     OW36337   4.581   4.491   2.143  0.1366 -0.0879  0.0370
 8235SOL    HW136338   4.667   4.451   2.151  0.6468  1.0246  0.0326
 8235SOL    HW236339   4.553   4.475   2.233  2.4874  1.3111  1.0120
 8236SOL     OW36340   0.918   4.429   3.451  0.3627 -0.0767  0.4566
 8236SOL    HW136341   0.996   4.410   3.504  0.7398  0.0139 -0.0650
 8236SOL    HW236342   0.871   4.494   3.504  0.7782  1.6295 -1.2631
 8237SOL     OW36343   2.225   2.711  16.900 -0.3147 -0.1184 -0.2445
 8237SOL    HW136344   2.263   2.798  16.885  0.3383 -0.6215 -1.5123
 8237SOL    HW236345   2.132   2.716  16.878 -0.6517 -1.3860  0.9117
 8238SOL     OW36346   1.589   2.053   4.815 -0.1189 -0.0555 -0.7651
 8238SOL    HW136347   1.636   2.100   4.884  0.4948 -0.8823 -0.6244
 8238SOL    HW236348   1.601   1.963   4.845  0.6660  0.6191  0.9594
 8239SOL     OW36349   4.529   1.305  17.470 -0.0996  0.1628 -0.2270
 8239SOL    HW136350   4.435   1.306  17.451 -0.1027  0.1487 -0.2131
 8239SOL    HW236351   4.558   1.325  17.382  1.5716 -2.0312 -0.1668
 8240SOL     OW36352   4.474   0.159   6.294  0.2738 -0.1483  0.4355
 8240SOL    HW136353   4.425   0.241   6.303  1.5763  0.6197  0.5650
 8240SOL    HW236354   4.464   0.121   6.381 -2.6935  1.6240  0.8635
 8241SOL     OW36355   0.373   3.313   2.131 -0.1613  0.3085  0.1730
 8241SOL    HW136356   0.282   3.312   2.160 -0.7257  1.3450 -1.5261
 8241SOL    HW236357   0.361   3.256   2.055 -0.8371 -0.4249  0.8301
 8242SOL     OW36358   3.704   3.493   3.525 -0.0901 -0.0272  0.2479
 8242SOL    HW136359   3.769   3.462   3.461  0.4784  1.8208 -0.0641
 8242SOL    HW236360   3.747   3.578   3.535  2.0245 -1.1728  1.0590
 8243SOL     OW36361   1.671   3.067  12.782 -0.1256 -0.2735 -0.3537
 8243SOL    HW136362   1.749   3.072  12.837 -1.9957 -0.8540  2.3971
 8243SOL    HW236363   1.707   3.025  12.705 -1.7174  1.5944 -2.1090
 8244SOL     OW36364   0.164   2.472  10.474  0.0097 -0.2861  0.9663
 8244SOL    HW136365   0.082   2.519  10.455  0.4092 -0.5760 -1.5291
 8244SOL    HW236366   0.136   2.450  10.562 -0.2154 -0.7689  0.7731
 8245SOL     OW36367   1.021   4.685   7.716  0.4289 -0.5892 -0.2644
 8245SOL    HW136368   1.094   4.629   7.740  2.6122  3.7992  3.3185
 8245SOL    HW236369   0.955   4.634   7.764  0.6262  0.0726  0.7025
 8246SOL     OW36370   0.493   4.497  11.038 -0.4541  0.0760 -0.2512
 8246SOL    HW136371   0.505   4.439  11.113  1.2476 -1.2639 -1.5575
 8246SOL    HW236372   0.578   4.496  10.993  0.0105 -0.9764  0.6491
 8247SOL     OW36373   3.995   3.525   6.423 -0.0293  0.1333 -0.5873
 8247SOL    HW136374   4.027   3.604   6.467  0.0423  0.6990 -1.6411
 8247SOL    HW236375   3.901   3.542   6.415 -0.4449 -1.5882  0.7030
 8248SOL     OW36376   4.690   2.089   9.338 -0.0586  0.3916 -0.0847
 8248SOL    HW136377   4.613   2.125   9.295 -1.3227 -0.4232  1.5086
 8248SOL    HW236378   4.651   2.072   9.424  1.9602 -0.7070  0.6122
 8249SOL     OW36379   1.370   2.744   3.552 -0.3513 -0.4042  0.3939
 8249SOL    HW136380   1.419   2.800   3.492 -0.9524 -1.0308 -0.6665
 8249SOL    HW236381   1.393   2.661   3.512  1.7833  0.9556 -1.2121
 8250SOL     OW36382   3.435   0.748   4.291  0.0313  0.3128 -0.2191
 8250SOL    HW136383   3.339   0.751   4.295  0.1268  1.4538  1.3995
 8250SOL    HW236384   3.442   0.664   4.336 -0.1798 -0.6635 -2.0433
 8251SOL     OW36385   0.135   2.608  11.288 -0.3622 -0.5571  0.4026
 8251SOL    HW136386   0.119   2.565  11.204  1.2751 -1.2023  0.4049
 8251SOL    HW236387   0.213   2.557  11.312  2.1781  4.4456  2.8232
 8252SOL     OW36388   4.036   2.657   5.357  0.5726 -0.6547  0.1247
 8252SOL    HW136389   4.074   2.740   5.385 -2.0793  1.3095 -2.1137
 8252SOL    HW236390   4.007   2.609   5.434  0.3584  1.0552  1.1016
 8253SOL     OW36391   1.039   1.401   8.896  0.3824 -0.4553 -0.4129
 8253SOL    HW136392   0.988   1.321   8.899  0.0211 -0.1048  2.8011
 8253SOL    HW236393   1.054   1.411   8.802 -0.8287  1.1391 -0.4292
 8254SOL     OW36394   4.618   3.677   7.988 -0.0198  0.1028 -0.4317
 8254SOL    HW136395   4.571   3.737   8.046  1.0270 -0.4251  0.9551
 8254SOL    HW236396   4.703   3.680   8.033 -1.1187 -1.1065  1.7106
 8255SOL     OW36397   0.706   2.837   5.251 -0.1831 -0.0709  0.0172
 8255SOL    HW136398   0.716   2.917   5.199  1.8924 -0.9448 -0.9282
 8255SOL    HW236399   0.789   2.794   5.231 -0.1268  0.5051 -0.9780
 8256SOL     OW36400   0.093   1.677  10.653  0.0122 -0.4072 -0.5245
 8256SOL    HW136401   0.002   1.670  10.626 -0.3016  0.1374  0.3967
 8256SOL    HW236402   0.083   1.715  10.740  0.1114 -0.5512 -0.4487
 8257SOL     OW36403   0.197   1.132  14.998 -0.6358 -0.0127  0.2215
 8257SOL    HW136404   0.280   1.173  15.021 -0.5198 -0.0426 -0.1455
 8257SOL    HW236405   0.176   1.180  14.918  0.7545 -0.4085 -0.3750
 8258SOL     OW36406   3.070   0.631   2.829  0.9918 -0.4592  0.2248
 8258SOL    HW136407   3.051   0.540   2.855  0.9592  0.0824  2.1521
 8258SOL    HW236408   2.993   0.661   2.781 -0.1911 -1.7202  1.3449
 8259SOL     OW36409   1.165   3.192  14.370  0.3886  0.1639 -0.5225
 8259SOL    HW136410   1.187   3.145  14.450  0.6332 -2.2936 -2.0367
 8259SOL    HW236411   1.134   3.115  14.322 -1.2831  1.2600 -1.2276
 8260SOL     OW36412   0.621   2.280   0.091 -0.8397 -0.3652 -1.0166
 8260SOL    HW136413   0.548   2.331   0.055 -0.7042 -0.7313 -1.8208
 8260SOL    HW236414   0.585   2.194   0.070  0.5300 -1.3892  0.9208
 8261SOL     OW36415   3.079   0.862   2.994  0.2721 -0.2693  0.0667
 8261SOL    HW136416   3.078   0.795   2.925 -1.5956 -0.4744  0.2983
 8261SOL    HW236417   3.158   0.835   3.040  1.0661  0.0396 -1.1137
 8262SOL     OW36418   0.316   2.344   4.679 -0.0850  0.0753  0.4228
 8262SOL    HW136419   0.373   2.331   4.755  0.1365  1.4674  0.5101
 8262SOL    HW236420   0.232   2.315   4.713 -0.5310 -0.0451 -0.7914
 8263SOL     OW36421   1.537   1.278   8.094  0.2291 -0.1595  0.4267
 8263SOL    HW136422   1.563   1.226   8.170 -0.8312 -0.4624  0.5933
 8263SOL    HW236423   1.564   1.367   8.117  2.2449 -0.3922 -1.1211
 8264SOL     OW36424   0.873   0.413  16.854  0.7695  0.2055 -0.1622
 8264SOL    HW136425   0.820   0.492  16.861 -0.9797 -0.8854 -1.1389
 8264SOL    HW236426   0.932   0.448  16.787  0.5575 -0.9163 -0.9304
 8265SOL     OW36427   2.422   0.629   4.469  0.1219 -0.4945  0.1335
 8265SOL    HW136428   2.395   0.620   4.377 -0.8629  1.8984  0.1950
 8265SOL    HW236429   2.387   0.549   4.507 -0.1274 -0.6472 -0.4169
 8266SOL     OW36430   1.005   3.188   7.313  0.4873 -0.1172  0.4119
 8266SOL    HW136431   1.088   3.152   7.282 -0.5586 -1.0896 -1.2365
 8266SOL    HW236432   0.973   3.118   7.369  1.3968 -0.0274  1.0504
 8267SOL     OW36433   1.862   0.374  10.890 -0.0233  0.1952 -0.6568
 8267SOL    HW136434   1.868   0.454  10.942  2.2061 -0.0245 -0.5692
 8267SOL    HW236435   1.865   0.312  10.963  1.5231  3.2322  1.8866
 8268SOL     OW36436   2.942   3.504   3.767  0.4426  0.3510 -0.8805
 8268SOL    HW136437   2.904   3.424   3.731  1.3253  0.1635 -1.3997
 8268SOL    HW236438   3.025   3.469   3.800 -0.2646 -0.5916 -0.1051
 8269SOL     OW36439   0.267   1.044   3.931 -0.4550 -0.1143 -0.4779
 8269SOL    HW136440   0.355   1.019   3.960 -0.7181  1.3180  1.5973
 8269SOL    HW236441   0.220   0.960   3.932  0.7251 -0.7688 -0.1770
 8270SOL     OW36442   0.118   2.384   7.689  0.6017  0.1830  0.0668
 8270SOL    HW136443   0.172   2.308   7.668  0.2021 -0.3711  1.0792
 8270SOL    HW236444   0.083   2.361   7.774  0.7055  1.5588  0.4846
 8271SOL     OW36445   1.520   0.905  10.489  0.1708  0.7899 -0.2758
 8271SOL    HW136446   1.613   0.898  10.469  0.1258  0.0597 -0.2400
 8271SOL    HW236447   1.519   0.951  10.573  2.4635 -1.6354  1.0747
 8272SOL     OW36448   1.084   1.934   8.016  0.1211 -0.4172 -0.3934
 8272SOL    HW136449   1.076   1.892   7.931 -1.1954 -3.5042  1.2522
 8272SOL    HW236450   1.124   1.867   8.073  1.8796  2.2421  1.4896
 8273SOL     OW36451   3.362   2.535  13.929 -0.3060  0.5259  0.2214
 8273SOL    HW136452   3.423   2.532  13.856 -0.4957 -0.8755  0.1321
 8273SOL    HW236453   3.412   2.501  14.004  1.1380  0.2622 -0.8788
 8274SOL     OW36454   2.363   1.562   5.342 -0.3427 -0.2970  0.2489
 8274SOL    HW136455   2.456   1.549   5.326 -0.3406 -1.0163  0.8392
 8274SOL    HW236456   2.365   1.657   5.326  0.1462 -0.1833  0.9716
 8275SOL     OW36457   4.729   0.111   7.025  0.6419  0.0827  0.1835
 8275SOL    HW136458   4.639   0.097   7.052  0.1284 -0.4887 -1.8210
 8275SOL    HW236459   0.006   0.021   6.997  0.5104  0.2249 -0.3658
 8276SOL     OW36460   2.257   2.311   7.274  0.1012  0.1212 -0.4627
 8276SOL    HW136461   2.247   2.268   7.189  1.7499 -2.2778  0.5316
 8276SOL    HW236462   2.332   2.268   7.315  1.0253  2.5867  0.3767
 8277SOL     OW36463   2.562   4.063   4.070 -0.1456  0.8614  0.1639
 8277SOL    HW136464   2.471   4.075   4.095 -1.1910 -0.4627 -2.9089
 8277SOL    HW236465   2.557   4.046   3.976  1.6372  0.9803  0.0393
 8278SOL     OW36466   2.048   2.517   7.323 -0.5083  0.4993  0.0966
 8278SOL    HW136467   2.068   2.540   7.233 -1.2611  1.5560  0.1947
 8278SOL    HW236468   2.123   2.459   7.336  0.2876  1.4517 -0.3169
 8279SOL     OW36469   2.249   0.784   7.100  0.3909  0.5953  0.2504
 8279SOL    HW136470   2.227   0.759   7.011  1.2515  0.7631 -0.0108
 8279SOL    HW236471   2.302   0.863   7.087 -0.4162  0.9434 -0.9088
 8280SOL     OW36472   2.737   4.716   3.149  0.0030  0.4832  0.7186
 8280SOL    HW136473   2.741   4.656   3.224  2.2355 -0.9202 -0.5536
 8280SOL    HW236474   2.645   4.737   3.169  0.2771 -0.3952  2.9336
 8281SOL     OW36475   3.818   4.212   1.392 -0.0816 -0.0322  0.4948
 8281SOL    HW136476   3.820   4.302   1.360 -1.5845  0.9033  3.0667
 8281SOL    HW236477   3.748   4.209   1.458  0.2329 -0.3722  0.8099
 8282SOL     OW36478   4.123   0.302  17.557  0.3760  0.4595  0.0134
 8282SOL    HW136479   4.180   0.367  17.598  0.1709  1.4475 -1.2986
 8282SOL    HW236480   4.178   0.272  17.485 -1.4336 -1.6212 -0.4863
 8283SOL     OW36481   3.442   0.181  17.471  0.0556 -0.1841 -0.1839
 8283SOL    HW136482   3.372   0.217  17.417 -1.0865  0.1004  1.4605
 8283SOL    HW236483   3.492   0.118  17.419 -1.9200 -1.7865 -0.1527
 8284SOL     OW36484   0.631   0.344   6.403 -0.6722  0.0215  0.0340
 8284SOL    HW136485   0.571   0.293   6.457 -0.7022 -1.3056 -1.2612
 8284SOL    HW236486   0.718   0.307   6.420 -0.6380 -0.7652 -1.7492
 8285SOL     OW36487   0.876   4.630   2.533  0.0410 -0.3335 -0.1814
 8285SOL    HW136488   0.926   4.705   2.502 -0.7611 -0.3955 -1.6470
 8285SOL    HW236489   0.944   4.563   2.534  0.5218  0.1500 -0.5806
 8286SOL     OW36490   1.760   4.657   5.965 -0.0582 -0.6208  0.1696
 8286SOL    HW136491   1.759   4.656   6.061  0.4245 -0.1359  0.1770
 8286SOL    HW236492   1.742   0.008   5.950  0.2599 -0.6620 -0.4727
 8287SOL     OW36493   0.372   0.411  13.521  0.2817 -0.0653 -0.1590
 8287SOL    HW136494   0.434   0.365  13.577  0.5606 -0.5156 -0.8425
 8287SOL    HW236495   0.387   0.362  13.440 -0.9675  2.2345 -1.7987
 8288SOL     OW36496   3.974   0.024   2.590 -0.0186 -0.2347 -0.5959
 8288SOL    HW136497   4.056   4.724   2.566  0.9130  1.4127 -0.2474
 8288SOL    HW236498   3.914   4.737   2.521 -2.1111  3.6014 -0.3964
 8289SOL     OW36499   2.326   2.761   2.896  0.2802 -0.2630 -0.1521
 8289SOL    HW136500   2.288   2.844   2.866  0.5276 -0.0461  0.1352
 8289SOL    HW236501   2.410   2.798   2.925  1.2294 -1.2130 -1.6486
 8290SOL     OW36502   2.166   4.068   3.639  0.4370  0.1464 -0.0580
 8290SOL    HW136503   2.238   4.021   3.598  0.1652  1.0486 -1.5698
 8290SOL    HW236504   2.108   3.999   3.672  1.1818 -0.1121  0.7270
 8291SOL     OW36505   2.803   0.211   7.620  0.4830 -0.7240 -0.0841
 8291SOL    HW136506   2.764   0.291   7.584 -0.2636 -0.4118  1.4359
 8291SOL    HW236507   2.897   0.224   7.630  0.3444 -1.1307  1.7043
 8292SOL     OW36508   1.749   0.422  16.943 -0.2180 -0.0498 -0.0465
 8292SOL    HW136509   1.780   0.469  17.020  1.3982  0.2596 -0.8667
 8292SOL    HW236510   1.665   0.392  16.978  0.5015  0.3118  1.9904
 8293SOL     OW36511   4.225   1.270  17.723 -0.1120 -0.3004 -0.1968
 8293SOL    HW136512   4.205   1.337   0.024  0.2266  0.6427 -1.0658
 8293SOL    HW236513   4.316   1.246  17.739 -0.5983 -1.9138  0.1079
 8294SOL     OW36514   0.938   2.840   0.856  0.5245 -0.0213  0.6127
 8294SOL    HW136515   0.898   2.794   0.782  1.2181 -0.0511  0.2620
 8294SOL    HW236516   1.013   2.788   0.883  0.7381 -1.9829 -3.6426
 8295SOL     OW36517   3.916   4.035   6.405 -0.1460 -0.0746  0.3492
 8295SOL    HW136518   3.949   4.122   6.425  0.1815  0.0636 -0.8194
 8295SOL    HW236519   3.829   4.037   6.445 -0.5234  1.6800 -0.5942
 8296SOL     OW36520   2.104   0.634   3.664 -0.5063 -0.4964  0.4499
 8296SOL    HW136521   2.031   0.647   3.604  0.2630  0.3669 -0.2932
 8296SOL    HW236522   2.103   0.721   3.703  1.0806 -0.1608 -0.2334
 8297SOL     OW36523   3.614   1.027  14.704 -0.1852 -0.3034  0.5010
 8297SOL    HW136524   3.625   1.120  14.682 -4.2021 -0.0306 -0.4713
 8297SOL    HW236525   3.521   1.023  14.726  0.2033  1.4655  2.3876
 8298SOL     OW36526   3.928   0.299   2.992  0.1970 -1.1163 -0.4085
 8298SOL    HW136527   3.852   0.333   3.040  1.1924  0.3185  0.1388
 8298SOL    HW236528   3.893   0.217   2.956 -1.0351  0.0196 -1.7985
 8299SOL     OW36529   3.030   1.233   4.349 -0.0185  0.5674 -0.6019
 8299SOL    HW136530   2.958   1.171   4.331 -0.5104  0.9813 -0.0641
 8299SOL    HW236531   3.098   1.206   4.288 -1.0580 -1.4170 -0.9080
 8300SOL     OW36532   2.385   0.680   8.368  0.4967 -0.2378 -0.2376
 8300SOL    HW136533   2.335   0.750   8.327 -0.7063 -1.1900 -0.3960
 8300SOL    HW236534   2.477   0.706   8.360 -0.6921  4.0927  0.1398
 8301SOL     OW36535   3.694   1.415  12.410  0.9015 -0.3034 -0.0372
 8301SOL    HW136536   3.687   1.372  12.325  2.7671 -0.6825 -0.0066
 8301SOL    HW236537   3.606   1.448  12.425  0.8126 -1.0211  0.9989
 8302SOL     OW36538   1.545   3.717   2.428 -0.0054  0.3045  0.6101
 8302SOL    HW136539   1.533   3.640   2.482  0.9194  0.1547  0.5999
 8302SOL    HW236540   1.631   3.742   2.462 -0.0028  1.0641  0.0696
 8303SOL     OW36541   4.002   2.878   6.246 -0.4993  0.3051  0.5450
 8303SOL    HW136542   4.028   2.930   6.322  0.3924 -1.5911  1.5426
 8303SOL    HW236543   3.992   2.954   6.189 -0.7602 -0.4961 -0.4793
 8304SOL     OW36544   2.333   4.567  16.673  0.0208  0.1694  0.2094
 8304SOL    HW136545   2.273   4.528  16.610  0.6102  0.8885 -0.7926
 8304SOL    HW236546   2.368   4.641  16.625  0.1175 -1.7050 -2.5787
 8305SOL     OW36547   4.370   0.844   7.512 -0.0987  0.5470 -0.0336
 8305SOL    HW136548   4.351   0.927   7.469 -2.8853  1.2116  2.4805
 8305SOL    HW236549   4.299   0.788   7.479  2.0558 -1.3783 -1.3771
 8306SOL     OW36550   1.189   3.365   3.832 -0.6763 -0.3796 -0.2061
 8306SOL    HW136551   1.199   3.426   3.759 -0.6947 -0.4902 -0.3009
 8306SOL    HW236552   1.157   3.284   3.793  1.9897 -0.3799 -2.4219
 8307SOL     OW36553   3.116   0.766  15.034 -0.2534  0.4869  0.6899
 8307SOL    HW136554   3.043   0.770  14.972 -1.1112  1.1814  1.7439
 8307SOL    HW236555   3.077   0.799  15.115 -0.5484  1.0746  0.3064
 8308SOL     OW36556   0.318   1.580   2.818 -0.1968 -0.2283 -0.1561
 8308SOL    HW136557   0.348   1.602   2.730 -1.7355  1.0307 -0.3638
 8308SOL    HW236558   0.223   1.589   2.807 -0.0692 -0.2234 -1.2398
 8309SOL     OW36559   0.231   3.195   0.484 -0.0213 -0.1983 -0.1087
 8309SOL    HW136560   0.151   3.149   0.509 -0.2843  0.8709  0.9885
 8309SOL    HW236561   0.245   3.174   0.391 -0.2706 -0.3180 -0.1198
 8310SOL     OW36562   4.735   4.663   3.704  0.3177  0.7974  0.3620
 8310SOL    HW136563   4.728   4.637   3.612 -0.6878 -0.7683  0.8861
 8310SOL    HW236564   0.071   4.612   3.727 -1.2683 -1.5143  0.5715
 8311SOL     OW36565   4.627   2.910  11.025 -0.5202 -0.0011 -0.2723
 8311SOL    HW136566   4.542   2.948  11.047 -0.2407  0.6811 -0.3636
 8311SOL    HW236567   4.613   2.816  11.011 -0.0417 -0.1244  0.0519
 8312SOL     OW36568   3.293   1.290   2.197  0.3321 -0.6365 -0.3465
 8312SOL    HW136569   3.254   1.270   2.112  0.4850 -1.6390 -0.1787
 8312SOL    HW236570   3.276   1.383   2.214 -1.2033 -1.2447  1.4192
 8313SOL     OW36571   0.491   0.925   4.604 -0.0066 -0.5240 -1.1065
 8313SOL    HW136572   0.417   0.985   4.615 -0.0892 -0.4910 -1.8065
 8313SOL    HW236573   0.555   0.975   4.655  2.3565 -3.1149 -1.5290
 8314SOL     OW36574   3.017   1.299   5.116 -0.7067  0.0428  0.5451
 8314SOL    HW136575   2.985   1.349   5.040 -0.5505  0.7593  0.9492
 8314SOL    HW236576   3.102   1.342   5.122 -0.3830 -0.6516  0.8409
 8315SOL     OW36577   4.070   0.351  14.822 -0.1013 -0.0748  0.0510
 8315SOL    HW136578   4.063   0.412  14.894  2.8654  0.4347 -0.1185
 8315SOL    HW236579   4.112   0.407  14.757  1.9854  1.2451  2.5748
 8316SOL     OW36580   4.303   0.367   6.306  0.0407  0.5546  0.6521
 8316SOL    HW136581   4.337   0.421   6.235 -0.9992  0.3630  0.0121
 8316SOL    HW236582   4.269   0.433   6.366 -2.0120 -0.7608  0.9376
 8317SOL     OW36583   2.412   3.680   1.007 -0.0034 -0.3969  0.0832
 8317SOL    HW136584   2.505   3.661   1.001 -0.1837 -0.9618 -0.8896
 8317SOL    HW236585   2.409   3.731   1.088  2.8708  1.4333 -0.9632
 8318SOL     OW36586   1.008   0.269   4.281 -0.0617 -0.4163 -0.7262
 8318SOL    HW136587   1.096   0.278   4.319  0.7837 -1.7867 -2.3513
 8318SOL    HW236588   0.949   0.229   4.345 -1.8249  0.4247 -1.8406
 8319SOL     OW36589   4.044   0.251   6.553  0.6976 -0.5643  0.5828
 8319SOL    HW136590   4.020   0.228   6.643 -0.3800 -2.1758 -0.1225
 8319SOL    HW236591   4.101   0.328   6.554 -0.9546  0.6385  2.7197
 8320SOL     OW36592   1.414   1.494   5.981  0.2503 -0.0862  0.0476
 8320SOL    HW136593   1.357   1.497   6.057 -3.4800  2.1849 -2.8102
 8320SOL    HW236594   1.397   1.581   5.945 -0.5381  0.0119  0.6509
 8321SOL     OW36595   3.436   4.557   5.990  0.3333 -0.1815  0.4968
 8321SOL    HW136596   3.449   4.513   6.073 -0.8526  0.5955  1.0995
 8321SOL    HW236597   3.502   4.626   5.989 -1.6296  1.7199 -0.0125
 8322SOL     OW36598   0.988   2.040   4.516  0.1154 -0.2796 -0.0723
 8322SOL    HW136599   1.001   2.134   4.511 -1.3903 -0.1949 -2.4352
 8322SOL    HW236600   1.018   2.028   4.606 -1.2466 -0.1495  0.3967
 8323SOL     OW36601   2.617   2.738   3.970  0.6158 -0.0855 -0.2704
 8323SOL    HW136602   2.656   2.738   3.883 -0.4908  2.5279 -0.7785
 8323SOL    HW236603   2.589   2.826   3.998  0.0465 -0.0507 -0.9625
 8324SOL     OW36604   4.510   4.578   7.097 -0.1625  0.0776  0.0093
 8324SOL    HW136605   4.445   4.639   7.133  1.2297  1.7812 -0.3810
 8324SOL    HW236606   4.566   4.560   7.173  0.5340  2.0247 -0.0630
 8325SOL     OW36607   2.393   3.154   7.284  0.9521 -0.5742  0.8977
 8325SOL    HW136608   2.309   3.196   7.303  0.6192  0.5034 -2.8573
 8325SOL    HW236609   2.420   3.136   7.374 -0.6849  1.6873  1.8402
 8326SOL     OW36610   3.330   3.360   9.105  0.5293  0.2495 -0.0384
 8326SOL    HW136611   3.292   3.274   9.089  1.5143 -0.1835 -0.0660
 8326SOL    HW236612   3.369   3.383   9.020 -0.6878 -1.2498 -0.9887
 8327SOL     OW36613   0.222   0.331   2.944 -0.1137 -0.5946 -0.7812
 8327SOL    HW136614   0.303   0.316   2.992 -2.6673 -1.7545  3.1522
 8327SOL    HW236615   0.154   0.348   3.009 -0.8360 -1.0212 -1.4220
 8328SOL     OW36616   4.064   0.416   2.299  0.3124  0.0316  0.6012
 8328SOL    HW136617   4.077   0.403   2.393 -0.6863  0.6639  0.8236
 8328SOL    HW236618   4.063   0.328   2.262 -1.3497  0.3535 -0.1053
 8329SOL     OW36619   2.479   1.829   0.838 -0.1199 -0.3737  0.2512
 8329SOL    HW136620   2.500   1.843   0.930 -0.4634  1.2781  0.0793
 8329SOL    HW236621   2.421   1.756   0.855 -0.5640  0.4066  2.1006
 8330SOL     OW36622   2.738   1.749   6.631 -0.0390  0.5320 -0.2563
 8330SOL    HW136623   2.827   1.714   6.624 -0.2967 -0.2010  0.1210
 8330SOL    HW236624   2.708   1.688   6.698  1.5886  2.2577  1.9880
 8331SOL     OW36625   0.873   1.060  10.990 -0.1653 -0.3773 -0.1891
 8331SOL    HW136626   0.962   1.074  11.024 -0.9778 -0.0276  1.7530
 8331SOL    HW236627   0.872   1.111  10.909 -1.6045 -0.7285 -0.3837
 8332SOL     OW36628   3.333   4.578   7.353 -0.1304 -0.0329 -0.5097
 8332SOL    HW136629   3.337   4.509   7.286 -0.3673  0.6159 -1.1998
 8332SOL    HW236630   3.423   4.592   7.382  0.2120  2.5299 -2.7614
 8333SOL     OW36631   3.831   1.099   5.567  0.6447  0.2836  0.2758
 8333SOL    HW136632   3.809   1.016   5.609 -0.9648  0.7956  0.4391
 8333SOL    HW236633   3.819   1.154   5.644  0.1440  0.1366  0.3022
 8334SOL     OW36634   4.107   1.839  16.002 -0.3761  0.4147  0.4390
 8334SOL    HW136635   4.143   1.828  15.914 -3.4220  0.4955 -0.7936
 8334SOL    HW236636   4.052   1.763  16.018  0.8512 -0.7907 -1.0227
 8335SOL     OW36637   3.813   4.452   7.579 -0.4954 -0.5320  0.0005
 8335SOL    HW136638   3.894   4.466   7.531  0.0958 -1.5333  0.7086
 8335SOL    HW236639   3.809   4.524   7.642  0.7553 -0.4504 -0.0221
 8336SOL     OW36640   1.348   3.901  13.065  0.1097 -0.9473 -0.3673
 8336SOL    HW136641   1.436   3.867  13.048  0.3784 -0.0180 -0.8024
 8336SOL    HW236642   1.363   3.953  13.144 -0.3833 -0.4281 -0.6204
 8337SOL     OW36643   1.746   2.150   6.586 -0.3067  1.0072 -0.8206
 8337SOL    HW136644   1.756   2.222   6.649  0.1382 -1.0104  1.4302
 8337SOL    HW236645   1.740   2.197   6.503  0.5477 -0.4194 -1.6819
 8338SOL     OW36646   1.200   3.542  13.011 -0.1565  1.0009 -0.0839
 8338SOL    HW136647   1.279   3.490  12.998 -1.0267 -0.4972  0.6457
 8338SOL    HW236648   1.152   3.484  13.070 -0.6275  2.1959  0.7256
 8339SOL     OW36649   1.886   4.381  11.530  0.1011 -0.1057  0.2525
 8339SOL    HW136650   1.871   4.353  11.440  0.3885 -1.1943  0.5414
 8339SOL    HW236651   1.887   4.476  11.523  2.9314 -0.3083 -1.9123
 8340SOL     OW36652   1.017   1.813  12.932  0.0831 -0.3701  0.0009
 8340SOL    HW136653   1.081   1.852  12.992  0.7169  1.0116 -1.5652
 8340SOL    HW236654   1.037   1.719  12.935 -0.6836 -0.5254  0.0562
 8341SOL     OW36655   1.733   0.739   9.996 -0.8804  0.0724 -0.5735
 8341SOL    HW136656   1.647   0.716   9.959  0.1583 -1.7590 -1.8665
 8341SOL    HW236657   1.711   0.825  10.030 -2.7359 -0.7572  0.3296
 8342SOL     OW36658   4.623   2.165   6.763  0.7730 -0.0269 -0.0017
 8342SOL    HW136659   4.535   2.195   6.788  0.7095 -0.7815  0.6762
 8342SOL    HW236660   4.597   2.081   6.727  1.6240  0.0563 -0.8102
 8343SOL     OW36661   3.778   0.487   1.856  0.4311  0.8103 -0.9970
 8343SOL    HW136662   3.861   0.449   1.828 -0.3194 -0.2216 -1.8026
 8343SOL    HW236663   3.769   0.446   1.941 -0.9630  1.3222 -0.9003
 8344SOL     OW36664   2.387   2.506  10.081 -0.1367  0.6090  0.3732
 8344SOL    HW136665   2.317   2.475  10.024  1.3813  1.1383 -1.8266
 8344SOL    HW236666   2.445   2.560  10.026 -1.0897  0.8116 -0.4296
 8345SOL     OW36667   1.803   1.638   4.233 -0.1307 -0.2370  0.1556
 8345SOL    HW136668   1.883   1.676   4.269 -0.4666 -0.6689  1.3535
 8345SOL    HW236669   1.795   1.698   4.159  1.5020 -1.8446 -1.3594
 8346SOL     OW36670   3.331   4.390   2.592  0.4414  0.3566 -0.2676
 8346SOL    HW136671   3.266   4.455   2.567  0.2671  0.7249  1.1775
 8346SOL    HW236672   3.358   4.432   2.674 -0.0288 -2.0784  1.1209
 8347SOL     OW36673   4.392   3.887   1.071 -0.0763 -0.5542  0.3855
 8347SOL    HW136674   4.448   3.838   1.010  0.8172  2.1143 -0.9379
 8347SOL    HW236675   4.307   3.846   1.056 -0.1974 -0.4221  0.7040
 8348SOL     OW36676   0.162   1.381   6.287  0.2447 -0.4420 -0.1410
 8348SOL    HW136677   0.110   1.326   6.228 -1.2405 -2.0942  2.6965
 8348SOL    HW236678   0.167   1.316   6.357  1.7557 -0.4284 -0.2478
 8349SOL     OW36679   1.754   4.037   9.418  0.0884 -0.4390  0.2563
 8349SOL    HW136680   1.701   3.972   9.371 -0.9247  0.3487  0.3032
 8349SOL    HW236681   1.788   3.982   9.489 -0.1017 -2.9564 -1.5892
 8350SOL     OW36682   4.477   2.056   2.389 -0.0853  0.3625  0.9703
 8350SOL    HW136683   4.498   2.149   2.376 -0.1913  0.5654  2.3245
 8350SOL    HW236684   4.408   2.056   2.323  0.9022  2.0491 -0.0914
 8351SOL     OW36685   3.099   1.599  16.725 -0.0589 -0.3930 -0.2031
 8351SOL    HW136686   3.164   1.663  16.697  0.7022 -0.7948  0.6661
 8351SOL    HW236687   3.017   1.628  16.684 -0.5050  1.0572  1.6651
 8352SOL     OW36688   2.101   4.582   5.510 -0.5917  0.0285  0.0919
 8352SOL    HW136689   2.187   4.551   5.481  0.4164  2.5064  0.4407
 8352SOL    HW236690   2.048   4.504   5.497  1.1086 -1.1876  0.4279
 8353SOL     OW36691   3.707   1.480   2.674  0.5618 -0.1085  0.3934
 8353SOL    HW136692   3.631   1.534   2.696  0.3554  0.1468 -0.9761
 8353SOL    HW236693   3.675   1.393   2.701 -1.3592  0.4158 -0.1559
 8354SOL     OW36694   0.907   0.348   0.939 -0.1700  0.4963  0.4799
 8354SOL    HW136695   0.890   0.405   1.014 -0.5324  1.4940 -0.3635
 8354SOL    HW236696   1.001   0.365   0.931  0.0833 -1.3242 -0.5372
 8355SOL     OW36697   3.476   2.193   2.066 -0.5779 -0.4802  0.0935
 8355SOL    HW136698   3.403   2.157   2.017 -0.6524 -1.6570  1.0736
 8355SOL    HW236699   3.543   2.169   2.002 -0.6027  1.4172 -0.6697
 8356SOL     OW36700   3.428   0.621  17.594  0.1188  0.3133 -0.0099
 8356SOL    HW136701   3.480   0.697  17.621 -1.7195  0.7527  2.3291
 8356SOL    HW236702   3.499   0.560  17.575 -0.9886 -0.3280 -2.1009
 8357SOL     OW36703   2.331   0.587   7.530 -0.5452 -0.3296  0.2326
 8357SOL    HW136704   2.290   0.660   7.483 -2.7960 -2.2903 -0.8639
 8357SOL    HW236705   2.354   0.623   7.616  0.8051  1.2427 -0.7970
 8358SOL     OW36706   0.230   1.719   6.373  1.0773  0.1579 -0.5891
 8358SOL    HW136707   0.252   1.686   6.460  0.7417 -0.5816 -0.7846
 8358SOL    HW236708   0.291   1.793   6.371  0.8011  0.3019 -2.9753
 8359SOL     OW36709   0.099   1.890   7.152  0.7214 -0.3479 -0.2450
 8359SOL    HW136710   0.108   1.797   7.131  2.2965 -0.2442  0.0204
 8359SOL    HW236711   0.067   1.899   7.242 -0.9356 -0.6922 -0.7951
 8360SOL     OW36712   4.704   1.867   8.674  0.2031 -0.0207 -0.3510
 8360SOL    HW136713   0.001   1.834   8.593 -0.2574  0.6576 -0.8463
 8360SOL    HW236714   4.739   1.799   8.731  2.5872  0.4126 -1.2890
 8361SOL     OW36715   2.153   4.198   8.190  0.5076  0.2256  0.4914
 8361SOL    HW136716   2.105   4.116   8.197  1.5305 -0.4390 -0.1860
 8361SOL    HW236717   2.235   4.164   8.154  1.2797 -1.8259  4.2685
 8362SOL     OW36718   1.714   1.714  12.879 -0.2063 -0.5567  0.4786
 8362SOL    HW136719   1.722   1.789  12.820  1.1394 -0.0830  1.2569
 8362SOL    HW236720   1.720   1.649  12.809  0.2463 -0.5864  0.5437
 8363SOL     OW36721   0.773   3.157  15.007  0.3594  0.1461  0.0506
 8363SOL    HW136722   0.848   3.192  15.056 -0.0407  0.2169  0.6246
 8363SOL    HW236723   0.755   3.073  15.050 -0.5908  0.6039  0.5657
 8364SOL     OW36724   0.181   0.206   2.182  0.2869  0.0651 -0.2246
 8364SOL    HW136725   0.228   0.283   2.152 -1.2189  0.7182 -0.8809
 8364SOL    HW236726   0.179   0.218   2.277  0.4353 -0.2514 -0.1829
 8365SOL     OW36727   3.790   3.853   2.088  0.0565 -0.0431 -0.1088
 8365SOL    HW136728   3.738   3.917   2.136 -0.6967 -0.7189 -0.0180
 8365SOL    HW236729   3.881   3.870   2.113  0.6163 -0.0042 -2.1284
 8366SOL     OW36730   2.004   2.797   4.317  0.0019  0.0073  0.3574
 8366SOL    HW136731   2.011   2.868   4.381  1.7756 -0.8231  1.0982
 8366SOL    HW236732   1.959   2.837   4.243 -3.8362 -0.3780  2.4559
 8367SOL     OW36733   2.472   4.263  12.203  0.0679 -0.3274 -0.7048
 8367SOL    HW136734   2.431   4.180  12.178  2.6611 -0.9476 -2.8916
 8367SOL    HW236735   2.512   4.286  12.119  0.5833  1.0957 -0.0702
 8368SOL     OW36736   2.881   4.613   9.563  0.2687 -0.1281  0.3708
 8368SOL    HW136737   2.959   4.583   9.609  2.2549  2.8249 -1.1058
 8368SOL    HW236738   2.884   4.706   9.584 -0.0753 -0.0224 -0.0491
 8369SOL     OW36739   4.705   3.436   3.710  0.3285  0.0381 -0.1212
 8369SOL    HW136740   4.740   3.348   3.698  1.1832  0.0916  1.9683
 8369SOL    HW236741   0.041   3.486   3.683  0.1025  1.9905  2.9409
 8370SOL     OW36742   2.485   2.536   5.710 -0.6356  0.0017 -0.7890
 8370SOL    HW136743   2.438   2.539   5.793  1.1909 -0.2104  0.2708
 8370SOL    HW236744   2.568   2.558   5.753 -1.4556 -0.2814  0.9237
 8371SOL     OW36745   0.672   2.036   5.629 -0.1565  0.1939 -0.2785
 8371SOL    HW136746   0.599   1.982   5.658  0.6327 -0.7477 -0.0233
 8371SOL    HW236747   0.662   2.032   5.534 -0.4016 -0.1690 -0.2370
 8372SOL     OW36748   2.011   0.092   6.797 -0.7165 -0.4709 -0.3206
 8372SOL    HW136749   2.082   0.135   6.750 -1.0349  1.5974  1.1197
 8372SOL    HW236750   2.021   0.130   6.884  0.9449 -0.5417 -0.4801
 8373SOL     OW36751   1.297   2.060   6.916 -0.2572  0.2627  0.5122
 8373SOL    HW136752   1.285   2.039   6.824  0.4131  2.9467 -0.1908
 8373SOL    HW236753   1.283   2.155   6.911  2.4316  0.6889  0.6345
 8374SOL     OW36754   3.466   2.736   8.680 -0.0383 -0.5357  0.4917
 8374SOL    HW136755   3.509   2.819   8.658 -0.3560 -0.7652 -0.9885
 8374SOL    HW236756   3.378   2.758   8.651  0.6688  0.6440 -0.7368
 8375SOL     OW36757   1.695   4.146   2.286 -0.4806  0.1505  0.1036
 8375SOL    HW136758   1.675   4.236   2.312  1.6292  0.7090 -0.2525
 8375SOL    HW236759   1.631   4.095   2.335 -0.7280 -0.3832 -0.7781
 8376SOL     OW36760   3.286   2.943  12.252  0.1392 -0.6012  0.7764
 8376SOL    HW136761   3.266   2.891  12.329 -1.9515  1.7250  1.8235
 8376SOL    HW236762   3.381   2.946  12.254  0.1389  0.7000 -0.9481
 8377SOL     OW36763   3.644   2.719   6.647 -0.5920  0.4906  0.4091
 8377SOL    HW136764   3.682   2.806   6.659  2.8204 -1.0114  0.5804
 8377SOL    HW236765   3.651   2.683   6.736  0.6159 -0.7878 -0.2038
 8378SOL     OW36766   4.035   0.725   2.524  0.2149  0.0377  0.7641
 8378SOL    HW136767   4.036   0.633   2.549 -1.0339  0.2152  1.4886
 8378SOL    HW236768   3.944   0.744   2.550  0.3449  0.1744  1.1086
 8379SOL     OW36769   0.089   2.266   3.947 -0.7059 -0.2416  0.4617
 8379SOL    HW136770   0.034   2.207   3.998  0.1546  0.7941  2.5407
 8379SOL    HW236771   0.157   2.292   4.008  0.4203  0.1874 -0.9800
 8380SOL     OW36772   4.519   3.862   8.411 -0.5101  0.1225  0.5356
 8380SOL    HW136773   4.427   3.849   8.435 -0.6788  0.6837  0.1881
 8380SOL    HW236774   4.554   3.779   8.443 -0.3284  0.1767  0.4767
 8381SOL     OW36775   2.988   0.165   8.115 -0.2283  0.0929  0.0188
 8381SOL    HW136776   2.907   0.175   8.065 -1.5093 -2.5816  1.5577
 8381SOL    HW236777   3.045   0.119   8.054 -1.3041 -1.4798  0.2072
 8382SOL     OW36778   2.798   2.377   5.906 -0.0362  0.1673  0.2888
 8382SOL    HW136779   2.785   2.471   5.894 -1.1717 -0.2748 -1.8800
 8382SOL    HW236780   2.725   2.342   5.856 -0.6920 -0.4073  1.6430
 8383SOL     OW36781   3.217   3.385   5.636  0.4869 -0.0703 -0.8022
 8383SOL    HW136782   3.192   3.303   5.593 -0.1854 -0.0168 -0.5136
 8383SOL    HW236783   3.310   3.369   5.652  0.3285  0.0311  0.2329
 8384SOL     OW36784   4.680   0.527   3.564 -0.4453 -0.2700  0.1804
 8384SOL    HW136785   4.591   0.504   3.588 -0.6144  1.0178  0.7650
 8384SOL    HW236786   4.694   0.456   3.502  2.9281  0.7792 -0.2772
 8385SOL     OW36787   4.423   0.929   8.641  0.3188  0.6117 -0.0644
 8385SOL    HW136788   4.398   0.882   8.561  1.0079  2.7324 -1.5505
 8385SOL    HW236789   4.407   0.860   8.705  2.1030 -1.7753 -2.1914
 8386SOL     OW36790   0.913   3.819   7.249  0.0990  0.4466 -0.6314
 8386SOL    HW136791   1.005   3.794   7.247  0.3182  1.1306  1.2053
 8386SOL    HW236792   0.872   3.741   7.211  1.2917 -0.6534  0.3075
 8387SOL     OW36793   3.294   3.043   0.941 -0.5131  0.7551 -0.3484
 8387SOL    HW136794   3.247   2.961   0.924  1.6356 -0.4074 -0.6760
 8387SOL    HW236795   3.348   3.052   0.863 -0.0028 -1.9238 -0.3125
 8388SOL     OW36796   1.527   0.685   6.021  0.6262  0.2207 -0.0198
 8388SOL    HW136797   1.524   0.657   6.113 -1.5343  1.4344  0.2753
 8388SOL    HW236798   1.616   0.658   5.997  0.5534  0.0589 -0.1082
 8389SOL     OW36799   4.314   1.329  15.616  0.0343  0.4336  0.2927
 8389SOL    HW136800   4.252   1.289  15.555 -0.5137  1.5606  0.1134
 8389SOL    HW236801   4.400   1.306  15.580 -0.0635  0.4214  0.0606
 8390SOL     OW36802   1.334   3.237   2.681  0.3590 -0.2845  0.0717
 8390SOL    HW136803   1.241   3.236   2.657 -0.0797  0.6023  1.7458
 8390SOL    HW236804   1.363   3.300   2.615 -0.0456  2.2136  2.2608
 8391SOL     OW36805   2.935   3.508   9.413  1.0031  0.3086  0.0394
 8391SOL    HW136806   3.001   3.456   9.460  0.9141 -1.1246 -1.3871
 8391SOL    HW236807   2.970   3.518   9.325  2.0284 -1.5522  0.2128
 8392SOL     OW36808   4.075   1.513  17.355 -0.1223  0.1647 -0.1337
 8392SOL    HW136809   4.061   1.573  17.281 -0.1336  0.4096  0.0674
 8392SOL    HW236810   4.028   1.548  17.431 -1.2785  0.3600 -0.9413
 8393SOL     OW36811   1.702   1.407  16.128 -0.0226  0.3769 -0.6584
 8393SOL    HW136812   1.650   1.411  16.047 -1.3736 -3.2705  0.0193
 8393SOL    HW236813   1.672   1.328  16.172 -0.6519  0.1124 -1.5655
 8394SOL     OW36814   2.819   3.843   1.378  0.1917  0.2263  0.0605
 8394SOL    HW136815   2.859   3.848   1.291 -0.4649  1.9067 -0.1503
 8394SOL    HW236816   2.732   3.822   1.345 -0.2843  0.0465  1.4549
 8395SOL     OW36817   4.721   3.130   5.111 -0.0192 -0.1238 -0.0876
 8395SOL    HW136818   0.028   3.173   5.041  0.4580 -0.3958  0.0816
 8395SOL    HW236819   4.629   3.153   5.094  0.0433  0.6673  0.6503
 8396SOL     OW36820   0.337   3.731   2.971 -0.2758  0.3914 -0.0367
 8396SOL    HW136821   0.371   3.739   2.882 -1.4775 -1.3176 -0.6419
 8396SOL    HW236822   0.417   3.734   3.023  0.7609 -1.7867 -1.5201
 8397SOL     OW36823   0.345   1.921   0.563  0.4582 -0.2617 -0.2743
 8397SOL    HW136824   0.316   2.007   0.594  0.6915 -0.9962  2.0108
 8397SOL    HW236825   0.407   1.902   0.633 -0.5170 -1.6553  0.2101
 8398SOL     OW36826   0.354   4.623   6.242  0.2112  0.1035  0.1477
 8398SOL    HW136827   0.325   4.649   6.155  3.0210  0.8485 -0.5856
 8398SOL    HW236828   0.354   4.529   6.221 -3.3542 -0.1260  1.3389
 8399SOL     OW36829   2.597   0.434   9.117  0.5269  0.1976  0.0636
 8399SOL    HW136830   2.616   0.345   9.089 -0.1519 -0.6432  2.2965
 8399SOL    HW236831   2.549   0.471   9.043 -0.9406  2.0582  1.9192
 8400SOL     OW36832   4.347   4.502   1.989  0.5298  0.2584 -0.2327
 8400SOL    HW136833   4.357   4.453   1.907  2.3140  0.0284  0.1264
 8400SOL    HW236834   4.413   4.461   2.044  0.3819  0.7262  0.2878
 8401SOL     OW36835   1.466   2.661   3.025  0.5594 -0.4137  0.2202
 8401SOL    HW136836   1.454   2.722   2.953 -1.2475 -1.2694 -0.1981
 8401SOL    HW236837   1.562   2.657   3.026  0.4841 -1.9758  2.0468
 8402SOL     OW36838   2.358   1.776   2.251 -0.0953  0.7927 -0.7511
 8402SOL    HW136839   2.304   1.797   2.327 -1.3171  1.0478 -1.6803
 8402SOL    HW236840   2.372   1.681   2.249 -0.4002  0.7198  0.3814
 8403SOL     OW36841   3.575   0.851   8.579  0.2465 -0.8400 -0.0295
 8403SOL    HW136842   3.514   0.918   8.611 -0.7069 -0.6921 -2.1498
 8403SOL    HW236843   3.557   0.782   8.642 -1.9234  0.6063  0.9490
 8404SOL     OW36844   0.302   2.720   5.565 -0.3732  0.9032 -0.6142
 8404SOL    HW136845   0.293   2.800   5.617 -2.9814 -0.1176  0.4909
 8404SOL    HW236846   0.352   2.749   5.488 -0.3911  0.0961 -0.9228
 8405SOL     OW36847   0.798   3.513   1.918  0.3301 -0.1558 -0.4521
 8405SOL    HW136848   0.735   3.524   1.990  0.1766 -2.5997 -0.2106
 8405SOL    HW236849   0.846   3.596   1.916 -1.0841  0.6133 -2.6645
 8406SOL     OW36850   2.944   3.232  16.845  0.0421  0.5623  0.4039
 8406SOL    HW136851   2.892   3.240  16.925  0.5123 -2.6263  1.0285
 8406SOL    HW236852   2.929   3.143  16.813 -0.9264  1.3089 -1.1822
 8407SOL     OW36853   0.608   1.654   4.767  0.2179 -0.1853 -0.2858
 8407SOL    HW136854   0.513   1.653   4.773  0.2761 -0.5682  0.5377
 8407SOL    HW236855   0.621   1.631   4.859 -0.0212 -2.5663 -0.8576
 8408SOL     OW36856   2.046   0.841  15.291  0.0546 -0.2263 -0.0355
 8408SOL    HW136857   2.095   0.761  15.269 -1.2318 -0.0318 -3.6645
 8408SOL    HW236858   2.029   0.827  15.384 -1.1458 -1.6581 -0.4478
 8409SOL     OW36859   1.134   2.961   5.886  0.2234 -0.1433 -0.7494
 8409SOL    HW136860   1.102   3.044   5.921 -0.8972 -0.8830 -0.0196
 8409SOL    HW236861   1.071   2.932   5.820 -1.5197  0.1840  0.7500
 8410SOL     OW36862   4.150   1.696  11.507  0.1970  0.4745  0.6785
 8410SOL    HW136863   4.058   1.722  11.520 -0.3719 -0.5392 -1.2532
 8410SOL    HW236864   4.153   1.608  11.545 -1.5302  0.8304  1.6607
 8411SOL     OW36865   4.625   2.012   3.113  0.1738 -0.3531  0.2788
 8411SOL    HW136866   4.579   1.994   3.031 -1.5782  0.8724  1.0021
 8411SOL    HW236867   4.592   2.100   3.129  0.0725 -0.4472  0.5783
 8412SOL     OW36868   0.071   1.204   0.473 -0.0874 -0.1606  0.5989
 8412SOL    HW136869   0.071   1.111   0.454 -1.1584  0.0590 -0.5074
 8412SOL    HW236870   0.052   1.209   0.567  3.9270 -2.1056  1.5083
 8413SOL     OW36871   3.090   0.128   7.640  0.1006  0.0222  0.1883
 8413SOL    HW136872   3.085   0.060   7.572  2.2577 -0.5162  0.5487
 8413SOL    HW236873   3.150   0.182   7.589 -0.1244  0.9525  0.9180
 8414SOL     OW36874   2.616   0.344   5.712  0.6624 -0.1450 -0.4963
 8414SOL    HW136875   2.597   0.433   5.680 -3.4337 -0.4974  0.9663
 8414SOL    HW236876   2.535   0.295   5.725  1.7808 -1.2103  2.4865
 8415SOL     OW36877   4.482   1.429   9.121  0.4325  0.1720 -0.0731
 8415SOL    HW136878   4.525   1.408   9.038  2.8546  1.5210  0.8421
 8415SOL    HW236879   4.537   1.373   9.176  2.8282 -0.2062 -2.9063
 8416SOL     OW36880   2.945   2.873  15.108  0.3648 -0.3427  0.5419
 8416SOL    HW136881   2.880   2.943  15.107  1.3150  0.4986 -1.5389
 8416SOL    HW236882   2.989   2.903  15.188  2.0341  2.4818 -1.4114
 8417SOL     OW36883   2.012   1.327   5.001  0.3868  0.1762  0.1480
 8417SOL    HW136884   2.068   1.318   4.924  0.9385  3.2458  0.1572
 8417SOL    HW236885   2.052   1.266   5.063  2.4491 -0.3560 -1.7308
 8418SOL     OW36886   0.331   2.243   6.780 -0.2475  0.2114  0.0393
 8418SOL    HW136887   0.380   2.198   6.849  0.0226  3.7945  2.1589
 8418SOL    HW236888   0.359   2.334   6.790 -2.4447  0.8946 -0.0265
 8419SOL     OW36889   0.783   1.499   0.085  0.2297  0.5697 -0.3603
 8419SOL    HW136890   0.798   1.564   0.017 -0.2122 -0.2928 -1.2785
 8419SOL    HW236891   0.689   1.486   0.079  0.3187 -0.8189  1.0873
 8420SOL     OW36892   2.096   2.064   1.147 -0.3324  0.4466  0.6282
 8420SOL    HW136893   2.084   1.972   1.171  1.3354  0.0034 -0.2653
 8420SOL    HW236894   2.147   2.055   1.066 -1.0117  0.1523  0.2261
 8421SOL     OW36895   1.950   4.633   8.730 -0.8190  0.0104 -0.1221
 8421SOL    HW136896   2.028   4.609   8.779 -0.3954  0.7316 -0.4321
 8421SOL    HW236897   1.984   4.695   8.665 -2.7613  1.7181  0.4523
 8422SOL     OW36898   2.514   4.331  13.234 -0.0209 -0.0430 -0.5346
 8422SOL    HW136899   2.559   4.401  13.282 -0.6297  0.6586 -0.9785
 8422SOL    HW236900   2.491   4.376  13.153 -0.3664  0.9876  0.1341
 8423SOL     OW36901   3.687   4.245  10.853 -0.5280  0.3139 -0.0648
 8423SOL    HW136902   3.658   4.211  10.937  1.6336 -0.0250  0.5393
 8423SOL    HW236903   3.657   4.336  10.854 -0.6611  0.2626  0.4756
 8424SOL     OW36904   0.796   1.948   6.011 -0.1749  0.6266 -0.1913
 8424SOL    HW136905   0.868   1.934   6.073 -0.0703  1.6108 -0.1010
 8424SOL    HW236906   0.839   2.022   5.968  0.8422 -0.5047 -1.1447
 8425SOL     OW36907   2.318   0.695   2.445  0.1407 -0.0570  0.1508
 8425SOL    HW136908   2.392   0.636   2.434 -1.7073 -2.0860 -1.3067
 8425SOL    HW236909   2.244   0.656   2.400  0.0773 -1.8483  1.8187
 8426SOL     OW36910   4.335   1.618   3.060 -0.3458  0.0584 -0.1601
 8426SOL    HW136911   4.340   1.672   3.139  0.6488 -0.5736  0.2087
 8426SOL    HW236912   4.270   1.674   3.017 -0.2883 -2.5322 -3.5650
 8427SOL     OW36913   1.176   1.376   5.450  0.2747 -0.9212 -0.4859
 8427SOL    HW136914   1.180   1.450   5.511  2.0877 -1.3250 -0.1356
 8427SOL    HW236915   1.121   1.316   5.499  0.0411 -1.4235 -1.3657
 8428SOL     OW36916   1.597   3.589   9.027 -0.4067 -0.3276  0.1317
 8428SOL    HW136917   1.690   3.591   9.004 -1.1403  0.4912 -2.7489
 8428SOL    HW236918   1.585   3.495   9.042  0.1679 -0.4556 -0.1987
 8429SOL     OW36919   4.264   0.973   5.355  0.0238 -0.1548 -0.5171
 8429SOL    HW136920   4.323   0.950   5.427  1.9843  2.2476 -1.3636
 8429SOL    HW236921   4.287   1.059   5.322 -2.0325  0.9675  0.9669
 8430SOL     OW36922   2.416   1.057   8.157 -0.0354  0.3285 -0.5001
 8430SOL    HW136923   2.471   1.106   8.219 -0.4990 -0.1312  0.2839
 8430SOL    HW236924   2.351   1.024   8.219 -0.1447  1.8715  0.2192
 8431SOL     OW36925   1.064   3.488  14.196  0.4134  0.0423  0.0774
 8431SOL    HW136926   1.128   3.521  14.260  1.6147 -1.2516 -0.4498
 8431SOL    HW236927   1.097   3.407  14.157 -3.0729 -0.7709 -1.1139
 8432SOL     OW36928   0.614   2.953   6.950  0.5994  0.1865  0.4274
 8432SOL    HW136929   0.599   2.962   7.044  0.0582  0.5719  0.2992
 8432SOL    HW236930   0.581   3.037   6.919 -2.3337 -1.1305  0.0065
 8433SOL     OW36931   2.050   3.015   7.160 -0.6049  0.1498 -0.8442
 8433SOL    HW136932   2.066   3.082   7.226 -2.4440 -1.5271  1.2790
 8433SOL    HW236933   2.049   2.934   7.210  1.1381  0.2585 -0.6284
 8434SOL     OW36934   1.077   3.631   6.556 -0.0378 -0.3795 -0.2211
 8434SOL    HW136935   1.040   3.712   6.591 -0.6663 -1.0024  0.5627
 8434SOL    HW236936   1.127   3.665   6.482  0.1439  0.7300  0.4129
 8435SOL     OW36937   1.355   1.227   3.804  0.3024 -0.1781  0.1782
 8435SOL    HW136938   1.335   1.320   3.813  0.9874  0.2739 -3.1384
 8435SOL    HW236939   1.383   1.222   3.896  1.2711  0.9945 -0.0487
 8436SOL     OW36940   4.344   3.822  15.629  0.0667 -0.3074 -0.2971
 8436SOL    HW136941   4.389   3.906  15.637  0.0293 -0.0855 -2.2877
 8436SOL    HW236942   4.319   3.802  15.719 -0.5181  1.2763 -0.1063
 8437SOL     OW36943   0.784   0.806  14.114 -0.2204  0.3889 -0.4032
 8437SOL    HW136944   0.711   0.868  14.115 -0.9359 -0.4609 -0.0994
 8437SOL    HW236945   0.833   0.826  14.035 -0.0379  0.6115 -0.2340
 8438SOL     OW36946   1.043   1.910   6.405  0.5495 -0.4699 -0.0889
 8438SOL    HW136947   1.048   1.947   6.317 -0.8763  0.8208  0.3780
 8438SOL    HW236948   0.949   1.908   6.420  0.5739 -1.4095 -0.0467
 8439SOL     OW36949   2.562   1.170   4.747 -0.2280  0.1373 -0.0677
 8439SOL    HW136950   2.656   1.190   4.740 -0.4807  2.1581  2.1941
 8439SOL    HW236951   2.552   1.191   4.840  0.3215  1.6295 -0.3391
 8440SOL     OW36952   4.081   3.346   2.182  0.3988  0.2066 -0.2209
 8440SOL    HW136953   4.007   3.313   2.233  1.4698 -3.4469 -1.0198
 8440SOL    HW236954   4.039   3.408   2.122  2.4180  0.5295 -1.2824
 8441SOL     OW36955   1.117   0.911  12.012  0.0596  0.0368 -0.2581
 8441SOL    HW136956   1.182   0.859  11.964 -0.8026 -1.7878  0.5461
 8441SOL    HW236957   1.109   0.994  11.964  1.1457 -0.3132 -1.0297
 8442SOL     OW36958   1.607   1.335   2.225  0.0584  0.1241  0.5945
 8442SOL    HW136959   1.528   1.384   2.201  2.0703  2.7442 -0.7322
 8442SOL    HW236960   1.662   1.413   2.233 -1.1010  0.8256  1.7687
 8443SOL     OW36961   4.411   2.880   4.654 -0.5720 -0.2354  0.1313
 8443SOL    HW136962   4.470   2.859   4.583 -2.8659  1.6212 -2.3135
 8443SOL    HW236963   4.438   2.817   4.721 -0.0690 -1.4219 -1.2198
 8444SOL     OW36964   2.529   2.275   2.851 -0.0149  0.6130 -0.6060
 8444SOL    HW136965   2.495   2.363   2.869  0.4704  0.1669  2.4874
 8444SOL    HW236966   2.472   2.223   2.906  0.6734  0.5417  0.0408
 8445SOL     OW36967   0.890   1.134   8.580 -0.0022 -0.2127 -0.2397
 8445SOL    HW136968   0.900   1.222   8.544  0.8597 -0.7969 -1.4264
 8445SOL    HW236969   0.846   1.087   8.509  1.6174  0.3924 -1.6526
 8446SOL     OW36970   2.571   1.149  13.559  0.1412 -0.5239 -0.2248
 8446SOL    HW136971   2.660   1.152  13.595  0.6799 -0.7495 -1.5470
 8446SOL    HW236972   2.537   1.066  13.591 -0.0021  0.5463  2.4329
 8447SOL     OW36973   1.979   2.354   4.613 -0.3592 -0.0839  0.0404
 8447SOL    HW136974   2.069   2.355   4.580 -0.2842 -1.0600  0.2122
 8447SOL    HW236975   2.000   2.352   4.707 -0.6058  0.6346  0.1110
 8448SOL     OW36976   3.711   4.340   6.913  0.4802  0.0705  0.1682
 8448SOL    HW136977   3.796   4.297   6.919  0.5066  0.0574 -0.3148
 8448SOL    HW236978   3.649   4.274   6.946  1.0782 -0.5262  0.0924
 8449SOL     OW36979   0.793   4.251  14.942 -0.5703 -0.2232  0.3729
 8449SOL    HW136980   0.718   4.256  15.001 -2.6293 -3.9536 -1.9249
 8449SOL    HW236981   0.766   4.188  14.876  0.8389 -0.4842  0.0437
 8450SOL     OW36982   3.894   0.427   4.712  0.0370  0.2079 -0.1242
 8450SOL    HW136983   3.851   0.461   4.791 -1.7467  1.2156 -1.5343
 8450SOL    HW236984   3.871   0.491   4.646 -0.4238  0.2162  0.0411
 8451SOL     OW36985   2.036   1.902  12.916 -0.0610 -0.5405  0.6626
 8451SOL    HW136986   1.964   1.873  12.971 -1.7977  0.6281 -0.9840
 8451SOL    HW236987   2.011   1.994  12.922 -2.2641 -1.2022  1.5156
 8452SOL     OW36988   2.193   1.175   1.184 -0.0339  0.2426  0.3815
 8452SOL    HW136989   2.151   1.232   1.119 -0.3963 -0.7240 -0.2281
 8452SOL    HW236990   2.138   1.097   1.182 -0.9400  0.8892 -0.0594
 8453SOL     OW36991   2.569   3.804   2.581  0.5882 -0.0917  0.9674
 8453SOL    HW136992   2.630   3.876   2.590  2.3132 -1.5613  1.0356
 8453SOL    HW236993   2.512   3.841   2.514 -0.7896 -1.1343  1.5392
 8454SOL     OW36994   3.159   0.908   9.482  0.2742 -0.0226  0.2406
 8454SOL    HW136995   3.097   0.922   9.554 -0.9896 -1.7338 -0.5347
 8454SOL    HW236996   3.235   0.965   9.493  0.9391 -0.4101 -2.3735
 8455SOL     OW36997   1.466   3.677   8.378  0.0271 -0.0452 -0.4603
 8455SOL    HW136998   1.441   3.585   8.380 -0.0267  0.0278  2.5980
 8455SOL    HW236999   1.403   3.713   8.442  0.2454 -2.0916  0.9034
 8456SOL     OW37000   2.058   1.071   6.275  0.0034  0.1103 -0.2089
 8456SOL    HW137001   2.043   1.148   6.331 -0.2763  0.6064 -0.9627
 8456SOL    HW237002   2.126   1.116   6.224 -0.8075  1.1229 -0.4083
 8457SOL     OW37003   2.125   4.506   5.226  0.1323  0.3548 -0.3300
 8457SOL    HW137004   2.031   4.497   5.209 -0.3282 -0.2948  2.6490
 8457SOL    HW237005   2.136   4.601   5.236 -1.6756  0.5441 -0.1587
 8458SOL     OW37006   1.900   2.117   2.260  0.1458 -0.4596  0.0592
 8458SOL    HW137007   1.981   2.134   2.213  0.0305 -1.4631 -0.5115
 8458SOL    HW237008   1.925   2.049   2.323  1.0165 -1.1189 -0.9924
 8459SOL     OW37009   2.598   0.226   9.344  0.1105  0.0099 -0.7644
 8459SOL    HW137010   2.578   0.276   9.265 -0.9297  0.8944  0.0505
 8459SOL    HW237011   2.572   0.139   9.313 -2.2555  1.4878 -2.9137
 8460SOL     OW37012   0.506   2.451  12.711 -0.2074  0.3950 -0.7703
 8460SOL    HW137013   0.515   2.508  12.635  2.0267 -0.2354 -0.9583
 8460SOL    HW237014   0.482   2.365  12.677 -0.0160  0.5259 -1.2401
 8461SOL     OW37015   4.102   1.601   3.845  0.2736 -0.6770 -0.3275
 8461SOL    HW137016   4.097   1.589   3.750 -0.2404  0.1906 -0.4124
 8461SOL    HW237017   4.183   1.552   3.861  1.0543  0.4334 -0.8637
 8462SOL     OW37018   3.483   3.072   4.186 -0.1802 -0.2788  0.0416
 8462SOL    HW137019   3.566   3.048   4.227  1.1295  0.5825 -2.1373
 8462SOL    HW237020   3.510   3.121   4.108 -1.1815 -0.3505 -0.3551
 8463SOL     OW37021   2.928   0.671  12.549  0.4528 -0.8413 -0.1287
 8463SOL    HW137022   2.897   0.750  12.594 -0.5518 -1.7684  0.8089
 8463SOL    HW237023   2.884   0.682  12.464  0.1559  0.4265  0.1779
 8464SOL     OW37024   2.105   3.755  12.336 -0.2545  0.0164 -0.2158
 8464SOL    HW137025   2.182   3.700  12.322 -0.4223 -0.8173  2.1674
 8464SOL    HW237026   2.132   3.829  12.281  2.1052 -0.3588  0.4453
 8465SOL     OW37027   2.140   2.096  17.134 -0.0595  0.5568 -0.1682
 8465SOL    HW137028   2.153   2.004  17.109 -1.5133 -0.2659  2.1522
 8465SOL    HW237029   2.226   2.122  17.168  0.2554  0.5094 -0.9154
 8466SOL     OW37030   2.684   4.291   3.038  0.1142 -0.4732  0.4895
 8466SOL    HW137031   2.605   4.338   3.011  1.2600 -0.3655 -2.6629
 8466SOL    HW237032   2.744   4.356   3.001  0.3263 -0.9406  0.0065
 8467SOL     OW37033   2.073   1.279  10.744 -0.0709  0.1149 -0.2247
 8467SOL    HW137034   2.087   1.374  10.737 -1.2838  0.2919 -0.2495
 8467SOL    HW237035   1.989   1.263  10.700  1.0514 -1.2386 -1.8562
 8468SOL     OW37036   1.866   1.909   7.045  0.3696  0.1251 -0.3837
 8468SOL    HW137037   1.924   1.978   7.077  0.5672  0.3939 -1.3395
 8468SOL    HW237038   1.917   1.866   6.977  1.9531 -0.7273  1.3340
 8469SOL     OW37039   0.677   2.769   2.409 -0.3074 -0.4813  0.1743
 8469SOL    HW137040   0.771   2.763   2.425 -0.6452 -0.3687  2.2012
 8469SOL    HW237041   0.641   2.686   2.439 -2.8614  0.5234 -0.0687
 8470SOL     OW37042   4.373   3.924   7.075  0.0884 -0.0370 -0.2895
 8470SOL    HW137043   4.319   3.993   7.037  1.6205  0.5956 -1.3176
 8470SOL    HW237044   4.391   3.871   6.997  0.9219 -0.7325  0.3590
 8471SOL     OW37045   4.440   0.057   7.706 -0.2169 -0.0322  0.4114
 8471SOL    HW137046   4.362   0.072   7.760 -1.8179  0.2831 -1.9530
 8471SOL    HW237047   4.406   4.729   7.649  0.1614  0.7460 -0.7584
 8472SOL     OW37048   3.167   2.595   3.034 -0.3093 -0.1414 -0.1749
 8472SOL    HW137049   3.136   2.633   2.952 -0.6823 -0.1492 -0.0373
 8472SOL    HW237050   3.210   2.670   3.075 -1.1918  2.0901 -3.3387
 8473SOL     OW37051   4.045   0.093   1.176  0.0494  0.0739 -0.2653
 8473SOL    HW137052   3.980   0.025   1.160 -1.9329  2.1998 -1.3431
 8473SOL    HW237053   4.027   0.156   1.106 -0.7038 -2.4331 -2.3328
 8474SOL     OW37054   0.416   3.869   3.419 -0.1253  0.0041  0.0467
 8474SOL    HW137055   0.472   3.893   3.345  0.3910 -2.3770 -0.3503
 8474SOL    HW237056   0.476   3.890   3.490  0.6387 -1.8307 -0.0485
 8475SOL     OW37057   3.217   0.042   0.854 -0.2340 -0.4673  0.6538
 8475SOL    HW137058   3.202   4.711   0.793  1.3747 -0.0214 -0.2714
 8475SOL    HW237059   3.312   0.052   0.850 -0.4412  2.0142  2.0085
 8476SOL     OW37060   0.570   1.167   4.419  0.3608 -0.8853  0.3596
 8476SOL    HW137061   0.587   1.253   4.459  2.0083 -0.2225 -1.7672
 8476SOL    HW237062   0.475   1.160   4.410  0.1861  1.3773  0.4931
 8477SOL     OW37063   1.089   0.172   2.773 -0.0501  0.2666 -0.3610
 8477SOL    HW137064   1.172   0.219   2.776 -1.1009  2.2205 -2.9449
 8477SOL    HW237065   1.110   0.103   2.837 -0.1127 -0.4425 -1.0980
 8478SOL     OW37066   1.893   1.413   9.439 -0.7050 -0.4546 -1.1809
 8478SOL    HW137067   1.797   1.420   9.440 -0.7427 -0.6688 -2.6390
 8478SOL    HW237068   1.910   1.420   9.345  0.8837 -0.8531 -0.9196
 8479SOL     OW37069   3.086   4.576   6.244  0.2411 -0.0152 -0.0330
 8479SOL    HW137070   3.025   4.534   6.304  1.3202  1.8824  2.4214
 8479SOL    HW237071   3.160   4.515   6.251 -2.1156 -2.8744 -0.1495
 8480SOL     OW37072   1.080   1.767   6.924  0.0277  0.0794  0.1961
 8480SOL    HW137073   1.160   1.764   6.975 -0.4777  1.5599  1.0781
 8480SOL    HW237074   1.125   1.762   6.840  0.6659 -2.7772  0.7189
 8481SOL     OW37075   3.152   0.607   6.963 -0.0681 -0.2272 -0.1680
 8481SOL    HW137076   3.243   0.619   6.938  0.7618 -2.1836  1.8950
 8481SOL    HW237077   3.138   0.547   6.889  1.1927  0.0917 -0.6521
 8482SOL     OW37078   4.092   1.826   2.502 -0.3465  0.6690 -0.3008
 8482SOL    HW137079   4.009   1.786   2.475 -1.5934  3.4382 -0.6871
 8482SOL    HW237080   4.077   1.868   2.587  1.7342  1.3726 -0.2827
 8483SOL     OW37081   4.367   3.248  13.710 -0.0391 -0.6010  0.1899
 8483SOL    HW137082   4.321   3.185  13.765  0.8112  0.2437  1.8845
 8483SOL    HW237083   4.349   3.217  13.621 -0.4133  0.2629 -0.0384
 8484SOL     OW37084   0.931   2.429  17.182  0.7453 -0.2101 -0.4315
 8484SOL    HW137085   0.881   2.509  17.197  1.1808  0.4351 -2.4632
 8484SOL    HW237086   0.921   2.389  17.269 -0.1227  3.2423  1.0394
 8485SOL     OW37087   2.821   1.436   3.992  0.3301 -0.0630  0.4802
 8485SOL    HW137088   2.769   1.357   4.002 -0.6686  0.4129 -0.9571
 8485SOL    HW237089   2.897   1.406   4.042 -0.1274  0.7541  1.6563
 8486SOL     OW37090   1.463   0.957   1.565  0.3237  1.0037 -0.7452
 8486SOL    HW137091   1.549   0.999   1.571  1.4691 -1.4738  0.2808
 8486SOL    HW237092   1.426   1.034   1.523  0.6785  1.6698  0.1687
 8487SOL     OW37093   0.339   3.623   7.545 -0.1825  0.5018 -0.5139
 8487SOL    HW137094   0.390   3.558   7.496 -1.6943  0.4944 -2.0678
 8487SOL    HW237095   0.250   3.589   7.549  0.4175 -0.9519  0.6810
 8488SOL     OW37096   3.338   3.884   9.620  0.0671 -0.0417  0.4565
 8488SOL    HW137097   3.365   3.870   9.711 -2.6426 -0.0481  1.2418
 8488SOL    HW237098   3.245   3.863   9.629 -0.4405  1.4959 -1.1844
 8489SOL     OW37099   1.098   4.207   6.518  0.8744  0.0691  0.0500
 8489SOL    HW137100   1.175   4.150   6.513  1.8609  1.4071  0.1487
 8489SOL    HW237101   1.030   4.142   6.534  1.7340 -1.1172 -1.0925
 8490SOL     OW37102   2.422   3.264   6.155 -0.0514 -0.3573 -0.3754
 8490SOL    HW137103   2.457   3.297   6.237  0.4125  1.6025 -1.3654
 8490SOL    HW237104   2.489   3.208   6.116 -2.4195 -3.0375 -0.6743
 8491SOL     OW37105   0.960   3.168   6.372 -0.0051  0.3491  0.0305
 8491SOL    HW137106   0.984   3.125   6.455 -1.3455 -2.2790 -0.9416
 8491SOL    HW237107   0.865   3.174   6.385  0.2722  0.6286  1.9663
 8492SOL     OW37108   1.115   0.343   2.066  0.0320 -0.1099 -0.5110
 8492SOL    HW137109   1.058   0.267   2.076 -0.0104 -0.3673 -2.6373
 8492SOL    HW237110   1.123   0.361   2.159  0.7163  1.1119 -0.8201
 8493SOL     OW37111   0.477   3.606  16.867  0.7285  0.7501  0.0738
 8493SOL    HW137112   0.489   3.667  16.795 -1.8393  0.6562 -0.4209
 8493SOL    HW237113   0.415   3.651  16.925 -0.5807  0.4482 -1.1133
 8494SOL     OW37114   2.952   3.989   5.475  0.4102  1.1500 -0.3025
 8494SOL    HW137115   2.960   3.984   5.570 -2.0736 -1.3064 -0.2319
 8494SOL    HW237116   2.937   3.900   5.443  1.0968  1.0434 -0.3409
 8495SOL     OW37117   3.664   0.763  15.897  0.0284 -0.1737  0.4267
 8495SOL    HW137118   3.651   0.778  15.991  1.2795 -1.8294  0.8670
 8495SOL    HW237119   3.753   0.798  15.895 -0.6780  1.6151  0.8328
 8496SOL     OW37120   2.702   3.564   3.906 -0.0788  0.2281 -0.7622
 8496SOL    HW137121   2.712   3.645   3.856 -1.9006  2.3461  2.2594
 8496SOL    HW237122   2.781   3.525   3.869  0.1190  1.8111 -2.0293
 8497SOL     OW37123   2.343   1.257  13.463 -0.8725 -0.6901  0.2629
 8497SOL    HW137124   2.319   1.219  13.379  1.1901 -0.7821 -0.2837
 8497SOL    HW237125   2.432   1.225  13.478  0.1152  2.5083  1.2663
 8498SOL     OW37126   3.964   3.710  14.530 -0.9811 -0.2434 -0.1719
 8498SOL    HW137127   3.946   3.804  14.533 -0.0061 -0.0398 -0.8422
 8498SOL    HW237128   3.914   3.693  14.610  0.9552  1.3632  1.3748
 8499SOL     OW37129   1.530   2.206   3.196  0.0109 -0.3774  0.3098
 8499SOL    HW137130   1.437   2.202   3.219  0.7402  0.9046  3.4217
 8499SOL    HW237131   1.530   2.274   3.129  3.5420 -0.4366  0.2781
 8500SOL     OW37132   4.702   1.982   6.327  0.1048  0.5640 -0.1117
 8500SOL    HW137133   0.006   2.065   6.310 -1.2351  1.0098 -1.5079
 8500SOL    HW237134   4.699   1.947   6.238 -0.5090  0.4143 -0.0284
 8501SOL     OW37135   0.821   3.316  15.553  0.2263 -0.7892  0.4900
 8501SOL    HW137136   0.807   3.231  15.596  1.7179 -0.6202  1.2984
 8501SOL    HW237137   0.804   3.288  15.463 -1.9026  0.1192  0.5991
 8502SOL     OW37138   1.492   4.651   3.188 -0.6713  0.1744 -0.0347
 8502SOL    HW137139   1.477   4.694   3.104 -0.0430 -0.9549 -0.7192
 8502SOL    HW237140   1.447   4.720   3.238  2.3580 -0.0909  3.0603
 8503SOL     OW37141   3.759   1.104  11.581  0.0605  0.1322 -0.1901
 8503SOL    HW137142   3.776   1.021  11.625  1.6571  1.4281  1.6698
 8503SOL    HW237143   3.827   1.166  11.609 -0.4752  0.9096 -0.5985
 8504SOL     OW37144   2.536   4.629   6.108 -0.1882  0.5962 -0.2860
 8504SOL    HW137145   2.618   4.583   6.127 -0.9503 -0.0191  1.5868
 8504SOL    HW237146   2.556   4.684   6.032  0.2589  1.4227  0.4296
 8505SOL     OW37147   4.312   2.526  16.613  0.5099 -0.4866 -0.0453
 8505SOL    HW137148   4.247   2.548  16.679  1.0240  2.4676 -0.5429
 8505SOL    HW237149   4.247   2.471  16.569 -0.7976 -0.1041  1.4335
 8506SOL     OW37150   2.108   1.642   4.935 -0.1364 -0.3871 -0.0006
 8506SOL    HW137151   2.183   1.626   4.877 -2.0427  0.7015 -2.7980
 8506SOL    HW237152   2.160   1.698   4.992  0.4781  0.5155 -1.4323
 8507SOL     OW37153   1.359   1.561   4.737  1.0037 -0.5095  0.4836
 8507SOL    HW137154   1.453   1.565   4.719  0.7818 -1.1709 -0.8084
 8507SOL    HW237155   1.350   1.466   4.748 -1.6878 -0.2820  0.1803
 8508SOL     OW37156   1.348   4.062   8.687 -0.1225  0.4575 -0.5040
 8508SOL    HW137157   1.298   4.130   8.642 -0.2179  0.0247 -1.0443
 8508SOL    HW237158   1.295   3.985   8.668  2.6368 -1.4408 -0.5801
 8509SOL     OW37159   3.050   1.215   4.623  0.2735 -0.0804 -0.1585
 8509SOL    HW137160   3.016   1.242   4.538 -0.2642 -0.9391 -0.2289
 8509SOL    HW237161   3.125   1.161   4.599 -0.5712 -1.2106 -0.2846
 8510SOL     OW37162   0.893   4.388  11.482 -0.6637 -0.4633  0.3432
 8510SOL    HW137163   0.845   4.340  11.549  0.8900 -2.6109 -0.0840
 8510SOL    HW237164   0.981   4.395  11.519 -0.7157  3.8523 -0.3178
 8511SOL     OW37165   0.179   4.374  17.182 -0.0850  0.1214  0.3793
 8511SOL    HW137166   0.249   4.437  17.163  0.1822 -0.5243 -0.7119
 8511SOL    HW237167   0.103   4.406  17.133 -0.5634  1.3618  1.9216
 8512SOL     OW37168   1.542   2.054   2.876  0.4977 -0.1750  0.1521
 8512SOL    HW137169   1.606   2.125   2.866  1.5381 -0.7788  2.3724
 8512SOL    HW237170   1.465   2.093   2.834  0.7609 -0.3755 -0.5044
 8513SOL     OW37171   2.237   4.472   2.138  0.3126 -0.4055 -0.1239
 8513SOL    HW137172   2.303   4.406   2.118  0.6511 -0.4985  1.3217
 8513SOL    HW237173   2.217   4.509   2.052 -1.2869  1.7204  1.1455
 8514SOL     OW37174   0.039   0.330   3.133 -0.3160 -0.1389 -0.0113
 8514SOL    HW137175   4.717   0.281   3.081  0.8227 -1.5577 -0.0555
 8514SOL    HW237176   0.053   0.267   3.203  0.5264  0.4427  0.3449
 8515SOL     OW37177   3.654   4.026   6.442  0.4302 -0.2353  0.0227
 8515SOL    HW137178   3.628   4.095   6.381  0.0328  0.3962  0.9127
 8515SOL    HW237179   3.583   3.961   6.433  2.1575 -2.2017  0.5662
 8516SOL     OW37180   3.881   1.743  13.506  0.3742 -0.6024  0.5479
 8516SOL    HW137181   3.892   1.801  13.581  1.2144 -0.9207  0.6690
 8516SOL    HW237182   3.790   1.717  13.520  0.5424 -0.8353  1.1918
 8517SOL     OW37183   2.190   0.691   9.695 -0.5340  0.3197  0.3923
 8517SOL    HW137184   2.094   0.698   9.691 -0.3160  1.7126 -2.3225
 8517SOL    HW237185   2.214   0.707   9.604  0.4566  1.0391  0.7873
 8518SOL     OW37186   2.754   3.932   0.898 -0.0283 -0.6308 -0.1401
 8518SOL    HW137187   2.666   3.915   0.866 -0.0741  1.8585 -1.3493
 8518SOL    HW237188   2.806   3.927   0.818 -0.4643  2.9022 -0.6760
 8519SOL     OW37189   1.452   1.840   9.606 -0.0154  0.4717 -0.0596
 8519SOL    HW137190   1.451   1.746   9.624 -0.6468  0.8895  2.1164
 8519SOL    HW237191   1.358   1.851   9.620 -0.5978 -2.1916 -1.9239
 8520SOL     OW37192   0.727   2.366   8.643 -0.4099 -0.4124  0.1300
 8520SOL    HW137193   0.649   2.340   8.592 -0.7354  3.1065 -1.1578
 8520SOL    HW237194   0.788   2.365   8.570 -0.9235  1.0022 -0.3105
 8521SOL     OW37195   2.341   3.482   5.929  0.4825  0.8024  0.0816
 8521SOL    HW137196   2.248   3.462   5.928  0.2016  2.1643 -0.2720
 8521SOL    HW237197   2.367   3.460   6.019  1.0538 -2.0317 -0.7617
 8522SOL     OW37198   2.380   0.245   5.784  0.0461 -0.5090  0.3821
 8522SOL    HW137199   2.285   0.247   5.767  0.4205  1.1395 -1.5428
 8522SOL    HW237200   2.395   0.151   5.787 -2.0000 -0.8567  0.0174
 8523SOL     OW37201   4.275   3.654   1.617 -0.4970  0.1928 -0.2363
 8523SOL    HW137202   4.232   3.571   1.635  0.2648  0.0747  1.0527
 8523SOL    HW237203   4.206   3.707   1.576  1.4404  3.0394  0.1869
 8524SOL     OW37204   3.212   3.554   1.478 -0.2320  0.4258 -0.4984
 8524SOL    HW137205   3.122   3.576   1.502 -0.1655  1.5746 -1.3108
 8524SOL    HW237206   3.204   3.486   1.411  0.4922  0.7226 -0.8885
 8525SOL     OW37207   3.604   2.973   7.847 -0.0648 -0.6005  0.1641
 8525SOL    HW137208   3.572   2.973   7.757  0.8419  2.2308 -0.1341
 8525SOL    HW237209   3.603   3.068   7.855 -2.9487 -0.5018 -1.1320
 8526SOL     OW37210   3.715   1.392  16.679 -1.0304 -0.0188  0.1473
 8526SOL    HW137211   3.728   1.382  16.585 -1.7725 -2.7533  0.3265
 8526SOL    HW237212   3.631   1.348  16.689 -0.8123 -0.5376 -0.3794
 8527SOL     OW37213   1.739   1.916   7.501 -0.6771 -0.1773 -0.2825
 8527SOL    HW137214   1.720   1.977   7.430 -2.8270 -0.9040 -0.3334
 8527SOL    HW237215   1.826   1.954   7.514 -1.9963  2.5914  0.4869
 8528SOL     OW37216   0.363   3.431   7.946  0.3127  0.0696 -0.1861
 8528SOL    HW137217   0.289   3.371   7.940  0.3221  0.1672 -1.2079
 8528SOL    HW237218   0.319   3.512   7.974  0.8464 -0.3401  1.8574
 8529SOL     OW37219   0.449   0.278   3.087  0.3397  0.0487 -0.1320
 8529SOL    HW137220   0.427   0.186   3.070 -1.9459  0.1564  2.2331
 8529SOL    HW237221   0.495   0.302   3.007 -0.3215  3.9807  0.6714
 8530SOL     OW37222   1.397   1.903   9.250 -0.0113 -0.1854 -0.5184
 8530SOL    HW137223   1.342   1.980   9.267  1.2974  0.9464 -1.4666
 8530SOL    HW237224   1.462   1.916   9.319  0.1167 -1.5078 -0.3962
 8531SOL     OW37225   1.493   4.531   2.644  0.1122  0.1476 -0.2699
 8531SOL    HW137226   1.485   4.505   2.736  2.0189 -0.6172 -0.3240
 8531SOL    HW237227   1.551   4.605   2.661  0.4382  0.0624 -1.0353
 8532SOL     OW37228   4.551   1.058   8.245  0.0962  0.3729 -0.2568
 8532SOL    HW137229   4.587   1.134   8.201  0.6017  0.5990  0.5455
 8532SOL    HW237230   4.634   1.018   8.272 -1.3255 -1.5312  1.3119
 8533SOL     OW37231   0.561   4.167   6.913  0.1688  0.0474  0.1118
 8533SOL    HW137232   0.564   4.246   6.967 -0.1162 -0.1890  0.4721
 8533SOL    HW237233   0.470   4.142   6.927  0.4120 -1.3790 -0.8344
 8534SOL     OW37234   4.592   0.344  11.333 -0.0284 -0.3826 -0.5694
 8534SOL    HW137235   4.576   0.333  11.427 -0.8447  0.7600 -0.5736
 8534SOL    HW237236   4.682   0.312  11.330  0.8650  2.3580 -2.2501
 8535SOL     OW37237   1.433   1.586   7.602 -0.0989 -0.5963 -0.3562
 8535SOL    HW137238   1.472   1.502   7.627 -1.7388 -0.3800  2.9234
 8535SOL    HW237239   1.504   1.607   7.542  0.3806  0.4524  0.5876
 8536SOL     OW37240   1.331   3.169  10.035  0.0161 -0.2396 -0.5568
 8536SOL    HW137241   1.333   3.106   9.964 -1.7542 -1.6679  0.6793
 8536SOL    HW237242   1.254   3.135  10.080 -1.0784  2.3296 -0.4446
 8537SOL     OW37243   2.524   1.257   8.621  0.3126  0.0352 -0.1118
 8537SOL    HW137244   2.591   1.279   8.685  1.0353 -3.7354  0.4352
 8537SOL    HW237245   2.519   1.161   8.628  2.2684 -0.0331  0.2183
 8538SOL     OW37246   2.387   0.650  14.733 -0.2785 -0.9059 -0.0728
 8538SOL    HW137247   2.398   0.651  14.638 -0.3678  0.6033 -0.0647
 8538SOL    HW237248   2.420   0.564  14.761  1.2663 -0.5912 -0.9338
 8539SOL     OW37249   3.862   0.789   8.112  0.0600  0.2055 -0.2430
 8539SOL    HW137250   3.859   0.882   8.134 -1.0210  0.2167 -0.4526
 8539SOL    HW237251   3.815   0.789   8.029  0.0527 -1.9963 -0.2230
 8540SOL     OW37252   3.415   4.094  12.615 -0.7233  0.1417 -0.2421
 8540SOL    HW137253   3.497   4.063  12.654 -1.5171  2.1501  3.0109
 8540SOL    HW237254   3.405   4.024  12.550 -0.3792 -0.1487  0.0102
 8541SOL     OW37255   2.697   1.889   5.298  0.1481  0.0801  0.5605
 8541SOL    HW137256   2.766   1.849   5.351  1.3235 -0.5617 -1.4206
 8541SOL    HW237257   2.751   1.924   5.227 -0.5465 -1.2541 -0.6210
 8542SOL     OW37258   4.567   4.214   3.522 -0.0021 -0.3052 -0.3212
 8542SOL    HW137259   4.561   4.200   3.617 -0.5031 -0.1305 -0.3253
 8542SOL    HW237260   4.535   4.130   3.489  0.9915 -0.4428 -0.9455
 8543SOL     OW37261   1.730   3.523   4.421  0.1877  0.2368 -0.6983
 8543SOL    HW137262   1.799   3.527   4.488  1.6615  2.4147 -2.3764
 8543SOL    HW237263   1.677   3.453   4.460  0.6155  0.2250 -0.1316
 8544SOL     OW37264   3.179   0.688   4.041  0.0954  0.1075  0.0375
 8544SOL    HW137265   3.226   0.767   4.015 -0.5161  0.7593  0.9422
 8544SOL    HW237266   3.177   0.696   4.136 -1.3920  0.9384 -0.0660
 8545SOL     OW37267   3.395   3.228   1.290 -0.4310 -0.4103  0.5507
 8545SOL    HW137268   3.486   3.209   1.266  0.0834  1.5930  0.9827
 8545SOL    HW237269   3.377   3.153   1.347  0.9242 -2.1114 -1.2124
 8546SOL     OW37270   1.995   2.522   6.691 -0.8775 -0.2267 -0.2765
 8546SOL    HW137271   2.061   2.552   6.753  0.8946  0.6215 -2.5717
 8546SOL    HW237272   1.938   2.452   6.724 -0.7223 -0.1615  0.1298
 8547SOL     OW37273   0.759   2.738   7.279  0.0063  0.2586 -0.0625
 8547SOL    HW137274   0.739   2.694   7.197 -1.8874 -0.9349  1.0160
 8547SOL    HW237275   0.718   2.823   7.265 -1.2829 -0.2681  0.4907
 8548SOL     OW37276   0.553   4.369   5.323  0.3443  0.6917 -0.7869
 8548SOL    HW137277   0.637   4.413   5.313 -0.3774  2.7162  2.0705
 8548SOL    HW237278   0.552   4.313   5.245 -1.2350  0.1344 -0.3634
 8549SOL     OW37279   0.057   2.881   2.716 -0.3659  0.5362  0.2931
 8549SOL    HW137280   0.063   2.895   2.810 -1.0740 -0.5505  0.5066
 8549SOL    HW237281   4.723   2.822   2.714 -0.1220  0.3074 -2.1763
 8550SOL     OW37282   3.535   2.951  13.799  0.1043 -0.0621  0.6053
 8550SOL    HW137283   3.529   2.933  13.706 -1.6600 -1.1231  0.9144
 8550SOL    HW237284   3.504   3.041  13.804 -1.5775 -0.3864 -4.3242
 8551SOL     OW37285   1.514   0.719   4.842  0.0032 -0.5533 -0.0010
 8551SOL    HW137286   1.547   0.739   4.755 -0.7488 -0.7461 -0.3276
 8551SOL    HW237287   1.595   0.740   4.890  1.2504  0.6656 -2.6438
 8552SOL     OW37288   1.185   0.087   3.584  0.2587  0.1519 -0.2601
 8552SOL    HW137289   1.197   0.108   3.677  0.3277 -1.8306  0.1832
 8552SOL    HW237290   1.090   0.083   3.587  0.2927  0.2619  1.1494
 8553SOL     OW37291   2.119   3.319   3.493  0.0512  0.2889 -0.1070
 8553SOL    HW137292   2.061   3.247   3.467  0.6366 -0.1688 -0.1565
 8553SOL    HW237293   2.201   3.272   3.508 -0.6236 -0.3355  1.5868
 8554SOL     OW37294   0.305   2.983   6.877  0.7877 -0.1056 -0.2341
 8554SOL    HW137295   0.375   2.996   6.812 -1.4117  0.7683 -2.4214
 8554SOL    HW237296   0.277   3.073   6.891  0.9062 -0.2729  1.0827
 8555SOL     OW37297   3.234   0.177   5.885 -0.1372 -0.2291 -0.2193
 8555SOL    HW137298   3.280   0.168   5.801 -4.3118 -0.1637 -2.5414
 8555SOL    HW237299   3.160   0.234   5.863 -0.7136 -1.2163 -0.8672
 8556SOL     OW37300   0.785   2.171   5.841 -0.5443 -0.6713 -0.4457
 8556SOL    HW137301   0.751   2.252   5.804  0.8666  0.5641  0.9527
 8556SOL    HW237302   0.753   2.102   5.782  0.1305  0.9289 -2.6687
 8557SOL     OW37303   1.270   0.674   9.168 -0.6448  0.0203  0.2706
 8557SOL    HW137304   1.240   0.732   9.239  0.0283 -0.2550  0.7881
 8557SOL    HW237305   1.304   0.599   9.217 -0.4441  0.8642  1.4487
 8558SOL     OW37306   3.045   0.860   5.363 -0.3856 -0.1180  0.0416
 8558SOL    HW137307   2.955   0.830   5.354 -0.4030 -0.3030  0.8578
 8558SOL    HW237308   3.081   0.772   5.354 -2.3343 -0.9582  0.6232
 8559SOL     OW37309   4.592   4.600  17.152  0.3124 -0.3233 -0.0612
 8559SOL    HW137310   4.507   4.561  17.169  0.4621 -0.1988  0.9907
 8559SOL    HW237311   4.611   4.565  17.065  1.8034  1.0427 -0.3087
 8560SOL     OW37312   1.728   3.595   5.849  0.4441 -0.3161  0.5560
 8560SOL    HW137313   1.777   3.607   5.931 -0.5337  1.7120  0.8158
 8560SOL    HW237314   1.688   3.512   5.875  1.5856 -0.5667  1.5742
 8561SOL     OW37315   1.493   2.620  10.533 -0.5201  0.1149 -0.4911
 8561SOL    HW137316   1.540   2.655  10.457  2.0765  1.1962  1.6240
 8561SOL    HW237317   1.463   2.535  10.501  1.4375 -1.0222  0.7583
 8562SOL     OW37318   0.248   0.456   8.780  0.3345  0.2764 -0.7339
 8562SOL    HW137319   0.266   0.469   8.686  1.5388  0.9892 -0.4032
 8562SOL    HW237320   0.184   0.528   8.787 -1.7157 -1.6814  0.4549
 8563SOL     OW37321   3.671   4.711   7.785 -0.6089 -0.4981  0.3396
 8563SOL    HW137322   3.618   4.639   7.752 -0.2298  0.3749 -2.1929
 8563SOL    HW237323   3.640   4.724   7.875 -0.9721 -0.0127  0.1461
 8564SOL     OW37324   3.982   0.150   5.222 -0.5621 -0.3791  0.0870
 8564SOL    HW137325   3.945   0.152   5.311 -1.4439  2.0994 -0.3489
 8564SOL    HW237326   3.898   0.173   5.181 -0.4118 -0.8038 -0.4470
 8565SOL     OW37327   0.380   0.022   3.839  0.2289  0.4055 -0.1243
 8565SOL    HW137328   0.343   4.676   3.824  1.4047 -0.4181  1.8457
 8565SOL    HW237329   0.348   0.066   3.760  1.3992 -1.1221 -1.4542
 8566SOL     OW37330   3.429   4.513  17.463 -0.2157  0.3485  0.4653
 8566SOL    HW137331   3.485   4.478  17.533 -0.6413 -0.4176  0.4253
 8566SOL    HW237332   3.494   4.569  17.421 -0.6625  1.9517  1.9031
 8567SOL     OW37333   2.680   3.729   8.628  0.1332 -0.8157 -0.4637
 8567SOL    HW137334   2.703   3.764   8.714 -0.5858  1.7175 -1.2740
 8567SOL    HW237335   2.745   3.771   8.571  0.8790 -0.4820  0.6268
 8568SOL     OW37336   4.229   0.627   6.957  0.9006 -0.3657  0.3841
 8568SOL    HW137337   4.139   0.648   6.980  1.8676  3.3453  0.9704
 8568SOL    HW237338   4.253   0.718   6.937 -0.3711  0.0815  0.8845
 8569SOL     OW37339   4.142   0.495   5.559 -0.1338 -0.0203  0.3043
 8569SOL    HW137340   4.230   0.509   5.593  0.6164  0.8710 -2.0234
 8569SOL    HW237341   4.160   0.427   5.494 -2.4130 -0.7632  0.4249
 8570SOL     OW37342   1.157   4.089   2.861  0.3182  0.2825 -0.3640
 8570SOL    HW137343   1.077   4.061   2.906  0.2036 -0.4272 -1.0129
 8570SOL    HW237344   1.153   4.040   2.779 -2.1486  0.2198 -0.2296
 8571SOL     OW37345   3.239   1.070   4.184 -0.1317 -0.6907  0.0487
 8571SOL    HW137346   3.334   1.080   4.182 -0.1644 -0.3025  0.4578
 8571SOL    HW237347   3.244   0.995   4.125 -1.3012 -1.2072  0.6061
 8572SOL     OW37348   2.510   2.760  13.772 -0.5966 -0.1192  0.4705
 8572SOL    HW137349   2.454   2.751  13.695 -0.2744  0.7160  0.1384
 8572SOL    HW237350   2.583   2.820  13.759  0.5043 -1.4392  0.5865
 8573SOL     OW37351   3.423   0.140   2.084 -0.0649 -0.2830 -0.0075
 8573SOL    HW137352   3.505   0.127   2.038  0.5233 -1.8098  1.4965
 8573SOL    HW237353   3.366   0.117   2.010 -2.5476  1.2152  1.4240
 8574SOL     OW37354   1.309   1.522   5.023 -0.1571  0.1845  0.7690
 8574SOL    HW137355   1.283   1.468   4.948 -1.1498  1.1814  0.3938
 8574SOL    HW237356   1.375   1.581   4.988 -0.7275  1.0162  1.0912
 8575SOL     OW37357   2.881   0.297   1.896 -0.3312  0.1355  0.2324
 8575SOL    HW137358   2.914   0.381   1.929 -0.2721 -0.1935  0.9980
 8575SOL    HW237359   2.830   0.332   1.823 -1.0882  0.0239  0.7116
 8576SOL     OW37360   2.928   3.153  15.290  0.2943 -0.3973 -0.8011
 8576SOL    HW137361   2.897   3.139  15.379 -0.2716 -2.1547 -1.2608
 8576SOL    HW237362   3.009   3.102  15.285  2.1273  2.6749 -2.5159
 8577SOL     OW37363   1.101   1.378   8.633 -0.0291 -0.5714  0.4359
 8577SOL    HW137364   1.191   1.412   8.626  0.3748 -1.3229  1.9182
 8577SOL    HW237365   1.052   1.452   8.598  0.6126 -0.0607  0.6081
 8578SOL     OW37366   1.496   1.114   6.770 -0.3037 -0.2734  0.2586
 8578SOL    HW137367   1.404   1.130   6.793 -0.3641  0.1096 -0.2394
 8578SOL    HW237368   1.531   1.134   6.857 -0.6177  1.4606 -0.0139
 8579SOL     OW37369   2.137   1.659  13.737 -0.2647 -0.2988  0.5463
 8579SOL    HW137370   2.055   1.695  13.704  0.4723  0.7075 -0.1870
 8579SOL    HW237371   2.187   1.641  13.658 -0.2869  2.2831 -0.0595
 8580SOL     OW37372   4.332   1.321   8.092  0.0601 -0.0281 -0.3187
 8580SOL    HW137373   4.344   1.414   8.110  0.4459 -0.2266  0.4786
 8580SOL    HW237374   4.383   1.314   8.011  1.6589  4.0117  0.3615
 8581SOL     OW37375   2.630   0.194  16.689  0.2210  0.4671  0.4249
 8581SOL    HW137376   2.687   0.230  16.757  1.1583 -1.9553  0.9164
 8581SOL    HW237377   2.564   0.151  16.743 -1.5137  0.7385 -1.4907
 8582SOL     OW37378   1.309   2.106   5.392 -0.0261  0.0329  0.2441
 8582SOL    HW137379   1.227   2.155   5.388  0.2117  0.5872  1.9104
 8582SOL    HW237380   1.357   2.150   5.322 -0.7809 -0.9125 -0.8647
 8583SOL     OW37381   3.617   4.271  15.479 -0.3580 -0.3583  0.1473
 8583SOL    HW137382   3.602   4.206  15.410  2.1708 -0.5111 -0.2577
 8583SOL    HW237383   3.527   4.279  15.512 -0.2148  1.0115  0.1842
 8584SOL     OW37384   0.970   4.016   4.697 -0.4001  0.1303  0.7358
 8584SOL    HW137385   0.954   3.998   4.604 -1.9889  2.9564  0.4584
 8584SOL    HW237386   1.061   4.045   4.684 -0.3067 -0.2031  0.6324
 8585SOL     OW37387   0.253   1.800   5.335 -0.0296  0.2122 -0.2702
 8585SOL    HW137388   0.184   1.861   5.311  0.5194  1.0725  0.3536
 8585SOL    HW237389   0.201   1.731   5.376 -1.0902  1.2994  0.2292
 8586SOL     OW37390   3.406   1.334   9.543  0.1679  0.2108  0.3043
 8586SOL    HW137391   3.397   1.429   9.533  0.4925  0.1783 -0.2716
 8586SOL    HW237392   3.500   1.321   9.527  0.4985  0.9823  1.6009
 8587SOL     OW37393   3.168   1.344  16.749  0.2250 -0.2824 -0.1996
 8587SOL    HW137394   3.146   1.437  16.757 -1.7405 -0.6999 -0.6318
 8587SOL    HW237395   3.098   1.300  16.797  0.4965  0.1547  0.5932
 8588SOL     OW37396   2.667   0.834  12.854 -0.2232 -0.0261 -0.0116
 8588SOL    HW137397   2.661   0.741  12.876  0.1896  0.0163  0.2877
 8588SOL    HW237398   2.613   0.834  12.775 -2.6018  1.8551  1.6549
 8589SOL     OW37399   3.381   0.062  17.718 -0.0281  0.0947  0.1337
 8589SOL    HW137400   3.377   0.119  17.641  2.0419 -1.0254 -0.7895
 8589SOL    HW237401   3.349   0.117   0.026  0.8540 -1.7816  1.9338
 8590SOL     OW37402   4.314   1.431   1.548 -0.4674  0.3938 -0.1804
 8590SOL    HW137403   4.289   1.377   1.473 -0.3825 -0.1729  0.2001
 8590SOL    HW237404   4.315   1.363   1.615 -1.3193  1.4622  0.9066
 8591SOL     OW37405   2.158   1.567   8.465 -0.1930  0.2657  0.6411
 8591SOL    HW137406   2.125   1.571   8.555  0.5043  2.8287  0.7745
 8591SOL    HW237407   2.171   1.661   8.452  0.5030  0.0823  0.0549
 8592SOL     OW37408   1.062   3.213   8.140  0.1713 -0.0390  0.2744
 8592SOL    HW137409   1.057   3.128   8.096 -1.2276  0.3094 -0.2431
 8592SOL    HW237410   0.969   3.204   8.161  0.3317 -2.3887  0.0291
 8593SOL     OW37411   2.297   0.323  17.353  0.4366  0.1335 -0.5707
 8593SOL    HW137412   2.212   0.281  17.364 -0.2428  1.5378 -0.3654
 8593SOL    HW237413   2.286   0.352  17.262 -0.6956 -1.6362 -1.0052
 8594SOL     OW37414   1.923   1.349   7.491  0.1071  0.6449 -0.2490
 8594SOL    HW137415   1.943   1.395   7.573  0.0846  2.9131 -1.4947
 8594SOL    HW237416   1.986   1.277   7.498 -0.6646  0.1356  1.3922
 8595SOL     OW37417   2.023   1.058   8.198 -0.1328  0.0991 -0.5627
 8595SOL    HW137418   2.031   1.150   8.172  2.9897  0.0799  0.3208
 8595SOL    HW237419   1.935   1.035   8.169  0.5638 -1.1216 -1.6825
 8596SOL     OW37420   3.631   0.870   6.769 -0.0526 -0.1677 -0.5597
 8596SOL    HW137421   3.639   0.810   6.842 -1.1361 -0.0059 -0.2990
 8596SOL    HW237422   3.548   0.913   6.793 -0.7733 -1.4614 -0.7684
 8597SOL     OW37423   3.671   2.274  10.608 -0.4336 -0.2848  0.4209
 8597SOL    HW137424   3.656   2.342  10.543 -2.3668  0.8827  2.0832
 8597SOL    HW237425   3.765   2.286  10.623 -0.2597 -0.7838 -0.2807
 8598SOL     OW37426   1.452   2.125   6.208  0.2971 -0.6506 -0.3600
 8598SOL    HW137427   1.398   2.097   6.134 -0.7265  0.5827 -0.0927
 8598SOL    HW237428   1.536   2.099   6.171  1.5532  2.6389  0.1639
 8599SOL     OW37429   2.972   2.367   4.962  0.0597  0.4259 -0.2875
 8599SOL    HW137430   3.050   2.392   4.912  0.1617  0.9074  0.1091
 8599SOL    HW237431   2.941   2.450   4.999  0.3536  0.1651  0.5562
 8600SOL     OW37432   3.237   3.624   7.663  0.3271 -0.9679  0.0352
 8600SOL    HW137433   3.327   3.648   7.683  1.7117 -3.8702 -2.6356
 8600SOL    HW237434   3.210   3.690   7.598 -0.6445 -0.4326  0.9862
 8601SOL     OW37435   2.574   1.975  17.624  0.8447 -0.4820  0.2997
 8601SOL    HW137436   2.550   1.971  17.717  1.9355  0.0921  0.6143
 8601SOL    HW237437   2.630   2.053  17.634 -0.2821  0.6518 -2.3786
 8602SOL     OW37438   2.242   1.525   1.389  0.1145  0.0811  0.9566
 8602SOL    HW137439   2.282   1.558   1.309  0.3338 -2.5583 -0.0108
 8602SOL    HW237440   2.267   1.434   1.374 -0.0422  0.4202 -1.2382
 8603SOL     OW37441   1.469   3.884   6.167 -0.3228  0.1199 -0.1519
 8603SOL    HW137442   1.457   3.856   6.076 -1.1080  0.4640 -0.1512
 8603SOL    HW237443   1.503   3.802   6.201 -1.0341  0.1170  0.5435
 8604SOL     OW37444   1.346   4.262  14.728 -0.1132  0.4143 -0.0269
 8604SOL    HW137445   1.312   4.240  14.641 -0.1026 -0.6546  0.2372
 8604SOL    HW237446   1.261   4.244  14.768  0.1137  0.0959  0.3100
 8605SOL     OW37447   1.882   3.917   0.747  0.6558 -0.0965 -0.0286
 8605SOL    HW137448   1.926   3.964   0.676 -1.7397 -0.2512 -1.6147
 8605SOL    HW237449   1.951   3.863   0.785 -0.3722 -2.5364 -1.6305
 8606SOL     OW37450   2.179   3.314   4.962  0.1128 -0.1800  0.0422
 8606SOL    HW137451   2.256   3.338   5.013  0.7694  0.0807 -1.0682
 8606SOL    HW237452   2.127   3.265   5.026 -1.1474 -0.2595 -1.0344
 8607SOL     OW37453   1.870   3.410   5.521 -0.2491  0.4271  0.5631
 8607SOL    HW137454   1.844   3.322   5.550  0.8283  0.1162  0.6017
 8607SOL    HW237455   1.957   3.409   5.561 -0.9825 -1.9247  2.1566
 8608SOL     OW37456   2.825   0.069   0.053  0.7973 -0.5588 -0.0320
 8608SOL    HW137457   2.825   0.019   0.135 -1.9870 -2.7165 -1.3842
 8608SOL    HW237458   2.900   0.030   0.010  0.4957 -0.6217 -0.4978
 8609SOL     OW37459   2.724   1.473   1.273  0.6408 -0.2180 -0.5413
 8609SOL    HW137460   2.687   1.505   1.355  0.6073 -0.4150 -0.4789
 8609SOL    HW237461   2.816   1.500   1.277  0.2078  1.1415  0.2214
 8610SOL     OW37462   0.422   4.169  15.364 -0.1109 -0.3171 -0.1002
 8610SOL    HW137463   0.513   4.188  15.343 -0.0360  1.1503  1.5424
 8610SOL    HW237464   0.429   4.082  15.403  2.5034  0.0762  0.3331
 8611SOL     OW37465   0.927   0.355   6.701 -0.0407  0.2434 -0.0854
 8611SOL    HW137466   0.982   0.278   6.714  3.2133  2.4345 -0.9102
 8611SOL    HW237467   0.881   0.331   6.620  0.4935  0.3911 -0.4301
 8612SOL     OW37468   4.710   2.621   7.220 -0.3286 -0.7222  0.3359
 8612SOL    HW137469   4.648   2.571   7.273  0.3354 -0.8010  1.0453
 8612SOL    HW237470   4.663   2.696   7.185  0.4566  0.7529  2.4486
 8613SOL     OW37471   1.547   0.955   8.828 -0.0372 -0.2205  0.3087
 8613SOL    HW137472   1.465   0.928   8.870  0.6101 -1.8012  0.5632
 8613SOL    HW237473   1.598   0.959   8.909 -0.3532 -1.1199  0.5504
 8614SOL     OW37474   0.660   2.817   3.681 -0.0905 -0.2688 -0.2232
 8614SOL    HW137475   0.716   2.882   3.639 -0.9905 -0.1040 -1.1684
 8614SOL    HW237476   0.657   2.749   3.613 -1.2306  1.5767 -2.0274
 8615SOL     OW37477   0.940   0.524   4.331 -0.2680  0.0336  0.1129
 8615SOL    HW137478   0.941   0.428   4.337  0.1021 -0.1059 -2.0259
 8615SOL    HW237479   1.015   0.541   4.275  1.1481 -0.6302  1.8249
 8616SOL     OW37480   0.085   0.291   9.184 -0.4415  0.1520 -0.3347
 8616SOL    HW137481   0.074   0.206   9.226  0.2646  0.2542  0.0424
 8616SOL    HW237482   0.140   0.339   9.245  1.6207  0.7346 -2.6439
 8617SOL     OW37483   4.150   4.344   3.520  0.2992 -0.1969  0.3777
 8617SOL    HW137484   4.162   4.364   3.612 -0.1166  2.0692 -0.0466
 8617SOL    HW237485   4.221   4.396   3.480 -0.8002  0.2151 -1.0542
 8618SOL     OW37486   0.992   0.086   4.775  0.4571  0.3537 -0.1824
 8618SOL    HW137487   1.023   4.738   4.780 -0.9942 -0.1701 -0.8211
 8618SOL    HW237488   1.042   0.128   4.846  2.4743 -0.3225 -1.1991
 8619SOL     OW37489   3.721   3.587  12.167  0.1985  0.2800  0.5368
 8619SOL    HW137490   3.718   3.569  12.073 -1.2052  0.0110  0.6334
 8619SOL    HW237491   3.801   3.539  12.192  0.4066  0.8622  0.9939
 8620SOL     OW37492   3.818   3.100   3.040 -0.5337 -0.2218  0.1772
 8620SOL    HW137493   3.837   3.065   3.127 -1.1383 -0.0114  0.3988
 8620SOL    HW237494   3.892   3.158   3.029 -0.6430 -0.2327 -0.6478
 8621SOL     OW37495   4.238   0.849   2.627  0.5389  0.4767 -0.0821
 8621SOL    HW137496   4.146   0.833   2.605  0.3981  2.3402 -0.8734
 8621SOL    HW237497   4.273   0.841   2.538 -0.0939  1.3332 -0.4159
 8622SOL     OW37498   0.756   2.871  11.866 -0.0629  0.1337  0.2394
 8622SOL    HW137499   0.842   2.828  11.861 -1.1076 -1.9854  0.5892
 8622SOL    HW237500   0.745   2.872  11.771 -0.2977  0.0320  0.2664
 8623SOL     OW37501   3.530   2.805   1.421 -0.4273  0.3934 -0.1054
 8623SOL    HW137502   3.574   2.725   1.447  2.0661  1.2316 -1.7949
 8623SOL    HW237503   3.473   2.829   1.494 -1.0046  1.2082 -0.8255
 8624SOL     OW37504   1.621   0.908   3.318 -0.0870 -0.0408  0.1342
 8624SOL    HW137505   1.674   0.886   3.241  1.4644  0.1791  1.1310
 8624SOL    HW237506   1.556   0.962   3.273  0.0590  0.0901  0.0787
 8625SOL     OW37507   2.951   1.947   5.576 -0.0689  0.1243  0.4860
 8625SOL    HW137508   2.919   2.033   5.549  0.6679  0.7685  1.6816
 8625SOL    HW237509   3.043   1.963   5.559  0.0815  0.1479  1.3485
 8626SOL     OW37510   0.637   2.440   3.304 -0.0240 -0.3658  0.6781
 8626SOL    HW137511   0.629   2.469   3.213 -0.2097 -1.9396  0.1913
 8626SOL    HW237512   0.561   2.382   3.309  0.8755 -1.5789  0.1738
 8627SOL     OW37513   1.241   4.199   1.540 -0.5027 -0.5009 -0.6868
 8627SOL    HW137514   1.318   4.221   1.488  0.4176 -2.2429 -0.0406
 8627SOL    HW237515   1.274   4.111   1.558  2.5833  0.7876 -0.0577
 8628SOL     OW37516   3.340   3.071   3.610 -0.1120  0.1549 -0.3206
 8628SOL    HW137517   3.378   3.086   3.696 -1.0877  3.6968 -0.5049
 8628SOL    HW237518   3.403   3.125   3.563  1.3152 -0.2165  1.2010
 8629SOL     OW37519   2.864   1.931   8.479 -0.1061  0.8604 -0.3547
 8629SOL    HW137520   2.868   1.863   8.411  1.8063 -0.2232  0.8364
 8629SOL    HW237521   2.875   1.880   8.559  0.6720  0.2034 -0.8790
 8630SOL     OW37522   1.045   4.608  14.198  0.0624  0.0203 -0.0303
 8630SOL    HW137523   0.975   4.622  14.135  0.7843  1.0754 -0.6020
 8630SOL    HW237524   1.122   4.596  14.143 -1.4929 -0.6671 -2.0249
 8631SOL     OW37525   2.079   2.344   6.049  0.6240  0.0393  0.2751
 8631SOL    HW137526   2.055   2.308   5.964 -1.6771 -2.4184  1.9542
 8631SOL    HW237527   2.033   2.290   6.113  3.4076 -1.4917  0.9516
 8632SOL     OW37528   2.378   0.543  11.839  0.4818  0.3672  0.0340
 8632SOL    HW137529   2.404   0.571  11.927  2.2988 -0.9467 -0.0982
 8632SOL    HW237530   2.307   0.486  11.867  0.4163  0.0067 -0.8628
 8633SOL     OW37531   4.188   4.487   4.336 -0.3965  0.4420 -0.4849
 8633SOL    HW137532   4.132   4.558   4.367  0.9414  1.8907 -1.3825
 8633SOL    HW237533   4.276   4.522   4.348 -0.4375  0.7805 -1.1823
 8634SOL     OW37534   1.774   2.693   7.333 -0.3977  0.1726 -0.4235
 8634SOL    HW137535   1.742   2.642   7.408  0.5847 -0.3763 -0.3780
 8634SOL    HW237536   1.823   2.764   7.374 -1.4530  0.4432  0.3861
 8635SOL     OW37537   1.115   0.082   6.715 -0.1753  0.1758  0.3906
 8635SOL    HW137538   1.031   0.038   6.725  1.3785 -2.3984  1.9008
 8635SOL    HW237539   1.125   0.088   6.620  3.6884  3.1864  0.9756
 8636SOL     OW37540   2.325   2.198   6.785 -0.2225 -0.3343 -0.2833
 8636SOL    HW137541   2.339   2.209   6.691 -1.8382 -0.6360 -0.5731
 8636SOL    HW237542   2.271   2.118   6.782 -0.7164 -0.0802  1.8200
 8637SOL     OW37543   4.341   0.064   0.133 -0.2609  0.3529  0.8632
 8637SOL    HW137544   4.273   4.741   0.112 -0.4341  0.9110 -0.3185
 8637SOL    HW237545   4.355   0.084   0.041  0.1736  2.3326  1.3657
 8638SOL     OW37546   2.336   2.751   4.583 -0.1155  0.0594 -0.1774
 8638SOL    HW137547   2.310   2.830   4.537  1.6017 -0.1545 -1.5493
 8638SOL    HW237548   2.254   2.702   4.585 -0.1058  0.1572  2.2503
 8639SOL     OW37549   3.842   3.587   8.201 -0.2066 -0.3361 -0.6449
 8639SOL    HW137550   3.839   3.668   8.251  0.4582 -0.1426 -0.9161
 8639SOL    HW237551   3.762   3.583   8.150 -0.0477 -1.3801 -0.8180
 8640SOL     OW37552   3.673   4.488   4.619  0.2770 -0.4058 -0.3025
 8640SOL    HW137553   3.663   4.525   4.707  0.4190 -0.7829 -0.1293
 8640SOL    HW237554   3.764   4.460   4.613 -0.1714 -2.2006  1.5004
 8641SOL     OW37555   1.206   1.028   5.492  0.0028 -0.5956 -0.1790
 8641SOL    HW137556   1.224   1.034   5.398  1.4442  1.3601  0.2043
 8641SOL    HW237557   1.121   1.071   5.494  0.3647  0.1644 -1.1867
 8642SOL     OW37558   2.137   0.215   7.276  0.0188  0.3297  0.5395
 8642SOL    HW137559   2.201   0.170   7.332  0.4910 -0.1388 -0.3922
 8642SOL    HW237560   2.077   0.255   7.338  2.9567  0.0621  3.5984
 8643SOL     OW37561   4.639   2.903   8.775 -0.2726  0.3255  0.1440
 8643SOL    HW137562   4.571   2.936   8.833 -1.2645 -0.8642 -0.3479
 8643SOL    HW237563   4.667   2.817   8.808 -2.0894  0.4718  2.0114
 8644SOL     OW37564   4.396   4.503  17.717  0.2182 -0.1204 -0.6879
 8644SOL    HW137565   4.456   4.458  17.657 -0.3972  0.5078 -1.7907
 8644SOL    HW237566   4.401   4.588  17.674  3.7250  0.7963  1.5362
 8645SOL     OW37567   3.546   3.957   8.730  0.0052  0.2718 -0.4829
 8645SOL    HW137568   3.631   3.926   8.761 -0.0313  0.0872 -0.5654
 8645SOL    HW237569   3.561   4.046   8.699  2.1167  1.5909  4.3603
 8646SOL     OW37570   1.154   2.185   0.553  0.1222 -0.1103 -0.0666
 8646SOL    HW137571   1.103   2.115   0.593 -0.6703  0.2364 -0.4837
 8646SOL    HW237572   1.160   2.169   0.458 -0.9073 -0.1066 -0.1248
 8647SOL     OW37573   0.011   2.527   3.472 -0.0969 -0.2682 -0.4914
 8647SOL    HW137574   0.001   2.434   3.452  2.8962 -0.0909 -2.9560
 8647SOL    HW237575   4.724   2.558   3.386 -0.8446  1.5513  0.3942
 8648SOL     OW37576   3.518   2.003   2.871  0.2988 -0.7843  0.0618
 8648SOL    HW137577   3.439   2.036   2.914 -1.0373 -2.3975 -1.1809
 8648SOL    HW237578   3.591   2.024   2.929  0.2721 -0.4454 -0.0221
 8649SOL     OW37579   3.933   0.579   9.366  0.2328  0.3624 -0.3175
 8649SOL    HW137580   3.994   0.551   9.298  0.2018 -0.2957 -0.0698
 8649SOL    HW237581   3.879   0.503   9.389 -1.8877  2.1830  0.7377
 8650SOL     OW37582   2.850   3.861   9.301  0.2508  0.5558  0.0562
 8650SOL    HW137583   2.761   3.833   9.321 -0.4320  2.0096 -1.0126
 8650SOL    HW237584   2.839   3.956   9.300  0.2350  0.5490 -0.2491
 8651SOL     OW37585   3.651   0.967  10.390  0.2095 -0.2196  0.6826
 8651SOL    HW137586   3.605   0.931  10.466  0.3165  0.7810  1.2199
 8651SOL    HW237587   3.593   1.035  10.357 -1.6772 -1.8905  0.5632
 8652SOL     OW37588   3.745   3.453   0.924  0.1394  0.4131 -0.3474
 8652SOL    HW137589   3.815   3.401   0.964  1.1162  0.2390 -2.2592
 8652SOL    HW237590   3.750   3.539   0.967 -1.1147 -0.2141  1.0506
 8653SOL     OW37591   4.557   2.447   8.037  0.4369  0.3786 -0.1703
 8653SOL    HW137592   4.509   2.433   7.955 -1.8682  1.0774  1.0518
 8653SOL    HW237593   4.570   2.542   8.034  0.3283  0.4446  1.2408
 8654SOL     OW37594   0.629   3.005   7.661 -0.4699  0.1272 -0.0490
 8654SOL    HW137595   0.635   2.909   7.659  0.1029  0.1791 -0.8040
 8654SOL    HW237596   0.547   3.016   7.709  0.8874  2.1469  1.8199
 8655SOL     OW37597   0.770   3.966   5.406  0.4021  0.4207  0.2906
 8655SOL    HW137598   0.852   3.992   5.448  1.4095 -0.8290 -0.8716
 8655SOL    HW237599   0.725   3.920   5.476  1.0958 -1.2593 -0.3710
 8656SOL     OW37600   3.138   4.658  17.167 -0.0417  0.0502 -0.4746
 8656SOL    HW137601   3.195   4.615  17.103  2.7106 -0.7998  2.5879
 8656SOL    HW237602   3.098   4.727  17.113 -0.3492  0.1127 -0.1658
 8657SOL     OW37603   4.669   2.555   5.724  0.1605  0.5186 -0.2124
 8657SOL    HW137604   4.676   2.479   5.666 -2.2674  0.1201  0.0029
 8657SOL    HW237605   4.608   2.518   5.788  0.5095 -2.0102 -1.3120
 8658SOL     OW37606   2.144   1.454   2.621  0.2907 -0.2442 -0.2150
 8658SOL    HW137607   2.067   1.507   2.604 -0.1465 -0.2662  1.6907
 8658SOL    HW237608   2.121   1.366   2.590  1.5866 -0.2898 -1.0425
 8659SOL     OW37609   0.567   3.761   3.089  0.4567  0.5288 -0.3897
 8659SOL    HW137610   0.605   3.675   3.107 -2.8448 -0.7052  0.6060
 8659SOL    HW237611   0.603   3.807   3.165  1.8127 -4.3172  1.9069
 8660SOL     OW37612   1.892   2.675   9.526 -0.2618 -0.5959  0.7390
 8660SOL    HW137613   1.840   2.754   9.538 -0.4946 -0.5933 -0.2054
 8660SOL    HW237614   1.953   2.676   9.599 -0.5125 -0.2100  0.9380
 8661SOL     OW37615   0.145   1.184   5.260 -0.0905  0.0112 -0.2002
 8661SOL    HW137616   0.133   1.276   5.235 -0.0814 -0.1134 -0.6700
 8661SOL    HW237617   0.058   1.155   5.288 -0.4914  1.2439 -0.1672
 8662SOL     OW37618   2.002   3.164   2.053  0.0140  0.0075  0.2454
 8662SOL    HW137619   2.010   3.156   2.148 -0.1200  0.2645  0.2785
 8662SOL    HW237620   1.913   3.200   2.045 -0.4691 -0.9449  1.3161
 8663SOL     OW37621   1.257   0.910   2.316  0.7180 -0.0737 -0.3553
 8663SOL    HW137622   1.306   0.895   2.235  0.8584 -0.4034 -0.2076
 8663SOL    HW237623   1.307   0.989   2.338  0.2866  0.1617 -0.2278
 8664SOL     OW37624   4.142   0.821   2.192  0.2336  0.4203 -0.0449
 8664SOL    HW137625   4.183   0.770   2.263  1.7317  0.0934 -1.1604
 8664SOL    HW237626   4.178   0.909   2.201 -1.0441  0.9142  0.1365
 8665SOL     OW37627   2.765   0.672  13.559 -0.1736  0.1074 -0.7048
 8665SOL    HW137628   2.738   0.763  13.564 -0.6026  0.1536 -3.7922
 8665SOL    HW237629   2.800   0.659  13.647  1.9464 -3.0902 -2.0240
 8666SOL     OW37630   0.609   1.337  14.796  0.4814  0.0947  0.2647
 8666SOL    HW137631   0.591   1.328  14.703  1.4125 -1.2685  0.2053
 8666SOL    HW237632   0.535   1.374  14.845 -0.3666  0.0627 -1.0035
 8667SOL     OW37633   3.270   4.117   7.236  0.5559 -0.4723  0.3109
 8667SOL    HW137634   3.249   4.051   7.170  2.6225 -0.5510 -0.2476
 8667SOL    HW237635   3.264   4.062   7.314 -1.8346 -1.0561 -0.2551
 8668SOL     OW37636   3.487   0.669   8.794 -0.1998 -0.4459 -0.0157
 8668SOL    HW137637   3.558   0.679   8.857  0.2830 -0.8779 -0.4993
 8668SOL    HW237638   3.424   0.728   8.836 -0.7715 -0.9096 -0.2224
 8669SOL     OW37639   2.523   1.210   1.664 -0.1289 -1.1696 -0.3005
 8669SOL    HW137640   2.555   1.291   1.705  0.3275  0.1006 -3.1442
 8669SOL    HW237641   2.480   1.241   1.584 -1.7022  0.7028  1.2572
 8670SOL     OW37642   0.600   0.088   6.781  0.5548 -0.0370 -0.2982
 8670SOL    HW137643   0.541   0.105   6.708  0.0833 -3.3706 -0.7244
 8670SOL    HW237644   0.575   0.161   6.838 -0.7915 -0.9822  0.3361
 8671SOL     OW37645   1.267   3.272   7.393  0.2746 -0.1011 -0.1338
 8671SOL    HW137646   1.222   3.256   7.476  1.8806 -0.1064  0.7347
 8671SOL    HW237647   1.320   3.192   7.396 -1.0612 -1.0583 -2.3531
 8672SOL     OW37648   0.969   1.720   3.178 -0.1964 -0.1186 -0.4023
 8672SOL    HW137649   1.049   1.729   3.230  1.5194  2.6685 -3.5189
 8672SOL    HW237650   0.915   1.658   3.227  0.0109  0.6617  0.8266
 8673SOL     OW37651   1.311   4.173   8.240 -0.5219 -0.5177  0.2211
 8673SOL    HW137652   1.224   4.206   8.262 -0.3089  1.0316 -1.3032
 8673SOL    HW237653   1.367   4.234   8.288 -1.0366 -0.9559  1.3966
 8674SOL     OW37654   0.698   1.533  16.311 -0.4974  0.0965  0.3457
 8674SOL    HW137655   0.769   1.555  16.371 -0.6519 -1.7707  1.2176
 8674SOL    HW237656   0.706   1.438  16.296 -2.9380  0.0548 -0.7482
 8675SOL     OW37657   2.292   0.729   8.625  0.2714 -0.1696  0.2835
 8675SOL    HW137658   2.382   0.700   8.640  0.5828  0.0956 -1.0462
 8675SOL    HW237659   2.267   0.694   8.540 -0.2810 -1.0095  0.7873
 8676SOL     OW37660   2.891   2.441  13.753 -0.3681 -0.0333 -0.0985
 8676SOL    HW137661   2.964   2.411  13.807 -0.0749 -1.1287 -1.1203
 8676SOL    HW237662   2.817   2.397  13.796  0.4444 -1.2902  0.0068
 8677SOL     OW37663   1.743   3.714  15.965  0.6980 -0.3164  0.5331
 8677SOL    HW137664   1.782   3.631  15.992  0.3188 -1.1373 -1.4211
 8677SOL    HW237665   1.663   3.683  15.921  0.3449  3.3005 -1.3630
 8678SOL     OW37666   3.239   0.785   2.265 -0.3451 -0.3488  0.3608
 8678SOL    HW137667   3.330   0.785   2.233 -0.4548 -0.5593  0.0448
 8678SOL    HW237668   3.230   0.856   2.328 -0.6050  0.7559 -0.9117
 8679SOL     OW37669   4.368   1.559   3.877  0.2837  0.2398 -0.6105
 8679SOL    HW137670   4.366   1.616   3.954  1.3131 -0.7330  0.1309
 8679SOL    HW237671   4.438   1.499   3.900 -0.1366 -0.9418 -2.4485
 8680SOL     OW37672   0.561   0.203  12.243  0.2611 -0.0991  0.7082
 8680SOL    HW137673   0.603   0.165  12.320  0.7611  1.3385  1.1510
 8680SOL    HW237674   0.628   0.194  12.175  0.0016 -0.9691  0.5647
 8681SOL     OW37675   2.584   3.948   6.986 -0.1368  0.0427 -0.3730
 8681SOL    HW137676   2.531   3.868   6.989  1.0403 -0.7604 -0.9572
 8681SOL    HW237677   2.637   3.927   7.063 -4.6388 -1.9891  2.1648
 8682SOL     OW37678   1.863   2.393   2.276 -0.4961  0.4732  0.1455
 8682SOL    HW137679   1.870   2.299   2.256 -1.3901  0.1408  1.3157
 8682SOL    HW237680   1.943   2.408   2.326  0.5466 -1.1878 -1.0392
 8683SOL     OW37681   3.711   1.326   6.914  0.4343 -0.0006 -0.2260
 8683SOL    HW137682   3.791   1.378   6.925 -0.6996  1.1401  2.6232
 8683SOL    HW237683   3.727   1.270   6.838 -0.7857 -0.9410  0.2071
 8684SOL     OW37684   3.884   2.827   7.294  0.1447  0.7003 -0.1304
 8684SOL    HW137685   3.904   2.910   7.252 -1.9445  0.6214 -1.2970
 8684SOL    HW237686   3.830   2.855   7.367  2.6936 -0.5207  2.2332
 8685SOL     OW37687   1.973   3.108   3.489 -0.1210  0.2130  0.0887
 8685SOL    HW137688   2.023   3.031   3.462 -1.3866 -0.2742 -0.8502
 8685SOL    HW237689   1.899   3.117   3.429 -0.3107 -2.6373 -0.0894
 8686SOL     OW37690   2.707   3.599  14.790  0.8281  0.0154 -0.1460
 8686SOL    HW137691   2.713   3.689  14.822  0.6053 -0.9961  2.7711
 8686SOL    HW237692   2.653   3.618  14.714 -1.5772  0.8093  1.7684
 8687SOL     OW37693   0.334   4.184   4.368 -0.1908  0.1720  0.2552
 8687SOL    HW137694   0.406   4.134   4.330 -0.2515  0.0808  0.2589
 8687SOL    HW237695   0.337   4.271   4.328  0.0651 -0.1358 -0.4002
 8688SOL     OW37696   3.176   2.592   3.853  1.0709 -0.1869  0.5623
 8688SOL    HW137697   3.146   2.679   3.881 -3.9015 -2.6600  2.8816
 8688SOL    HW237698   3.250   2.574   3.911 -0.6840 -0.8117  2.6084
 8689SOL     OW37699   1.322   1.334   6.562 -0.0094 -0.5486  0.1628
 8689SOL    HW137700   1.378   1.296   6.494 -1.4925 -0.4741 -1.1050
 8689SOL    HW237701   1.309   1.266   6.629 -1.2314 -0.1538  0.3268
 8690SOL     OW37702   4.694   2.607  17.410  0.3371  0.1399 -0.1481
 8690SOL    HW137703   0.047   2.601  17.413  0.5142  3.0234 -0.2563
 8690SOL    HW237704   4.676   2.686  17.359  1.5163  0.5055  0.0179
 8691SOL     OW37705   4.447   3.100   1.772  0.9068  0.2967  0.2136
 8691SOL    HW137706   4.394   3.110   1.851  1.5794 -2.2015  0.9826
 8691SOL    HW237707   4.402   3.156   1.708  0.4405 -0.0289  0.2513
 8692SOL     OW37708   4.404   0.878   1.796  0.5454  0.2607  0.2143
 8692SOL    HW137709   4.331   0.900   1.739  0.5554 -1.5825 -0.5123
 8692SOL    HW237710   4.416   0.965   1.834 -3.5459  0.6628  0.5860
 8693SOL     OW37711   1.652   1.515   7.756 -0.0111 -0.3348 -0.7021
 8693SOL    HW137712   1.686   1.481   7.838  1.1987  2.3349 -0.1085
 8693SOL    HW237713   1.601   1.590   7.786  0.4264  0.0464 -0.9058
 8694SOL     OW37714   2.074   0.336   1.941  0.3748  0.2992  0.4304
 8694SOL    HW137715   1.992   0.371   1.976  1.1514  2.6128 -0.0465
 8694SOL    HW237716   2.057   0.337   1.847  3.3765  0.4381 -0.1316
 8695SOL     OW37717   3.800   3.133   2.157  0.9425 -0.4867 -0.0770
 8695SOL    HW137718   3.877   3.120   2.101  0.3259  2.2386 -1.5813
 8695SOL    HW237719   3.760   3.050   2.134 -2.4286  0.9166  0.7129
 8696SOL     OW37720   1.821   1.051   4.031  0.7749 -0.1443  0.0808
 8696SOL    HW137721   1.760   1.117   4.000  0.4168 -0.6212 -0.2288
 8696SOL    HW237722   1.766   0.978   4.059  2.0918 -0.9200  0.6558
 8697SOL     OW37723   3.175   1.243   9.036 -0.5271  0.1061  0.3203
 8697SOL    HW137724   3.105   1.254   9.101 -2.1733 -0.1525 -1.3977
 8697SOL    HW237725   3.244   1.235   9.101 -0.1987  2.5767  0.2541
 8698SOL     OW37726   1.749   1.941  12.721 -0.3400  0.1217  0.0279
 8698SOL    HW137727   1.696   2.016  12.696  2.1622  1.4778 -1.1950
 8698SOL    HW237728   1.820   1.941  12.657 -2.2638  3.0279 -2.0559
 8699SOL     OW37729   2.391   3.496   4.080 -0.4889  0.0200 -0.0094
 8699SOL    HW137730   2.322   3.454   4.131  1.1703 -1.0881  1.3231
 8699SOL    HW237731   2.466   3.481   4.138 -0.8792 -0.5172  0.3539
 8700SOL     OW37732   4.021   0.766   4.341 -0.2596  0.5696 -0.1116
 8700SOL    HW137733   3.953   0.758   4.273 -0.0062  1.4404 -0.4706
 8700SOL    HW237734   4.099   0.789   4.290 -0.9539 -1.7403 -2.2220
 8701SOL     OW37735   3.690   3.610  15.314 -0.4560  0.0838  0.9720
 8701SOL    HW137736   3.683   3.698  15.277  1.2433 -0.4446 -0.6589
 8701SOL    HW237737   3.622   3.619  15.380  0.6143 -1.0698  2.2310
 8702SOL     OW37738   3.655   2.024  15.668 -0.0636  0.5653 -0.4954
 8702SOL    HW137739   3.717   2.032  15.739  0.9949  0.4822 -1.4094
 8702SOL    HW237740   3.594   1.955  15.694 -0.9592  0.6775 -2.2213
 8703SOL     OW37741   4.080   3.097   7.003  0.7165 -0.1070 -0.6704
 8703SOL    HW137742   4.165   3.125   6.969  0.0193 -1.0847 -3.2255
 8703SOL    HW237743   4.035   3.069   6.923  3.1666 -0.6754 -1.8581
 8704SOL     OW37744   3.403   2.395  16.377 -0.0689 -0.4009  0.2197
 8704SOL    HW137745   3.327   2.411  16.320 -0.7866 -1.4338  0.8706
 8704SOL    HW237746   3.374   2.457  16.444  1.1506  2.7696 -2.1637
 8705SOL     OW37747   2.744   2.912   2.655  0.0949  0.0401  0.8828
 8705SOL    HW137748   2.649   2.912   2.666  0.0429  1.5788  0.4331
 8705SOL    HW237749   2.774   2.869   2.736  0.7265 -0.0870  0.5821
 8706SOL     OW37750   2.195   2.173   3.895  0.1157  0.1131  0.0273
 8706SOL    HW137751   2.232   2.090   3.924 -1.1843 -0.2072  0.8223
 8706SOL    HW237752   2.116   2.145   3.848 -0.5400  0.3117  0.9906
 8707SOL     OW37753   3.129   3.867   6.282 -0.1647 -0.6396 -0.2009
 8707SOL    HW137754   3.075   3.898   6.210 -0.0815  0.4740  0.2071
 8707SOL    HW237755   3.120   3.772   6.282 -0.5430 -0.6041 -0.0304
 8708SOL     OW37756   0.370   4.370   2.006 -0.6387 -0.3474 -0.0580
 8708SOL    HW137757   0.373   4.325   1.922  1.8760  0.4621 -0.4016
 8708SOL    HW237758   0.275   4.380   2.018 -0.5099  0.1371  0.5973
 8709SOL     OW37759   1.075   0.497   6.398 -0.0675  0.1297  0.2671
 8709SOL    HW137760   0.993   0.545   6.408 -0.6382 -1.1417  1.7455
 8709SOL    HW237761   1.143   0.563   6.384 -0.0461 -0.5080 -2.7147
 8710SOL     OW37762   2.976   0.108   2.066 -0.6702 -0.1851  0.0438
 8710SOL    HW137763   2.935   0.188   2.033 -0.1720  0.6769  1.5580
 8710SOL    HW237764   3.042   0.117   1.997 -0.6582 -0.5610  0.0065
 8711SOL     OW37765   3.426   0.184   3.520  0.2708 -0.0684  0.1634
 8711SOL    HW137766   3.436   0.099   3.476 -0.7393  0.3892 -0.9426
 8711SOL    HW237767   3.332   0.186   3.541  0.5080 -0.1711  1.2489
 8712SOL     OW37768   0.923   1.654  17.679  0.0584  0.1130  0.6960
 8712SOL    HW137769   0.956   1.615  17.760  1.4835 -0.5500 -0.2073
 8712SOL    HW237770   0.992   1.716  17.654 -0.6887  1.4366  1.8961
 8713SOL     OW37771   4.224   3.421   8.837 -0.2619  0.0646  0.1442
 8713SOL    HW137772   4.295   3.374   8.880 -1.7478 -1.2827  1.1305
 8713SOL    HW237773   4.212   3.362   8.763 -0.4818  1.2467 -0.7602
 8714SOL     OW37774   2.210   0.405   8.839 -0.5348  0.7998  0.6628
 8714SOL    HW137775   2.120   0.433   8.856 -1.1173 -0.9687  0.5062
 8714SOL    HW237776   2.196   0.310   8.831  2.5069  0.5695 -1.9460
 8715SOL     OW37777   4.208   4.159   2.090  0.3219 -0.3117 -0.7374
 8715SOL    HW137778   4.159   4.228   2.046 -0.5620  0.6175  1.7015
 8715SOL    HW237779   4.191   4.080   2.038 -1.1524  0.5616 -1.5505
 8716SOL     OW37780   1.869   0.568   3.473 -0.0737  0.4777 -0.1243
 8716SOL    HW137781   1.892   0.602   3.386  2.4782  0.1210  0.4171
 8716SOL    HW237782   1.797   0.628   3.497 -1.2107 -1.0065  0.1575
 8717SOL     OW37783   4.316   3.341   7.626 -0.3924  0.0829  0.3491
 8717SOL    HW137784   4.297   3.267   7.570  0.0458  1.9388 -2.2382
 8717SOL    HW237785   4.381   3.397   7.583 -1.1612 -0.4116 -1.4319
 8718SOL     OW37786   4.648   3.158   6.940  0.0406  0.2134 -0.3372
 8718SOL    HW137787   4.690   3.242   6.960 -0.9745  0.8551 -0.9347
 8718SOL    HW237788   4.705   3.105   6.996 -2.4945 -1.7476  0.3460
 8719SOL     OW37789   2.786   3.584   5.849  0.2677 -0.0234  0.4028
 8719SOL    HW137790   2.860   3.550   5.799  0.4056  2.0135 -0.7963
 8719SOL    HW237791   2.785   3.523   5.922  0.4429  0.7966  1.0902
 8720SOL     OW37792   3.188   4.086  10.744  0.1355  0.6453 -0.4884
 8720SOL    HW137793   3.231   4.132  10.816  1.1137 -0.7380 -0.1806
 8720SOL    HW237794   3.218   4.137  10.669  0.7321  0.9986 -0.0083
 8721SOL     OW37795   0.325   2.501  13.456  0.5809  0.8968 -0.5076
 8721SOL    HW137796   0.248   2.452  13.485 -0.4774  2.8126 -0.1147
 8721SOL    HW237797   0.380   2.496  13.535  2.1022  2.4939 -1.4740
 8722SOL     OW37798   4.184   2.864  13.391 -0.4187  0.2351  0.3573
 8722SOL    HW137799   4.126   2.852  13.316 -1.9626  0.2598  1.5189
 8722SOL    HW237800   4.164   2.784  13.440 -1.8295 -0.7212 -1.8073
 8723SOL     OW37801   0.271   2.258  17.481  0.5941 -0.2743  0.0536
 8723SOL    HW137802   0.316   2.181  17.446  1.0896 -1.9576  4.3245
 8723SOL    HW237803   0.215   2.270  17.404 -1.0103  1.6454  1.5313
 8724SOL     OW37804   4.580   2.761   2.346 -0.2009  0.0029 -0.1254
 8724SOL    HW137805   4.637   2.832   2.316  0.5302  0.1398  1.5891
 8724SOL    HW237806   4.584   2.692   2.279  0.3325 -1.9253  1.9203
 8725SOL     OW37807   3.720   0.564  10.007 -0.6320 -0.1359  0.5349
 8725SOL    HW137808   3.708   0.611  10.089 -0.1234 -0.1741  0.6349
 8725SOL    HW237809   3.629   0.564   9.978  0.1327  3.3762 -1.8100
 8726SOL     OW37810   0.835   1.638   8.315  0.1752 -0.7488 -0.0569
 8726SOL    HW137811   0.780   1.668   8.388  0.9030  1.9854 -0.6108
 8726SOL    HW237812   0.818   1.709   8.253 -2.4801 -0.5892  0.8617
 8727SOL     OW37813   1.525   3.046   3.892 -0.1894 -0.1960 -0.0444
 8727SOL    HW137814   1.565   3.131   3.876  1.5143 -0.6936  1.4727
 8727SOL    HW237815   1.500   3.052   3.984 -0.1420 -1.6774  0.0572
 8728SOL     OW37816   4.182   0.888   4.632  0.4242  0.0165 -0.2414
 8728SOL    HW137817   4.129   0.812   4.610  1.5011 -1.6376  2.8339
 8728SOL    HW237818   4.204   0.924   4.546  3.0814  1.0387  0.8654
 8729SOL     OW37819   4.453   0.982   5.595 -0.0161  0.4568 -0.1676
 8729SOL    HW137820   4.389   1.048   5.623 -0.1336  0.5850 -0.7389
 8729SOL    HW237821   4.530   1.036   5.574 -0.1433  0.1095 -1.5088
 8730SOL     OW37822   4.484   2.369   6.268 -0.4029  0.0541  0.2263
 8730SOL    HW137823   4.399   2.356   6.226 -1.1164  1.0603  1.3436
 8730SOL    HW237824   4.538   2.314   6.211 -0.7865  1.4317 -1.4683
 8731SOL     OW37825   3.177   1.779   5.087 -0.4347  0.5163 -0.4492
 8731SOL    HW137826   3.183   1.746   5.177  0.9182 -2.4448 -1.6426
 8731SOL    HW237827   3.259   1.826   5.072  1.4937 -2.5072  0.7016
 8732SOL     OW37828   1.274   0.654   9.901 -0.1130 -0.0464  0.0131
 8732SOL    HW137829   1.214   0.582   9.883 -0.0944  0.1540 -0.8482
 8732SOL    HW237830   1.356   0.611   9.877  1.3980  1.8554  1.8099
 8733SOL     OW37831   0.441   2.266   8.791  0.0856 -0.0662  0.0348
 8733SOL    HW137832   0.387   2.211   8.848 -0.6310  1.3194  0.7011
 8733SOL    HW237833   0.396   2.264   8.706 -1.7482 -0.2275  1.0129
 8734SOL     OW37834   0.506   1.947  13.750  0.0003  0.7480  0.0798
 8734SOL    HW137835   0.455   1.886  13.696  0.2981  1.7055 -1.3018
 8734SOL    HW237836   0.521   2.013  13.682 -1.5760  0.4121 -0.5890
 8735SOL     OW37837   3.034   2.056   8.110  0.3825  0.3890  0.1495
 8735SOL    HW137838   3.079   1.981   8.149  3.6510  1.2316 -2.0040
 8735SOL    HW237839   2.944   2.024   8.120  1.4642 -2.4356  0.7868
 8736SOL     OW37840   0.525   4.555   2.139 -0.4766  0.0199 -0.2296
 8736SOL    HW137841   0.489   4.641   2.119 -3.2315 -1.3372 -1.2241
 8736SOL    HW237842   0.471   4.496   2.086 -0.2312 -0.4258  0.0153
 8737SOL     OW37843   2.181   4.592  15.234 -0.4532  0.2723 -0.0691
 8737SOL    HW137844   2.089   4.568  15.234 -0.9163  1.9937 -0.4018
 8737SOL    HW237845   2.186   4.638  15.150 -0.1005  1.3430  0.5388
 8738SOL     OW37846   1.144   1.250  17.425 -0.2842  0.7021  0.0385
 8738SOL    HW137847   1.103   1.316  17.368 -1.9924 -1.1617 -0.8693
 8738SOL    HW237848   1.176   1.300  17.500  1.1148  0.1504 -0.2018
 8739SOL     OW37849   0.660   4.056  15.297  0.3757 -0.5199 -0.2798
 8739SOL    HW137850   0.617   3.996  15.357 -0.5687 -1.8872 -2.3313
 8739SOL    HW237851   0.699   3.996  15.233  0.0437 -0.0817 -0.8906
 8740SOL     OW37852   2.677   3.706   2.890 -0.4911 -0.3162 -0.1561
 8740SOL    HW137853   2.618   3.773   2.856 -1.1378 -1.4058 -1.2091
 8740SOL    HW237854   2.738   3.699   2.816 -2.6323 -3.2122 -1.6785
 8741SOL     OW37855   3.701   1.598   4.645 -0.6787 -0.1968  0.0703
 8741SOL    HW137856   3.705   1.632   4.734 -1.7774  0.6596 -0.2058
 8741SOL    HW237857   3.752   1.517   4.648 -2.4503 -1.3033  0.6973
 8742SOL     OW37858   3.969   0.156  17.737  0.6441 -0.1831  0.1676
 8742SOL    HW137859   3.917   0.229   0.008 -1.1935 -1.8695  0.9904
 8742SOL    HW237860   4.044   0.201  17.699  0.7663 -1.9515 -1.6744
 8743SOL     OW37861   2.373   0.759   5.628 -0.1980  0.0152 -0.1555
 8743SOL    HW137862   2.341   0.780   5.541 -1.1786 -0.2671  0.1307
 8743SOL    HW237863   2.406   0.670   5.612  0.3369  0.4235 -1.2649
 8744SOL     OW37864   0.525   2.088   3.041  0.0776 -0.1739 -0.6257
 8744SOL    HW137865   0.619   2.096   3.025  0.0999  0.5258 -0.1561
 8744SOL    HW237866   0.515   2.007   3.090 -1.3090  0.2038 -0.2699
 8745SOL     OW37867   1.528   3.216  13.653 -0.8537 -0.2441  0.1661
 8745SOL    HW137868   1.522   3.277  13.727  2.6836  0.4128 -0.0701
 8745SOL    HW237869   1.453   3.157  13.660 -0.4760 -0.8957 -1.2955
 8746SOL     OW37870   2.279   1.492   2.244 -0.6606 -0.1298 -0.1682
 8746SOL    HW137871   2.252   1.400   2.247 -2.3122  0.3585  0.1873
 8746SOL    HW237872   2.271   1.511   2.150  2.7349 -0.3861 -0.4732
 8747SOL     OW37873   4.219   3.606   7.347 -0.2086  0.0857 -0.2354
 8747SOL    HW137874   4.306   3.569   7.330  0.3131  0.2144  2.2254
 8747SOL    HW237875   4.230   3.608   7.442 -3.2809  2.2147  0.0717
 8748SOL     OW37876   0.493   3.256   6.886 -0.4862  0.3342  0.3496
 8748SOL    HW137877   0.446   3.297   6.814 -0.9320 -1.3359 -0.3097
 8748SOL    HW237878   0.560   3.310   6.929  1.7315 -0.3355 -2.2226
 8749SOL     OW37879   0.855   3.479   5.111 -0.5077  0.3343 -0.3650
 8749SOL    HW137880   0.784   3.444   5.056 -0.0493  0.0587 -0.7753
 8749SOL    HW237881   0.857   3.415   5.182 -1.3131  0.6107 -0.0870
 8750SOL     OW37882   0.548   0.426  15.965 -0.4563  0.3169  0.0243
 8750SOL    HW137883   0.457   0.455  15.979 -1.6257 -2.9296 -0.7812
 8750SOL    HW237884   0.550   0.330  15.963  1.2579  0.3560  0.0485
 8751SOL     OW37885   0.722   4.677   4.509 -0.3778 -1.2730 -0.3389
 8751SOL    HW137886   0.640   4.635   4.481  0.1758 -2.6678  0.1248
 8751SOL    HW237887   0.720   4.661   4.604  1.1746 -2.5669 -0.5167
 8752SOL     OW37888   4.060   0.430  16.560  0.2898 -0.4044  0.5127
 8752SOL    HW137889   3.992   0.396  16.619 -0.6966 -0.3825 -0.6026
 8752SOL    HW237890   4.138   0.395  16.602 -0.4542 -1.4966  0.9783
 8753SOL     OW37891   2.054   2.851   8.089  0.2421  0.4099  0.7013
 8753SOL    HW137892   1.990   2.840   8.158  0.9605 -1.4866  1.0514
 8753SOL    HW237893   2.011   2.815   8.011  1.7339 -1.3575  0.7061
 8754SOL     OW37894   4.069   3.016  15.898 -0.5532 -0.3383 -0.0917
 8754SOL    HW137895   4.015   3.064  15.835 -0.3879  0.1122  0.1132
 8754SOL    HW237896   4.149   3.067  15.883 -0.6375  0.4665  2.1313
 8755SOL     OW37897   0.361   3.683   6.526 -0.0793  0.1127  0.4414
 8755SOL    HW137898   0.380   3.752   6.462 -1.8999 -0.8363 -1.1509
 8755SOL    HW237899   0.370   3.729   6.609  0.8773  1.6208 -0.5176
 8756SOL     OW37900   4.076   0.569  12.095 -0.6676  0.1098  0.7806
 8756SOL    HW137901   4.060   0.609  12.009 -3.5481 -0.2794  1.1445
 8756SOL    HW237902   4.162   0.530  12.075 -0.9638  1.1420 -2.5621
 8757SOL     OW37903   3.516   3.638   5.024 -0.1581 -0.6423  0.2339
 8757SOL    HW137904   3.488   3.720   4.985  2.7425  0.6715  0.8623
 8757SOL    HW237905   3.510   3.653   5.118 -0.3687 -0.0008  0.1190
 8758SOL     OW37906   0.403   0.754  16.119  0.1322  0.7333  0.8172
 8758SOL    HW137907   0.316   0.760  16.080  0.4099 -1.7549 -0.2082
 8758SOL    HW237908   0.433   0.845  16.111  2.0503  0.0171 -0.1963
 8759SOL     OW37909   0.273   1.757  10.432  0.4847  0.0193  0.3100
 8759SOL    HW137910   0.256   1.665  10.412 -0.4285  0.7693 -2.4165
 8759SOL    HW237911   0.240   1.772  10.520 -1.9708  2.5690 -1.0526
 8760SOL     OW37912   3.449   2.655   1.827 -0.0909 -0.2780 -0.2077
 8760SOL    HW137913   3.390   2.643   1.902 -1.9608 -0.7079 -1.7414
 8760SOL    HW237914   3.533   2.637   1.869  0.5330 -3.0913 -2.6542
 8761SOL     OW37915   0.755   2.999   8.542 -0.3525 -0.4018 -0.1697
 8761SOL    HW137916   0.737   2.955   8.625  0.5332  0.7371  0.6218
 8761SOL    HW237917   0.785   3.078   8.586 -0.2270  0.6315 -2.1000
 8762SOL     OW37918   4.685   2.163  15.603 -0.1448  0.0479 -0.0866
 8762SOL    HW137919   4.623   2.179  15.532  0.5266  0.2290 -0.6357
 8762SOL    HW237920   4.652   2.218  15.674  2.1094  0.0543  0.9714
 8763SOL     OW37921   3.896   2.058   3.443  0.1059  0.1872 -0.1512
 8763SOL    HW137922   3.980   2.054   3.490  0.0225 -0.6436 -0.0719
 8763SOL    HW237923   3.897   1.964   3.425 -2.2651  0.1076  0.1621
 8764SOL     OW37924   1.413   4.265   3.112  1.0352 -0.0141 -0.4351
 8764SOL    HW137925   1.444   4.203   3.046 -0.8886 -0.9440 -0.4545
 8764SOL    HW237926   1.326   4.237   3.139  0.8808  0.1137 -0.7974
 8765SOL     OW37927   0.873   1.035  15.636  0.2792  0.2848  0.2019
 8765SOL    HW137928   0.812   1.018  15.564  2.4852 -0.0416 -1.5924
 8765SOL    HW237929   0.951   1.065  15.590 -0.8545  1.4421 -0.9942
 8766SOL     OW37930   2.284   3.244  16.414  0.2692  0.1649 -0.4026
 8766SOL    HW137931   2.320   3.283  16.335 -1.5566  0.7462 -0.9538
 8766SOL    HW237932   2.208   3.300  16.433  0.3874  0.1161  0.2375
 8767SOL     OW37933   3.511   3.615   1.785 -0.0135  0.8062 -0.0656
 8767SOL    HW137934   3.433   3.648   1.831  0.4701 -1.3735  2.3473
 8767SOL    HW237935   3.569   3.689   1.804  3.3503 -2.4399  2.3875
 8768SOL     OW37936   1.021   2.312   2.135 -0.0988 -0.2181  0.0939
 8768SOL    HW137937   0.961   2.238   2.134  0.8494 -1.0303  3.2073
 8768SOL    HW237938   1.008   2.332   2.043  1.1923  0.6301  0.0926
 8769SOL     OW37939   4.343   1.297  11.854  0.1583 -0.5556  0.5551
 8769SOL    HW137940   4.311   1.208  11.872  1.1181 -1.0856 -0.2913
 8769SOL    HW237941   4.431   1.300  11.894  0.5328  0.6596 -0.3850
 8770SOL     OW37942   0.242   0.485  10.309  0.0265  0.1900  0.2562
 8770SOL    HW137943   0.219   0.502  10.400 -1.1959 -1.5364  0.2718
 8770SOL    HW237944   0.173   0.532  10.262 -0.7458 -1.1712  0.0247
 8771SOL     OW37945   0.772   2.626   0.368  0.2334 -0.2405 -0.3943
 8771SOL    HW137946   0.689   2.578   0.375 -0.3135  0.5981 -1.0595
 8771SOL    HW237947   0.736   2.672   0.292 -0.2971 -1.7404 -1.0623
 8772SOL     OW37948   0.336   0.278  17.200 -0.0735  0.3100  0.0703
 8772SOL    HW137949   0.406   0.295  17.263  0.3096  3.0344 -1.0668
 8772SOL    HW237950   0.275   0.219  17.243 -1.0289  0.0634 -1.6368
 8773SOL     OW37951   0.791   1.710   8.794  0.1716 -0.1999  0.1653
 8773SOL    HW137952   0.781   1.615   8.801  1.3365 -0.3959 -0.7853
 8773SOL    HW237953   0.886   1.725   8.799  0.3052 -1.2747  1.0787
 8774SOL     OW37954   4.601   4.100   0.351 -0.5111  0.1252  0.1063
 8774SOL    HW137955   4.595   4.183   0.398  1.5895  0.6382 -0.5487
 8774SOL    HW237956   4.559   4.111   0.266 -0.2582  0.4938  0.0318
 8775SOL     OW37957   0.051   4.541   9.354  0.3323  0.1735 -0.0625
 8775SOL    HW137958   0.023   4.483   9.425 -1.2685  0.2402 -0.6273
 8775SOL    HW237959   0.111   4.484   9.305 -0.3881 -1.1754  0.6164
 8776SOL     OW37960   3.754   3.073   2.446  0.1814  0.1562 -0.1878
 8776SOL    HW137961   3.759   3.085   2.351  0.7430  1.8187  0.0584
 8776SOL    HW237962   3.674   3.111   2.483  0.4869 -0.3472  0.9913
 8777SOL     OW37963   2.291   4.399  11.543 -0.8915  0.0463  0.1063
 8777SOL    HW137964   2.333   4.377  11.459  0.0519 -0.9466  0.8396
 8777SOL    HW237965   2.261   4.313  11.572 -0.5448  0.3522  1.3627
 8778SOL     OW37966   4.276   4.226   4.373  0.3212 -0.5821  0.0291
 8778SOL    HW137967   4.360   4.268   4.357  0.2018 -0.8439 -1.2679
 8778SOL    HW237968   4.222   4.305   4.376  1.6158  0.2698  0.6242
 8779SOL     OW37969   0.715   2.851   9.829  0.1613 -0.5157 -0.5553
 8779SOL    HW137970   0.677   2.804   9.904 -1.0060 -1.9962 -2.0839
 8779SOL    HW237971   0.708   2.788   9.758 -0.4819  1.6164 -2.3831
 8780SOL     OW37972   4.264   3.250  17.516  0.5058  0.0871  0.1512
 8780SOL    HW137973   4.353   3.283  17.515  0.7000 -0.4403  0.1154
 8780SOL    HW237974   4.218   3.334  17.523  1.1735  0.5128 -0.6797
 8781SOL     OW37975   3.810   3.526   7.425  0.0759  0.4701  0.2512
 8781SOL    HW137976   3.745   3.455   7.423  3.7510 -2.8713  0.3916
 8781SOL    HW237977   3.876   3.495   7.486  0.5224  1.4667  0.2653
 8782SOL     OW37978   0.945   2.305   7.439 -0.2260  0.8406 -0.1787
 8782SOL    HW137979   1.028   2.322   7.484 -0.8967 -1.0143  1.7533
 8782SOL    HW237980   0.889   2.380   7.457  0.9071  1.5767  0.2430
 8783SOL     OW37981   2.731   4.634   8.948 -0.0323 -0.4711 -0.4187
 8783SOL    HW137982   2.729   4.550   8.993  2.1457 -0.5716 -0.5254
 8783SOL    HW237983   2.792   4.685   9.000 -2.4981  2.5999 -0.4827
 8784SOL     OW37984   4.226   0.100  15.140  0.2246  0.0105 -0.1972
 8784SOL    HW137985   4.271   0.016  15.137  1.0116  0.4534 -0.6831
 8784SOL    HW237986   4.285   0.172  15.160  2.6718 -1.8108 -0.9253
 8785SOL     OW37987   2.438   0.992   2.790 -0.1068  0.2931 -0.2797
 8785SOL    HW137988   2.439   0.951   2.703 -0.4499  1.0629 -0.6423
 8785SOL    HW237989   2.357   1.041   2.779 -0.3999 -0.1796 -0.2526
 8786SOL     OW37990   0.288   1.876   4.582  0.0877  0.2470  0.0460
 8786SOL    HW137991   0.298   1.869   4.487  0.4101 -0.8549  0.1599
 8786SOL    HW237992   0.379   1.892   4.607  1.0260 -2.6055 -1.6202
 8787SOL     OW37993   3.714   3.304   4.629  0.3166  0.1811 -0.5554
 8787SOL    HW137994   3.789   3.277   4.684 -0.0857 -0.6093 -0.3897
 8787SOL    HW237995   3.653   3.231   4.640 -0.8055  0.8794 -2.1981
 8788SOL     OW37996   0.638   3.538  11.678  0.5585 -0.1110 -0.0265
 8788SOL    HW137997   0.569   3.520  11.743  3.5819 -0.8831  2.9641
 8788SOL    HW237998   0.599   3.502  11.599  1.8669 -1.3516 -0.1133
 8789SOL     OW37999   2.619   3.557   5.426  0.0525  0.3709  0.4359
 8789SOL    HW138000   2.598   3.537   5.517 -0.3369  1.0749  0.4938
 8789SOL    HW238001   2.589   3.647   5.417  1.7964  1.0959  2.0140
 8790SOL     OW38002   0.243   4.254   5.260 -0.1736 -0.0808  0.4163
 8790SOL    HW138003   0.213   4.197   5.331  2.7511  0.4334  2.0434
 8790SOL    HW238004   0.324   4.216   5.228  0.2595  0.2679  1.1132
 8791SOL     OW38005   1.939   1.322  14.922 -0.0852 -0.0613  0.1278
 8791SOL    HW138006   1.846   1.302  14.914 -0.0610 -0.6054  1.2472
 8791SOL    HW238007   1.962   1.284  15.007 -1.2080  2.8443  1.7342
 8792SOL     OW38008   1.226   3.467   3.056  0.1204  0.0741  0.3233
 8792SOL    HW138009   1.230   3.538   2.992 -2.4373 -1.6517 -1.7405
 8792SOL    HW238010   1.141   3.477   3.099 -0.3248 -2.5544  0.0840
 8793SOL     OW38011   4.276   2.397   7.049 -0.1882  0.2448  0.3145
 8793SOL    HW138012   4.368   2.417   7.070 -0.0127  0.6837 -0.8975
 8793SOL    HW238013   4.286   2.384   6.955 -0.2308  2.6520 -0.0152
 8794SOL     OW38014   2.572   2.975   3.669 -0.7246 -0.3393  0.0556
 8794SOL    HW138015   2.644   2.982   3.606 -0.1527 -0.2183  0.7251
 8794SOL    HW238016   2.513   3.035   3.622 -0.5173  0.3123  0.6357
 8795SOL     OW38017   2.129   2.852   9.102 -0.5762 -0.1477  0.5454
 8795SOL    HW138018   2.034   2.851   9.111 -0.3579 -0.9988  2.6894
 8795SOL    HW238019   2.157   2.797   9.175  1.4742 -0.8957 -0.8075
 8796SOL     OW38020   4.483   0.156   4.809 -0.5019  0.2871  0.7540
 8796SOL    HW138021   4.483   0.133   4.716 -1.2257  3.1072  0.0677
 8796SOL    HW238022   4.535   0.083   4.842 -0.8423  0.2267  1.1668
 8797SOL     OW38023   4.543   0.491   7.932  0.2881 -0.5636 -0.0749
 8797SOL    HW138024   4.456   0.504   7.894  0.1636 -0.6893  0.1645
 8797SOL    HW238025   4.587   0.434   7.869  0.5862  0.6928 -0.9897
 8798SOL     OW38026   1.132   3.437  13.874  0.4521  0.7026 -0.2322
 8798SOL    HW138027   1.060   3.500  13.871 -0.5881 -0.4900 -0.7176
 8798SOL    HW238028   1.195   3.480  13.931  0.8170 -0.5016  0.2735
 8799SOL     OW38029   4.007   4.552  15.184  0.3048 -0.6503 -0.1754
 8799SOL    HW138030   3.948   4.479  15.201 -0.4492 -0.1553 -0.7124
 8799SOL    HW238031   3.989   4.613  15.255  0.3249  1.7916 -2.2785
 8800SOL     OW38032   1.169   4.386   6.708  0.1721 -0.2611 -0.1185
 8800SOL    HW138033   1.175   4.302   6.663  2.1967 -1.0573  1.6363
 8800SOL    HW238034   1.082   4.411   6.674  1.1675 -0.2945 -2.6969
 8801SOL     OW38035   4.417   4.601   3.342 -0.6249  0.1656 -0.2783
 8801SOL    HW138036   4.382   4.635   3.425  0.2980 -2.4143  1.1454
 8801SOL    HW238037   4.343   4.626   3.287 -1.1701 -0.6915  0.0798
 8802SOL     OW38038   1.709   3.035  15.281  0.5235 -0.0343  0.2794
 8802SOL    HW138039   1.710   3.041  15.377  0.4291 -0.1874  0.2893
 8802SOL    HW238040   1.637   2.975  15.265 -0.3407  1.2801 -0.7785
 8803SOL     OW38041   0.793   2.186   3.969 -0.2183  0.0645 -0.6178
 8803SOL    HW138042   0.752   2.127   3.905  1.0704  1.7440 -3.0207
 8803SOL    HW238043   0.862   2.222   3.913  1.9844  0.1070  2.1117
 8804SOL     OW38044   3.433   3.992   0.992  0.0905 -0.5826  0.3360
 8804SOL    HW138045   3.396   3.997   0.905  1.9286  3.1995 -0.2302
 8804SOL    HW238046   3.513   4.044   0.984 -0.1032 -0.2379  0.6511
 8805SOL     OW38047   1.068   0.934   3.976 -0.1273  0.2321  0.0186
 8805SOL    HW138048   1.020   0.906   3.898  1.1100 -1.3317 -0.1683
 8805SOL    HW238049   1.016   0.893   4.045  1.5075  1.0819  1.7542
 8806SOL     OW38050   0.672   0.046  12.460  0.2073 -0.8806 -0.0881
 8806SOL    HW138051   0.619   0.053  12.539 -0.5229 -0.8752 -0.5831
 8806SOL    HW238052   0.736   4.723  12.490 -1.0120 -1.6906  0.7548
 8807SOL     OW38053   4.491   2.921   3.807 -0.0451 -0.3808 -0.7043
 8807SOL    HW138054   4.577   2.890   3.835 -0.5763 -0.1772  1.1377
 8807SOL    HW238055   4.493   3.005   3.852 -0.4634 -1.1221  0.6812
 8808SOL     OW38056   1.614   1.308   5.976 -0.2191 -0.0779  0.6481
 8808SOL    HW138057   1.527   1.349   5.972  0.0920  0.4775 -0.3577
 8808SOL    HW238058   1.666   1.383   5.948 -0.3968 -1.0016 -2.1593
 8809SOL     OW38059   3.056   0.759   0.408  0.1934 -0.0925 -0.2092
 8809SOL    HW138060   3.035   0.823   0.340 -1.8609  1.1641  1.6133
 8809SOL    HW238061   2.971   0.715   0.414 -0.4695  1.4058  1.0930
 8810SOL     OW38062   0.544   3.396   7.605  0.0237  0.4089  0.0534
 8810SOL    HW138063   0.549   3.428   7.696 -1.7227 -1.5642  0.8251
 8810SOL    HW238064   0.625   3.440   7.577  0.1337  1.1540  1.5161
 8811SOL     OW38065   2.719   1.161   9.548  0.2218  0.0789  0.2785
 8811SOL    HW138066   2.688   1.236   9.497  1.7241 -1.2565 -2.5539
 8811SOL    HW238067   2.632   1.130   9.573  0.5201  0.7035  2.1268
 8812SOL     OW38068   2.512   1.089  15.010  0.2173  0.0038 -0.9111
 8812SOL    HW138069   2.503   1.184  15.020  1.8918 -0.0451  0.9809
 8812SOL    HW238070   2.532   1.088  14.916  1.1107 -1.2867 -0.7029
 8813SOL     OW38071   1.319   3.531   7.457  0.2095  0.0825 -0.1883
 8813SOL    HW138072   1.313   3.450   7.405  0.6304  0.5146 -0.8960
 8813SOL    HW238073   1.303   3.490   7.543 -1.0554 -2.1655 -1.4896
 8814SOL     OW38074   4.096   4.451   2.255 -0.4581 -0.2117  0.3236
 8814SOL    HW138075   4.126   4.542   2.254  1.0075 -0.6533  2.3744
 8814SOL    HW238076   4.157   4.421   2.323 -0.9065 -1.2645  0.2506
 8815SOL     OW38077   2.979   4.621   8.620 -0.0535  0.3987 -0.2246
 8815SOL    HW138078   2.917   4.647   8.688 -0.1330  0.1550 -0.2031
 8815SOL    HW238079   2.977   4.699   8.565 -1.6492  0.4428 -0.0889
 8816SOL     OW38080   0.344   0.515   7.020  0.3347  0.1793  0.2675
 8816SOL    HW138081   0.389   0.461   7.086 -2.8972  0.4573  2.6712
 8816SOL    HW238082   0.402   0.591   7.023 -0.0871  0.5752 -1.5673
 8817SOL     OW38083   4.319   4.584   6.567 -1.0015 -0.3288 -0.3154
 8817SOL    HW138084   4.240   4.599   6.618 -0.7647 -2.8772  0.8054
 8817SOL    HW238085   4.281   4.584   6.479  1.0741 -0.3903 -1.2159
 8818SOL     OW38086   4.643   2.502   6.497  0.0071 -0.5259 -0.6610
 8818SOL    HW138087   4.628   2.473   6.407  1.5190  0.3581 -1.2006
 8818SOL    HW238088   4.600   2.588   6.501  0.8864 -0.1017 -0.1648
 8819SOL     OW38089   0.357   2.335   2.282  0.5903  0.1509 -0.8586
 8819SOL    HW138090   0.295   2.402   2.311 -0.1791 -0.5070 -1.0021
 8819SOL    HW238091   0.300   2.264   2.312 -0.7840  1.6544  0.1482
 8820SOL     OW38092   1.884   4.659  11.480  0.3995 -0.1366 -0.0027
 8820SOL    HW138093   1.824   4.733  11.477  1.5747  0.8023 -0.3707
 8820SOL    HW238094   1.955   4.682  11.419  0.2787  1.4885  0.4679
 8821SOL     OW38095   0.996   0.140   6.000  0.6575 -0.4763 -0.5829
 8821SOL    HW138096   0.918   0.175   6.044  1.4617 -0.8107  1.1089
 8821SOL    HW238097   1.064   0.170   6.061  1.6101  1.5206 -2.6101
 8822SOL     OW38098   4.378   2.105   3.379  0.1421  0.1585 -0.4324
 8822SOL    HW138099   4.387   2.159   3.458 -0.1906  0.7146 -0.7739
 8822SOL    HW238100   4.445   2.141   3.321 -1.4196  0.0103 -2.3244
 8823SOL     OW38101   1.029   2.580   8.788 -0.2942  0.0838  0.1564
 8823SOL    HW138102   1.098   2.570   8.854 -1.2119  1.3621  1.2997
 8823SOL    HW238103   1.070   2.595   8.703  1.3855 -0.6782  0.8249
 8824SOL     OW38104   3.103   3.068   4.312  0.1028  0.1744 -0.3500
 8824SOL    HW138105   3.088   3.081   4.406 -2.1752  1.1962 -0.8470
 8824SOL    HW238106   3.016   3.030   4.296  0.5463 -1.4634  1.1637
 8825SOL     OW38107   0.559   3.220  14.836  0.9110  0.0117 -0.5115
 8825SOL    HW138108   0.567   3.316  14.842  1.2241 -0.0996  0.8200
 8825SOL    HW238109   0.640   3.199  14.882  0.8208  0.0023 -0.3593
 8826SOL     OW38110   4.478   1.408   4.658  0.0991 -0.6157  0.4892
 8826SOL    HW138111   4.470   1.397   4.563  0.6970  0.5816  0.3117
 8826SOL    HW238112   4.411   1.475   4.673  0.5279  0.0692 -0.6156
 8827SOL     OW38113   4.520   4.669   5.290 -0.6599  0.5707  0.4003
 8827SOL    HW138114   4.512   4.673   5.385 -0.0779  1.1068  0.4284
 8827SOL    HW238115   4.491   4.579   5.279  1.2412  0.2682 -2.2641
 8828SOL     OW38116   3.141   3.811  10.861  0.2945 -1.1913  0.7332
 8828SOL    HW138117   3.232   3.783  10.858  1.2171  1.7193  1.7930
 8828SOL    HW238118   3.151   3.897  10.821 -1.5364 -1.0559  0.5695
 8829SOL     OW38119   2.841   1.784   4.249  0.3292  0.2202  0.0456
 8829SOL    HW138120   2.906   1.714   4.246 -0.8102 -0.8771  1.3987
 8829SOL    HW238121   2.780   1.744   4.188  0.3986  1.2587 -0.7119
 8830SOL     OW38122   1.173   3.026   8.866  0.2112 -0.3508  0.8084
 8830SOL    HW138123   1.204   2.956   8.923  2.0144 -1.3951 -1.5055
 8830SOL    HW238124   1.080   3.014   8.882 -0.2804 -1.7652 -3.2679
 8831SOL     OW38125   3.961   1.963   6.099  0.2788  0.6066 -0.1107
 8831SOL    HW138126   3.972   2.033   6.162 -0.9932  0.0775  0.6815
 8831SOL    HW238127   3.868   1.944   6.108  0.1712  2.1084  1.8596
 8832SOL     OW38128   0.768   3.281   7.198 -0.1909  0.4304  0.3061
 8832SOL    HW138129   0.839   3.241   7.248  0.0034 -0.5162 -0.7269
 8832SOL    HW238130   0.697   3.246   7.251  1.3316 -1.4999  1.0610
 8833SOL     OW38131   3.203   4.152   8.047  0.2481 -0.8716 -0.2656
 8833SOL    HW138132   3.207   4.248   8.052  0.1099 -0.9253  0.8016
 8833SOL    HW238133   3.144   4.142   7.972 -1.1748  1.9763  0.4694
 8834SOL     OW38134   1.336   1.527   8.608 -0.0045 -0.2999  0.4508
 8834SOL    HW138135   1.365   1.501   8.521 -0.1549  3.0206 -0.5671
 8834SOL    HW238136   1.327   1.620   8.587  0.8229 -0.4368 -0.4989
 8835SOL     OW38137   3.174   2.639   5.769  1.1376  0.8981  0.2715
 8835SOL    HW138138   3.244   2.668   5.828 -0.3407  1.4423  1.7650
 8835SOL    HW238139   3.106   2.654   5.835  2.1176  0.9120  1.2795
 8836SOL     OW38140   0.635   1.982   7.667 -0.2617  0.4995  0.1429
 8836SOL    HW138141   0.688   2.032   7.604  0.5065 -0.8046 -0.2486
 8836SOL    HW238142   0.584   2.054   7.703  0.0366  2.0119 -2.4946
 8837SOL     OW38143   1.763   2.549   8.331  0.5798  0.5494 -0.0803
 8837SOL    HW138144   1.714   2.616   8.283 -1.8935 -0.4653  1.0274
 8837SOL    HW238145   1.851   2.586   8.334 -0.8026  3.7930  0.8498
 8838SOL     OW38146   0.583   2.959   7.231  0.1425 -0.2259 -0.2664
 8838SOL    HW138147   0.587   3.040   7.283 -0.6173  0.0048 -0.5705
 8838SOL    HW238148   0.494   2.930   7.248 -0.2467  0.0821 -1.7751
 8839SOL     OW38149   1.962   1.995   3.000 -0.3112  0.3854 -0.4027
 8839SOL    HW138150   1.954   1.899   3.003  1.3186  0.2820  1.1056
 8839SOL    HW238151   1.938   2.013   3.091 -0.0647 -0.8594 -0.0800
 8840SOL     OW38152   3.852   3.920   8.694  0.1889 -0.8372  0.1161
 8840SOL    HW138153   3.893   3.850   8.644 -1.6168 -0.8277 -1.3749
 8840SOL    HW238154   3.858   3.872   8.777 -1.0058 -2.8950 -0.9679
 8841SOL     OW38155   0.402   1.244   2.943  0.1219 -0.1471  0.1438
 8841SOL    HW138156   0.459   1.321   2.939 -2.3534  1.7891  2.1299
 8841SOL    HW238157   0.405   1.222   3.037  0.2484 -0.3341  0.0970
 8842SOL     OW38158   1.911   3.833   7.786 -0.2430 -0.5479  0.1763
 8842SOL    HW138159   1.893   3.845   7.693  1.4294 -2.7281 -0.4472
 8842SOL    HW238160   1.823   3.821   7.822 -0.9565 -2.0102 -1.9971
 8843SOL     OW38161   1.547   0.808   4.569 -0.1421  0.3572  0.4690
 8843SOL    HW138162   1.509   0.739   4.515  0.9519 -2.5771  3.5081
 8843SOL    HW238163   1.609   0.850   4.509 -0.4446  1.6651  1.0535
 8844SOL     OW38164   1.913   4.015   1.046 -0.0710 -0.0584  0.1693
 8844SOL    HW138165   1.870   4.052   0.968  1.8231  2.3760  0.2705
 8844SOL    HW238166   1.866   3.933   1.061  2.9355 -1.5134  1.7120
 8845SOL     OW38167   2.960   4.175   5.924 -0.0965  0.4929  0.5282
 8845SOL    HW138168   2.989   4.263   5.947  0.7614  0.2631  0.3043
 8845SOL    HW238169   2.870   4.190   5.893  0.1769 -0.3896 -0.7263
 8846SOL     OW38170   1.013   3.895  15.117  0.3480 -0.2160 -0.4665
 8846SOL    HW138171   1.002   3.981  15.157 -2.1066 -0.3362 -0.8994
 8846SOL    HW238172   1.009   3.844  15.198 -0.3554  1.9479  0.8465
 8847SOL     OW38173   4.513   1.278   4.391  0.0612  0.0274 -0.1466
 8847SOL    HW138174   4.427   1.293   4.352 -0.7921 -2.5376  0.7313
 8847SOL    HW238175   4.517   1.183   4.401 -1.2580  0.0111  0.2594
 8848SOL     OW38176   2.954   3.615   7.389 -0.6998  0.3950 -0.1392
 8848SOL    HW138177   3.038   3.660   7.390  0.0100 -0.8786 -1.4794
 8848SOL    HW238178   2.915   3.627   7.302  1.1285  0.5555 -0.9241
 8849SOL     OW38179   3.070   4.097   4.411  0.0870 -0.1907 -0.2281
 8849SOL    HW138180   3.140   4.059   4.356 -0.8859 -1.5367 -0.5340
 8849SOL    HW238181   3.001   4.040   4.378  1.9448 -1.5147 -1.8812
 8850SOL     OW38182   0.413   3.584   6.907  0.2187 -0.1348  0.3957
 8850SOL    HW138183   0.421   3.506   6.851  0.2906  0.8510 -0.9481
 8850SOL    HW238184   0.482   3.568   6.972  0.5519  1.8740  0.5270
 8851SOL     OW38185   4.546   1.867  10.355  0.2063  0.5897 -0.0736
 8851SOL    HW138186   4.566   1.960  10.353 -0.0820  0.6143 -2.2346
 8851SOL    HW238187   4.592   1.831  10.431 -0.3992 -0.9024 -0.3986
 8852SOL     OW38188   1.602   0.661   2.915 -0.0786 -0.0257  0.1267
 8852SOL    HW138189   1.523   0.650   2.967  0.2040 -2.3455  0.0878
 8852SOL    HW238190   1.568   0.649   2.827 -1.9399  0.8039  0.7356
 8853SOL     OW38191   3.689   4.356   5.671 -0.3462 -0.0014  0.5959
 8853SOL    HW138192   3.699   4.279   5.726 -1.2249 -1.1561 -0.8537
 8853SOL    HW238193   3.751   4.341   5.598 -0.1207  3.0208  0.1818
 8854SOL     OW38194   2.616   3.693  13.521 -0.2561 -0.0654 -0.0827
 8854SOL    HW138195   2.594   3.759  13.587  1.4595  0.3550  0.0836
 8854SOL    HW238196   2.607   3.745  13.441  2.9512  1.4251  0.5282
 8855SOL     OW38197   1.052   2.011   6.136 -0.1467 -0.1386 -0.2451
 8855SOL    HW138198   1.076   2.103   6.149 -1.0885  0.1120 -0.2949
 8855SOL    HW238199   1.117   1.986   6.071  0.9931 -0.5927  1.0742
 8856SOL     OW38200   1.833   4.692   7.561 -0.1031 -0.0411  0.3663
 8856SOL    HW138201   1.754   4.648   7.592 -1.0136 -0.1012 -2.0411
 8856SOL    HW238202   1.888   4.689   7.639 -2.0528  2.1811  1.8347
 8857SOL     OW38203   1.768   1.366   4.245 -0.1695 -0.2276 -0.0543
 8857SOL    HW138204   1.793   1.458   4.250 -0.6047 -0.1670  0.9387
 8857SOL    HW238205   1.677   1.375   4.272 -0.8767  0.3690 -2.5666
 8858SOL     OW38206   4.478   4.076   1.535  0.0509 -0.2226 -0.2122
 8858SOL    HW138207   4.570   4.094   1.514 -0.1853 -0.0106 -1.0654
 8858SOL    HW238208   4.437   4.088   1.450 -0.6777 -1.3470 -0.0138
 8859SOL     OW38209   1.514   4.372   4.421  0.0056 -0.3072  0.6957
 8859SOL    HW138210   1.525   4.364   4.515  0.7091  0.7018  0.6970
 8859SOL    HW238211   1.547   4.462   4.421  0.4964 -0.4910  0.5983
 8860SOL     OW38212   2.913   1.430  14.515  0.7801 -0.4435  0.0850
 8860SOL    HW138213   2.966   1.430  14.436  1.2035  0.8230  0.3681
 8860SOL    HW238214   2.824   1.428  14.479  1.1553 -0.5772 -0.8251
 8861SOL     OW38215   3.093   0.785   6.602 -0.9563 -0.0426  0.4863
 8861SOL    HW138216   3.089   0.692   6.624  1.0819 -0.0313  0.9106
 8861SOL    HW238217   3.102   0.815   6.692  0.9087  0.7972  0.0143
 8862SOL     OW38218   0.375   4.544   3.492  0.0943 -0.1591  0.2687
 8862SOL    HW138219   0.333   4.479   3.437  0.4092  0.6740 -0.9633
 8862SOL    HW238220   0.434   4.583   3.428  0.9215  0.6892  1.5355
 8863SOL     OW38221   3.738   1.928  10.863  0.9708  0.3394 -0.1872
 8863SOL    HW138222   3.791   1.952  10.939 -0.2023 -0.2412  0.8175
 8863SOL    HW238223   3.787   1.969  10.792  2.7219  1.5935  1.7209
 8864SOL     OW38224   3.720   4.544   6.398 -0.1738  0.5517  0.7578
 8864SOL    HW138225   3.636   4.564   6.439 -0.7625  1.5812 -0.9832
 8864SOL    HW238226   3.768   4.503   6.470  0.0106 -1.3261 -0.4415
 8865SOL     OW38227   3.613   0.926   1.471  1.1563  0.0664  0.0918
 8865SOL    HW138228   3.653   0.917   1.384 -1.1878  2.1240 -1.1955
 8865SOL    HW238229   3.642   1.014   1.494  2.0505 -0.2848  0.2881
 8866SOL     OW38230   1.025   2.182   5.458 -0.4045 -0.5142 -0.0823
 8866SOL    HW138231   1.034   2.258   5.515 -2.2584 -0.5900  0.3054
 8866SOL    HW238232   0.945   2.139   5.489 -0.5025 -2.3521 -2.8694
 8867SOL     OW38233   2.545   3.266   0.296  0.6784 -0.9003  0.3651
 8867SOL    HW138234   2.594   3.304   0.369  2.7120  0.7711 -1.8263
 8867SOL    HW238235   2.526   3.347   0.248 -1.4297 -1.4165  0.3154
 8868SOL     OW38236   3.867   3.411  11.417 -0.0524 -0.1544 -0.5455
 8868SOL    HW138237   3.839   3.357  11.343  2.8381 -0.9050 -1.0789
 8868SOL    HW238238   3.898   3.489  11.372 -1.6102 -0.2861 -1.8518
 8869SOL     OW38239   3.321   2.641   0.633  0.1509 -0.2317  0.0302
 8869SOL    HW138240   3.352   2.692   0.708 -1.3412  1.6750 -0.6661
 8869SOL    HW238241   3.226   2.653   0.635  0.4072  1.7622  0.1789
 8870SOL     OW38242   1.577   2.754   4.092  0.7751 -0.0414 -0.1242
 8870SOL    HW138243   1.608   2.791   4.009 -0.5916 -0.3691 -0.7702
 8870SOL    HW238244   1.487   2.781   4.107  0.1003 -3.3094  1.6347
 8871SOL     OW38245   1.582   4.037   6.376 -0.3868 -0.3343  0.0135
 8871SOL    HW138246   1.605   4.111   6.320 -0.4754 -0.7875 -0.6251
 8871SOL    HW238247   1.551   3.968   6.317 -2.5382  1.1402 -0.5883
 8872SOL     OW38248   3.734   2.686  16.434 -0.0386  0.1189  0.1241
 8872SOL    HW138249   3.691   2.770  16.450 -1.2937 -0.4486 -0.3068
 8872SOL    HW238250   3.828   2.705  16.436 -0.1592  0.7016  0.2122
 8873SOL     OW38251   3.020   1.377   6.931  0.0599 -0.0068  0.3106
 8873SOL    HW138252   3.106   1.343   6.957 -0.3070 -1.5657 -0.4962
 8873SOL    HW238253   3.006   1.339   6.844  0.1461  0.6016  0.0341
 8874SOL     OW38254   3.943   0.709   4.075 -0.6496  0.2361 -0.6725
 8874SOL    HW138255   3.856   0.679   4.103  0.2098 -0.3324  1.3878
 8874SOL    HW238256   3.913   0.749   3.994  1.1484  2.1106 -0.4034
 8875SOL     OW38257   2.105   3.424   9.997  0.0446  0.5702  0.1781
 8875SOL    HW138258   2.098   3.422  10.093  0.4222 -0.2046  0.1898
 8875SOL    HW238259   2.094   3.517   9.974  0.9976  0.7691  0.4983
 8876SOL     OW38260   1.056   2.419   0.178  0.8920  0.1232 -0.1541
 8876SOL    HW138261   1.069   2.358   0.106  0.6717 -0.9061  0.6722
 8876SOL    HW238262   0.998   2.360   0.226 -1.0396 -0.6679 -3.4355
 8877SOL     OW38263   0.008   2.160   1.735  0.2663 -0.0495 -0.6848
 8877SOL    HW138264   0.082   2.216   1.709 -0.9329  1.3905 -1.0176
 8877SOL    HW238265   0.005   2.120   1.648 -1.3344 -0.5534 -0.3938
 8878SOL     OW38266   4.626   3.945   0.560  0.1436  0.0704  0.7206
 8878SOL    HW138267   4.635   3.864   0.511  2.4458  0.5564  0.3780
 8878SOL    HW238268   4.621   3.996   0.479 -0.4848 -0.7900  0.2256
 8879SOL     OW38269   1.449   2.103   7.155  0.5699 -0.5936  0.3231
 8879SOL    HW138270   1.390   2.148   7.216 -0.3843  0.6172 -1.4966
 8879SOL    HW238271   1.411   2.115   7.068  0.6909 -0.5045  0.2840
 8880SOL     OW38272   1.485   0.326   6.199 -0.4659  0.4692 -0.5559
 8880SOL    HW138273   1.517   0.412   6.224 -0.6888 -0.2493  2.1642
 8880SOL    HW238274   1.415   0.348   6.137 -0.4890  1.3999 -0.1965
 8881SOL     OW38275   4.169   2.137   6.492 -0.1927  0.2702 -0.1259
 8881SOL    HW138276   4.101   2.171   6.435  0.5122  0.9775 -0.5378
 8881SOL    HW238277   4.123   2.147   6.575 -2.2323 -0.5522 -1.1738
 8882SOL     OW38278   1.302   4.402   2.312  0.2158  0.1360  0.9156
 8882SOL    HW138279   1.394   4.423   2.327  0.3986 -0.2283  0.3313
 8882SOL    HW238280   1.320   4.308   2.303 -1.5623 -0.0481 -0.7158
 8883SOL     OW38281   1.602   0.325  17.440  0.6310  0.3614 -0.5344
 8883SOL    HW138282   1.510   0.319  17.417  0.3376  1.3658  0.3302
 8883SOL    HW238283   1.593   0.410  17.485 -2.9528 -0.8698  1.0772
 8884SOL     OW38284   0.416   2.756   2.258  0.1980 -0.0289  0.3735
 8884SOL    HW138285   0.418   2.682   2.198  0.1916  0.7895 -0.6270
 8884SOL    HW238286   0.510   2.768   2.265  0.0107  1.2422  0.7429
 8885SOL     OW38287   2.806   1.692   5.862 -0.3336 -0.4859 -0.1742
 8885SOL    HW138288   2.777   1.648   5.782  0.0849  1.4255 -1.3953
 8885SOL    HW238289   2.860   1.633   5.914 -0.8720 -2.0627 -1.4289
 8886SOL     OW38290   2.726   0.361   3.112 -0.1725  0.0660 -0.2396
 8886SOL    HW138291   2.651   0.398   3.159  0.6947  0.7713  0.5856
 8886SOL    HW238292   2.701   0.345   3.021  0.6750 -1.5861 -0.1886
 8887SOL     OW38293   2.917   4.270   5.192  0.1222 -0.2510  0.2942
 8887SOL    HW138294   2.995   4.227   5.157 -0.5708 -1.5509  0.3556
 8887SOL    HW238295   2.847   4.208   5.171 -1.1907  0.0020  3.8875
 8888SOL     OW38296   4.614   4.595   1.117 -0.4811 -0.2380  0.7078
 8888SOL    HW138297   4.560   4.621   1.191 -1.3088 -3.4354  1.2191
 8888SOL    HW238298   4.582   4.505   1.123  1.7906 -1.0790  0.1360
 8889SOL     OW38299   2.799   0.244   6.411 -0.5165  0.5421 -0.2810
 8889SOL    HW138300   2.779   0.152   6.395 -0.1444  0.2123  1.2019
 8889SOL    HW238301   2.880   0.227   6.458 -0.2875  5.0495  0.9795
 8890SOL     OW38302   0.901   2.334   8.903  0.2036  0.1519  0.3378
 8890SOL    HW138303   0.962   2.408   8.896 -1.4986  1.4786 -0.4466
 8890SOL    HW238304   0.841   2.364   8.835 -1.5342 -0.7951  1.4592
 8891SOL     OW38305   3.064   3.032  14.629 -0.0774 -0.2416 -0.3067
 8891SOL    HW138306   3.010   3.100  14.590 -0.9877  1.8932  4.7642
 8891SOL    HW238307   3.028   3.020  14.716  0.7436  1.4519  0.2620
 8892SOL     OW38308   2.454   3.548   2.972 -0.2367 -0.1823  0.6503
 8892SOL    HW138309   2.448   3.613   2.902  0.3207 -2.8771 -1.8805
 8892SOL    HW238310   2.540   3.574   3.005  0.7507 -0.3042 -1.8137
 8893SOL     OW38311   2.967   3.417   8.403 -0.2931 -0.1020  0.2050
 8893SOL    HW138312   2.907   3.403   8.476 -0.1006 -0.1217  0.3599
 8893SOL    HW238313   2.914   3.457   8.334  0.1186 -1.2000 -0.7511
 8894SOL     OW38314   2.398   3.271  15.253 -0.3585  0.0420  0.5524
 8894SOL    HW138315   2.357   3.294  15.336  0.3197 -0.2152  0.9575
 8894SOL    HW238316   2.421   3.362  15.233 -0.9220  0.7263  3.0452
 8895SOL     OW38317   0.558   3.866   0.996  0.1322  0.0416  0.3630
 8895SOL    HW138318   0.521   3.901   1.077 -0.9609 -2.3538  0.8937
 8895SOL    HW238319   0.653   3.874   1.004  0.0873 -1.5174  2.5376
 8896SOL     OW38320   2.535   3.487  12.384  0.2261  0.4708 -0.1124
 8896SOL    HW138321   2.585   3.489  12.302 -0.5116  1.0327 -0.5435
 8896SOL    HW238322   2.572   3.563  12.429  0.1684 -0.5992  1.7277
 8897SOL     OW38323   4.264   4.412   8.470 -0.0805  0.3742  0.4547
 8897SOL    HW138324   4.323   4.463   8.415 -0.1238  1.2775  1.2360
 8897SOL    HW238325   4.291   4.436   8.559  1.7574 -2.2700  0.5949
 8898SOL     OW38326   3.507   1.233   3.173 -0.2468 -0.1190 -0.2662
 8898SOL    HW138327   3.573   1.300   3.191 -0.4114  0.4699 -1.8525
 8898SOL    HW238328   3.523   1.222   3.079  0.5605  2.5784 -0.4337
 8899SOL     OW38329   4.342   1.171   2.531 -0.5516  0.4109 -0.6647
 8899SOL    HW138330   4.428   1.161   2.491 -0.2132 -0.5041  0.2949
 8899SOL    HW238331   4.361   1.166   2.625  1.8165 -1.5006 -1.2599
 8900SOL     OW38332   1.228   0.825   9.386 -0.3911 -0.8306  0.4655
 8900SOL    HW138333   1.268   0.827   9.473  0.3829  1.1502  0.0577
 8900SOL    HW238334   1.204   0.918   9.382  0.1571 -0.6889  0.5943
 8901SOL     OW38335   2.702   3.733   7.939 -0.0632 -0.2290  0.5807
 8901SOL    HW138336   2.612   3.725   7.971 -0.4852  2.3411  0.0440
 8901SOL    HW238337   2.718   3.825   7.915 -0.8138 -1.1321 -3.4886
 8902SOL     OW38338   3.109   3.027  11.007 -0.4590  0.3255  0.3843
 8902SOL    HW138339   3.029   2.976  11.023 -0.7696  0.4075 -0.9158
 8902SOL    HW238340   3.077   3.087  10.940 -0.2260 -0.0645 -0.0723
 8903SOL     OW38341   1.765   0.435   2.941  0.8697  0.7975 -0.5245
 8903SOL    HW138342   1.831   0.483   2.891  1.2610  0.0943 -0.6855
 8903SOL    HW238343   1.703   0.507   2.954 -0.1229 -0.0782 -0.4368
 8904SOL     OW38344   1.519   3.763  10.716 -0.4722  0.0182  0.1830
 8904SOL    HW138345   1.570   3.824  10.770  0.0212 -0.1553 -0.0811
 8904SOL    HW238346   1.430   3.766  10.750 -0.5402  0.5029 -0.0288
 8905SOL     OW38347   2.037   1.887  16.593  0.3254 -0.6409 -0.5088
 8905SOL    HW138348   1.960   1.836  16.618  0.5829 -0.2993  0.9964
 8905SOL    HW238349   2.089   1.883  16.673 -0.1409  0.9380 -0.1132
 8906SOL     OW38350   3.391   3.499   6.562 -0.2294  0.4507  0.2175
 8906SOL    HW138351   3.347   3.540   6.637 -0.8685  0.2484 -0.0452
 8906SOL    HW238352   3.471   3.550   6.551  1.3474 -2.2541 -0.9938
 8907SOL     OW38353   4.587   0.757  17.438  0.2772  0.4189 -0.4415
 8907SOL    HW138354   4.660   0.786  17.383 -0.3432  0.0046 -1.4736
 8907SOL    HW238355   4.520   0.824  17.430  0.8645  0.9839 -0.6242
 8908SOL     OW38356   1.529   2.532   6.045  0.9092  0.2289 -0.5714
 8908SOL    HW138357   1.558   2.621   6.024  2.3919 -0.0341  0.3342
 8908SOL    HW238358   1.602   2.470   6.042  0.1994 -0.6865  1.0323
 8909SOL     OW38359   2.925   2.629  15.240  0.4267  0.2225  0.2695
 8909SOL    HW138360   2.830   2.636  15.227  0.4087 -1.5487 -0.5068
 8909SOL    HW238361   2.957   2.690  15.173 -1.9033  0.2462 -0.8355
 8910SOL     OW38362   4.197   0.844  10.890  0.3210  0.1966  0.5384
 8910SOL    HW138363   4.225   0.770  10.944  2.4017  2.4372  2.5615
 8910SOL    HW238364   4.124   0.804  10.843  1.0907 -0.2922 -0.2332
 8911SOL     OW38365   1.502   4.608  11.921  0.7117  0.2504 -0.2273
 8911SOL    HW138366   1.472   4.565  11.841  0.3553  0.5144 -0.2357
 8911SOL    HW238367   1.412   4.631  11.946  0.8391 -0.1299  0.5910
 8912SOL     OW38368   1.990   4.120   4.357 -0.0301  0.3487  0.0625
 8912SOL    HW138369   1.965   4.198   4.406 -1.2410 -0.2527  0.3997
 8912SOL    HW238370   1.903   4.088   4.334 -0.6895  0.9936  1.6966
 8913SOL     OW38371   2.804   1.530   0.874  0.4271  0.0708  0.2327
 8913SOL    HW138372   2.864   1.600   0.900  0.5410  0.7657 -1.8915
 8913SOL    HW238373   2.794   1.560   0.784  1.2627 -1.6231 -0.4208
 8914SOL     OW38374   3.643   1.835   2.683 -0.3349 -0.5041 -0.0399
 8914SOL    HW138375   3.599   1.900   2.737  2.1174  1.6816 -0.6966
 8914SOL    HW238376   3.612   1.753   2.722  0.6144 -1.5778 -1.4996
 8915SOL     OW38377   3.389   4.004   5.492  0.4031  0.3991 -0.0744
 8915SOL    HW138378   3.336   4.082   5.510  0.8009  0.0238  2.7906
 8915SOL    HW238379   3.328   3.939   5.526  0.4153 -1.3367 -3.4341
 8916SOL     OW38380   1.536   3.874   5.096 -0.2754  0.7401  0.0244
 8916SOL    HW138381   1.597   3.802   5.081 -1.7941 -0.2532 -1.4163
 8916SOL    HW238382   1.583   3.957   5.109  1.0315  0.1645 -1.0040
 8917SOL     OW38383   4.357   0.683   5.896 -0.0451 -0.4538 -0.3152
 8917SOL    HW138384   4.266   0.704   5.873  0.4793  2.4848  0.3811
 8917SOL    HW238385   4.348   0.639   5.980  2.0238 -0.8482 -0.3028
 8918SOL     OW38386   3.562   0.710   2.235 -1.0057  0.0682  0.8863
 8918SOL    HW138387   3.519   0.634   2.276 -0.0935 -1.2414 -0.6082
 8918SOL    HW238388   3.631   0.654   2.199 -1.0814  0.5035  0.0778
 8919SOL     OW38389   3.418   4.627  17.073  0.2007 -0.0554  0.0332
 8919SOL    HW138390   3.405   4.561  17.006  1.8383 -0.0945 -0.2442
 8919SOL    HW238391   3.431   4.702  17.015 -0.5052  0.8877  1.1007
 8920SOL     OW38392   0.298   2.895  13.138  0.7293 -0.2484  0.1934
 8920SOL    HW138393   0.363   2.886  13.207  1.2029  0.5714 -0.1558
 8920SOL    HW238394   0.308   2.989  13.127 -1.5891 -0.1053 -0.6755
 8921SOL     OW38395   0.273   0.176  12.683  0.7374  0.4807 -0.6934
 8921SOL    HW138396   0.212   0.214  12.620 -1.2035 -2.0701 -0.3331
 8921SOL    HW238397   0.223   0.096  12.698  0.8651  0.1024 -2.2872
 8922SOL     OW38398   4.740   2.036   3.465 -0.1875  0.4718  0.1499
 8922SOL    HW138399   0.037   2.096   3.528  1.9085 -1.4131  0.6792
 8922SOL    HW238400   4.697   1.968   3.517 -0.4713  1.0358  0.6516
 8923SOL     OW38401   2.230   4.290   0.818  0.2616 -0.2992 -0.0507
 8923SOL    HW138402   2.262   4.206   0.785 -0.9874 -1.3609  1.4027
 8923SOL    HW238403   2.135   4.296   0.811  0.1134 -0.0518  2.0883
 8924SOL     OW38404   2.584   0.221   6.792 -0.3387 -0.1446  0.1839
 8924SOL    HW138405   2.499   0.178   6.800 -0.5201 -0.2971 -2.4581
 8924SOL    HW238406   2.629   0.180   6.865 -1.1726  0.9651  1.3264
 8925SOL     OW38407   2.248   3.026   8.319 -0.4461 -0.4154 -0.3588
 8925SOL    HW138408   2.252   2.997   8.410  0.7219  0.4663 -0.1241
 8925SOL    HW238409   2.254   2.944   8.271  1.5959  1.1923 -2.8599
 8926SOL     OW38410   3.646   0.253   9.756  0.5104  0.0720 -0.5594
 8926SOL    HW138411   3.581   0.221   9.818 -0.4483  1.3356 -0.9233
 8926SOL    HW238412   3.682   0.173   9.717  2.0927 -1.1906  3.5426
 8927SOL     OW38413   0.927   1.934  13.209 -0.6823  0.5150 -0.0358
 8927SOL    HW138414   0.992   1.973  13.268 -0.8039  1.2572 -0.3910
 8927SOL    HW238415   0.853   1.993  13.214 -0.2933  1.0303 -0.3673
 8928SOL     OW38416   1.524   0.793   1.310  0.1364  0.4425  0.3860
 8928SOL    HW138417   1.469   0.715   1.299  0.9507  0.0228 -0.6614
 8928SOL    HW238418   1.547   0.782   1.403 -1.6205  0.3713  0.8039
 8929SOL     OW38419   2.228   1.213   1.927 -0.1168  0.2129  0.0758
 8929SOL    HW138420   2.227   1.288   1.867 -0.5714  0.9408  1.0034
 8929SOL    HW238421   2.158   1.159   1.890  1.0309 -1.3486  0.1860
 8930SOL     OW38422   0.605   4.730   8.640 -0.0740  0.3757 -1.0031
 8930SOL    HW138423   0.538   0.042   8.682 -0.2054 -1.7075  1.4346
 8930SOL    HW238424   0.597   4.651   8.693  1.5085  0.5638 -0.4652
 8931SOL     OW38425   0.736   4.462  15.969 -0.6005 -0.4126  0.4364
 8931SOL    HW138426   0.747   4.551  15.936 -0.3799 -0.4381  0.4388
 8931SOL    HW238427   0.717   4.473  16.062 -0.3871  1.4030  0.2637
 8932SOL     OW38428   4.505   4.356   4.328 -0.2755 -0.1709 -0.2604
 8932SOL    HW138429   4.510   4.451   4.339  1.6323 -0.2911 -0.0936
 8932SOL    HW238430   4.562   4.320   4.395 -3.4071  0.6653  2.8553
 8933SOL     OW38431   3.331   0.085   7.068  0.1741 -0.2443 -0.2320
 8933SOL    HW138432   3.410   0.068   7.119  1.3535  1.2280 -1.5618
 8933SOL    HW238433   3.274   0.017   7.102  0.5528 -0.7280 -0.5702
 8934SOL     OW38434   4.155   1.489   2.419  0.1187  0.1298  0.3020
 8934SOL    HW138435   4.087   1.476   2.485 -0.2102  0.0583 -0.0502
 8934SOL    HW238436   4.161   1.407   2.369  3.1240 -0.5772  1.8334
 8935SOL     OW38437   0.503   1.879   6.885 -0.1057  0.2494  0.7570
 8935SOL    HW138438   0.474   1.953   6.939 -2.7620 -0.9773  0.9789
 8935SOL    HW238439   0.599   1.883   6.880 -0.0527 -1.9498  0.0576
 8936SOL     OW38440   2.321   0.687   1.693 -0.3895 -0.3670 -0.4019
 8936SOL    HW138441   2.359   0.765   1.735 -2.6647  0.8084 -0.5101
 8936SOL    HW238442   2.320   0.629   1.768 -1.6821 -0.1003 -0.2026
 8937SOL     OW38443   4.564   3.005   0.299 -0.1817 -0.4740 -0.2598
 8937SOL    HW138444   4.599   2.920   0.269 -1.4081 -1.0226 -0.1352
 8937SOL    HW238445   4.517   3.034   0.221  0.8198  0.6066 -0.4556
 8938SOL     OW38446   1.038   1.450   7.188  0.3427 -0.2677  0.3248
 8938SOL    HW138447   1.013   1.532   7.231 -1.0543 -1.0924  1.0846
 8938SOL    HW238448   1.091   1.405   7.254  1.1905 -0.2995 -0.3747
 8939SOL     OW38449   3.756   4.620  13.716  0.0046  0.4253 -1.0486
 8939SOL    HW138450   3.684   4.589  13.661 -1.9594  3.0836 -0.0191
 8939SOL    HW238451   3.735   4.708  13.747 -1.5217  0.3863 -1.9342
 8940SOL     OW38452   0.456   2.094  14.628  0.0539 -0.2165  0.0368
 8940SOL    HW138453   0.500   2.101  14.543 -0.0407  1.2021  0.1107
 8940SOL    HW238454   0.493   2.171  14.672 -0.1762 -0.1212  0.0636
 8941SOL     OW38455   0.913   2.806  16.701 -0.2814 -0.3929 -0.3455
 8941SOL    HW138456   0.930   2.747  16.774 -0.3966 -0.5922 -0.4789
 8941SOL    HW238457   0.866   2.873  16.750  0.4032 -0.1124 -0.0771
 8942SOL     OW38458   4.283   4.350   7.286 -0.3174  0.1769 -0.1901
 8942SOL    HW138459   4.235   4.329   7.206 -1.7938  1.2627  0.3951
 8942SOL    HW238460   4.255   4.276   7.340 -0.9476 -0.8043 -1.8813
 8943SOL     OW38461   0.822   3.036  15.647 -0.4884 -0.0704  0.0936
 8943SOL    HW138462   0.732   3.038  15.680  0.0106 -1.3249  1.5743
 8943SOL    HW238463   0.811   2.960  15.589 -0.1338 -1.5081  1.8961
 8944SOL     OW38464   4.697   2.130   4.574 -0.1012  0.3298  0.0135
 8944SOL    HW138465   0.012   2.062   4.611 -0.9659  0.6364  1.8854
 8944SOL    HW238466   4.627   2.134   4.639 -0.0438  0.5417  0.0611
 8945SOL     OW38467   2.021   3.101   9.169  0.1174  0.4142 -0.1752
 8945SOL    HW138468   1.995   3.074   9.257  0.4270  0.0856 -0.1842
 8945SOL    HW238469   2.092   3.043   9.141  2.3631  2.1226  2.0188
 8946SOL     OW38470   0.857   1.356   8.378  0.3416 -0.0424  0.0813
 8946SOL    HW138471   0.845   1.447   8.350 -1.0247  0.1971  1.4446
 8946SOL    HW238472   0.771   1.316   8.361 -0.3197  0.8135  1.4696
 8947SOL     OW38473   2.382   4.623   9.355 -0.1803  0.4267  0.5862
 8947SOL    HW138474   2.372   4.687   9.426  1.7238  1.2339  0.1277
 8947SOL    HW238475   2.474   4.604   9.372  0.7646  3.6138 -0.9902
 8948SOL     OW38476   1.742   0.869   5.889 -0.0707  0.0383  0.3157
 8948SOL    HW138477   1.803   0.798   5.908  0.2360 -0.0802 -1.1234
 8948SOL    HW238478   1.743   0.914   5.973 -1.0687  0.2852  0.1995
 8949SOL     OW38479   3.609   3.778  10.082 -0.1308  0.0112 -0.1688
 8949SOL    HW138480   3.567   3.767  10.168 -0.3238 -1.0193 -0.3905
 8949SOL    HW238481   3.582   3.700  10.032  0.2133 -0.4339  0.3423
 8950SOL     OW38482   2.128   1.946   6.439 -0.0926 -0.2334  0.3205
 8950SOL    HW138483   2.060   1.898   6.486 -0.0829 -0.8304 -0.2765
 8950SOL    HW238484   2.174   1.966   6.520 -0.7585  0.3639  0.5584
 8951SOL     OW38485   1.901   0.863   8.604  0.3046  0.1052  0.8672
 8951SOL    HW138486   1.934   0.786   8.652  1.9140  0.0775 -0.2979
 8951SOL    HW238487   1.985   0.907   8.591 -0.5393  0.7001 -2.4767
 8952SOL     OW38488   1.504   1.385   3.140  0.4211 -0.0066  0.1566
 8952SOL    HW138489   1.528   1.419   3.053 -1.7631  0.0771 -0.4234
 8952SOL    HW238490   1.428   1.442   3.153  0.9168  1.4055 -3.0066
 8953SOL     OW38491   4.118   2.491  13.203 -0.1642  0.2059  0.6535
 8953SOL    HW138492   4.144   2.515  13.292  1.5536  0.2308  0.1632
 8953SOL    HW238493   4.126   2.580  13.169 -0.6788  0.0234  0.0707
 8954SOL     OW38494   3.536   1.912   7.253  0.3642  0.0071 -0.1986
 8954SOL    HW138495   3.573   1.998   7.273 -0.9998  0.9398 -1.6947
 8954SOL    HW238496   3.601   1.855   7.294 -0.8716  0.0185  1.7611
 8955SOL     OW38497   2.714   0.714   8.921  0.2534 -0.4124  0.2025
 8955SOL    HW138498   2.680   0.731   9.009  0.6670  2.3772 -0.1725
 8955SOL    HW238499   2.775   0.643   8.942 -1.7589 -2.3050 -0.3410
 8956SOL     OW38500   0.982   4.271   2.401  0.1223 -0.3976  0.3656
 8956SOL    HW138501   0.970   4.306   2.312 -0.1323  2.6852  1.6306
 8956SOL    HW238502   1.018   4.345   2.450 -0.7098  0.9888 -1.1004
 8957SOL     OW38503   4.334   4.010   3.730 -0.2248  0.4609 -0.0243
 8957SOL    HW138504   4.430   4.003   3.729 -0.4042 -2.2281  1.9963
 8957SOL    HW238505   4.335   4.089   3.785  1.3027 -0.4565  1.2726
 8958SOL     OW38506   3.647   1.213   2.081 -0.5127 -0.2694 -0.6501
 8958SOL    HW138507   3.612   1.129   2.110  0.8288  0.3089  2.6210
 8958SOL    HW238508   3.696   1.242   2.158 -1.5551 -1.2339  0.3841
 8959SOL     OW38509   4.328   2.566   4.711  0.4102 -0.3999 -0.5685
 8959SOL    HW138510   4.358   2.603   4.628  1.8892  1.0828  0.6224
 8959SOL    HW238511   4.239   2.539   4.685  0.2302  1.0616 -1.4808
 8960SOL     OW38512   0.778   3.083   3.422 -0.1334 -0.1085  0.1030
 8960SOL    HW138513   0.712   3.134   3.374  1.0595  0.8011 -0.5498
 8960SOL    HW238514   0.828   3.149   3.470 -0.8655  0.3464  0.2486
 8961SOL     OW38515   3.722   3.531   2.518 -0.3545 -0.4774  0.5578
 8961SOL    HW138516   3.734   3.540   2.424 -0.4432 -3.6701  0.2409
 8961SOL    HW238517   3.811   3.553   2.545 -0.0775 -1.7182  0.6714
 8962SOL     OW38518   1.167   0.757   6.526 -0.6453  0.8808  0.4408
 8962SOL    HW138519   1.252   0.774   6.568  0.4007 -2.2714 -0.4221
 8962SOL    HW238520   1.175   0.759   6.431  1.6131 -1.5458  0.5819
 8963SOL     OW38521   3.406   0.143   4.846 -0.1023  0.8503 -0.2480
 8963SOL    HW138522   3.499   0.164   4.835 -0.2273  0.8886 -1.1946
 8963SOL    HW238523   3.411   0.104   4.933 -4.2225  0.1333 -0.3438
 8964SOL     OW38524   4.110   4.557   0.974  0.6076  0.0250  0.6572
 8964SOL    HW138525   4.049   4.613   1.022 -0.6420 -0.5055 -0.3233
 8964SOL    HW238526   4.196   4.595   0.988  0.7865 -0.1817  0.1106
 8965SOL     OW38527   1.508   4.065   5.603 -0.2803 -0.7836  0.4445
 8965SOL    HW138528   1.486   4.158   5.609 -0.7781 -0.7957 -1.2349
 8965SOL    HW238529   1.546   4.051   5.690 -0.6261 -2.6183  0.2911
 8966SOL     OW38530   1.333   4.229   4.253 -0.2638  0.0413  0.1323
 8966SOL    HW138531   1.403   4.274   4.300  0.0443 -0.1044 -0.1846
 8966SOL    HW238532   1.283   4.302   4.216  0.4153 -0.3911 -1.6851
 8967SOL     OW38533   2.389   0.649  11.264 -0.2107 -0.0179  0.0974
 8967SOL    HW138534   2.330   0.666  11.338 -0.9641 -1.1853 -0.2269
 8967SOL    HW238535   2.400   0.554  11.252 -1.9082 -0.2335  0.2395
 8968SOL     OW38536   4.406   2.540   3.161  0.3667 -0.2552  0.1627
 8968SOL    HW138537   4.336   2.550   3.225  0.7632  1.9426  0.2352
 8968SOL    HW238538   4.358   2.555   3.080  0.3619 -2.6797 -0.2790
 8969SOL     OW38539   0.568   0.834   5.957  0.3720 -0.0294 -0.8737
 8969SOL    HW138540   0.502   0.877   5.902  0.4452 -1.2536 -1.9026
 8969SOL    HW238541   0.513   0.835   6.035 -0.7429 -0.6178 -1.6430
 8970SOL     OW38542   2.648   4.708   4.614  0.5662 -0.1895 -0.8678
 8970SOL    HW138543   2.646   0.062   4.619 -2.8881 -0.2488 -0.7518
 8970SOL    HW238544   2.557   4.684   4.595  1.1399 -1.9476 -1.3150
 8971SOL     OW38545   1.443   4.152  13.790 -0.1279  0.0961 -0.1708
 8971SOL    HW138546   1.352   4.175  13.804 -0.3828 -1.5818  0.8880
 8971SOL    HW238547   1.488   4.234  13.811 -0.4299  0.1674  0.1996
 8972SOL     OW38548   1.061   0.940  10.090 -0.3503  0.3150 -0.8142
 8972SOL    HW138549   1.001   0.870  10.063 -0.1565 -0.5364  0.9661
 8972SOL    HW238550   1.142   0.911  10.049 -0.9049  2.8413 -3.6927
 8973SOL     OW38551   3.790   2.231   6.427  0.2756  0.1130 -0.2142
 8973SOL    HW138552   3.795   2.322   6.456 -0.4226 -0.0634  0.4783
 8973SOL    HW238553   3.741   2.200   6.503  0.0341 -0.6786 -0.6962
 8974SOL     OW38554   4.445   0.565   4.698  0.1784 -0.2051  0.7982
 8974SOL    HW138555   4.476   0.533   4.783  2.0485  0.2415  0.2960
 8974SOL    HW238556   4.534   0.566   4.662 -0.0750  1.7851  0.2373
 8975SOL     OW38557   4.080   4.697   0.135 -0.1484 -0.0112  0.1456
 8975SOL    HW138558   4.001   4.645   0.151 -0.7682  0.7103 -0.5718
 8975SOL    HW238559   4.046   0.016   0.069 -0.1220  0.8109  0.8796
 8976SOL     OW38560   2.979   1.308  10.532 -0.5589  0.7234 -0.0453
 8976SOL    HW138561   2.988   1.350  10.446 -1.9284 -0.4266 -0.7675
 8976SOL    HW238562   3.066   1.322  10.569  0.0425  2.4806 -2.1097
 8977SOL     OW38563   2.648   2.995   5.226  0.2186  0.0992 -0.0268
 8977SOL    HW138564   2.623   3.044   5.305 -1.2423 -0.5135 -0.1190
 8977SOL    HW238565   2.641   2.901   5.244  0.3551 -0.1984 -1.5922
 8978SOL     OW38566   1.269   4.492  13.766 -0.0195  0.3509 -0.0160
 8978SOL    HW138567   1.348   4.460  13.722  0.5901  2.7203 -0.6783
 8978SOL    HW238568   1.227   4.409  13.787 -0.7971 -0.1472 -3.4638
 8979SOL     OW38569   0.324   1.760   6.093  0.7373 -0.3403 -0.2231
 8979SOL    HW138570   0.417   1.751   6.112  0.6455 -0.1801  0.3031
 8979SOL    HW238571   0.280   1.740   6.176  2.4645 -0.0382  0.7509
 8980SOL     OW38572   1.909   0.931   6.523  0.6469 -0.1733  0.9625
 8980SOL    HW138573   1.954   0.955   6.442 -1.6286  1.8995  0.3205
 8980SOL    HW238574   1.840   0.997   6.532 -0.1104 -0.9458  0.8212
 8981SOL     OW38575   2.725   3.495   8.070  0.2431  0.0790  0.1019
 8981SOL    HW138576   2.721   3.579   8.025  1.4680 -0.0930 -0.3462
 8981SOL    HW238577   2.676   3.440   8.009  1.2512  0.3503 -0.9688
 8982SOL     OW38578   4.245   3.004   8.248 -0.3191  0.6059 -0.1176
 8982SOL    HW138579   4.330   3.043   8.227  0.0482  0.6477  1.4408
 8982SOL    HW238580   4.240   2.945   8.173 -1.8870 -1.0635  1.2699
 8983SOL     OW38581   0.899   4.625   0.064 -0.2592 -0.1793 -0.4150
 8983SOL    HW138582   0.883   4.532   0.081 -0.0432 -0.0196  0.6887
 8983SOL    HW238583   0.851   4.676   0.130  0.5133  0.6790 -0.5201
 8984SOL     OW38584   2.180   1.732   7.429  0.4549  0.8121 -0.3559
 8984SOL    HW138585   2.108   1.745   7.368 -1.5041 -1.7259  1.3817
 8984SOL    HW238586   2.208   1.648   7.393  0.4451  1.2104 -1.2828
 8985SOL     OW38587   2.496   0.812   8.008  0.3434 -0.6351  0.5093
 8985SOL    HW138588   2.514   0.786   8.098  1.4459 -2.4794 -0.2318
 8985SOL    HW238589   2.426   0.875   8.019  1.3762  0.9959 -2.1365
 8986SOL     OW38590   0.470   3.930  15.461  0.4118 -0.2175  0.1474
 8986SOL    HW138591   0.419   3.856  15.429 -2.4870  1.4979  0.8010
 8986SOL    HW238592   0.456   3.924  15.555  0.4247 -0.4397  0.1338
 8987SOL     OW38593   1.771   3.657  11.404  0.1229  0.0326  0.1983
 8987SOL    HW138594   1.703   3.638  11.469  0.8616  1.5183  1.4143
 8987SOL    HW238595   1.812   3.571  11.394  2.4048  1.1634 -0.1729
 8988SOL     OW38596   1.768   4.661  16.712 -0.1476 -0.0601  0.0037
 8988SOL    HW138597   1.784   4.665  16.618  1.0299  2.6725  0.3122
 8988SOL    HW238598   1.855   4.631  16.738  0.1882 -0.9800 -2.1949
 8989SOL     OW38599   1.616   3.507   7.507 -0.3006  0.2337 -0.6812
 8989SOL    HW138600   1.554   3.572   7.475 -1.1920  0.5668  1.7660
 8989SOL    HW238601   1.556   3.433   7.520 -1.3146  1.3695  1.0372
 8990SOL     OW38602   2.710   1.157   3.255  0.5950  0.1237  0.4344
 8990SOL    HW138603   2.645   1.140   3.187 -0.2446  3.0613  0.4735
 8990SOL    HW238604   2.787   1.115   3.217  0.0447  0.3642 -0.9316
 8991SOL     OW38605   1.856   0.273   9.855  0.2074 -0.2360  0.2354
 8991SOL    HW138606   1.916   0.321   9.797 -0.1013  0.2243  0.3013
 8991SOL    HW238607   1.913   0.240   9.924  1.0174  1.5861  0.4298
 8992SOL     OW38608   4.590   1.359   0.347  0.0980  0.2246 -0.2088
 8992SOL    HW138609   4.575   1.424   0.415 -0.9005  1.8132 -1.9514
 8992SOL    HW238610   4.646   1.292   0.386  1.2507  1.0920 -0.4086
 8993SOL     OW38611   0.798   1.041   5.707 -0.4975  0.3043 -0.3257
 8993SOL    HW138612   0.794   1.043   5.803 -1.2753  0.1483 -0.3558
 8993SOL    HW238613   0.843   0.957   5.701  0.8432  0.8231  2.3520
 8994SOL     OW38614   0.420   4.430  14.695 -0.1016  0.2666 -0.0243
 8994SOL    HW138615   0.363   4.451  14.621 -3.0769 -1.2777  1.8749
 8994SOL    HW238616   0.375   4.483  14.761  0.1627  0.5707 -0.0833
 8995SOL     OW38617   1.807   1.490  17.405  0.0010  0.2429  0.3459
 8995SOL    HW138618   1.781   1.417  17.462 -0.8308 -0.1427 -0.5277
 8995SOL    HW238619   1.889   1.523  17.443 -0.3946  2.9305 -1.1378
 8996SOL     OW38620   3.239   2.487   7.498  0.1423  0.4495 -0.3953
 8996SOL    HW138621   3.326   2.524   7.508  0.1852  0.2013  0.1360
 8996SOL    HW238622   3.190   2.566   7.475 -1.0617 -0.1141  0.2362
 8997SOL     OW38623   3.447   3.668  16.578 -0.2830  0.4834 -0.1100
 8997SOL    HW138624   3.510   3.703  16.515 -0.6078 -1.1380 -1.3348
 8997SOL    HW238625   3.453   3.573  16.569 -0.7076  0.4793 -0.3729
 8998SOL     OW38626   0.202   1.082  10.157 -0.1897 -0.5361 -0.0175
 8998SOL    HW138627   0.130   1.105  10.215 -0.2069  2.0244 -1.0610
 8998SOL    HW238628   0.260   1.072  10.233  2.2813 -0.1897 -1.8672
 8999SOL     OW38629   2.763   3.140   9.194 -0.4938  0.1979 -0.8752
 8999SOL    HW138630   2.842   3.165   9.242 -1.8563  3.0096 -0.1144
 8999SOL    HW238631   2.726   3.072   9.250 -2.5284 -0.0828 -2.5546
 9000SOL     OW38632   4.143   4.084   2.905  0.1058 -0.2983  0.0426
 9000SOL    HW138633   4.093   4.007   2.932  0.9152 -1.3302 -1.3610
 9000SOL    HW238634   4.084   4.154   2.930 -0.0306 -0.3919 -0.0171
 9001SOL     OW38635   1.205   0.064   3.868 -0.3629 -0.0533 -0.1040
 9001SOL    HW138636   1.162   0.085   3.950 -1.3742  0.1063 -0.6684
 9001SOL    HW238637   1.292   0.102   3.875 -1.4205  2.3197  0.1395
 9002SOL     OW38638   2.830   1.426   7.998 -0.4301  0.0708 -0.0179
 9002SOL    HW138639   2.893   1.360   7.969  0.6166  1.0987 -0.0402
 9002SOL    HW238640   2.753   1.368   8.000  1.3525 -2.1845  2.8582
 9003SOL     OW38641   0.832   3.814   1.971 -0.2265  0.5410  0.1340
 9003SOL    HW138642   0.924   3.813   1.997 -0.7364  0.6509  1.9833
 9003SOL    HW238643   0.788   3.835   2.054  0.7876  0.6874  0.6403
 9004SOL     OW38644   0.772   1.020   7.871  0.2235  0.8441 -0.2743
 9004SOL    HW138645   0.698   0.959   7.872 -0.5266  1.7417 -2.2250
 9004SOL    HW238646   0.759   1.062   7.787 -0.7791 -0.9948 -1.0488
 9005SOL     OW38647   2.511   4.150   6.638 -0.1550 -0.5619 -0.8474
 9005SOL    HW138648   2.476   4.212   6.702  0.7775 -1.0588  0.1307
 9005SOL    HW238649   2.429   4.125   6.596 -1.5156  1.6324  0.5110
 9006SOL     OW38650   2.112   2.290   1.853 -0.3478  0.3954 -0.5465
 9006SOL    HW138651   2.195   2.332   1.831 -0.7236  1.5471  0.2222
 9006SOL    HW238652   2.102   2.213   1.797 -0.2363 -0.4552  0.6138
 9007SOL     OW38653   0.105   3.467   6.750  0.7853  0.3240 -0.5809
 9007SOL    HW138654   0.146   3.552   6.736  0.0041  0.6732 -0.7001
 9007SOL    HW238655   0.048   3.455   6.674 -0.4283  0.6542  0.2842
 9008SOL     OW38656   0.875   2.738   8.406 -0.6960  0.5173  0.4242
 9008SOL    HW138657   0.796   2.771   8.449 -0.9282 -0.4554  0.7339
 9008SOL    HW238658   0.949   2.780   8.450 -0.5001  0.4429  0.1664
 9009SOL     OW38659   3.099   3.046   0.640  0.5475 -0.0986  0.3260
 9009SOL    HW138660   3.047   2.993   0.579  1.9549  0.2875 -1.2084
 9009SOL    HW238661   3.075   3.133   0.609 -1.2144 -0.4014  0.8072
 9010SOL     OW38662   3.837   2.517   2.040 -0.0133  0.1718 -0.1396
 9010SOL    HW138663   3.743   2.530   2.030 -0.0280 -1.6559 -2.4125
 9010SOL    HW238664   3.852   2.558   2.125 -0.0206  0.5620 -0.3218
 9011SOL     OW38665   1.514   1.011  10.768 -0.2297  0.8403 -0.1435
 9011SOL    HW138666   1.474   0.942  10.820 -0.4885  1.0736 -0.0321
 9011SOL    HW238667   1.600   1.026  10.807 -0.1230 -1.6761  0.5400
 9012SOL     OW38668   0.064   4.241  14.497 -0.0053  0.0394  0.4700
 9012SOL    HW138669   0.072   4.315  14.437  0.2884 -1.0840 -0.8497
 9012SOL    HW238670   0.021   4.176  14.442  1.7546 -0.1437 -0.6881
 9013SOL     OW38671   3.639   1.672   7.887  0.3726 -0.2269  0.4353
 9013SOL    HW138672   3.633   1.743   7.951 -0.6815 -0.8828  1.0698
 9013SOL    HW238673   3.700   1.611   7.928 -1.6273 -2.0686  0.6826
 9014SOL     OW38674   3.739   3.337  13.515  0.0155  0.2245 -0.5366
 9014SOL    HW138675   3.832   3.324  13.499  0.4941  1.0192  1.6135
 9014SOL    HW238676   3.702   3.252  13.539 -0.7029  0.8162  0.4608
 9015SOL     OW38677   2.566   1.324   9.386 -0.8779  0.4915 -0.5325
 9015SOL    HW138678   2.514   1.246   9.371 -1.0493  0.3417  0.8590
 9015SOL    HW238679   2.506   1.382   9.434 -0.0812 -0.6573  1.8756
 9016SOL     OW38680   3.830   3.178   1.767  0.4728 -0.2412  0.3587
 9016SOL    HW138681   3.809   3.232   1.843  1.2278 -0.9058  1.0448
 9016SOL    HW238682   3.767   3.220   1.709  2.4768  0.5066 -1.2938
 9017SOL     OW38683   2.870   0.008   6.649  0.1424 -0.2960 -0.2008
 9017SOL    HW138684   2.787   4.705   6.631 -0.5092  0.0437  1.9792
 9017SOL    HW238685   2.909   4.699   6.720 -1.1450 -1.0326 -0.0192
 9018SOL     OW38686   3.549   0.680   5.490  0.0587  0.1765 -0.2609
 9018SOL    HW138687   3.461   0.699   5.522 -0.0564 -0.1747 -0.3699
 9018SOL    HW238688   3.571   0.751   5.431 -0.0122 -3.6044 -4.8683
 9019SOL     OW38689   4.009   4.739   0.398 -0.4068 -0.1062  0.3670
 9019SOL    HW138690   4.020   0.061   0.327 -2.6047  0.2992  0.3854
 9019SOL    HW238691   3.917   4.714   0.387 -0.8027  1.0278  1.0659
 9020SOL     OW38692   3.594   1.207   2.632  0.5101 -0.4355 -0.8917
 9020SOL    HW138693   3.524   1.212   2.567  2.1357  1.1150 -2.5167
 9020SOL    HW238694   3.639   1.133   2.592 -0.1793 -1.3017 -0.0672
 9021SOL     OW38695   0.976   2.928   5.462 -0.2072  0.0895 -0.4374
 9021SOL    HW138696   0.913   2.856   5.468  0.2862 -0.1860  1.3759
 9021SOL    HW238697   0.957   2.987   5.534  0.9947  1.4973 -1.2607
 9022SOL     OW38698   1.598   4.454   5.215 -0.6398  0.4040  0.5938
 9022SOL    HW138699   1.575   4.507   5.293 -0.1270 -0.2598  1.1931
 9022SOL    HW238700   1.606   4.373   5.265 -0.9968  0.1233  0.1864
 9023SOL     OW38701   2.617   0.059  16.377 -0.2533 -0.3879  0.1396
 9023SOL    HW138702   2.574   0.085  16.295 -1.1140  0.6104  0.9016
 9023SOL    HW238703   2.564   0.104  16.442 -2.0049 -1.3565 -0.6037
 9024SOL     OW38704   4.084   1.546  15.252  0.3914  0.0039  0.2242
 9024SOL    HW138705   4.172   1.574  15.277  0.9509 -1.1736 -0.4163
 9024SOL    HW238706   4.043   1.624  15.216 -1.2905 -0.5489  0.9320
 9025SOL     OW38707   2.556   0.920   7.261 -0.7861 -0.1659  0.0718
 9025SOL    HW138708   2.512   0.902   7.178 -0.1187  2.0880 -0.7723
 9025SOL    HW238709   2.524   1.010   7.270 -1.7198 -0.5136  0.2273
 9026SOL     OW38710   4.542   0.049   5.992  0.5072  0.4265 -0.0957
 9026SOL    HW138711   4.628   0.075   6.024  0.0172  2.0843 -0.0908
 9026SOL    HW238712   4.495   0.036   6.074  1.0339  0.6089  0.2288
 9027SOL     OW38713   4.357   1.264   0.895  0.0398  0.9870  0.1021
 9027SOL    HW138714   4.281   1.283   0.840 -0.0172 -1.1105 -0.5330
 9027SOL    HW238715   4.426   1.269   0.828  0.4577 -0.8886  0.3978
 9028SOL     OW38716   2.514   2.057   8.836  0.2739 -0.0399  0.2821
 9028SOL    HW138717   2.599   2.025   8.865  1.2554  1.6554 -0.6949
 9028SOL    HW238718   2.516   2.047   8.741  0.4328  1.0582  0.1683
 9029SOL     OW38719   1.809   2.351   5.568  0.1210  0.2483 -0.3859
 9029SOL    HW138720   1.723   2.382   5.594  0.7845 -0.2744  2.4126
 9029SOL    HW238721   1.800   2.256   5.561 -1.4519  0.4140 -0.4792
 9030SOL     OW38722   4.540   1.126   2.251  0.6846 -0.2817 -0.8463
 9030SOL    HW138723   4.579   1.050   2.295 -0.8364 -0.8773 -0.5475
 9030SOL    HW238724   4.582   1.200   2.295  1.1279  0.7960 -3.1022
 9031SOL     OW38725   1.854   3.632   8.521 -0.0418 -0.0902  0.3721
 9031SOL    HW138726   1.848   3.604   8.429  1.3120  1.6939 -0.2502
 9031SOL    HW238727   1.811   3.716   8.511 -0.1777 -0.0819  1.0258
 9032SOL     OW38728   0.584   2.338   9.887  0.0957  0.5465  0.2213
 9032SOL    HW138729   0.507   2.318   9.834 -0.2641  3.0276 -0.2027
 9032SOL    HW238730   0.601   2.248   9.916  1.9052 -1.0126 -5.5639
 9033SOL     OW38731   2.690   3.218   4.823  0.1514  0.1164 -0.1099
 9033SOL    HW138732   2.677   3.203   4.729  0.5744  2.0058 -0.4701
 9033SOL    HW238733   2.771   3.268   4.830  1.5246 -1.9441 -1.1100
 9034SOL     OW38734   1.942   1.046  10.107 -0.3237  0.6312 -0.2810
 9034SOL    HW138735   1.892   1.104  10.163 -2.6184 -0.2392 -1.4193
 9034SOL    HW238736   1.882   1.016  10.039 -1.5583 -0.2781  1.2256
 9035SOL     OW38737   1.741   0.233   7.165 -0.0411 -0.3666  0.2998
 9035SOL    HW138738   1.695   0.317   7.173  1.0165  0.1406  1.1516
 9035SOL    HW238739   1.719   0.186   7.246 -2.4561  0.4123  0.1013
 9036SOL     OW38740   1.186   0.616   4.262  0.8284  0.3879 -0.0087
 9036SOL    HW138741   1.230   0.585   4.342 -0.0827  0.7122  0.6192
 9036SOL    HW238742   1.203   0.710   4.266 -1.7165  0.9413 -2.9350
 9037SOL     OW38743   4.184   4.027  17.577 -0.5168 -0.1869 -0.1160
 9037SOL    HW138744   4.095   4.006  17.607  1.0185 -2.2399  2.9571
 9037SOL    HW238745   4.208   4.074  17.657 -0.8853 -0.4047  0.1226
 9038SOL     OW38746   3.586   4.516  10.839  0.1171  0.2099  0.1700
 9038SOL    HW138747   3.658   4.563  10.796 -0.2300 -0.3174 -0.9800
 9038SOL    HW238748   3.578   4.579  10.911  0.0987  1.2396 -0.7251
 9039SOL     OW38749   2.175   3.369   7.089 -0.6948  0.5056 -0.2850
 9039SOL    HW138750   2.113   3.440   7.109 -0.1477  0.4118  1.7432
 9039SOL    HW238751   2.182   3.321   7.171  0.9575 -1.1081 -1.3814
 9040SOL     OW38752   4.054   3.496   7.650 -0.3510 -0.0587  0.3755
 9040SOL    HW138753   4.094   3.575   7.688 -0.1485 -1.0240  2.1685
 9040SOL    HW238754   4.129   3.436   7.654 -0.0555  0.3978  1.4882
 9041SOL     OW38755   0.267   2.043  16.585 -0.5602 -0.1199 -0.0825
 9041SOL    HW138756   0.209   2.089  16.524 -0.8596 -1.0052 -0.4656
 9041SOL    HW238757   0.208   1.971  16.606  0.2445 -0.4538  1.0610
 9042SOL     OW38758   2.144   4.539  11.734 -0.1274 -0.1294 -0.1205
 9042SOL    HW138759   2.194   4.502  11.661  0.6681 -0.0280  0.3621
 9042SOL    HW238760   2.117   4.452  11.761 -0.2167 -0.4771 -1.3289
 9043SOL     OW38761   3.069   4.661   5.024 -0.0415  0.4955 -0.1813
 9043SOL    HW138762   3.020   4.673   4.943  0.9143  1.4202 -0.6193
 9043SOL    HW238763   3.004   4.624   5.083 -0.1842  1.7362  0.4331
 9044SOL     OW38764   2.948   1.078   3.722  0.2371  0.0798  0.1518
 9044SOL    HW138765   2.975   1.152   3.776  0.2423 -0.7426  1.2675
 9044SOL    HW238766   3.011   1.078   3.650 -0.2435 -0.4148 -0.2698
 9045SOL     OW38767   0.800   4.227   9.136 -0.0400 -0.1678 -0.1243
 9045SOL    HW138768   0.894   4.208   9.135 -0.3149 -1.5010 -0.3735
 9045SOL    HW238769   0.811   4.315   9.099 -0.1546 -0.9294 -1.9995
 9046SOL     OW38770   1.806   4.579   2.242 -0.1024 -0.6879  0.2473
 9046SOL    HW138771   1.844   4.513   2.300 -2.0256 -1.3613  0.7419
 9046SOL    HW238772   1.874   4.612   2.184  1.0111 -0.3923  1.7306
 9047SOL     OW38773   4.404   3.258  14.050 -0.3472  0.2304  0.6786
 9047SOL    HW138774   4.497   3.267  14.029 -0.4719  1.1193  0.5065
 9047SOL    HW238775   4.377   3.172  14.018 -0.8440  0.1460  1.3099
 9048SOL     OW38776   2.497   3.852   0.791  0.1073  0.2548 -0.1072
 9048SOL    HW138777   2.522   3.773   0.742 -2.7607  0.5713 -2.0474
 9048SOL    HW238778   2.446   3.807   0.858 -0.4965 -0.4898 -1.0780
 9049SOL     OW38779   3.473   3.184   6.229  0.0143 -0.1703  0.3877
 9049SOL    HW138780   3.409   3.114   6.244  2.3904 -2.2883  0.5548
 9049SOL    HW238781   3.419   3.256   6.196  0.4630 -0.7334 -1.5472
 9050SOL     OW38782   0.885   3.602   8.856  0.3834  0.0588  0.8763
 9050SOL    HW138783   0.979   3.597   8.839  0.8109  1.4657  2.8177
 9050SOL    HW238784   0.886   3.684   8.906 -0.1754 -0.1329  1.1971
 9051SOL     OW38785   1.236   2.173  13.904  0.4843  0.0875 -0.2362
 9051SOL    HW138786   1.157   2.121  13.890  0.0931  1.0777 -1.7485
 9051SOL    HW238787   1.217   2.245  13.844  1.6944  0.8778  0.3306
 9052SOL     OW38788   0.973   4.690   5.635 -0.0065 -0.3867  0.6712
 9052SOL    HW138789   0.970   4.631   5.560 -0.9772  1.1712 -0.5050
 9052SOL    HW238790   1.004   0.030   5.595  0.1341 -1.0145 -0.5084
 9053SOL     OW38791   4.065   4.346   0.506  0.1861 -0.2140 -0.3420
 9053SOL    HW138792   3.978   4.370   0.475 -0.2057 -1.3911 -0.1763
 9053SOL    HW238793   4.052   4.355   0.601  0.0388  0.9363 -0.4730
 9054SOL     OW38794   2.246   4.209  16.296 -0.3771 -0.0279 -0.3668
 9054SOL    HW138795   2.249   4.197  16.201 -0.6136  0.7444 -0.4713
 9054SOL    HW238796   2.304   4.137  16.323 -0.0138  1.0722  1.7876
 9055SOL     OW38797   0.269   0.183  15.999 -0.8207 -0.2938  0.4713
 9055SOL    HW138798   0.245   0.272  16.025  0.6679 -0.0343  0.9381
 9055SOL    HW238799   0.336   0.195  15.931 -1.5572 -0.9134 -0.3561
 9056SOL     OW38800   2.871   1.270   6.187  0.2446 -0.7848  0.5688
 9056SOL    HW138801   2.945   1.288   6.245  1.3554  2.0392 -1.7517
 9056SOL    HW238802   2.831   1.350   6.219  2.6528  0.9202 -0.7289
 9057SOL     OW38803   2.910   0.753   4.652  0.1969 -0.1175 -0.2921
 9057SOL    HW138804   2.967   0.790   4.720 -2.1231  1.8196  0.5822
 9057SOL    HW238805   2.958   0.672   4.636  0.4598  0.1084 -0.6416
 9058SOL     OW38806   4.376   1.103  12.481 -0.1019 -0.2744 -0.1388
 9058SOL    HW138807   4.372   1.025  12.535 -1.6759  0.6077  0.9978
 9058SOL    HW238808   4.434   1.152  12.539 -0.0282 -0.3620 -0.1380
 9059SOL     OW38809   4.189   2.868   1.505 -0.4842 -0.2674  0.4841
 9059SOL    HW138810   4.250   2.939   1.522  1.8642 -1.6576 -2.1747
 9059SOL    HW238811   4.148   2.904   1.426  1.0832 -1.3921 -0.8311
 9060SOL     OW38812   0.145   1.525  10.354  0.0502 -0.2701  0.3848
 9060SOL    HW138813   0.110   1.479  10.429 -0.5531 -0.8350 -0.2439
 9060SOL    HW238814   0.076   1.529  10.288  0.6230  0.3694 -0.1690
 9061SOL     OW38815   1.177   2.666   0.137  0.5628 -0.3461 -0.3744
 9061SOL    HW138816   1.119   2.677   0.062  0.0730 -0.0180  0.0482
 9061SOL    HW238817   1.137   2.582   0.158 -0.5272 -0.2542 -2.1187
 9062SOL     OW38818   0.702   1.648   2.329 -0.0310 -0.4503 -0.2247
 9062SOL    HW138819   0.613   1.634   2.295  0.3389  1.8042 -2.1104
 9062SOL    HW238820   0.706   1.637   2.424  3.0100 -0.9321 -0.3998
 9063SOL     OW38821   3.778   0.771   2.443  0.8679  0.0204  0.5974
 9063SOL    HW138822   3.812   0.840   2.386  0.3463  0.0774  0.3586
 9063SOL    HW238823   3.784   0.702   2.377 -1.9025  0.2010  0.1476
 9064SOL     OW38824   3.171   0.057   3.562  0.3034  1.2003  0.2529
 9064SOL    HW138825   3.187   4.725   3.503  1.8643  1.6062  0.1658
 9064SOL    HW238826   3.102   0.105   3.516 -0.1267  0.0192 -0.3281
 9065SOL     OW38827   3.855   4.630   9.424 -0.1163 -0.1043  0.0752
 9065SOL    HW138828   3.924   4.695   9.433  0.4282 -0.4569 -1.5444
 9065SOL    HW238829   3.805   4.666   9.351  0.6584  0.7619 -0.0166
 9066SOL     OW38830   1.814   0.482   0.261 -0.3476 -0.0671 -0.2860
 9066SOL    HW138831   1.879   0.417   0.285 -2.2928 -0.9575  2.6146
 9066SOL    HW238832   1.735   0.428   0.255 -1.3056  1.0512  2.1395
 9067SOL     OW38833   4.667   0.085   3.890  0.4131 -0.2425  0.9819
 9067SOL    HW138834   4.683   0.012   3.831  0.0023 -1.2962  2.1760
 9067SOL    HW238835   0.004   0.140   3.892  0.3701 -0.0927 -0.8473
 9068SOL     OW38836   4.726   3.475   4.248 -0.1208 -0.0221 -0.3230
 9068SOL    HW138837   0.063   3.487   4.196 -1.3068 -2.4116 -2.6698
 9068SOL    HW238838   4.730   3.380   4.258 -0.8216 -0.1914 -1.6433
 9069SOL     OW38839   2.625   4.338   6.091 -0.2906  0.1099  0.0455
 9069SOL    HW138840   2.565   4.272   6.059 -0.5597 -0.6318  2.1193
 9069SOL    HW238841   2.670   4.353   6.008  0.1588  1.3781  0.5044
 9070SOL     OW38842   2.974   2.927   5.268  0.5264 -0.5039 -0.4063
 9070SOL    HW138843   2.969   2.987   5.342  0.9246 -1.3019  0.2649
 9070SOL    HW238844   2.934   2.970   5.193  0.4839  1.6560  0.8644
 9071SOL     OW38845   1.443   2.873  14.984  0.4104 -0.3768  0.1459
 9071SOL    HW138846   1.530   2.868  15.024  0.7145 -1.1542 -0.6174
 9071SOL    HW238847   1.465   2.865  14.891  2.7186 -0.5482  0.7139
 9072SOL     OW38848   0.044   3.186   7.391  0.1117 -0.4848 -0.0403
 9072SOL    HW138849   0.018   3.185   7.483  0.1743 -0.8563 -0.0234
 9072SOL    HW238850   0.140   3.195   7.393  0.2511 -2.1201  0.5161
 9073SOL     OW38851   3.894   3.115   7.587  0.2044 -0.5210  0.4387
 9073SOL    HW138852   3.906   3.146   7.677 -0.3357  2.8481 -0.6411
 9073SOL    HW238853   3.974   3.150   7.548 -1.3843  3.3273  0.6235
 9074SOL     OW38854   1.317   1.207   0.914 -0.2913 -0.0781 -0.0689
 9074SOL    HW138855   1.270   1.135   0.873  2.6082 -2.4159  0.6803
 9074SOL    HW238856   1.355   1.249   0.837 -0.5231 -0.0571 -0.1706
 9075SOL     OW38857   1.599   1.289   8.557 -0.2752  0.5793  0.4720
 9075SOL    HW138858   1.628   1.198   8.550 -1.7518 -0.0769  2.9792
 9075SOL    HW238859   1.682   1.335   8.568  0.5658 -0.5753 -1.1401
 9076SOL     OW38860   3.956   1.147   1.694 -0.6400 -0.8044  0.0459
 9076SOL    HW138861   3.931   1.182   1.779 -2.1652  0.0521 -0.7383
 9076SOL    HW238862   3.897   1.197   1.637  0.4075  0.9988  0.5341
 9077SOL     OW38863   2.968   3.902  10.142  0.0101  0.2201 -0.3221
 9077SOL    HW138864   3.000   3.846  10.071 -1.2232 -3.3295  1.8820
 9077SOL    HW238865   2.889   3.938  10.103 -0.6180  0.2497  0.9708
 9078SOL     OW38866   0.011   0.316   5.935  0.2814 -0.0083  0.3431
 9078SOL    HW138867   0.020   0.297   6.029 -0.6315  0.0907  0.4498
 9078SOL    HW238868   0.027   0.410   5.930  1.0278 -0.1779 -0.4740
 9079SOL     OW38869   1.329   1.563  11.719  0.4179 -0.1693  0.4555
 9079SOL    HW138870   1.356   1.476  11.689 -1.5232 -0.6615  0.1227
 9079SOL    HW238871   1.235   1.552  11.705  0.7625 -0.7935 -1.3616
 9080SOL     OW38872   4.370   4.320   7.908  0.2462 -0.4119  0.4277
 9080SOL    HW138873   4.444   4.370   7.942 -2.4787  2.9163  1.5059
 9080SOL    HW238874   4.403   4.283   7.826 -3.8035 -4.1962  0.4732
 9081SOL     OW38875   2.075   4.025   8.799  0.2242 -0.3445  0.2252
 9081SOL    HW138876   2.080   3.950   8.740 -0.8203 -0.0438 -0.2433
 9081SOL    HW238877   2.088   4.098   8.739 -1.4695  0.2464  0.5629
 9082SOL     OW38878   2.948   2.037   9.556  0.1434  0.5579 -0.0235
 9082SOL    HW138879   3.025   2.021   9.612  1.4514  3.5920 -0.9186
 9082SOL    HW238880   2.885   1.968   9.575  3.4915 -2.3445  0.4153
 9083SOL     OW38881   1.103   3.321  11.709  0.3839  0.7638  0.0103
 9083SOL    HW138882   1.010   3.310  11.728  0.9697 -0.8441  1.9716
 9083SOL    HW238883   1.093   3.412  11.681 -3.1879 -0.8134 -3.9115
 9084SOL     OW38884   2.336   1.301  16.400  0.1432 -0.6467 -0.2759
 9084SOL    HW138885   2.354   1.392  16.375  1.5738 -0.7020  0.5565
 9084SOL    HW238886   2.398   1.284  16.471 -0.8331 -2.9482  0.0005
 9085SOL     OW38887   4.267   1.521   8.538  0.0431 -0.2811  0.3233
 9085SOL    HW138888   4.207   1.534   8.612  0.5241  0.5031  0.5907
 9085SOL    HW238889   4.271   1.427   8.523  1.9415 -0.0473 -0.6861
 9086SOL     OW38890   0.438   1.991  13.249  0.2756  0.1262 -0.1236
 9086SOL    HW138891   0.525   2.031  13.246  0.8050 -0.9386  0.6771
 9086SOL    HW238892   0.384   2.049  13.195 -0.8890 -1.5890 -0.8129
 9087SOL     OW38893   1.562   2.679   6.445 -0.7055  0.6010  0.2907
 9087SOL    HW138894   1.535   2.680   6.537 -2.0414  2.6659 -0.0998
 9087SOL    HW238895   1.478   2.676   6.399 -1.7886 -0.4175  2.3802
 9088SOL     OW38896   2.079   0.278  10.008  0.2072 -0.0514 -0.1747
 9088SOL    HW138897   2.169   0.246  10.001  0.2696 -0.0805  0.7888
 9088SOL    HW238898   2.098   0.371   9.996  0.8336  0.0066  1.3060
 9089SOL     OW38899   1.080   4.359   7.350 -0.5120 -0.3958 -0.7437
 9089SOL    HW138900   1.046   4.307   7.422  1.5791 -1.1385 -0.2905
 9089SOL    HW238901   0.999   4.408   7.334 -0.7313 -0.0431  1.3594
 9090SOL     OW38902   3.211   0.349  14.402 -0.2192  0.3542 -0.7832
 9090SOL    HW138903   3.181   0.261  14.381  1.3619 -0.6156  0.9991
 9090SOL    HW238904   3.276   0.372  14.335  1.2702 -1.4617  0.0273
 9091SOL     OW38905   2.096   0.098   8.526  0.3410  0.0919 -0.0481
 9091SOL    HW138906   2.170   0.072   8.472 -0.5604 -0.0806 -1.1915
 9091SOL    HW238907   2.027   0.114   8.462 -0.4361 -1.0628  0.4808
 9092SOL     OW38908   0.609   2.093   4.162 -0.4272  0.2531  0.1796
 9092SOL    HW138909   0.677   2.101   4.095 -0.8317  2.6093  0.0406
 9092SOL    HW238910   0.659   2.086   4.244  0.6102  0.2229 -0.4565
 9093SOL     OW38911   4.147   1.582   9.028  0.3510  0.3577 -0.5603
 9093SOL    HW138912   4.207   1.542   8.965 -0.8406  0.9715 -2.0852
 9093SOL    HW238913   4.207   1.603   9.099  0.1334 -1.9608  0.3359
 9094SOL     OW38914   0.231   4.088   8.349  0.0903  0.2231 -0.3362
 9094SOL    HW138915   0.222   4.160   8.286 -1.2798 -0.9549 -1.4784
 9094SOL    HW238916   0.149   4.045   8.324  0.0792  0.3929 -0.5963
 9095SOL     OW38917   1.093   4.478   2.560  0.1796 -0.2741 -0.2658
 9095SOL    HW138918   1.163   4.537   2.531  0.6881  0.1784  1.9443
 9095SOL    HW238919   1.136   4.443   2.638 -1.4439 -0.3237  0.6037
 9096SOL     OW38920   2.029   0.092   0.567 -0.3135 -0.4456  0.6712
 9096SOL    HW138921   2.054   0.012   0.521  0.1805  0.4355 -0.6125
 9096SOL    HW238922   2.052   0.163   0.506 -0.8607  0.8504  1.9774
 9097SOL     OW38923   1.547   4.561   8.985 -0.2685  0.1290  0.2763
 9097SOL    HW138924   1.488   4.594   8.917  0.1980 -0.4106 -0.3860
 9097SOL    HW238925   1.632   4.560   8.940 -1.3072  0.0493 -1.6633
 9098SOL     OW38926   2.032   0.147   3.919  0.4413 -0.0758 -0.1203
 9098SOL    HW138927   2.042   0.239   3.893 -1.9064  0.4905  0.9645
 9098SOL    HW238928   2.044   0.093   3.841  1.3430  1.0464 -0.7688
 9099SOL     OW38929   2.057   3.203   8.546 -0.1375 -0.0226 -0.6767
 9099SOL    HW138930   2.115   3.164   8.612 -0.0102 -3.0194 -2.5591
 9099SOL    HW238931   2.076   3.295   8.560  1.8986 -0.7612  1.3569
 9100SOL     OW38932   2.746   3.387   3.186 -0.5480  0.2409 -0.4028
 9100SOL    HW138933   2.754   3.392   3.282 -1.7225  1.5032 -0.3772
 9100SOL    HW238934   2.726   3.479   3.167 -0.5403  0.6666  1.5984
 9101SOL     OW38935   2.844   3.725  14.407  0.3342  0.1611  0.0757
 9101SOL    HW138936   2.921   3.752  14.458 -0.9324 -0.2226  2.2290
 9101SOL    HW238937   2.879   3.685  14.328 -0.3280 -1.9361  0.8652
 9102SOL     OW38938   1.078   4.598   4.859 -0.2587 -0.1651  0.4347
 9102SOL    HW138939   1.097   4.589   4.953 -1.3623 -0.9419  0.5857
 9102SOL    HW238940   0.992   4.557   4.855 -0.6586  0.7402 -0.3135
 9103SOL     OW38941   2.276   1.132   5.077 -0.1182  0.4184 -0.4735
 9103SOL    HW138942   2.294   1.167   5.165 -0.5913  0.1335 -0.2616
 9103SOL    HW238943   2.333   1.188   5.024  0.6146 -1.3465 -1.5646
 9104SOL     OW38944   4.723   4.257   6.513 -0.3185  0.5617 -0.0908
 9104SOL    HW138945   4.650   4.303   6.554 -2.1605 -1.5481 -1.0022
 9104SOL    HW238946   4.678   4.222   6.436 -1.3493  3.6196 -0.8557
 9105SOL     OW38947   4.608   1.843   1.988 -0.3998 -0.0421 -0.1557
 9105SOL    HW138948   4.589   1.936   1.994 -1.4683 -0.2579 -0.1278
 9105SOL    HW238949   4.550   1.795   2.048  1.3930 -1.0461  0.7701
 9106SOL     OW38950   0.030   1.222   0.736  0.6668  0.0217 -0.0112
 9106SOL    HW138951   0.100   1.260   0.788  0.7409 -2.7205  1.8731
 9106SOL    HW238952   0.024   1.148   0.796  1.5542 -1.0013 -1.1819
 9107SOL     OW38953   3.803   0.887  11.742  0.0312 -0.6763  0.4973
 9107SOL    HW138954   3.741   0.902  11.813  0.0266  1.3644  0.0589
 9107SOL    HW238955   3.850   0.811  11.776  3.4810  0.9048 -0.7135
 9108SOL     OW38956   3.388   2.765   7.065  0.4734 -0.5122  0.2022
 9108SOL    HW138957   3.399   2.845   7.015  1.2217 -1.1508 -0.6622
 9108SOL    HW238958   3.324   2.718   7.012  1.1108  1.1278 -1.9866
 9109SOL     OW38959   3.108   4.517   8.309  0.2066  0.3196 -0.3760
 9109SOL    HW138960   3.041   4.580   8.336  0.1036 -0.3270  0.8820
 9109SOL    HW238961   3.187   4.537   8.358  1.7277 -3.0536 -1.4248
 9110SOL     OW38962   0.470   4.084  16.708 -0.1011 -0.0064  0.5788
 9110SOL    HW138963   0.470   4.166  16.759 -1.3521  0.1884  0.2529
 9110SOL    HW238964   0.407   4.095  16.637 -0.6486  0.5760  1.1579
 9111SOL     OW38965   1.619   4.598   8.520  0.5874 -0.1444  0.9950
 9111SOL    HW138966   1.632   4.666   8.455 -0.0758 -0.5962  0.3908
 9111SOL    HW238967   1.548   4.548   8.481  0.9655  1.0862 -1.2336
 9112SOL     OW38968   0.952   2.652  11.438 -0.3747  0.8635 -0.4439
 9112SOL    HW138969   1.010   2.672  11.511  0.8535 -0.9876 -0.9071
 9112SOL    HW238970   0.866   2.671  11.475 -0.6771 -1.2885 -0.0633
 9113SOL     OW38971   4.218   1.288   8.712  0.4060  0.5390 -0.3049
 9113SOL    HW138972   4.138   1.332   8.741 -0.9718 -0.4684 -2.5558
 9113SOL    HW238973   4.193   1.195   8.710  0.5115  0.5292 -1.4162
 9114SOL     OW38974   1.713   0.021   2.455 -0.0086 -0.2623  0.1327
 9114SOL    HW138975   1.744   4.701   2.390 -0.1446 -2.0055  1.7317
 9114SOL    HW238976   1.695   0.107   2.415 -0.0163  1.0269  2.8968
 9115SOL     OW38977   2.045   4.688   2.085 -0.6461  0.8716  0.9489
 9115SOL    HW138978   2.107   4.651   2.021 -0.3547  2.7548  0.1320
 9115SOL    HW238979   1.978   4.713   2.021  1.1392  1.2710 -0.7843
 9116SOL     OW38980   0.718   1.054   4.221  0.0673  0.1097  0.2535
 9116SOL    HW138981   0.773   1.127   4.192 -2.2483  1.5521 -0.5092
 9116SOL    HW238982   0.668   1.099   4.290 -0.2790 -1.4437  1.0126
 9117SOL     OW38983   4.157   3.493   4.411  0.2112 -0.1173 -0.7528
 9117SOL    HW138984   4.194   3.563   4.357  1.0773  0.4703  0.5981
 9117SOL    HW238985   4.086   3.540   4.454 -1.2695  0.4139 -3.7743
 9118SOL     OW38986   2.036   3.679   9.140 -0.0176 -1.2238 -0.5385
 9118SOL    HW138987   2.088   3.699   9.218  1.6290 -2.5172 -1.2998
 9118SOL    HW238988   2.020   3.585   9.152  1.0885 -1.5432 -1.6346
 9119SOL     OW38989   3.937   1.980   0.977 -0.7908 -0.6313  0.6636
 9119SOL    HW138990   3.928   2.039   0.902 -0.3629 -0.8697  0.4206
 9119SOL    HW238991   4.030   1.957   0.975 -0.8026 -0.9027  3.0331
 9120SOL     OW38992   0.287   0.301   4.583  0.2629  0.2655  0.1834
 9120SOL    HW138993   0.315   0.220   4.625 -0.4351 -0.3992 -0.6256
 9120SOL    HW238994   0.243   0.342   4.657  1.9658  0.0002  1.3356
 9121SOL     OW38995   0.279   0.482  16.033 -0.3913 -0.3802  0.1500
 9121SOL    HW138996   0.257   0.569  16.001 -2.3606 -0.8740  0.1904
 9121SOL    HW238997   0.244   0.505  16.120 -1.0278  1.1276 -0.5127
 9122SOL     OW38998   2.845   3.141   2.600  0.5134  0.2501  0.3198
 9122SOL    HW138999   2.816   3.181   2.682  0.9226  1.8127 -0.3012
 9122SOL    HW239000   2.828   3.050   2.622 -2.1464  0.4872 -0.7678
 9123SOL     OW39001   2.483   0.882  12.639 -0.3719 -0.1091 -0.1081
 9123SOL    HW139002   2.493   0.967  12.596  1.4196 -1.0913 -1.6382
 9123SOL    HW239003   2.520   0.840  12.561 -1.0565  2.2347 -1.6781
 9124SOL     OW39004   2.440   3.129  14.391  0.1896  0.5814  0.0913
 9124SOL    HW139005   2.371   3.083  14.437 -0.4589  1.4529 -0.0017
 9124SOL    HW239006   2.403   3.215  14.368  0.8407  1.0057  0.6429
 9125SOL     OW39007   2.238   4.041   9.052 -0.5225 -0.6034  0.5280
 9125SOL    HW139008   2.191   4.025   8.971 -0.1521  2.5672 -0.3020
 9125SOL    HW239009   2.165   4.051   9.114 -0.5018 -1.7638  0.7438
 9126SOL     OW39010   2.348   1.645   5.963  0.0793 -0.0751  0.3428
 9126SOL    HW139011   2.395   1.729   5.963  2.7608 -1.5532 -2.0691
 9126SOL    HW239012   2.348   1.631   5.868 -3.3260 -3.2972  0.8573
 9127SOL     OW39013   4.466   3.313   5.926  0.6472  0.3941  0.2082
 9127SOL    HW139014   4.532   3.278   5.867 -2.2820 -1.4884 -1.9549
 9127SOL    HW239015   4.475   3.406   5.904 -1.1873  0.3450 -0.7720
 9128SOL     OW39016   1.541   1.721  15.657  0.0656  0.0863 -0.2813
 9128SOL    HW139017   1.560   1.766  15.739  1.9358 -3.1272  1.0310
 9128SOL    HW239018   1.483   1.781  15.610 -1.3671  0.8727  2.4838
 9129SOL     OW39019   0.701   3.198   6.636 -0.2386  0.7439 -0.3811
 9129SOL    HW139020   0.695   3.293   6.642 -2.2825  0.8328 -3.1726
 9129SOL    HW239021   0.792   3.181   6.658  0.0991 -0.3177 -2.5169
 9130SOL     OW39022   0.065   1.552   2.142  0.5165  0.0823 -0.1842
 9130SOL    HW139023   0.027   1.573   2.057  3.6576  1.6865 -1.1900
 9130SOL    HW239024   4.738   1.583   2.201  0.0257  0.0038 -0.7174
 9131SOL     OW39025   0.575   2.114  16.111 -0.5394  0.0638 -0.1949
 9131SOL    HW139026   0.512   2.042  16.109 -0.6567  0.1651  0.0081
 9131SOL    HW239027   0.625   2.074  16.182  0.0435  0.7553 -0.2152
 9132SOL     OW39028   4.629   0.672  14.701 -0.2847  0.6797 -0.1600
 9132SOL    HW139029   4.558   0.609  14.716  1.4907 -1.8397 -2.4106
 9132SOL    HW239030   4.668   0.626  14.627 -1.7578 -2.4912  1.0001
 9133SOL     OW39031   4.684   1.075  17.492  0.2510 -0.9567 -0.4276
 9133SOL    HW139032   4.705   1.084  17.399 -1.8583  1.9151 -0.6099
 9133SOL    HW239033   4.615   1.139  17.506  0.8192 -0.4021 -0.1362
 9134SOL     OW39034   2.755   2.003  16.582 -0.0557  0.2806  0.5203
 9134SOL    HW139035   2.782   2.087  16.544  4.2877 -0.8143  1.1921
 9134SOL    HW239036   2.667   2.020  16.616 -0.0901  0.3303  0.4069
 9135SOL     OW39037   2.005   3.762   5.974 -0.5805 -0.0609  0.4674
 9135SOL    HW139038   2.017   3.685   6.029 -1.9226 -1.3918 -1.1182
 9135SOL    HW239039   1.995   3.826   6.045  0.1629 -0.3325  0.8222
 9136SOL     OW39040   3.944   3.012   1.094 -0.4051  0.0579  0.1298
 9136SOL    HW139041   3.871   2.966   1.053 -2.1270  0.3081  2.9186
 9136SOL    HW239042   4.018   2.995   1.035 -0.0925  1.5166  0.0985
 9137SOL     OW39043   0.620   3.134   3.094  0.6172  0.1297  0.0365
 9137SOL    HW139044   0.530   3.148   3.066  0.8951  0.5454 -0.6638
 9137SOL    HW239045   0.656   3.223   3.092  2.1466 -0.4794  0.1434
 9138SOL     OW39046   0.177   3.469   4.567  0.3868  0.2012 -0.4952
 9138SOL    HW139047   0.205   3.437   4.481 -1.3538 -1.7149 -0.3542
 9138SOL    HW239048   0.112   3.533   4.538 -0.8150 -1.0384 -0.5423
 9139SOL     OW39049   2.320   2.690   9.823  0.1587  0.1883  0.0750
 9139SOL    HW139050   2.412   2.690   9.852  0.7317 -0.6868 -1.7184
 9139SOL    HW239051   2.284   2.749   9.889 -0.1341  2.2227 -1.9099
 9140SOL     OW39052   2.406   1.903   9.358 -0.2746 -0.0314 -0.0330
 9140SOL    HW139053   2.331   1.866   9.403  0.5625  1.1547  2.3588
 9140SOL    HW239054   2.394   1.858   9.275 -0.1354 -0.1532  0.0132
 9141SOL     OW39055   4.596   2.057  17.457 -0.3157  0.1711  0.4310
 9141SOL    HW139056   4.565   2.143  17.429 -1.9558 -0.1916  1.1453
 9141SOL    HW239057   4.612   2.070  17.550  0.6792 -1.7905  0.5197
 9142SOL     OW39058   2.499   1.673   8.357 -0.2383 -0.2551  0.2903
 9142SOL    HW139059   2.540   1.587   8.351 -0.2947 -0.3073  0.6236
 9142SOL    HW239060   2.428   1.682   8.293  0.9819 -0.7744 -1.1279
 9143SOL     OW39061   4.359   0.764  12.441  0.4568 -0.6561 -0.3433
 9143SOL    HW139062   4.269   0.764  12.409  0.2242  1.2614  0.3205
 9143SOL    HW239063   4.403   0.830  12.387 -0.6319 -0.1401 -0.6083
 9144SOL     OW39064   1.463   2.086   3.856  0.6290  0.4725 -0.4757
 9144SOL    HW139065   1.447   2.167   3.808  0.4949 -0.3609 -1.8149
 9144SOL    HW239066   1.372   2.057   3.853  0.6023  0.2646  2.2817
 9145SOL     OW39067   3.877   1.479   2.471  0.1946 -0.0667  0.6873
 9145SOL    HW139068   3.836   1.562   2.446  0.8888  0.6241  1.8547
 9145SOL    HW239069   3.819   1.452   2.543 -2.7989  0.1498 -1.6479
 9146SOL     OW39070   3.060   4.145   4.057  0.0678  0.0081  0.0486
 9146SOL    HW139071   2.966   4.166   4.064  0.2369 -0.2352  3.2732
 9146SOL    HW239072   3.084   4.170   3.968 -1.3262 -0.5094 -0.4693
 9147SOL     OW39073   2.938   0.348   2.919 -0.3956  0.2932 -0.5364
 9147SOL    HW139074   2.860   0.393   2.886 -0.6011  0.2167 -0.1493
 9147SOL    HW239075   2.906   0.313   3.002 -0.6895 -0.1327 -0.8315
 9148SOL     OW39076   3.634   1.037   4.743 -0.2317 -0.1300  0.4073
 9148SOL    HW139077   3.604   0.980   4.813  1.2290 -0.9027  0.4006
 9148SOL    HW239078   3.688   0.970   4.702  2.2002  1.4939  0.9496
 9149SOL     OW39079   4.713   0.584   4.675  0.3186  0.4122 -0.1663
 9149SOL    HW139080   0.000   0.576   4.584  1.0032  1.2889 -0.0261
 9149SOL    HW239081   0.040   0.540   4.725 -1.7987 -0.8377  1.5992
 9150SOL     OW39082   3.180   2.692  12.363 -0.5330  0.6106 -0.3393
 9150SOL    HW139083   3.159   2.718  12.453 -2.2093 -3.1307  0.3602
 9150SOL    HW239084   3.154   2.600  12.366 -1.5012  0.8704 -0.5127
 9151SOL     OW39085   1.637   3.503   2.193 -0.1330 -0.1196 -0.2416
 9151SOL    HW139086   1.623   3.580   2.249 -0.6891 -0.3711 -0.0297
 9151SOL    HW239087   1.561   3.449   2.217  0.1372 -0.4469 -0.1250
 9152SOL     OW39088   1.643   2.114   8.288 -0.3013  0.4422 -0.1979
 9152SOL    HW139089   1.738   2.120   8.295 -0.4717 -0.0041  2.7544
 9152SOL    HW239090   1.638   2.115   8.193 -2.8195  2.9058 -0.0502
 9153SOL     OW39091   3.044   2.346   4.220  0.0303 -0.4564 -0.3927
 9153SOL    HW139092   3.005   2.429   4.193  2.4443  1.0462  0.7365
 9153SOL    HW239093   3.013   2.293   4.147 -2.2793  0.4051 -0.0410
 9154SOL     OW39094   1.099   3.205   5.053 -0.6445 -0.0757 -0.1292
 9154SOL    HW139095   1.159   3.211   4.978 -0.7943  1.2527 -0.1384
 9154SOL    HW239096   1.058   3.122   5.028 -1.6123  0.8702 -1.6731
 9155SOL     OW39097   2.879   3.014   1.744 -0.2644  0.0434 -0.1430
 9155SOL    HW139098   2.836   2.932   1.766  1.1500  0.0476  2.7726
 9155SOL    HW239099   2.918   3.030   1.830  0.7032 -0.6817 -0.4473
 9156SOL     OW39100   0.361   1.619   6.626  0.0365  0.3587 -0.0822
 9156SOL    HW139101   0.441   1.630   6.574  0.4226  1.2933  0.7182
 9156SOL    HW239102   0.404   1.569   6.696  1.2913 -0.5288 -1.4773
 9157SOL     OW39103   2.944   3.593   1.502 -0.5782  0.2306  0.5497
 9157SOL    HW139104   2.898   3.577   1.585  0.2788  0.3713  1.0569
 9157SOL    HW239105   2.936   3.687   1.482 -0.2984 -0.3477 -2.2017
 9158SOL     OW39106   0.923   1.536  14.625 -0.4306  0.1297 -0.3764
 9158SOL    HW139107   0.927   1.537  14.530 -0.8224 -0.1799 -0.3966
 9158SOL    HW239108   0.927   1.630  14.646 -0.8366 -0.0407  0.4510
 9159SOL     OW39109   4.042   0.422   3.861  0.1587  0.2706  0.9609
 9159SOL    HW139110   4.103   0.473   3.913 -2.7377  1.5565  3.1048
 9159SOL    HW239111   3.957   0.465   3.864  0.2527  0.6323 -1.0910
 9160SOL     OW39112   3.423   3.984   3.520  0.7569 -0.5352  0.1539
 9160SOL    HW139113   3.381   4.026   3.595  1.1842  1.1514 -0.5351
 9160SOL    HW239114   3.498   3.942   3.561  1.0703 -1.9076 -1.8484
 9161SOL     OW39115   4.159   2.819   5.742  0.1073 -0.3464 -0.0059
 9161SOL    HW139116   4.078   2.842   5.789  2.0248  1.1490  2.5807
 9161SOL    HW239117   4.124   2.798   5.656 -0.7029 -0.7749  0.4300
 9162SOL     OW39118   1.586   2.316   6.357  0.5480 -0.7055 -0.2767
 9162SOL    HW139119   1.518   2.320   6.425 -0.3722 -0.9975 -1.1722
 9162SOL    HW239120   1.563   2.236   6.309  0.7242 -1.3531  0.7304
 9163SOL     OW39121   2.301   3.947  14.089  0.0639  1.1009  0.0422
 9163SOL    HW139122   2.352   3.955  14.170  0.6696 -0.1896 -0.2217
 9163SOL    HW239123   2.288   4.028  14.041 -2.1837 -0.1960 -1.5458
 9164SOL     OW39124   2.454   3.794   4.343 -0.2678 -0.0876  0.0423
 9164SOL    HW139125   2.542   3.807   4.378  0.6330 -1.2592 -1.7624
 9164SOL    HW239126   2.421   3.884   4.347  0.3318  0.2015 -1.6393
 9165SOL     OW39127   1.219   3.963   9.481 -0.0437 -0.7263  0.8737
 9165SOL    HW139128   1.273   4.009   9.545  0.6587 -0.8722  0.3799
 9165SOL    HW239129   1.203   4.027   9.412 -1.9065 -0.1632  1.8251
 9166SOL     OW39130   1.050   4.181   1.950 -0.4158  0.4522 -0.2918
 9166SOL    HW139131   1.111   4.218   2.013  1.3277 -0.6692 -1.3148
 9166SOL    HW239132   0.968   4.178   1.999 -0.7324 -0.5452 -0.8695
 9167SOL     OW39133   0.486   2.688   5.947 -0.4059 -0.8431 -0.3478
 9167SOL    HW139134   0.543   2.741   5.892  0.0797  0.0121  0.9851
 9167SOL    HW239135   0.483   2.738   6.029 -1.7865 -1.2384 -0.1447
 9168SOL     OW39136   0.743   2.492   2.093  0.5535  0.2933 -0.1013
 9168SOL    HW139137   0.808   2.532   2.035 -0.5987  0.5697 -1.2179
 9168SOL    HW239138   0.799   2.458   2.163  0.8576 -0.5358 -0.7387
 9169SOL     OW39139   0.548   4.018   4.252  0.3630  0.5113 -0.3543
 9169SOL    HW139140   0.575   4.041   4.341 -1.6751  2.0659 -0.1557
 9169SOL    HW239141   0.516   3.930   4.269  0.1618  0.3802 -1.4122
 9170SOL     OW39142   0.699   3.763   7.012  0.0873 -0.5095  0.2223
 9170SOL    HW139143   0.776   3.706   7.012  1.1602  0.9397 -0.7423
 9170SOL    HW239144   0.748   3.839   6.980  1.1931 -0.7238  1.4216
 9171SOL     OW39145   0.063   4.442   0.068  0.4488 -0.0104 -0.4066
 9171SOL    HW139146   4.737   4.501   0.103 -0.7013 -2.4210  1.3987
 9171SOL    HW239147   0.044   4.444  17.738  2.1373 -3.4808 -0.8104
 9172SOL     OW39148   2.645   2.952  16.834  0.3187  0.1516 -0.5424
 9172SOL    HW139149   2.738   2.971  16.846 -0.0442  1.4811  0.0454
 9172SOL    HW239150   2.605   3.023  16.884 -0.5779 -0.2069 -0.7416
 9173SOL     OW39151   1.498   1.021   5.196 -0.2925 -0.0421  0.2474
 9173SOL    HW139152   1.531   1.040   5.283  2.0116  2.0939 -1.1275
 9173SOL    HW239153   1.416   1.070   5.205  0.3998  0.8381  1.6905
 9174SOL     OW39154   3.340   1.301   7.304 -0.2651 -0.2625 -0.1337
 9174SOL    HW139155   3.262   1.263   7.342 -0.0956 -0.1127  0.3589
 9174SOL    HW239156   3.398   1.226   7.312 -0.5840 -0.2617  2.1377
 9175SOL     OW39157   2.691   3.857  13.752 -0.3577 -0.3685  0.2752
 9175SOL    HW139158   2.750   3.829  13.822  0.9900 -0.2439 -0.8306
 9175SOL    HW239159   2.646   3.926  13.802  0.3068 -1.3799  2.2684
 9176SOL     OW39160   1.241   3.861   7.084 -0.2338 -0.3075  0.0556
 9176SOL    HW139161   1.261   3.786   7.028  0.5582 -0.7913  0.9928
 9176SOL    HW239162   1.256   3.836   7.175 -0.2156 -3.0510 -0.6999
 9177SOL     OW39163   4.476   3.074   5.440 -0.3365  0.2777 -0.7603
 9177SOL    HW139164   4.507   3.162   5.421  2.5933 -0.5017  0.4419
 9177SOL    HW239165   4.507   3.065   5.530 -3.1933 -0.6443  0.1533
 9178SOL     OW39166   0.026   2.609   1.461 -0.0244 -0.5534  0.1179
 9178SOL    HW139167   0.034   2.688   1.515 -1.3830 -0.2832 -0.0619
 9178SOL    HW239168   4.711   2.554   1.515 -1.8434  0.9126 -0.3004
 9179SOL     OW39169   3.570   0.588   6.149 -0.2865 -0.0809 -0.5535
 9179SOL    HW139170   3.637   0.618   6.088 -0.3076  1.0824 -0.0148
 9179SOL    HW239171   3.541   0.503   6.118 -0.8776  0.3812 -1.2803
 9180SOL     OW39172   2.608   1.305   2.726  0.0975  0.2595  0.1135
 9180SOL    HW139173   2.557   1.307   2.807 -0.8163  1.2296 -0.4940
 9180SOL    HW239174   2.549   1.354   2.670  0.7829  1.4623  0.4544
 9181SOL     OW39175   1.803   1.015   9.867  0.1995 -0.0454 -0.2149
 9181SOL    HW139176   1.758   1.048   9.790  1.9976  1.4764 -0.6338
 9181SOL    HW239177   1.884   0.998   9.819 -1.2398  1.5237 -3.1870
 9182SOL     OW39178   4.722   3.658   4.444  0.0139 -0.3961 -0.2604
 9182SOL    HW139179   4.717   3.601   4.367  2.6992  0.3593 -0.9680
 9182SOL    HW239180   4.633   3.662   4.479  0.3157 -2.3499  0.7641
 9183SOL     OW39181   3.909   1.342   0.886 -0.2563 -0.0572  0.2060
 9183SOL    HW139182   3.864   1.387   0.814  0.0551  0.2722  0.2193
 9183SOL    HW239183   3.992   1.317   0.845  1.5787 -1.1713  4.5926
 9184SOL     OW39184   4.545   2.092   4.786  0.0267 -0.1259  0.1975
 9184SOL    HW139185   4.452   2.096   4.809  0.1157  0.6913  0.4138
 9184SOL    HW239186   4.586   2.071   4.869  2.6775 -0.1193 -1.1063
 9185SOL     OW39187   2.197   2.694   5.429 -0.2138  0.1530 -0.0278
 9185SOL    HW139188   2.142   2.627   5.470  0.7094 -0.8316 -0.3893
 9185SOL    HW239189   2.264   2.638   5.388 -0.3880 -0.3426  0.3571
 9186SOL     OW39190   4.571   1.455  17.165  0.2287  0.3074  0.1867
 9186SOL    HW139191   4.488   1.414  17.139  1.7115 -1.8474 -1.2124
 9186SOL    HW239192   4.549   1.546  17.147  0.4499  0.8633  2.8278
 9187SOL     OW39193   4.226   2.461   4.312  0.1107 -0.6754  0.1031
 9187SOL    HW139194   4.319   2.465   4.288  0.1318 -0.2428  0.2465
 9187SOL    HW239195   4.197   2.549   4.290 -0.3100 -0.6594  0.7240
 9188SOL     OW39196   3.026   1.041   7.220  0.0287  0.1541 -0.6747
 9188SOL    HW139197   2.974   1.116   7.190 -0.7128  0.7171  1.9955
 9188SOL    HW239198   2.956   0.978   7.235  2.2932 -2.7665 -2.5459
 9189SOL     OW39199   0.053   1.417  11.065 -0.8513  0.0562  1.2742
 9189SOL    HW139200   0.027   1.502  11.099  0.7428  1.0840 -0.0873
 9189SOL    HW239201   0.115   1.389  11.132 -0.0980 -0.9134  0.1916
 9190SOL     OW39202   3.173   0.556  12.575  0.9719  0.3557  0.2152
 9190SOL    HW139203   3.097   0.610  12.553  1.5155  1.0141 -0.0645
 9190SOL    HW239204   3.197   0.505  12.498  1.5674 -0.5511  1.0037
 9191SOL     OW39205   3.185   2.608   6.952 -0.1672  0.3323 -0.4823
 9191SOL    HW139206   3.108   2.646   6.994  0.9824  1.8281  0.2968
 9191SOL    HW239207   3.191   2.522   6.994 -0.2128  0.9928  0.8713
 9192SOL     OW39208   3.665   1.619   8.214 -0.2186 -0.2031 -0.1210
 9192SOL    HW139209   3.629   1.697   8.171 -0.6793 -0.1579  0.3451
 9192SOL    HW239210   3.594   1.609   8.278  0.2142  1.7116  0.6630
 9193SOL     OW39211   3.160   2.438   7.900 -0.1745  0.0844 -0.4686
 9193SOL    HW139212   3.159   2.387   7.981 -0.8956  3.2466  1.5131
 9193SOL    HW239213   3.236   2.397   7.858  1.6320  3.9678 -0.9503
 9194SOL     OW39214   1.949   3.938   8.062  0.1389 -0.1482 -0.0669
 9194SOL    HW139215   1.948   3.888   7.980 -1.3486 -0.4137  0.1254
 9194SOL    HW239216   1.863   3.915   8.097 -0.0994  1.3635  0.3167
 9195SOL     OW39217   1.472   2.319   2.747  0.6780 -0.3090 -0.4987
 9195SOL    HW139218   1.426   2.274   2.676 -1.3247 -0.2075  0.7375
 9195SOL    HW239219   1.518   2.390   2.701 -1.0304  0.3448 -1.2068
 9196SOL     OW39220   3.357   4.422   4.398 -0.4070 -0.2947  0.1490
 9196SOL    HW139221   3.285   4.409   4.337  0.3169 -1.7386 -0.3769
 9196SOL    HW239222   3.421   4.354   4.380  0.8666  1.0065 -0.2792
 9197SOL     OW39223   3.705   3.783  15.603 -0.0962 -0.8592 -0.3646
 9197SOL    HW139224   3.716   3.858  15.544 -1.4863  0.5781  1.2292
 9197SOL    HW239225   3.625   3.752  15.560  0.0460  0.9150 -1.8816
 9198SOL     OW39226   4.473   3.718   5.335 -0.1620 -0.5683 -0.6872
 9198SOL    HW139227   4.449   3.793   5.281 -2.5990 -0.7452  0.1463
 9198SOL    HW239228   4.535   3.758   5.397 -1.2294 -0.6764  0.4535
 9199SOL     OW39229   0.066   4.562  16.117 -0.6440  0.2656 -0.6306
 9199SOL    HW139230   0.111   4.558  16.201 -0.7520 -1.4479 -0.6596
 9199SOL    HW239231   4.721   4.530  16.141  0.1710 -0.9191  0.6934
 9200SOL     OW39232   2.848   3.050  10.472  0.5304 -0.2931  0.0551
 9200SOL    HW139233   2.825   3.128  10.523  2.8194 -0.1153  0.8047
 9200SOL    HW239234   2.891   2.989  10.532 -1.1945 -2.0743 -0.5178
 9201SOL     OW39235   4.495   1.775   7.007 -0.0785  0.1819 -0.0929
 9201SOL    HW139236   4.558   1.729   6.951 -0.1777  1.7335 -1.4894
 9201SOL    HW239237   4.555   1.793   7.079  3.5927 -0.8047 -2.8844
 9202SOL     OW39238   1.729   3.140   3.325  0.2330 -0.4121  0.8386
 9202SOL    HW139239   1.776   3.192   3.260  0.4463 -0.1382  1.2076
 9202SOL    HW239240   1.652   3.197   3.331 -0.3737 -1.0585 -1.0116
 9203SOL     OW39241   4.363   3.496   5.260  0.0482  0.0888 -0.3779
 9203SOL    HW139242   4.310   3.535   5.191  0.5944  0.8395 -0.3647
 9203SOL    HW239243   4.401   3.577   5.294  0.3926 -0.3165  0.2101
 9204SOL     OW39244   3.512   4.658  12.319  0.1620  0.0595 -0.2605
 9204SOL    HW139245   3.596   4.656  12.365 -1.6464  3.5619  3.1282
 9204SOL    HW239246   3.519   4.571  12.278 -0.9745  0.3675 -1.1003
 9205SOL     OW39247   4.629   0.301  12.195 -0.3290 -0.3363 -0.0063
 9205SOL    HW139248   4.661   0.214  12.217 -1.1943 -0.3871  1.0555
 9205SOL    HW239249   4.690   0.358  12.241 -1.0514  0.2238  0.2712
 9206SOL     OW39250   0.754   4.236   8.308  0.3573  0.3366  0.3984
 9206SOL    HW139251   0.689   4.253   8.375  0.9650 -0.0951  1.1082
 9206SOL    HW239252   0.716   4.269   8.228  1.1023 -1.1185 -0.5735
 9207SOL     OW39253   3.636   3.889   3.669  0.3695 -0.1595 -0.2542
 9207SOL    HW139254   3.710   3.939   3.703 -1.1517  2.3401 -0.5955
 9207SOL    HW239255   3.692   3.859   3.597 -0.0165  0.9566 -1.0197
 9208SOL     OW39256   0.918   2.727   3.909 -0.5818  0.2925  0.2136
 9208SOL    HW139257   0.886   2.761   3.825  1.7149  1.9791  0.0151
 9208SOL    HW239258   0.847   2.663   3.911  0.3411 -0.7160  0.2708
 9209SOL     OW39259   3.318   2.467   5.597  0.7292 -0.3991  0.3101
 9209SOL    HW139260   3.378   2.411   5.646  1.9871  0.0082 -0.7701
 9209SOL    HW239261   3.262   2.494   5.671  0.3835 -0.0531 -0.0771
 9210SOL     OW39262   3.177   1.311   6.484 -0.0606 -0.2989  0.1300
 9210SOL    HW139263   3.190   1.217   6.495  1.0883 -0.0813  0.6482
 9210SOL    HW239264   3.205   1.329   6.573  2.6958 -1.7376 -0.4587
 9211SOL     OW39265   2.199   3.639   2.615  0.5392  0.1263  0.0602
 9211SOL    HW139266   2.180   3.604   2.702 -0.0201 -1.9299 -0.8854
 9211SOL    HW239267   2.111   3.651   2.579 -0.2416 -1.0112  1.6002
 9212SOL     OW39268   0.772   0.604   3.932 -0.0974 -0.1880  0.3822
 9212SOL    HW139269   0.839   0.536   3.939 -0.6132 -0.9559 -2.3481
 9212SOL    HW239270   0.749   0.603   4.025  0.6986  3.2034  0.6134
 9213SOL     OW39271   2.630   4.706   7.477  0.9490  0.2386  0.2920
 9213SOL    HW139272   2.608   0.058   7.485  2.1908  0.5503  0.0134
 9213SOL    HW239273   2.611   4.666   7.562 -0.2029  1.3054  0.5473
 9214SOL     OW39274   3.896   2.333   2.538  0.4979 -0.4633  0.2138
 9214SOL    HW139275   3.819   2.382   2.567 -0.0756 -2.3351  1.9112
 9214SOL    HW239276   3.868   2.283   2.462 -2.0633 -1.1869  1.6420
 9215SOL     OW39277   2.506   4.192  14.216 -0.2527 -0.3761  0.3240
 9215SOL    HW139278   2.509   4.141  14.135 -1.3659 -4.4783  2.8775
 9215SOL    HW239279   2.416   4.223  14.210 -0.0708  0.0521 -0.1415
 9216SOL     OW39280   3.805   4.391   4.033 -0.6014 -0.3443 -0.1758
 9216SOL    HW139281   3.820   4.461   4.095  2.3586  0.4520 -1.7879
 9216SOL    HW239282   3.867   4.325   4.063 -1.5780 -1.7275 -1.1259
 9217SOL     OW39283   4.416   4.589  15.164  0.5444 -0.1987  0.4066
 9217SOL    HW139284   4.389   4.497  15.169  1.0288 -0.4145 -0.9043
 9217SOL    HW239285   4.421   4.609  15.071  2.1826 -0.6663  0.3851
 9218SOL     OW39286   3.230   4.307   5.000  0.6441  0.1310  0.0652
 9218SOL    HW139287   3.205   4.236   5.059 -0.3438 -0.1216 -0.6419
 9218SOL    HW239288   3.254   4.261   4.920 -0.5501  0.7175 -0.6348
 9219SOL     OW39289   3.690   3.753   7.421 -0.0447 -1.2556  0.2695
 9219SOL    HW139290   3.731   3.667   7.431 -0.6646 -1.8351 -2.1250
 9219SOL    HW239291   3.608   3.731   7.464  0.1465  2.5790  2.5564
 9220SOL     OW39292   2.300   4.469  16.413 -0.0090  0.2135 -0.4550
 9220SOL    HW139293   2.395   4.476  16.429 -0.0910  1.6432 -0.6056
 9220SOL    HW239294   2.284   4.375  16.406 -1.2942  0.4538 -0.6423
 9221SOL     OW39295   0.724   0.616  17.511 -0.4575  0.1245  0.3570
 9221SOL    HW139296   0.784   0.549  17.545  0.6929  0.1725 -1.5563
 9221SOL    HW239297   0.633   0.590  17.524 -0.0477 -1.4562  0.0449
 9222SOL     OW39298   3.619   0.243   5.923  0.3354 -0.0927  0.2146
 9222SOL    HW139299   3.546   0.298   5.893  1.3471  0.5534 -1.0447
 9222SOL    HW239300   3.604   0.258   6.016 -0.1072 -1.3442  0.3395
 9223SOL     OW39301   4.525   2.848   1.865  0.1401 -0.2685 -0.1643
 9223SOL    HW139302   4.578   2.872   1.941  2.5988  0.2708 -2.0621
 9223SOL    HW239303   4.500   2.935   1.835  0.7676  0.0137  0.1278
 9224SOL     OW39304   0.457   1.195   1.953  0.8336 -0.3133 -0.1016
 9224SOL    HW139305   0.362   1.185   1.948  0.6826  0.8342  0.5937
 9224SOL    HW239306   0.490   1.105   1.950 -0.4360 -0.7831  0.3601
 9225SOL     OW39307   3.326   3.542   3.527 -0.6874  0.3350  0.1016
 9225SOL    HW139308   3.288   3.630   3.524 -1.6143 -0.1098 -1.3171
 9225SOL    HW239309   3.363   3.542   3.615 -1.1758  0.5262  0.3058
 9226SOL     OW39310   3.849   1.794   6.657 -0.4531 -0.1661  0.0890
 9226SOL    HW139311   3.764   1.757   6.680 -1.6150  1.2345 -1.8812
 9226SOL    HW239312   3.899   1.716   6.679 -1.9734 -1.0883  0.2567
 9227SOL     OW39313   4.316   4.150   1.080  0.2587 -0.2375 -0.4414
 9227SOL    HW139314   4.332   4.164   0.987 -1.4864  0.7924 -0.5784
 9227SOL    HW239315   4.362   4.067   1.093 -1.3051 -1.0552 -0.0102
 9228SOL     OW39316   4.533   4.343   1.129 -0.2342  0.2027 -0.4853
 9228SOL    HW139317   4.451   4.303   1.098 -0.8382  1.8785 -1.0155
 9228SOL    HW239318   4.594   4.280   1.091  0.7714  0.0881  1.3774
 9229SOL     OW39319   1.737   1.520  15.633  0.2676  0.2869  0.8743
 9229SOL    HW139320   1.807   1.585  15.637  0.6099 -0.0453  0.3030
 9229SOL    HW239321   1.674   1.587  15.611 -0.8588 -1.2368 -0.5439
 9230SOL     OW39322   1.737   4.542   5.646 -0.0756 -0.5289 -0.1690
 9230SOL    HW139323   1.822   4.499   5.656 -0.4396 -1.2026  0.0916
 9230SOL    HW239324   1.688   4.481   5.591 -1.8886 -1.9299  3.0062
 9231SOL     OW39325   3.182   2.160   6.409  0.2942  0.0973 -0.2547
 9231SOL    HW139326   3.234   2.157   6.329 -3.1590  0.6604 -2.5190
 9231SOL    HW239327   3.134   2.243   6.402 -1.3837 -0.8811 -0.3363
 9232SOL     OW39328   3.579   2.890   1.785  0.4594 -0.6053 -0.4303
 9232SOL    HW139329   3.524   2.960   1.751 -0.7075 -1.0686  0.5408
 9232SOL    HW239330   3.517   2.818   1.778 -0.9172  0.6504 -1.0683
 9233SOL     OW39331   2.267   1.524   7.232 -0.5629 -0.0022 -0.5258
 9233SOL    HW139332   2.234   1.596   7.178 -0.8310  0.1281 -0.1848
 9233SOL    HW239333   2.351   1.500   7.192 -1.6497 -1.1639 -2.1071
 9234SOL     OW39334   1.967   2.105  16.449 -0.1290 -0.7042  0.3245
 9234SOL    HW139335   1.996   2.038  16.512  0.1417 -2.0198 -1.1991
 9234SOL    HW239336   2.050   2.147  16.428 -0.1417 -0.4407  0.7924
 9235SOL     OW39337   1.080   1.487   2.887  0.1525  0.3973  0.0380
 9235SOL    HW139338   1.014   1.442   2.940 -2.1092 -0.4537 -3.5444
 9235SOL    HW239339   1.121   1.538   2.958  0.1358 -0.3323  0.5690
 9236SOL     OW39340   0.919   2.191   3.238 -0.0667  0.4432 -0.0732
 9236SOL    HW139341   0.902   2.106   3.277 -1.9949  1.5190  1.4166
 9236SOL    HW239342   0.876   2.244   3.306  0.4371 -2.1403  2.2380
 9237SOL     OW39343   3.276   2.305   3.508  0.4061 -0.3781 -0.0911
 9237SOL    HW139344   3.199   2.327   3.455 -0.5446 -2.2708  0.5163
 9237SOL    HW239345   3.335   2.284   3.436  0.7824  0.2329  0.0389
 9238SOL     OW39346   3.256   2.932   4.115  0.3984  0.1128  0.0683
 9238SOL    HW139347   3.204   2.962   4.189  1.5301  0.1117  0.8726
 9238SOL    HW239348   3.344   2.945   4.152 -0.6593 -0.5337  2.8144
 9239SOL     OW39349   3.991   2.192   6.678  0.6011 -0.2029  0.4140
 9239SOL    HW139350   3.982   2.287   6.679  0.5056 -0.1894 -2.1674
 9239SOL    HW239351   4.007   2.181   6.772 -1.0968  1.8560  0.9220
 9240SOL     OW39352   1.409   0.515   9.325 -0.0526 -0.2191  0.1413
 9240SOL    HW139353   1.464   0.451   9.279  1.5757  2.2133 -1.3052
 9240SOL    HW239354   1.403   0.480   9.414  0.7015  1.5219  0.8753
 9241SOL     OW39355   0.327   3.371  15.179  0.0751 -0.0495 -0.0838
 9241SOL    HW139356   0.372   3.292  15.206  0.4492 -0.3525 -1.5984
 9241SOL    HW239357   0.363   3.378  15.090  1.9043 -0.2051  0.6535
 9242SOL     OW39358   1.181   4.091   9.165  0.0310  0.0705 -0.2181
 9242SOL    HW139359   1.132   4.173   9.174 -0.7172 -0.5104  0.9151
 9242SOL    HW239360   1.270   4.116   9.139  0.3353  0.5559  1.3052
 9243SOL     OW39361   3.269   2.047   4.581  0.1207 -0.6299 -0.1531
 9243SOL    HW139362   3.321   1.978   4.541 -0.3466 -3.1659  3.6696
 9243SOL    HW239363   3.228   2.096   4.509 -0.3738  0.2001  0.6900
 9244SOL     OW39364   3.709   4.630   6.134  0.0826 -0.4415  0.0784
 9244SOL    HW139365   3.756   4.610   6.215  0.1219  0.4682  0.2724
 9244SOL    HW239366   3.739   4.717   6.109 -0.9091 -0.2297 -0.3638
 9245SOL     OW39367   2.073   4.621  16.418  0.2812  0.1283 -0.1486
 9245SOL    HW139368   2.164   4.594  16.407  0.6212  1.5063 -0.7719
 9245SOL    HW239369   2.087   4.713  16.395  2.2465  0.0601  0.7871
 9246SOL     OW39370   1.167   2.131   8.196  0.4316 -0.3357  0.2951
 9246SOL    HW139371   1.199   2.196   8.133 -2.0508 -2.2037 -2.8547
 9246SOL    HW239372   1.156   2.059   8.134 -2.2716  0.5142 -0.2125
 9247SOL     OW39373   4.717   1.213  15.103 -0.8785  0.2732 -0.1047
 9247SOL    HW139374   0.051   1.165  15.068 -1.2864  0.4618 -1.2374
 9247SOL    HW239375   4.731   1.297  15.059  1.7590 -0.3894 -0.5302
 9248SOL     OW39376   0.293   2.738   6.656  0.0801  0.6838  0.1183
 9248SOL    HW139377   0.346   2.817   6.670  1.9555 -0.4226 -0.7987
 9248SOL    HW239378   0.221   2.779   6.607  1.0257 -0.2695 -2.1068
 9249SOL     OW39379   1.765   0.501   8.741 -0.4719 -0.3112  0.3896
 9249SOL    HW139380   1.783   0.416   8.781  1.4252 -1.0394 -1.9962
 9249SOL    HW239381   1.808   0.563   8.799 -1.7378  0.7017  0.2483
 9250SOL     OW39382   1.254   3.556   1.963  0.0267 -0.0399 -0.4402
 9250SOL    HW139383   1.229   3.512   1.881 -2.9620 -1.4730  1.2561
 9250SOL    HW239384   1.348   3.567   1.955  0.0617  0.2312  0.3963
 9251SOL     OW39385   2.675   1.677   4.052  0.0546 -0.2703  0.1396
 9251SOL    HW139386   2.714   1.594   4.025 -1.8488 -0.6268 -1.4664
 9251SOL    HW239387   2.590   1.643   4.080 -0.4509  0.0552 -0.9957
 9252SOL     OW39388   1.646   3.773   7.830 -0.4925  0.0021 -0.2701
 9252SOL    HW139389   1.556   3.806   7.828 -0.6800 -0.5301 -0.7458
 9252SOL    HW239390   1.657   3.751   7.922  0.9153 -1.6115 -0.8189
 9253SOL     OW39391   4.701   1.299   7.653  0.2560  0.2032  0.2010
 9253SOL    HW139392   0.024   1.231   7.635  0.1288  0.4227 -1.0922
 9253SOL    HW239393   4.617   1.261   7.626 -1.2183  2.6409  1.3817
 9254SOL     OW39394   2.074   1.652   2.941  0.4881  0.1267  0.0543
 9254SOL    HW139395   2.043   1.703   3.016 -0.7774  0.3640 -0.6247
 9254SOL    HW239396   2.168   1.669   2.944  0.7361 -1.3258  0.8418
 9255SOL     OW39397   3.996   4.143   6.703 -0.0932  0.0378  0.0213
 9255SOL    HW139398   3.998   4.189   6.619  0.5851  0.9439  0.5352
 9255SOL    HW239399   4.068   4.081   6.694  0.6769  0.9569 -0.0947
 9256SOL     OW39400   4.477   0.442   4.272 -0.2288  0.2487  0.3752
 9256SOL    HW139401   4.462   0.537   4.265  1.3983  0.5641  1.1539
 9256SOL    HW239402   4.572   0.427   4.271 -0.0639  1.3915 -1.3849
 9257SOL     OW39403   2.961   1.227   3.407  0.4007 -0.4254  0.3570
 9257SOL    HW139404   2.979   1.268   3.322 -2.7195 -2.6367 -1.3511
 9257SOL    HW239405   2.899   1.158   3.385  0.3707  0.1700 -1.4450
 9258SOL     OW39406   1.600   1.477   6.622  0.1332  0.4504 -0.0014
 9258SOL    HW139407   1.627   1.506   6.535 -2.2642 -0.0731 -0.9018
 9258SOL    HW239408   1.528   1.418   6.600 -0.9221  1.4675  0.7097
 9259SOL     OW39409   2.153   0.354   1.418  0.4629  0.2527 -0.1927
 9259SOL    HW139410   2.227   0.293   1.422  0.9382  0.7851 -0.8390
 9259SOL    HW239411   2.089   0.296   1.375 -0.7536  1.1289  0.4311
 9260SOL     OW39412   0.816   2.254   6.512  0.2213 -0.3939  0.4546
 9260SOL    HW139413   0.751   2.247   6.582 -1.5751 -0.9776 -1.2652
 9260SOL    HW239414   0.887   2.270   6.574 -0.6449  3.1431  0.5530
 9261SOL     OW39415   1.780   1.600  17.053 -0.4731  0.7334 -0.2566
 9261SOL    HW139416   1.831   1.681  17.050 -0.2110  0.5677 -0.3353
 9261SOL    HW239417   1.806   1.553  17.132  0.2023 -0.5200 -1.2023
 9262SOL     OW39418   0.795   3.715   5.861 -0.9885  0.3210  0.0573
 9262SOL    HW139419   0.834   3.711   5.774  0.4625 -1.8685  0.8311
 9262SOL    HW239420   0.872   3.686   5.910 -0.3743  0.9200 -0.5575
 9263SOL     OW39421   3.038   0.126   2.646  1.1928  0.3503 -0.3013
 9263SOL    HW139422   2.996   0.179   2.715 -2.4533 -0.7354 -1.6963
 9263SOL    HW239423   3.035   0.184   2.570  1.8281 -0.9536 -1.3049
 9264SOL     OW39424   1.347   1.347   8.368  0.3407  0.4406 -0.7066
 9264SOL    HW139425   1.263   1.383   8.338 -0.2233 -0.7081 -0.5149
 9264SOL    HW239426   1.321   1.264   8.409  0.1837 -0.6833 -3.0667
 9265SOL     OW39427   3.817   3.982   6.162 -0.7828 -0.5051 -0.0435
 9265SOL    HW139428   3.850   3.893   6.173  0.9131  0.2412  0.7874
 9265SOL    HW239429   3.859   4.028   6.235  0.1379  0.8452 -1.4230
 9266SOL     OW39430   2.286   0.091   3.608 -0.3056  0.5920  0.1384
 9266SOL    HW139431   2.357   0.132   3.658 -0.7459  1.4642  0.0571
 9266SOL    HW239432   2.282   0.167   3.550  0.8126  0.0988 -0.5619
 9267SOL     OW39433   3.845   0.399   5.842  0.1967 -0.0303 -0.0582
 9267SOL    HW139434   3.859   0.391   5.748 -0.7208 -1.1467 -0.0965
 9267SOL    HW239435   3.782   0.330   5.866  1.5417 -0.6658  1.6990
 9268SOL     OW39436   0.178   1.043  17.660  0.2691 -0.2685  0.1759
 9268SOL    HW139437   0.129   1.009  17.735 -0.1972 -0.6974 -0.3172
 9268SOL    HW239438   0.114   1.017  17.594 -0.8555  2.8035  0.0353
 9269SOL     OW39439   2.000   0.933   5.036 -0.3067 -0.0389 -0.6840
 9269SOL    HW139440   2.028   0.985   4.960  1.1111  0.8211  0.4269
 9269SOL    HW239441   2.023   0.995   5.105  0.2909  0.8977 -1.7129
 9270SOL     OW39442   2.035   2.516   5.589 -0.0451 -0.3606 -0.3520
 9270SOL    HW139443   1.968   2.450   5.573 -0.1159  0.5387 -3.8787
 9270SOL    HW239444   2.023   2.520   5.683  2.4410 -1.9482  0.0464
 9271SOL     OW39445   0.729   2.078   1.023  0.2480 -0.2063 -0.6583
 9271SOL    HW139446   0.677   2.022   1.081  0.9792  0.8348  0.9979
 9271SOL    HW239447   0.752   2.147   1.085  0.1439 -1.8580  1.2518
 9272SOL     OW39448   3.316   3.396   6.166 -0.0443 -0.6010  0.5036
 9272SOL    HW139449   3.244   3.373   6.224 -0.9463  2.5409  0.5908
 9272SOL    HW239450   3.266   3.467   6.126  0.5663 -1.2218 -1.3940
 9273SOL     OW39451   4.602   4.574   6.851  0.2421  0.6326  0.8977
 9273SOL    HW139452   4.683   4.532   6.877 -0.6142 -0.7776  1.2604
 9273SOL    HW239453   4.561   4.569   6.938 -1.1663 -0.2942  0.1785
 9274SOL     OW39454   2.118   1.777   1.141  0.3784 -0.5149 -0.4144
 9274SOL    HW139455   2.181   1.723   1.093  2.3755  1.9156 -0.5432
 9274SOL    HW239456   2.071   1.703   1.178 -1.2243  0.1745 -1.0790
 9275SOL     OW39457   0.883   3.555   7.112  0.1549 -0.0075  0.0632
 9275SOL    HW139458   0.871   3.498   7.036 -0.5955 -0.9998  0.9189
 9275SOL    HW239459   0.914   3.490   7.174  3.6154  0.8489 -0.7628
 9276SOL     OW39460   1.779   2.355   6.793  0.7140 -0.2393 -0.3013
 9276SOL    HW139461   1.718   2.421   6.827  0.8518 -0.8599  1.1549
 9276SOL    HW239462   1.849   2.352   6.858  0.7821 -1.0057 -0.4159
 9277SOL     OW39463   0.528   0.434   2.875  0.7486 -0.0823 -0.4565
 9277SOL    HW139464   0.522   0.420   2.781  2.4660  0.4014 -0.6389
 9277SOL    HW239465   0.616   0.471   2.883  0.5948  0.3009 -0.5314
 9278SOL     OW39466   2.700   2.870   7.371 -0.1659  0.2549  0.1930
 9278SOL    HW139467   2.691   2.795   7.430  0.4054 -1.0805 -1.4075
 9278SOL    HW239468   2.792   2.885   7.393 -0.2542 -1.8140  1.9857
 9279SOL     OW39469   3.127   2.332   5.768  0.4806 -0.5239  0.0664
 9279SOL    HW139470   3.116   2.396   5.698 -0.8301  0.1378  0.8756
 9279SOL    HW239471   3.041   2.337   5.810  1.2222  0.1460  1.5314
 9280SOL     OW39472   3.827   2.126   3.932 -0.3914  0.1539 -0.4690
 9280SOL    HW139473   3.849   2.075   4.009  0.6562  0.6506 -0.4374
 9280SOL    HW239474   3.889   2.199   3.927  0.3679 -0.6299 -2.6825
 9281SOL     OW39475   3.528   1.167   2.905 -0.0889  0.0690  0.0678
 9281SOL    HW139476   3.530   1.148   2.811  2.8057 -0.1603  0.1793
 9281SOL    HW239477   3.610   1.215   2.912 -1.2655  1.9638  0.8562
 9282SOL     OW39478   3.731   3.947  16.622  0.4393  0.1188  0.5607
 9282SOL    HW139479   3.706   3.974  16.533 -0.0499 -0.5923  0.4809
 9282SOL    HW239480   3.645   3.933  16.662  0.7592 -2.5297  0.3296
 9283SOL     OW39481   0.221   2.717   8.641  0.5831  0.1873 -0.0989
 9283SOL    HW139482   0.168   2.699   8.718  0.2257 -1.1842 -0.6729
 9283SOL    HW239483   0.288   2.747   8.702 -0.1940  0.7835  0.4513
 9284SOL     OW39484   1.550   0.342   6.952  0.2568  0.0277 -0.1445
 9284SOL    HW139485   1.544   0.351   6.857  2.2435 -2.1779 -0.4799
 9284SOL    HW239486   1.585   0.253   6.952  0.2619  0.0290 -0.8076
 9285SOL     OW39487   1.870   3.051   4.933 -0.4421  0.0316  0.1070
 9285SOL    HW139488   1.945   3.033   4.990 -0.9027  0.3591  0.8102
 9285SOL    HW239489   1.833   2.964   4.915  1.5719 -1.1432  1.5954
 9286SOL     OW39490   2.946   3.835   3.964  0.2575 -0.8580  0.3106
 9286SOL    HW139491   2.988   3.902   4.017 -3.5957  2.0557 -0.2908
 9286SOL    HW239492   3.016   3.800   3.909 -0.9241 -0.3362 -1.5507
 9287SOL     OW39493   3.878   3.406   4.164  0.1002  0.0417 -0.0082
 9287SOL    HW139494   3.969   3.376   4.155  0.4055  1.2557 -0.9885
 9287SOL    HW239495   3.844   3.346   4.230 -0.2779  1.6065  1.2176
 9288SOL     OW39496   3.692   2.181   7.287 -0.5644 -0.1326 -0.0724
 9288SOL    HW139497   3.652   2.180   7.374 -2.1726  0.9802 -0.7897
 9288SOL    HW239498   3.694   2.274   7.267 -0.4483 -0.0505  0.3225
 9289SOL     OW39499   1.762   3.482   9.326 -0.0454 -0.1755  0.1753
 9289SOL    HW139500   1.733   3.391   9.338  0.1912 -0.1853  0.6695
 9289SOL    HW239501   1.857   3.490   9.322  0.0128 -0.0421  2.0002
 9290SOL     OW39502   2.485   0.180   8.758 -0.3555 -0.1163 -0.0026
 9290SOL    HW139503   2.394   0.149   8.749 -0.8574  1.8287 -1.4989
 9290SOL    HW239504   2.493   0.231   8.677 -3.3789  1.3909  0.6491
 9291SOL     OW39505   3.033   3.234   9.208  0.2634 -0.1748 -0.2320
 9291SOL    HW139506   3.103   3.220   9.271  0.6029 -2.9399 -1.2498
 9291SOL    HW239507   3.050   3.327   9.188 -0.7600  0.2134  0.7080
 9292SOL     OW39508   0.507   2.108   9.422  0.1072  0.1283  0.2650
 9292SOL    HW139509   0.531   2.084   9.333  0.3721 -2.8948  1.1329
 9292SOL    HW239510   0.414   2.086   9.415 -0.8265  3.5746  1.9126
 9293SOL     OW39511   3.526   4.264   8.965 -0.1467  0.2720  0.4967
 9293SOL    HW139512   3.505   4.311   9.046 -2.6447 -1.4560  0.8409
 9293SOL    HW239513   3.483   4.181   8.985  0.7012 -0.3962 -0.5037
 9294SOL     OW39514   0.073   0.459  10.522  0.0160 -0.1197 -0.0876
 9294SOL    HW139515   0.016   0.479  10.596 -1.3633 -2.4384 -0.5468
 9294SOL    HW239516   0.015   0.434  10.451  2.2815 -1.8948 -1.2999
 9295SOL     OW39517   2.935   3.373   7.522  0.3271 -0.1482  0.5099
 9295SOL    HW139518   2.926   3.420   7.605 -0.9407  0.4157  0.0551
 9295SOL    HW239519   2.938   3.448   7.463 -2.0118 -1.2895 -1.0448
 9296SOL     OW39520   4.074   1.302   3.373  0.6931 -0.4217  0.4281
 9296SOL    HW139521   4.022   1.354   3.312  2.1868 -1.2223 -1.5177
 9296SOL    HW239522   4.163   1.318   3.342  0.6649  1.0911  1.1399
 9297SOL     OW39523   4.470   2.613   4.053  0.2699 -0.0069  0.9402
 9297SOL    HW139524   4.476   2.554   4.128  0.0775  0.5548  1.3963
 9297SOL    HW239525   4.498   2.556   3.981 -3.1381  1.1724 -1.3225
 9298SOL     OW39526   4.020   4.342  10.315 -0.5626 -0.0172 -0.4484
 9298SOL    HW139527   4.041   4.428  10.278 -0.9399  0.5890  0.7548
 9298SOL    HW239528   4.011   4.362  10.408  1.4115 -1.2147 -0.0139
 9299SOL     OW39529   4.696   2.573   9.339  0.8986  0.0424 -0.0476
 9299SOL    HW139530   4.621   2.610   9.294 -0.4843 -0.2378  2.0406
 9299SOL    HW239531   4.675   2.582   9.432  0.9981 -1.0209  0.0762
 9300SOL     OW39532   1.876   3.864  12.440  0.1870  0.0183  0.4704
 9300SOL    HW139533   1.951   3.816  12.406 -0.2934  0.2346 -0.8635
 9300SOL    HW239534   1.813   3.807  12.395  0.0666 -0.6187  1.4369
 9301SOL     OW39535   2.046   0.657   8.761  0.1036 -0.2189 -0.2494
 9301SOL    HW139536   2.138   0.670   8.737  0.7092 -4.8900 -0.3916
 9301SOL    HW239537   2.010   0.598   8.695  1.4949 -1.2052 -0.1225
 9302SOL     OW39538   2.584   1.237  12.917 -0.0683  0.0055 -1.0046
 9302SOL    HW139539   2.671   1.220  12.953 -1.3662 -1.8180  1.2149
 9302SOL    HW239540   2.602   1.274  12.830 -0.7755  0.7015 -0.8596
 9303SOL     OW39541   2.717   2.811   0.723 -0.0164  0.2303 -0.0077
 9303SOL    HW139542   2.713   2.760   0.804 -0.1257  1.4751  0.7723
 9303SOL    HW239543   2.803   2.785   0.689 -0.6530 -1.4532 -0.2992
 9304SOL     OW39544   0.156   4.103   4.571 -0.3086  0.1090  0.0306
 9304SOL    HW139545   0.227   4.147   4.524 -1.2410  3.0991  1.4006
 9304SOL    HW239546   0.125   4.032   4.515  0.4359 -0.1450 -0.0648
 9305SOL     OW39547   3.565   1.941   1.614  0.0771  0.0738  0.0324
 9305SOL    HW139548   3.628   1.885   1.568 -0.8933  0.5509 -1.8758
 9305SOL    HW239549   3.584   1.905   1.701 -3.1333 -1.0450  0.2520
 9306SOL     OW39550   2.314   1.457   0.910 -0.5319  0.0758  0.1294
 9306SOL    HW139551   2.242   1.402   0.939  1.1822 -1.2398  1.8892
 9306SOL    HW239552   2.390   1.436   0.964  0.3670  0.3837 -1.0162
 9307SOL     OW39553   1.305   3.462   5.376 -1.0966  0.4899 -0.0598
 9307SOL    HW139554   1.315   3.552   5.345  4.5069 -0.4736 -0.9170
 9307SOL    HW239555   1.360   3.460   5.454 -0.6342 -1.4484 -0.4525
 9308SOL     OW39556   3.494   3.311   7.700  0.1109  0.0993  0.0751
 9308SOL    HW139557   3.502   3.406   7.696 -1.3373  0.1800 -0.7723
 9308SOL    HW239558   3.502   3.298   7.795  0.9071  4.1323  0.5580
 9309SOL     OW39559   1.840   1.066   7.264 -0.5179  0.2106 -0.1270
 9309SOL    HW139560   1.811   1.052   7.354 -2.2875 -1.7046 -1.0051
 9309SOL    HW239561   1.863   1.159   7.262 -0.8914  0.3114  0.4107
 9310SOL     OW39562   1.334   3.249   8.157 -0.1220 -0.5850  0.3518
 9310SOL    HW139563   1.331   3.204   8.073 -0.8806  0.1605 -0.0186
 9310SOL    HW239564   1.241   3.241   8.178 -0.6926 -1.1946 -2.3763
 9311SOL     OW39565   2.239   4.236  17.424  0.9154  0.3268  0.1679
 9311SOL    HW139566   2.232   4.331  17.434  0.1872  0.5162 -2.1509
 9311SOL    HW239567   2.185   4.212  17.499  0.5012 -1.8005 -0.8042
 9312SOL     OW39568   2.508   4.214   2.586  0.5575  0.1311  0.0913
 9312SOL    HW139569   2.575   4.145   2.594 -0.1010 -0.5731 -0.5030
 9312SOL    HW239570   2.563   4.290   2.601  1.0038 -0.6733  2.5594
 9313SOL     OW39571   3.768   2.575   7.540  0.3210 -0.6473 -0.0523
 9313SOL    HW139572   3.863   2.574   7.550  0.4334  2.1608 -0.7110
 9313SOL    HW239573   3.760   2.668   7.519 -2.1103 -1.1955 -1.5575
 9314SOL     OW39574   2.134   1.236   2.216 -0.0795  0.6160  0.5071
 9314SOL    HW139575   2.136   1.232   2.121  0.3343 -0.1761  0.5473
 9314SOL    HW239576   2.041   1.253   2.231 -0.4272 -0.8803 -0.0440
 9315SOL     OW39577   3.366   0.444   9.315  0.1183 -0.2291  0.1655
 9315SOL    HW139578   3.432   0.494   9.362  0.5778 -0.1842 -0.5315
 9315SOL    HW239579   3.329   0.503   9.249 -1.5556 -1.1237  0.3008
 9316SOL     OW39580   0.052   1.565   8.433 -0.3638  0.1285  0.5517
 9316SOL    HW139581   0.095   1.547   8.349 -1.1844  0.9110 -0.0394
 9316SOL    HW239582   0.056   1.660   8.419 -1.4676 -0.0990 -1.3570
 9317SOL     OW39583   3.823   0.829  16.309  0.1455  0.4512 -0.1573
 9317SOL    HW139584   3.741   0.869  16.281 -0.6121 -0.6545  0.4779
 9317SOL    HW239585   3.832   0.752  16.253 -0.4535 -0.6015  1.1849
 9318SOL     OW39586   2.847   2.375   7.524 -0.3586  0.4879 -0.8278
 9318SOL    HW139587   2.770   2.344   7.572  0.5839 -2.5157 -1.2555
 9318SOL    HW239588   2.908   2.302   7.530 -1.2801 -0.2839 -0.8728
 9319SOL     OW39589   3.193   2.649   2.009 -0.5969 -0.4970 -0.3118
 9319SOL    HW139590   3.131   2.642   2.082 -2.2191 -0.5558 -1.6992
 9319SOL    HW239591   3.208   2.555   2.005  2.1396  0.0257 -2.3363
 9320SOL     OW39592   2.358   2.400   4.806 -0.2866  0.1455 -0.3838
 9320SOL    HW139593   2.351   2.354   4.890 -3.5181 -1.4459 -1.4999
 9320SOL    HW239594   2.275   2.448   4.803 -0.1262  0.4388 -0.1634
 9321SOL     OW39595   3.923   3.668  16.973  0.1451  0.3324  0.3946
 9321SOL    HW139596   3.838   3.668  16.928  0.1380 -2.0124  0.4357
 9321SOL    HW239597   3.983   3.702  16.907  1.9452 -0.3243  1.7174
 9322SOL     OW39598   4.383   4.434  17.172 -0.4560  0.3492  0.0980
 9322SOL    HW139599   4.297   4.393  17.188 -0.7779  1.9415  2.4178
 9322SOL    HW239600   4.432   4.365  17.128 -1.6272 -1.7250  2.0458
 9323SOL     OW39601   3.769   0.550   5.343 -0.2866  0.1717  0.4218
 9323SOL    HW139602   3.741   0.600   5.266  0.7878 -0.6092 -0.4820
 9323SOL    HW239603   3.699   0.575   5.403 -0.3700  0.1281  0.3418
 9324SOL     OW39604   0.964   1.415  13.348  0.8767  0.0707 -0.0044
 9324SOL    HW139605   0.982   1.503  13.315  0.4655 -0.0496 -0.5640
 9324SOL    HW239606   0.930   1.378  13.267  1.3244  0.2699 -0.2865
 9325SOL     OW39607   3.306   1.949   6.530 -0.1487  0.2634  0.4086
 9325SOL    HW139608   3.265   2.021   6.483 -0.9986  0.5992  1.6648
 9325SOL    HW239609   3.315   1.978   6.621 -0.4967  2.0905 -0.1402
 9326SOL     OW39610   0.692   3.914   1.525 -0.3183  0.3950  0.2547
 9326SOL    HW139611   0.739   3.956   1.453  1.9472 -3.0443 -0.2563
 9326SOL    HW239612   0.622   3.977   1.543  1.4987  1.8147  2.2454
 9327SOL     OW39613   3.991   2.256   6.958  0.1396 -0.3680 -0.0256
 9327SOL    HW139614   4.004   2.351   6.956  0.8346 -0.4742 -0.7576
 9327SOL    HW239615   3.896   2.263   6.964  0.2752  0.1937  1.5556
 9328SOL     OW39616   2.317   2.133   3.006  0.0034 -0.0117 -0.0203
 9328SOL    HW139617   2.238   2.185   3.024  0.3302  0.1056  1.1102
 9328SOL    HW239618   2.286   2.043   3.003  0.3025 -0.1675  1.7520
 9329SOL     OW39619   3.134   1.959   2.403  0.2907  0.2718 -0.1884
 9329SOL    HW139620   3.215   1.998   2.434 -0.1293  1.2158 -0.2660
 9329SOL    HW239621   3.160   1.868   2.395  1.0826  0.4621  0.2375
 9330SOL     OW39622   2.013   0.888   8.951 -0.5890 -0.3908  0.9538
 9330SOL    HW139623   1.927   0.862   8.985 -1.2320  0.7934  0.2194
 9330SOL    HW239624   2.037   0.802   8.915  1.8214  0.4437  0.5973
 9331SOL     OW39625   2.971   2.902   7.483  0.3594 -0.3748 -0.0788
 9331SOL    HW139626   3.012   2.941   7.560 -1.4963  0.2629  0.5731
 9331SOL    HW239627   2.986   2.811   7.511 -1.8589 -0.7080  0.0632
 9332SOL     OW39628   1.667   1.040   2.972 -0.7141  0.5772  0.5114
 9332SOL    HW139629   1.695   1.127   3.000 -1.0915  1.6746 -2.4513
 9332SOL    HW239630   1.615   1.063   2.894  0.1858  0.0876 -0.2405
 9333SOL     OW39631   0.922   4.635   8.091  0.4886  0.2807 -0.1904
 9333SOL    HW139632   0.875   4.628   8.008  0.2663  1.3311 -0.1504
 9333SOL    HW239633   1.010   4.599   8.075  0.1187  0.3911 -2.4577
 9334SOL     OW39634   1.118   0.109   4.114 -0.3239  0.1159  0.0756
 9334SOL    HW139635   1.204   0.123   4.155  0.0348  0.5971 -0.8267
 9334SOL    HW239636   1.057   0.151   4.174 -1.6629 -1.4597 -0.1932
 9335SOL     OW39637   1.928   1.495   8.311 -0.2742  0.4720 -0.1722
 9335SOL    HW139638   1.926   1.589   8.295  1.0761  0.2491 -1.6484
 9335SOL    HW239639   1.972   1.499   8.396  0.2258  1.2525 -0.4736
 9336SOL     OW39640   0.816   0.899  12.077  0.0482 -0.2971 -0.0944
 9336SOL    HW139641   0.906   0.911  12.049  0.5842 -0.5415  1.5026
 9336SOL    HW239642   0.829   0.827  12.139  0.1483 -1.6832 -1.7126
 9337SOL     OW39643   3.422   1.382   4.339  0.1463 -0.1641 -0.1048
 9337SOL    HW139644   3.457   1.312   4.394 -0.2018 -2.2127 -2.5042
 9337SOL    HW239645   3.393   1.439   4.410 -0.2670  0.9699 -1.1768
 9338SOL     OW39646   2.716   1.515   5.672  1.0502  0.3578 -0.0727
 9338SOL    HW139647   2.726   1.509   5.577  2.0466  2.4399 -0.0815
 9338SOL    HW239648   2.625   1.545   5.674  0.5766 -1.0329 -0.8010
 9339SOL     OW39649   1.169   4.359  15.318  0.4302  0.2376 -0.2936
 9339SOL    HW139650   1.157   4.265  15.328  0.8716  0.2995  0.8505
 9339SOL    HW239651   1.130   4.375  15.232  1.2183  0.6266 -0.5827
 9340SOL     OW39652   4.465   3.946   3.463  0.2359  0.1060  0.1611
 9340SOL    HW139653   4.420   3.893   3.529  1.2826 -1.2314 -0.1966
 9340SOL    HW239654   4.539   3.895   3.429 -1.0770 -1.4968 -0.2700
 9341SOL     OW39655   4.166   2.124  16.091  0.3869  0.0695  0.0351
 9341SOL    HW139656   4.163   2.187  16.163  1.7154 -0.9741  1.0046
 9341SOL    HW239657   4.117   2.049  16.126 -2.0082  1.0216 -1.2613
 9342SOL     OW39658   2.242   2.149   7.570  0.1392 -0.1177  0.2477
 9342SOL    HW139659   2.299   2.223   7.549  0.2113 -0.2463 -0.0118
 9342SOL    HW239660   2.296   2.087   7.521 -1.2301 -1.3033  0.2394
 9343SOL     OW39661   2.501   4.015   2.899  0.2531  0.1940  0.6708
 9343SOL    HW139662   2.438   3.947   2.875 -0.6480  0.6280  1.8350
 9343SOL    HW239663   2.439   4.086   2.916 -1.0703 -1.3851  2.3808
 9344SOL     OW39664   0.073   4.530   6.013  0.3059 -0.0768  0.6933
 9344SOL    HW139665   0.153   4.583   6.012 -0.8617  1.6215 -0.5869
 9344SOL    HW239666   0.022   4.568   6.084  1.4621 -1.3282  2.2038
 9345SOL     OW39667   2.193   1.143   2.910  0.1235  0.3384 -0.3987
 9345SOL    HW139668   2.206   1.114   3.000  0.1105  0.3807 -0.3829
 9345SOL    HW239669   2.122   1.208   2.917  0.0220  0.2730 -0.7874
 9346SOL     OW39670   0.309   1.521  13.743  0.1808  0.2800  0.2683
 9346SOL    HW139671   0.381   1.458  13.751 -0.1111 -0.1377 -0.4282
 9346SOL    HW239672   0.239   1.465  13.709  0.6280 -0.5202  0.6626
 9347SOL     OW39673   2.611   2.048   3.718  0.0940 -0.2117 -0.2183
 9347SOL    HW139674   2.580   2.000   3.794 -1.7165  0.9860 -0.1938
 9347SOL    HW239675   2.687   1.999   3.687  0.8263 -0.2285  1.5928
 9348SOL     OW39676   0.892   2.985   5.731  0.5067  0.0874  0.0268
 9348SOL    HW139677   0.826   2.954   5.792  1.0365 -0.9619  0.0827
 9348SOL    HW239678   0.911   3.070   5.770  2.2519  0.1239 -0.8655
 9349SOL     OW39679   3.110   2.731   2.794 -0.1562 -0.7005  0.2393
 9349SOL    HW139680   3.159   2.669   2.740  0.6907  1.1141 -1.0742
 9349SOL    HW239681   3.136   2.805   2.739  0.6300 -1.5307 -0.5088
 9350SOL     OW39682   0.687   4.658   5.490 -0.0369 -0.5173 -0.1169
 9350SOL    HW139683   0.649   4.605   5.561  0.4564  1.1412  1.3752
 9350SOL    HW239684   0.681   0.007   5.520 -1.0207 -0.5593 -0.1714
 9351SOL     OW39685   0.123   4.009   1.165  0.0341 -0.2778  0.1621
 9351SOL    HW139686   0.215   4.002   1.191  0.1015  2.5156  0.6987
 9351SOL    HW239687   0.113   3.922   1.126 -0.0352 -0.5534  0.8020
 9352SOL     OW39688   4.462   1.560   2.403  0.0393 -0.3136  0.1881
 9352SOL    HW139689   4.413   1.480   2.382 -1.8588  0.6023  1.1246
 9352SOL    HW239690   4.472   1.574   2.309  3.9316 -2.5200  0.2556
 9353SOL     OW39691   1.484   2.385   4.869 -0.1759 -0.4256  0.0329
 9353SOL    HW139692   1.415   2.320   4.853 -1.0203 -0.1014  2.3901
 9353SOL    HW239693   1.495   2.425   4.783  1.2712  0.5532  0.6826
 9354SOL     OW39694   2.728   4.441   8.229  0.4667  0.1973 -0.6070
 9354SOL    HW139695   2.675   4.485   8.296  1.0357  0.2127 -0.1682
 9354SOL    HW239696   2.723   4.497   8.151 -2.1388 -0.6394 -1.0437
 9355SOL     OW39697   3.282   1.551   7.394 -0.1642  0.2935 -0.4905
 9355SOL    HW139698   3.314   1.463   7.377 -0.2246  0.3678 -0.9677
 9355SOL    HW239699   3.366   1.587   7.420 -0.8533  1.7124 -0.2056
 9356SOL     OW39700   3.866   3.111   7.895  0.0118  0.4178 -0.5286
 9356SOL    HW139701   3.812   3.083   7.969 -0.4583  0.8950 -0.6949
 9356SOL    HW239702   3.901   3.028   7.862 -2.3143 -2.2687  3.7346
 9357SOL     OW39703   2.963   2.902   4.875  0.3444 -0.0638  0.2433
 9357SOL    HW139704   2.872   2.881   4.899 -0.3273  1.4860 -0.9320
 9357SOL    HW239705   2.984   2.965   4.944 -2.6593  0.1547  0.9777
 9358SOL     OW39706   3.937   3.261   4.790  0.2070  0.1406 -0.2747
 9358SOL    HW139707   3.937   3.171   4.822 -1.2206 -0.6323 -2.4498
 9358SOL    HW239708   4.025   3.291   4.815 -0.4390  2.0563 -0.3489
 9359SOL     OW39709   1.251   2.385  13.727  0.1523  0.0314 -0.0505
 9359SOL    HW139710   1.159   2.391  13.753 -0.7745 -3.1397 -2.5870
 9359SOL    HW239711   1.267   2.465  13.677  0.0094  1.9632  3.0017
 9360SOL     OW39712   1.623   4.606  11.281 -0.6780 -0.1052  0.1761
 9360SOL    HW139713   1.540   4.617  11.233 -0.5703 -5.0631 -1.1857
 9360SOL    HW239714   1.596   4.642  11.365  0.3606 -1.5771  1.1465
 9361SOL     OW39715   4.508   4.333  15.793  0.1511 -0.2623  0.2978
 9361SOL    HW139716   4.473   4.395  15.728  1.0046 -0.7054 -0.5794
 9361SOL    HW239717   4.601   4.351  15.806  0.3306 -0.1183 -1.1203
 9362SOL     OW39718   2.149   3.443   3.894 -0.3088 -0.2451 -0.4116
 9362SOL    HW139719   2.219   3.380   3.877  0.4797  0.0680  1.6427
 9362SOL    HW239720   2.198   3.524   3.882 -0.6922 -0.1919 -1.5420
 9363SOL     OW39721   1.634   1.941   3.140 -0.0268 -0.2277 -0.2100
 9363SOL    HW139722   1.605   2.014   3.195  1.4215  2.0294 -2.4355
 9363SOL    HW239723   1.589   1.971   3.062  2.7092 -1.4583 -2.2606
 9364SOL     OW39724   3.718   3.046   3.521 -0.4992 -0.2430 -0.3618
 9364SOL    HW139725   3.766   3.078   3.597 -0.3736 -0.0437 -0.5272
 9364SOL    HW239726   3.682   2.960   3.545  0.9232 -0.7652 -0.0783
 9365SOL     OW39727   4.307   0.151  16.347  0.4342  0.4687 -0.1833
 9365SOL    HW139728   4.270   0.074  16.391 -0.5190  1.1033  0.0960
 9365SOL    HW239729   4.396   0.136  16.380  0.6751 -0.4236 -1.2274
 9366SOL     OW39730   0.508   1.192   2.669 -0.0123 -0.5555  0.8210
 9366SOL    HW139731   0.599   1.168   2.654 -0.3224 -1.0333 -0.3778
 9366SOL    HW239732   0.510   1.283   2.640  1.6141 -1.2024 -1.1270
 9367SOL     OW39733   4.087   3.893   3.745 -0.2165  0.0628 -0.5494
 9367SOL    HW139734   4.171   3.937   3.743 -0.3755  0.3386 -1.1384
 9367SOL    HW239735   4.111   3.805   3.774 -3.2173 -0.5632  0.0591
 9368SOL     OW39736   4.677   2.521   6.770  0.5749  0.0621  0.7444
 9368SOL    HW139737   4.581   2.521   6.772  0.5494  0.4597 -0.1544
 9368SOL    HW239738   4.697   2.486   6.683 -2.0714  2.3969 -0.8354
 9369SOL     OW39739   2.256   3.087  14.965  0.1341 -0.0299 -0.1883
 9369SOL    HW139740   2.253   3.173  14.923 -1.7363 -0.2692 -0.5494
 9369SOL    HW239741   2.164   3.090  14.991  0.1980 -1.2034  0.1649
 9370SOL     OW39742   0.257   0.490   3.250  0.3886 -0.2730  0.7723
 9370SOL    HW139743   0.258   0.570   3.197  2.3329  0.2086  1.5169
 9370SOL    HW239744   0.172   0.452   3.230 -0.3342  2.4877 -1.4181
 9371SOL     OW39745   0.038   2.205  13.334  0.2724  0.4297 -0.0226
 9371SOL    HW139746   0.034   2.203  13.239 -1.4137 -2.0250  0.1168
 9371SOL    HW239747   0.094   2.133  13.362  1.8004  1.2505 -0.9633
 9372SOL     OW39748   1.482   3.340  11.229 -0.4198 -0.0143  0.1345
 9372SOL    HW139749   1.394   3.304  11.234 -1.2816  1.9636 -0.8507
 9372SOL    HW239750   1.463   3.433  11.232 -0.4713  0.0296 -1.6328
 9373SOL     OW39751   4.451   3.655   3.852 -0.1597  0.4539  0.2456
 9373SOL    HW139752   4.470   3.648   3.945 -1.0906  1.5636  0.5284
 9373SOL    HW239753   4.492   3.572   3.828 -0.7229  0.1213  0.4471
 9374SOL     OW39754   1.352   3.474  15.117 -0.8021  0.0119 -0.6576
 9374SOL    HW139755   1.300   3.401  15.153  0.9471 -0.2049  1.4315
 9374SOL    HW239756   1.432   3.459  15.167  0.1295  0.7060 -1.9650
 9375SOL     OW39757   0.175   2.635   4.306 -0.0056  0.0393  0.4216
 9375SOL    HW139758   0.129   2.714   4.336  1.4204  0.8355  0.4925
 9375SOL    HW239759   0.229   2.621   4.384 -0.8089 -0.2077  0.9322
 9376SOL     OW39760   1.483   0.159   2.263  0.0506  1.2481 -0.0514
 9376SOL    HW139761   1.477   0.064   2.277  1.4155  1.3457  1.2123
 9376SOL    HW239762   1.416   0.190   2.324 -0.2661  0.6721 -0.1051
 9377SOL     OW39763   0.345   2.096   0.278  0.3467  0.2664  0.5986
 9377SOL    HW139764   0.302   2.030   0.224 -0.6006 -1.7800  3.8423
 9377SOL    HW239765   0.427   2.098   0.229  0.5637 -0.0538  0.9527
 9378SOL     OW39766   1.631   2.264   3.620 -0.0931 -0.1010 -0.1580
 9378SOL    HW139767   1.566   2.295   3.684  0.4165 -0.1915  0.4034
 9378SOL    HW239768   1.712   2.279   3.670 -1.1016  0.5176  1.3187
 9379SOL     OW39769   2.948   1.458  10.293  0.4902 -0.1691 -0.0573
 9379SOL    HW139770   3.004   1.532  10.316 -1.7131  0.8355  2.0617
 9379SOL    HW239771   2.861   1.484  10.323  0.5172 -2.3319  1.8713
 9380SOL     OW39772   0.907   2.884   6.153  0.3194 -0.5318  0.3051
 9380SOL    HW139773   0.912   2.789   6.144 -0.0501 -0.4853 -0.3460
 9380SOL    HW239774   0.843   2.884   6.224 -2.4839  0.3639 -2.2159
 9381SOL     OW39775   4.489   3.226   0.658  0.4818 -0.7753 -0.2092
 9381SOL    HW139776   4.540   3.145   0.652  0.5946 -0.5273 -2.5712
 9381SOL    HW239777   4.449   3.236   0.572 -0.5223 -0.7883  0.2612
 9382SOL     OW39778   1.435   3.383   6.292 -0.5193  0.5375  0.0529
 9382SOL    HW139779   1.381   3.355   6.219 -2.0459 -1.2105  1.8792
 9382SOL    HW239780   1.398   3.342   6.370  0.2283  1.3855  0.8569
 9383SOL     OW39781   0.581   2.064   9.172 -0.2759  0.0193  0.3974
 9383SOL    HW139782   0.665   2.021   9.192 -0.0241  0.6345  0.6599
 9383SOL    HW239783   0.600   2.087   9.081 -0.6638 -3.3859 -0.5338
 9384SOL     OW39784   3.645   2.081   3.171 -0.9057 -0.3206  0.0654
 9384SOL    HW139785   3.738   2.062   3.181 -1.2366 -0.4637  2.7982
 9384SOL    HW239786   3.601   2.009   3.215 -0.5463 -1.5875 -1.6635
 9385SOL     OW39787   1.072   0.681  13.784 -0.0751 -0.3806  0.0152
 9385SOL    HW139788   1.040   0.596  13.814 -1.8408  0.6469  1.0672
 9385SOL    HW239789   1.158   0.691  13.824 -0.1002 -0.2696  0.0419
 9386SOL     OW39790   0.945   3.741   6.833  0.9540 -0.5046  0.0102
 9386SOL    HW139791   1.010   3.700   6.890  0.7959  0.3047  0.7693
 9386SOL    HW239792   0.960   3.833   6.853 -1.6504  0.4628 -2.4051
 9387SOL     OW39793   0.246   0.897   9.961  0.3649 -0.0847 -0.3003
 9387SOL    HW139794   0.236   0.959  10.033  0.8318 -0.3661  0.0078
 9387SOL    HW239795   0.295   0.950   9.898 -0.1962  1.2258  0.3564
 9388SOL     OW39796   1.498   3.897   0.427 -0.1736  0.2211  0.5128
 9388SOL    HW139797   1.480   3.970   0.366  1.3590  0.9471  0.9341
 9388SOL    HW239798   1.593   3.907   0.435 -0.5651  2.0366  2.7204
 9389SOL     OW39799   2.843   2.740   8.834  0.4823  0.1439 -0.9670
 9389SOL    HW139800   2.842   2.812   8.897 -0.3288 -1.1572  0.5122
 9389SOL    HW239801   2.824   2.788   8.753 -0.3335 -1.9575 -2.0083
 9390SOL     OW39802   3.970   1.480   6.669 -0.1450 -0.3636  0.0654
 9390SOL    HW139803   3.893   1.479   6.611  0.3805 -3.1335 -0.5761
 9390SOL    HW239804   4.029   1.432   6.611  1.9906  1.5224  0.6862
 9391SOL     OW39805   4.499   0.255   2.439 -0.0432  0.0707  0.4073
 9391SOL    HW139806   4.561   0.197   2.483 -0.9873  0.5682  2.3856
 9391SOL    HW239807   4.552   0.298   2.372 -1.9787  0.9532 -0.5321
 9392SOL     OW39808   3.818   3.099   9.969 -0.4212  0.0519 -0.0307
 9392SOL    HW139809   3.862   3.174  10.008 -0.2598  0.4644 -1.0221
 9392SOL    HW239810   3.885   3.075   9.905  0.1747 -4.3859  2.1936
 9393SOL     OW39811   4.369   3.464   6.556 -0.1482 -0.5056  0.0994
 9393SOL    HW139812   4.299   3.401   6.576 -0.6111 -0.3531 -1.0068
 9393SOL    HW239813   4.366   3.485   6.463  0.6433 -0.9832 -0.0371
 9394SOL     OW39814   4.553   1.514   9.825  0.0877  0.3677  1.0803
 9394SOL    HW139815   4.488   1.456   9.787  0.7555 -0.3889  1.0933
 9394SOL    HW239816   4.583   1.480   9.909 -0.2925 -0.9774  0.6653
 9395SOL     OW39817   3.526   2.164  15.478  0.5880  0.0301 -0.3437
 9395SOL    HW139818   3.564   2.089  15.523  0.1499  0.9268  1.5083
 9395SOL    HW239819   3.602   2.222  15.475  1.5601 -1.1689  1.2464
 9396SOL     OW39820   2.918   0.433   4.141  0.0847 -0.2079 -0.2037
 9396SOL    HW139821   2.848   0.490   4.172  0.9949  0.2650  1.0407
 9396SOL    HW239822   2.861   0.361   4.118 -1.2827  0.2114  1.8993
 9397SOL     OW39823   1.587   0.055   0.705  0.9109 -0.3762 -0.5009
 9397SOL    HW139824   1.602   4.703   0.695 -1.7202 -0.8587  0.0656
 9397SOL    HW239825   1.674   0.076   0.739  0.0354 -1.9005  2.6377
 9398SOL     OW39826   3.321   2.688   6.041 -0.0164 -0.3235  0.4020
 9398SOL    HW139827   3.229   2.662   6.041 -0.2463  0.5019 -0.8254
 9398SOL    HW239828   3.357   2.607   6.078 -0.6667 -1.1289 -0.7517
 9399SOL     OW39829   4.070   0.711   5.837 -0.2741  0.0171 -0.5612
 9399SOL    HW139830   4.097   0.795   5.873  0.6066 -1.4399  2.2001
 9399SOL    HW239831   4.052   0.732   5.746 -0.1308 -1.7389 -1.0026
 9400SOL     OW39832   4.083   1.377  13.190 -0.1852  0.1891  0.0708
 9400SOL    HW139833   4.106   1.466  13.166 -1.4230  0.2315 -0.9857
 9400SOL    HW239834   4.048   1.392  13.278 -0.3519 -0.5483  0.1342
 9401SOL     OW39835   0.435   4.692  10.189  0.1377  0.3792  0.2422
 9401SOL    HW139836   0.405   0.035  10.223 -0.8001 -0.1297  0.6854
 9401SOL    HW239837   0.473   4.728  10.109 -0.4101 -0.9244 -0.6188
 9402SOL     OW39838   1.806   4.256   7.472 -0.2659 -0.1922 -0.4247
 9402SOL    HW139839   1.741   4.192   7.503  0.4064  0.3069  2.0544
 9402SOL    HW239840   1.751   4.309   7.415 -1.3104 -0.7291  0.0749
 9403SOL     OW39841   1.848   4.503   1.463  0.5350 -0.0986 -0.6759
 9403SOL    HW139842   1.931   4.551   1.456  1.6749 -1.9364  0.1565
 9403SOL    HW239843   1.845   4.480   1.556  3.0715  0.1882 -0.5130
 9404SOL     OW39844   1.174   0.586   7.730 -0.2232 -0.9449  0.1390
 9404SOL    HW139845   1.178   0.606   7.637  0.9957  1.3688  0.7046
 9404SOL    HW239846   1.214   0.660   7.775 -1.7569  0.1052 -0.2468
 9405SOL     OW39847   2.361   3.624   6.253  0.4832 -0.7737 -0.0185
 9405SOL    HW139848   2.377   3.700   6.309  0.8281 -0.9789  0.1639
 9405SOL    HW239849   2.446   3.582   6.245  0.9436  0.1878 -0.1125
 9406SOL     OW39850   3.795   0.822   4.668 -0.6535 -0.8600 -0.1275
 9406SOL    HW139851   3.747   0.758   4.614 -0.9077 -1.7843  1.1947
 9406SOL    HW239852   3.814   0.772   4.748 -0.3324  0.0263  0.3464
 9407SOL     OW39853   3.262   1.373   6.737 -0.5103 -0.9253 -0.2585
 9407SOL    HW139854   3.350   1.338   6.756  0.1848  0.8477 -0.1981
 9407SOL    HW239855   3.250   1.437   6.807 -1.0328 -1.7666  0.4295
 9408SOL     OW39856   1.844   0.691   7.084 -0.3986  0.8313 -0.5135
 9408SOL    HW139857   1.829   0.621   7.021 -1.3830  0.6174 -0.0444
 9408SOL    HW239858   1.892   0.651   7.157  1.7589  0.6693 -2.0044
 9409SOL     OW39859   0.068   1.082   7.868 -0.5066 -0.0888  0.1552
 9409SOL    HW139860   0.079   1.147   7.938  0.3328 -0.7887  0.6712
 9409SOL    HW239861   0.049   1.005   7.921  1.6204 -1.5671 -1.2734
 9410SOL     OW39862   3.030   0.373   8.285  0.2946  0.0155 -0.5776
 9410SOL    HW139863   3.012   0.290   8.241  2.2622 -0.7599  0.1038
 9410SOL    HW239864   3.069   0.424   8.214  2.0103  1.5585  1.4913
 9411SOL     OW39865   2.723   0.872   9.352 -0.0941 -0.1760  0.3061
 9411SOL    HW139866   2.809   0.909   9.330 -0.0494 -1.5870 -1.8756
 9411SOL    HW239867   2.698   0.893   9.443 -0.4033 -1.8267  0.5896
 9412SOL     OW39868   1.389   1.133   2.342  0.4716  0.1387 -0.5099
 9412SOL    HW139869   1.394   1.176   2.427  0.3322  2.1490 -1.5287
 9412SOL    HW239870   1.483   1.122   2.333  0.4745 -0.9264  0.7378
 9413SOL     OW39871   3.741   2.330   7.652 -0.5170  0.1089 -0.4753
 9413SOL    HW139872   3.749   2.420   7.622 -0.8199  0.1990 -0.2853
 9413SOL    HW239873   3.685   2.290   7.585  0.8665 -1.2391 -0.8535
 9414SOL     OW39874   0.167   4.098   6.648  0.1867 -0.3264 -0.3958
 9414SOL    HW139875   0.085   4.136   6.616  1.0364  2.1353  0.3538
 9414SOL    HW239876   0.155   4.004   6.635 -1.1418 -0.0037 -1.5146
 9415SOL     OW39877   0.613   2.613   8.190 -0.1616  0.7795 -0.0854
 9415SOL    HW139878   0.591   2.637   8.100 -1.6268  2.0270  0.6296
 9415SOL    HW239879   0.699   2.651   8.207  1.3610 -1.8377 -1.8388
 9416SOL     OW39880   2.676   0.328  12.431 -0.0570 -0.3391 -0.1979
 9416SOL    HW139881   2.640   0.241  12.450 -1.6706  1.1587  3.5586
 9416SOL    HW239882   2.619   0.352  12.359  0.5578  1.2520 -0.1591
 9417SOL     OW39883   1.504   0.171   7.561  0.6148  0.5499  0.1361
 9417SOL    HW139884   1.425   0.117   7.560  1.1056 -0.1531 -0.5119
 9417SOL    HW239885   1.485   0.224   7.639 -1.5682  0.8624 -0.6109
 9418SOL     OW39886   2.173   2.556   6.172 -0.1694 -0.0155  0.0686
 9418SOL    HW139887   2.162   2.526   6.262 -0.2269  0.5435  0.2425
 9418SOL    HW239888   2.147   2.480   6.119  1.5537 -1.9482  2.0344
 9419SOL     OW39889   2.690   0.099   1.933 -0.1537 -0.0813  0.1014
 9419SOL    HW139890   2.685   0.144   2.017  2.0509  0.2915  0.0328
 9419SOL    HW239891   2.775   0.129   1.901 -0.4035  0.4210 -0.0805
 9420SOL     OW39892   4.366   3.132  14.845  0.1870 -0.0550  0.3007
 9420SOL    HW139893   4.399   3.178  14.923  2.9352 -1.2451 -0.1423
 9420SOL    HW239894   4.366   3.201  14.779 -0.3349 -0.6313 -0.2961
 9421SOL     OW39895   2.912   4.459   2.551  0.2032 -0.7325 -0.0499
 9421SOL    HW139896   2.829   4.507   2.553  0.8133  0.2708  1.5154
 9421SOL    HW239897   2.878   4.403   2.620  3.1874 -3.2058 -0.5671
 9422SOL     OW39898   4.214   1.584   7.984  0.5682 -0.3323  0.4886
 9422SOL    HW139899   4.193   1.672   8.015  2.5796 -0.4988  2.2931
 9422SOL    HW239900   4.251   1.590   7.896  1.7842  2.1969  1.1691
 9423SOL     OW39901   0.452   4.639   1.820 -0.0273  0.5139 -0.0680
 9423SOL    HW139902   0.481   4.702   1.886  1.5692  1.0251 -1.2671
 9423SOL    HW239903   0.513   4.568   1.840  0.8661  0.8519 -1.6074
 9424SOL     OW39904   4.576   0.229  13.048 -0.1162 -0.0579  0.1981
 9424SOL    HW139905   4.514   0.171  13.005 -0.7466  1.0860 -0.4230
 9424SOL    HW239906   4.560   0.203  13.138  2.0361  0.3630  0.7111
 9425SOL     OW39907   3.744   2.888   7.496 -0.4387 -0.1995 -0.1039
 9425SOL    HW139908   3.651   2.908   7.512  0.0399  0.0450  2.2836
 9425SOL    HW239909   3.786   2.967   7.531 -2.4326  0.3283  1.0945
 9426SOL     OW39910   1.996   1.869  15.976 -0.1514 -0.5905  0.1080
 9426SOL    HW139911   2.027   1.886  16.065 -0.3475 -1.4876  0.3530
 9426SOL    HW239912   1.969   1.955  15.944  1.2880 -0.2619 -0.2216
 9427SOL     OW39913   2.871   2.615   9.524 -0.0006 -0.0050 -0.0024
 9427SOL    HW139914   2.923   2.595   9.446  0.1930 -1.6305  0.5414
 9427SOL    HW239915   2.828   2.530   9.528 -0.4005  0.1975  0.0051
 9428SOL     OW39916   1.672   0.192  15.894 -0.2906 -0.2514  0.2991
 9428SOL    HW139917   1.767   0.207  15.891 -0.0751 -1.6692  0.2329
 9428SOL    HW239918   1.659   0.145  15.976  2.0153 -1.9627 -0.3342
 9429SOL     OW39919   0.964   0.694  12.230 -0.6322 -0.6306  0.0375
 9429SOL    HW139920   1.056   0.681  12.208 -0.9298 -0.1708 -1.5189
 9429SOL    HW239921   0.929   0.604  12.233 -1.4122 -0.3596 -0.8203
 9430SOL     OW39922   4.351   2.720   8.276 -0.2467 -0.2944  0.6411
 9430SOL    HW139923   4.432   2.735   8.228 -0.0310 -0.9205  0.8084
 9430SOL    HW239924   4.301   2.691   8.200 -0.4228  1.9776 -0.1118
 9431SOL     OW39925   2.966   1.501   9.520 -0.4608  0.5075 -0.4920
 9431SOL    HW139926   2.901   1.512   9.451 -2.7531 -1.7610  1.2609
 9431SOL    HW239927   2.913   1.544   9.588 -0.0892 -0.0560  0.1573
 9432SOL     OW39928   3.166   0.025  16.781 -0.8050 -0.4845  0.4355
 9432SOL    HW139929   3.168   0.104  16.728  1.5844 -1.7821 -1.4096
 9432SOL    HW239930   3.246   0.043  16.829 -1.1346  0.7445  0.5164
 9433SOL     OW39931   3.191   2.407  13.276  0.1543  0.4912 -0.4559
 9433SOL    HW139932   3.105   2.367  13.284  1.0359 -1.1822  0.6320
 9433SOL    HW239933   3.188   2.463  13.198 -1.5370  1.8960  0.6449
 9434SOL     OW39934   3.879   0.836   6.598 -0.2816  0.0814 -0.1182
 9434SOL    HW139935   3.862   0.751   6.558  2.3451  0.2136 -1.4836
 9434SOL    HW239936   3.807   0.844   6.660 -0.8743  1.4382 -0.9664
 9435SOL     OW39937   0.959   4.234   7.002 -0.2066  0.3210  0.6466
 9435SOL    HW139938   1.016   4.161   6.978  0.3779  1.6829 -2.1130
 9435SOL    HW239939   1.003   4.274   7.077 -1.8598  2.0863  0.7012
 9436SOL     OW39940   0.769   2.610   6.456  0.0858 -0.5022  0.1096
 9436SOL    HW139941   0.676   2.590   6.449 -0.2245  0.5087  1.1959
 9436SOL    HW239942   0.799   2.549   6.389 -2.0213  0.1417 -1.4076
 9437SOL     OW39943   3.084   0.101   3.874 -0.0331  0.0585  0.6255
 9437SOL    HW139944   3.130   0.051   3.807  0.1100  0.2033  0.6172
 9437SOL    HW239945   3.124   0.078   3.958 -0.3951  1.2527  1.1368
 9438SOL     OW39946   1.517   3.461   6.645 -0.1324  0.0031  0.2735
 9438SOL    HW139947   1.429   3.476   6.681  0.3807  1.2354  1.0228
 9438SOL    HW239948   1.498   3.367   6.639 -2.9081  0.5570  0.1968
 9439SOL     OW39949   2.535   2.674   5.047 -0.4907 -0.1079 -0.5377
 9439SOL    HW139950   2.600   2.743   5.056 -0.1984 -0.5713  0.7947
 9439SOL    HW239951   2.501   2.711   4.965 -0.3401  0.5108 -0.3223
 9440SOL     OW39952   2.100   1.258   5.676 -0.1444  0.5414 -0.0061
 9440SOL    HW139953   2.190   1.275   5.703 -0.0027 -0.4523  0.1677
 9440SOL    HW239954   2.088   1.171   5.714 -2.0427  0.4683 -0.7606
 9441SOL     OW39955   0.151   1.518  15.641  0.0625  0.0970  0.3425
 9441SOL    HW139956   0.222   1.573  15.672  0.3331 -0.3196  0.4637
 9441SOL    HW239957   0.080   1.578  15.664 -0.5544  0.6400 -2.9830
 9442SOL     OW39958   4.624   3.194   6.667  0.4769 -0.0042 -0.2239
 9442SOL    HW139959   4.603   3.288   6.674 -0.7000 -0.1924 -1.2316
 9442SOL    HW239960   4.655   3.174   6.755  0.2567 -1.7238 -0.5349
 9443SOL     OW39961   0.437   0.596   2.154  0.2867  0.0234 -0.1816
 9443SOL    HW139962   0.498   0.667   2.139  0.5904 -0.1507  0.2246
 9443SOL    HW239963   0.368   0.649   2.194 -0.3856 -0.3924 -0.7783
 9444SOL     OW39964   2.466   4.452   2.995 -0.3365 -0.5686 -0.4639
 9444SOL    HW139965   2.400   4.409   2.941 -1.1947 -1.0167  0.9371
 9444SOL    HW239966   2.461   4.535   2.946  0.3690 -1.5663 -2.2193
 9445SOL     OW39967   1.499   4.030   3.516  0.3490  0.4856  0.0697
 9445SOL    HW139968   1.568   4.077   3.470  0.8614 -2.5486 -2.2487
 9445SOL    HW239969   1.558   3.973   3.566 -0.9461 -0.6438  0.3228
 9446SOL     OW39970   1.577   2.129  14.022 -0.7020  0.0331  0.1048
 9446SOL    HW139971   1.642   2.105  13.956  1.9053  1.1004  2.2964
 9446SOL    HW239972   1.516   2.182  13.972 -0.5397 -1.5009 -1.7242
 9447SOL     OW39973   4.268   2.090   8.557 -0.5439 -0.2748  0.0894
 9447SOL    HW139974   4.253   2.159   8.492 -0.1250  0.9051  1.2357
 9447SOL    HW239975   4.245   2.142   8.634 -1.9247  1.1494 -1.2791
 9448SOL     OW39976   3.009   0.572   8.498  0.1162  0.0304  0.4498
 9448SOL    HW139977   2.965   0.530   8.572 -2.8902  0.1574 -1.2617
 9448SOL    HW239978   3.028   0.492   8.448 -0.1561  0.1871  0.0941
 9449SOL     OW39979   1.990   1.756   7.257 -0.2268 -0.1558 -0.4074
 9449SOL    HW139980   1.936   1.813   7.202  1.8731  2.5058  0.2895
 9449SOL    HW239981   2.058   1.748   7.190  1.5949  2.0368  1.1941
 9450SOL     OW39982   1.648   0.178   6.022 -0.1400  0.7987  0.5059
 9450SOL    HW139983   1.575   0.186   6.084 -0.3663  0.4043  0.2832
 9450SOL    HW239984   1.631   0.249   5.960 -3.4026 -0.8844 -0.5395
 9451SOL     OW39985   1.108   4.689  11.119 -0.2518 -0.0462  0.3616
 9451SOL    HW139986   1.099   4.594  11.124  0.0577 -0.1246 -0.4718
 9451SOL    HW239987   1.026   4.703  11.071  0.9168 -1.0531 -1.9363
 9452SOL     OW39988   2.221   1.689   0.880  0.1836  0.9306  0.0312
 9452SOL    HW139989   2.126   1.678   0.869  0.3912  0.9044 -1.6732
 9452SOL    HW239990   2.246   1.596   0.877 -0.7033  0.7839 -2.7752
 9453SOL     OW39991   0.681   3.241   4.838 -0.0716  0.2560 -0.0885
 9453SOL    HW139992   0.772   3.265   4.822  0.8150 -1.9448  1.6452
 9453SOL    HW239993   0.656   3.218   4.748  1.4052  2.0643 -0.9512
 9454SOL     OW39994   2.640   0.649   5.895  0.2090  0.2165 -0.1890
 9454SOL    HW139995   2.638   0.638   5.800 -1.9450 -2.7013  0.1990
 9454SOL    HW239996   2.718   0.600   5.920 -0.9819 -0.8598  1.4249
 9455SOL     OW39997   3.084   4.629   6.523  0.0834  0.5630  0.2012
 9455SOL    HW139998   3.036   4.704   6.558  1.4722  0.9401  1.3134
 9455SOL    HW239999   3.129   4.672   6.450  0.1407  0.5065  0.2033
 9456SOL     OW40000   4.560   4.101  12.604  0.1021 -0.2191  0.3084
 9456SOL    HW140001   4.614   4.166  12.649 -0.6924 -0.3322  1.4111
 9456SOL    HW240002   4.486   4.155  12.577 -0.3298  0.1636  2.3007
 9457SOL     OW40003   4.021   0.526  14.145  0.2007  0.0781 -0.1253
 9457SOL    HW140004   4.103   0.575  14.147  1.0726 -1.3652 -0.2421
 9457SOL    HW240005   4.015   0.494  14.234  2.3207  2.0832  0.7397
 9458SOL     OW40006   4.212   0.417   3.440  0.2517 -0.3276 -0.2150
 9458SOL    HW140007   4.204   0.351   3.371  0.9477 -1.7885  1.0947
 9458SOL    HW240008   4.120   0.425   3.464  0.1865 -0.6325 -0.3585
 9459SOL     OW40009   2.268   3.696   8.952 -0.0447 -0.1162 -0.5322
 9459SOL    HW140010   2.241   3.646   9.029 -0.3043  1.5473  0.4528
 9459SOL    HW240011   2.315   3.770   8.990  0.5151  0.3848 -2.1792
 9460SOL     OW40012   2.704   0.630   9.678 -0.5016 -0.3924 -0.0228
 9460SOL    HW140013   2.726   0.555   9.733 -0.4812  0.3293  0.9655
 9460SOL    HW240014   2.769   0.633   9.608  0.5100 -3.6485  0.7934
 9461SOL     OW40015   2.038   2.813   1.759 -0.5300  0.3254 -0.5236
 9461SOL    HW140016   1.975   2.878   1.727 -1.0852  1.1414  2.2271
 9461SOL    HW240017   2.024   2.762   1.679 -0.8724 -1.2279  0.5458
 9462SOL     OW40018   0.030   4.112   3.205 -0.3348  0.3869  0.4188
 9462SOL    HW140019   4.697   4.067   3.166 -1.8242 -1.9638  5.9115
 9462SOL    HW240020   0.094   4.051   3.171 -2.8898 -1.2116 -1.5489
 9463SOL     OW40021   1.698   2.115   1.086  0.2575  0.0940  0.1026
 9463SOL    HW140022   1.727   2.050   1.022 -0.4993 -0.4577  0.3187
 9463SOL    HW240023   1.610   2.130   1.054  0.6956  0.1757 -1.0556
 9464SOL     OW40024   4.403   3.594   6.317 -0.2242 -0.0314 -0.1337
 9464SOL    HW140025   4.490   3.612   6.353 -0.6438  1.8616 -0.0909
 9464SOL    HW240026   4.385   3.675   6.269 -2.1949 -1.0706 -1.1276
 9465SOL     OW40027   2.112   1.666   6.112  0.3993  0.0444 -0.2547
 9465SOL    HW140028   2.184   1.628   6.062 -0.4833  0.5517 -1.9121
 9465SOL    HW240029   2.054   1.591   6.101  2.0696 -1.0188 -1.8427
 9466SOL     OW40030   1.433   3.672   6.326  0.4157  0.0423 -0.0806
 9466SOL    HW140031   1.339   3.682   6.318  0.7802  2.0999 -1.5790
 9466SOL    HW240032   1.433   3.576   6.317 -1.5949  0.0879 -0.4373
 9467SOL     OW40033   0.904   2.062  10.055  0.7143 -0.1975 -0.1739
 9467SOL    HW140034   0.934   2.145  10.092 -0.7219  0.2673 -0.0751
 9467SOL    HW240035   0.818   2.049  10.094  0.4336 -0.5134 -0.9064
 9468SOL     OW40036   2.932   3.849   4.376  0.2026 -0.0941 -0.2618
 9468SOL    HW140037   2.983   3.790   4.320  0.9345  0.3324 -0.0423
 9468SOL    HW240038   2.886   3.904   4.313 -0.5837  0.3429  0.6835
 9469SOL     OW40039   2.045   0.382   1.667 -0.3004 -0.2058 -0.2995
 9469SOL    HW140040   2.109   0.359   1.600 -0.1192 -1.1734  0.1912
 9469SOL    HW240041   2.031   0.474   1.645 -0.9192  0.1352  1.4713
 9470SOL     OW40042   4.651   0.338   2.233  0.0936  0.4543 -0.3321
 9470SOL    HW140043   4.629   0.410   2.174  2.6688  1.1437 -0.4725
 9470SOL    HW240044   4.702   0.275   2.182  2.2220 -0.5006  2.9693
 9471SOL     OW40045   3.578   2.459   2.047 -0.6436 -0.1004  0.3971
 9471SOL    HW140046   3.539   2.372   2.045  0.3844 -0.5069 -1.6109
 9471SOL    HW240047   3.533   2.493   2.124 -1.5858 -0.5722  0.0530
 9472SOL     OW40048   3.157   4.547   2.464  0.0490  0.3444  0.1984
 9472SOL    HW140049   3.170   4.528   2.371  1.0776  2.3191 -0.0501
 9472SOL    HW240050   3.073   4.508   2.486  0.0755 -1.1732 -2.3947
 9473SOL     OW40051   4.067   1.991  11.671 -0.5813  0.5462 -0.2312
 9473SOL    HW140052   4.062   2.074  11.718  0.3792  0.1019  0.6666
 9473SOL    HW240053   3.992   1.948  11.711 -0.3403  0.0614 -0.2975
 9474SOL     OW40054   1.870   3.720   4.724 -0.5256  0.3460  0.0970
 9474SOL    HW140055   1.921   3.798   4.700  1.2362 -0.4723  1.2150
 9474SOL    HW240056   1.878   3.657   4.653  2.2429 -1.4741  2.0811
 9475SOL     OW40057   2.093   0.416   6.489 -0.1583  0.1923  0.9576
 9475SOL    HW140058   2.178   0.459   6.478 -0.3003  0.1578 -0.2179
 9475SOL    HW240059   2.045   0.495   6.515  0.3999  1.1183 -0.8772
 9476SOL     OW40060   3.156   3.442   2.835  0.1909 -0.3586 -0.9396
 9476SOL    HW140061   3.212   3.419   2.909  0.2211 -2.5659 -1.6296
 9476SOL    HW240062   3.075   3.407   2.871  0.9863 -0.8967  0.3157
 9477SOL     OW40063   1.488   0.873   7.106 -0.0870 -0.1121 -1.1738
 9477SOL    HW140064   1.551   0.941   7.082 -0.2217  0.2541 -0.4819
 9477SOL    HW240065   1.517   0.792   7.063 -1.6001 -1.1960 -0.1574
 9478SOL     OW40066   2.144   1.572   4.075 -0.5213  0.6980  0.4242
 9478SOL    HW140067   2.113   1.615   4.156  2.8140 -1.9552  3.1152
 9478SOL    HW240068   2.087   1.496   4.073  0.4748  0.0046 -1.4696
 9479SOL     OW40069   4.514   2.970  16.781  0.3339 -0.6309  0.1928
 9479SOL    HW140070   4.591   2.988  16.727 -1.2683  0.6997 -1.6615
 9479SOL    HW240071   4.499   2.879  16.755 -0.6410 -0.1869 -0.8278
 9480SOL     OW40072   1.069   0.603   6.067  0.2795  0.4192 -0.3062
 9480SOL    HW140073   0.997   0.544   6.089  0.0430  0.2088 -1.6421
 9480SOL    HW240074   1.036   0.693   6.073 -1.4779 -0.2400 -0.0864
 9481SOL     OW40075   4.379   0.518   9.189 -0.3375  0.5342  0.2930
 9481SOL    HW140076   4.415   0.431   9.208 -0.4128  0.2074 -1.0872
 9481SOL    HW240077   4.447   0.574   9.226  2.5102 -2.0893 -0.9206
 9482SOL     OW40078   3.265   4.551   9.252 -0.4229  0.8196 -0.9223
 9482SOL    HW140079   3.206   4.587   9.185 -1.5153 -1.7200 -1.2994
 9482SOL    HW240080   3.205   4.513   9.316  0.4508 -0.2986 -0.7899
 9483SOL     OW40081   3.485   2.621   8.914  0.5947  0.3566  0.7892
 9483SOL    HW140082   3.455   2.660   8.832 -0.0458 -0.6825  0.5242
 9483SOL    HW240083   3.411   2.569   8.946  0.7995  0.1569  0.9429
 9484SOL     OW40084   2.814   3.038   3.870 -0.0827  0.0827  0.4308
 9484SOL    HW140085   2.749   2.977   3.837  0.2399  0.1921 -0.4017
 9484SOL    HW240086   2.795   3.052   3.963  0.0356 -1.6327  0.7096
 9485SOL     OW40087   1.071   1.987   4.745 -0.0925  0.0972 -0.0576
 9485SOL    HW140088   1.125   1.924   4.792  0.2448  0.3883 -0.0585
 9485SOL    HW240089   0.982   1.961   4.772 -0.0934  2.1326  1.9140
 9486SOL     OW40090   2.324   3.414   8.054 -1.0297 -0.4165  0.4935
 9486SOL    HW140091   2.302   3.434   7.963 -0.5068 -2.0045  0.0228
 9486SOL    HW240092   2.278   3.334   8.078  1.0461 -1.1020  2.2462
 9487SOL     OW40093   0.374   2.353   7.141 -0.0238  0.1873 -0.2881
 9487SOL    HW140094   0.336   2.368   7.227 -0.9139 -1.5753 -0.3766
 9487SOL    HW240095   0.295   2.377   7.094  2.1732  3.8139 -2.1323
 9488SOL     OW40096   4.184   3.044  16.797 -0.3086  0.6054  0.3303
 9488SOL    HW140097   4.180   2.974  16.732 -1.5413 -0.6677  1.7675
 9488SOL    HW240098   4.225   2.999  16.871  2.1861  1.4013 -0.5894
 9489SOL     OW40099   0.389   3.094   8.638  0.1509 -0.0710  0.1035
 9489SOL    HW140100   0.303   3.067   8.669  1.0780 -2.2543  0.8512
 9489SOL    HW240101   0.446   3.047   8.700  0.2934 -0.2278 -0.1436
 9490SOL     OW40102   1.341   2.676   6.269 -0.3008 -0.6689 -0.1056
 9490SOL    HW140103   1.387   2.644   6.192 -0.3205 -0.9701  0.0065
 9490SOL    HW240104   1.272   2.736   6.239 -0.5646 -0.2850  1.2619
 9491SOL     OW40105   3.618   0.589   4.561  0.4510  0.5680  0.8301
 9491SOL    HW140106   3.687   0.552   4.506  0.7534  1.1106  0.8377
 9491SOL    HW240107   3.572   0.509   4.585 -0.6890  0.3662 -1.9500
 9492SOL     OW40108   1.923   2.187   8.386  0.4592 -0.1015  0.6457
 9492SOL    HW140109   1.906   2.218   8.474  1.3645  2.0306  0.0635
 9492SOL    HW240110   1.975   2.110   8.410  3.1251  0.7550 -2.4921
 9493SOL     OW40111   0.266   2.891   3.262 -0.1979 -0.3969 -0.5665
 9493SOL    HW140112   0.250   2.806   3.221  0.3534 -1.7455  2.0765
 9493SOL    HW240113   0.351   2.874   3.301  0.7057  0.5960 -2.1133
 9494SOL     OW40114   2.711   3.448  12.180 -0.3000 -0.5726 -0.3786
 9494SOL    HW140115   2.787   3.481  12.132  0.0226  0.1178  0.5988
 9494SOL    HW240116   2.751   3.370  12.219  3.5760  0.1597 -2.8422
 9495SOL     OW40117   3.181   0.142   1.901  0.1196  0.1342 -0.1310
 9495SOL    HW140118   3.259   0.159   1.848  0.0892  0.9715  0.0826
 9495SOL    HW240119   3.148   0.070   1.847  0.6720 -0.4580  0.3168
 9496SOL     OW40120   0.811   0.209  13.641 -0.3030 -0.1065 -0.5685
 9496SOL    HW140121   0.904   0.209  13.662 -0.0734  0.2537 -1.5610
 9496SOL    HW240122   0.796   0.302  13.627 -1.2252  0.0705  1.6421
 9497SOL     OW40123   1.434   1.039   9.253 -0.4924  0.0784  0.5383
 9497SOL    HW140124   1.425   1.081   9.338  1.1265  1.8992 -0.2075
 9497SOL    HW240125   1.458   1.111   9.195  1.0793 -0.9700 -0.1141
 9498SOL     OW40126   4.295   1.195  12.247  0.1756 -0.6018 -0.2807
 9498SOL    HW140127   4.384   1.222  12.226  0.5883 -0.9749  0.9985
 9498SOL    HW240128   4.304   1.182  12.341  1.4952  0.0302 -0.3268
 9499SOL     OW40129   0.136   1.791   5.873  0.0954  0.3493 -0.0645
 9499SOL    HW140130   0.182   1.871   5.850  0.0514  0.9654  1.9742
 9499SOL    HW240131   0.186   1.762   5.950 -0.9977 -0.0134  0.5169
 9500SOL     OW40132   0.927   3.427   6.645  0.7503  0.1889 -0.0965
 9500SOL    HW140133   0.858   3.422   6.578 -0.2325 -0.3913  0.9506
 9500SOL    HW240134   0.963   3.513   6.627  0.6357 -0.0566 -1.4711
 9501SOL     OW40135   0.026   1.269  15.677 -0.6089 -0.5613 -0.0308
 9501SOL    HW140136   0.067   1.351  15.652  2.7008 -2.3111 -0.2753
 9501SOL    HW240137   0.099   1.210  15.658 -0.0555  0.5743 -1.3764
 9502SOL     OW40138   1.611   4.083   8.568 -0.7349 -0.6331 -0.5706
 9502SOL    HW140139   1.522   4.082   8.602 -0.3106  2.1453  0.7290
 9502SOL    HW240140   1.662   4.110   8.645  0.8620 -3.4418 -0.6494
 9503SOL     OW40141   3.741   2.367  15.494  0.2580  0.0967  0.0048
 9503SOL    HW140142   3.741   2.384  15.589 -0.9414  0.6549 -0.0967
 9503SOL    HW240143   3.704   2.450  15.464  0.3434  0.4951  0.9910
 9504SOL     OW40144   1.980   2.778   3.056 -0.1167 -0.1311  0.4863
 9504SOL    HW140145   1.999   2.692   3.093  0.1942 -0.7417 -1.0739
 9504SOL    HW240146   2.025   2.838   3.116 -0.1937  1.7494 -1.3316
 9505SOL     OW40147   4.209   3.520  17.613 -0.5203  0.2843  0.5489
 9505SOL    HW140148   4.180   3.611  17.621  1.3840  1.0643 -1.6013
 9505SOL    HW240149   4.296   3.540  17.579 -0.4127 -1.9727 -0.5065
 9506SOL     OW40150   2.494   0.363  12.220  0.8258  0.4866 -0.1244
 9506SOL    HW140151   2.471   0.324  12.135  1.3439 -1.7532  0.7703
 9506SOL    HW240152   2.454   0.449  12.231 -0.3036 -0.0409 -0.1283
 9507SOL     OW40153   0.079   1.058  12.758  0.5902 -0.4724 -0.2513
 9507SOL    HW140154   0.147   1.032  12.820  0.7120 -0.4071 -0.3570
 9507SOL    HW240155   0.003   1.035  12.811  1.7376 -0.7146  1.2731
 9508SOL     OW40156   4.475   3.773   2.078 -0.5919  0.1515  0.0620
 9508SOL    HW140157   4.516   3.749   2.161  0.1293  1.4095  0.0673
 9508SOL    HW240158   4.388   3.735   2.089 -0.4888 -0.0958  0.0496
 9509SOL     OW40159   0.857   3.681  11.708 -0.0355  0.3133 -0.1792
 9509SOL    HW140160   0.777   3.632  11.694  0.0984 -0.0659  0.3908
 9509SOL    HW240161   0.825   3.727  11.786 -0.3415 -1.4922  0.7531
 9510SOL     OW40162   3.999   3.992   4.586  0.0853 -0.0113  0.4507
 9510SOL    HW140163   4.027   4.063   4.644 -1.0058 -1.9031  3.2888
 9510SOL    HW240164   4.034   4.016   4.501  0.6458  0.5526  0.8414
 9511SOL     OW40165   0.005   1.900   5.259  0.3871  0.2627 -0.2747
 9511SOL    HW140166   4.670   1.856   5.222  0.3777 -1.5615  1.9783
 9511SOL    HW240167   4.711   1.966   5.318  0.6700  1.2697 -1.2108
 9512SOL     OW40168   2.671   0.408   7.454  0.0083 -0.1606 -0.1354
 9512SOL    HW140169   2.581   0.383   7.475 -0.1144  1.9425  1.7732
 9512SOL    HW240170   2.664   0.503   7.460  4.0955  0.0879  0.8114
 9513SOL     OW40171   0.045   2.450  11.507  0.2955  0.2147  0.5440
 9513SOL    HW140172   0.042   2.481  11.417 -1.8837 -2.2181 -0.2226
 9513SOL    HW240173   0.125   2.397  11.502 -0.1964 -0.5747  1.0265
 9514SOL     OW40174   1.853   0.253   8.402  0.4555  0.0802  0.0834
 9514SOL    HW140175   1.809   0.286   8.324  1.3875 -0.9500 -0.8781
 9514SOL    HW240176   1.778   0.224   8.453 -0.8035  0.0016 -1.8008
 9515SOL     OW40177   2.912   3.009   1.014  0.7838  0.4988  0.1508
 9515SOL    HW140178   2.973   3.043   1.080  0.4454  0.7109  0.3533
 9515SOL    HW240179   2.972   2.954   0.962 -0.2062 -0.2472 -0.1965
 9516SOL     OW40180   1.571   2.052   8.009  0.4295  0.8020  0.1387
 9516SOL    HW140181   1.497   2.112   7.998 -0.7661 -0.3463  1.8833
 9516SOL    HW240182   1.603   2.047   7.919 -1.5601 -1.8484 -0.4088
 9517SOL     OW40183   0.287   3.204   5.948 -0.2090 -0.1241  0.0896
 9517SOL    HW140184   0.277   3.143   5.875 -0.3812  0.1352 -0.1037
 9517SOL    HW240185   0.286   3.287   5.902 -0.4780 -0.9782 -1.4419
 9518SOL     OW40186   1.683   0.561  10.558 -0.4798  0.1779  0.4094
 9518SOL    HW140187   1.761   0.506  10.562  0.0146  0.8802  0.3717
 9518SOL    HW240188   1.689   0.603  10.644 -1.1595 -1.6404  1.3589
 9519SOL     OW40189   3.710   3.719   9.700 -0.5111  0.3353 -0.6578
 9519SOL    HW140190   3.806   3.713   9.703 -0.6641 -1.8295 -0.3181
 9519SOL    HW240191   3.685   3.806   9.669  2.1636  1.4968  0.4441
 9520SOL     OW40192   1.783   3.839   3.912 -0.3020  0.5401  0.2305
 9520SOL    HW140193   1.842   3.763   3.916 -0.7528  0.2369  1.2127
 9520SOL    HW240194   1.840   3.916   3.911 -1.2671  1.2723  1.2986
 9521SOL     OW40195   3.151   1.493   9.254  0.4814  0.2760  0.6726
 9521SOL    HW140196   3.201   1.566   9.219 -0.9461  1.0176  0.1762
 9521SOL    HW240197   3.132   1.519   9.344  0.0025  0.9275  0.3851
 9522SOL     OW40198   4.501   1.346   8.508  0.0879 -0.1498 -0.3245
 9522SOL    HW140199   4.425   1.307   8.466  1.1208 -0.2648 -2.0768
 9522SOL    HW240200   4.525   1.412   8.443  0.2887 -0.7384 -0.8544
 9523SOL     OW40201   1.040   3.998   1.250 -0.4346 -0.2004 -0.2205
 9523SOL    HW140202   1.014   4.055   1.323  0.5110  0.5925 -0.5069
 9523SOL    HW240203   1.073   4.071   1.198 -0.0039  0.1617  0.5552
 9524SOL     OW40204   4.142   2.890   8.772  0.3328 -0.1345 -0.4259
 9524SOL    HW140205   4.112   2.802   8.795 -0.0201 -0.8135 -3.4843
 9524SOL    HW240206   4.096   2.901   8.689 -0.5453  1.6381  0.2863
 9525SOL     OW40207   3.771   2.838   0.746 -0.8865 -0.2363 -0.2621
 9525SOL    HW140208   3.713   2.906   0.780 -1.2207 -1.1136  0.9352
 9525SOL    HW240209   3.801   2.792   0.825 -3.2352  0.9270  1.2836
 9526SOL     OW40210   1.379   4.642   6.550 -0.4910 -0.1750  0.8317
 9526SOL    HW140211   1.374   4.702   6.624  1.2425 -1.2298  1.8001
 9526SOL    HW240212   1.456   4.593   6.579  1.7716  1.1148 -2.9613
 9527SOL     OW40213   4.236   0.212  13.166 -0.0692 -0.2518 -0.0712
 9527SOL    HW140214   4.227   0.277  13.096  0.7064 -0.1237 -0.0501
 9527SOL    HW240215   4.323   0.229  13.202  0.0307  0.6310 -0.7364
 9528SOL     OW40216   0.102   2.326   6.571 -0.5050 -0.1301 -0.3107
 9528SOL    HW140217   0.011   2.354   6.567 -0.6653 -0.5475  0.4290
 9528SOL    HW240218   0.155   2.375   6.508  1.6068  0.5296  1.9742
 9529SOL     OW40219   4.113   4.390   4.039 -0.2163 -0.3946  0.1964
 9529SOL    HW140220   4.144   4.385   4.129 -1.3400  1.7221  0.7232
 9529SOL    HW240221   4.064   4.473   4.031 -1.1988 -0.8302  1.5612
 9530SOL     OW40222   0.453   2.099  12.994  0.4530  0.1041 -0.4289
 9530SOL    HW140223   0.423   2.099  12.903  3.1977 -1.5287 -1.3241
 9530SOL    HW240224   0.514   2.173  12.989 -0.3323  0.6907 -1.3799
 9531SOL     OW40225   2.642   3.756  15.570  0.2677  0.2408 -0.1727
 9531SOL    HW140226   2.595   3.811  15.633  1.1792 -2.4376  2.8396
 9531SOL    HW240227   2.662   3.681  15.627  0.5610 -0.9767 -1.8708
 9532SOL     OW40228   4.384   1.909   8.336  0.0023  0.4687 -0.3996
 9532SOL    HW140229   4.290   1.901   8.323 -0.1466  1.7151 -0.1013
 9532SOL    HW240230   4.389   1.948   8.423 -0.8291 -1.5710  0.5746
 9533SOL     OW40231   1.021   1.188   4.676  0.3822  0.5522 -0.2776
 9533SOL    HW140232   1.062   1.102   4.663 -1.8259 -0.4888 -0.4055
 9533SOL    HW240233   0.987   1.173   4.765 -1.5782  0.8738 -0.9711
 9534SOL     OW40234   0.216   4.320   8.223  0.0921 -0.1002 -0.5326
 9534SOL    HW140235   0.251   4.390   8.277 -0.3813  0.4774 -0.9719
 9534SOL    HW240236   0.123   4.331   8.244 -0.2490 -1.2610 -1.4022
 9535SOL     OW40237   3.555   2.418  10.817  0.2662 -0.1040 -0.2022
 9535SOL    HW140238   3.611   2.482  10.774 -1.2255  2.0673  1.0722
 9535SOL    HW240239   3.576   2.347  10.757 -0.0632 -0.0478 -0.3833
 9536SOL     OW40240   3.823   2.587  14.438 -0.1115  0.2924 -0.2408
 9536SOL    HW140241   3.808   2.582  14.344  0.5111 -1.0005 -0.2561
 9536SOL    HW240242   3.731   2.594  14.464 -0.6241 -0.8032 -1.7395
 9537SOL     OW40243   1.301   1.889   7.473  0.6206 -0.0233  0.3994
 9537SOL    HW140244   1.344   1.892   7.558  0.0829  0.2506  0.6598
 9537SOL    HW240245   1.334   1.813   7.426 -1.1242 -0.7561  0.3441
 9538SOL     OW40246   3.177   4.674   5.952  0.1603  0.4524 -0.0290
 9538SOL    HW140247   3.264   4.641   5.975  0.3324  0.1140 -1.1663
 9538SOL    HW240248   3.203   0.018   5.919 -0.8828  1.0325  0.6583
 9539SOL     OW40249   2.963   0.416  10.342 -0.2258 -0.4677 -0.5798
 9539SOL    HW140250   3.044   0.456  10.311  0.8175 -1.3628  0.9872
 9539SOL    HW240251   2.924   0.494  10.381  1.7640 -0.4433  1.3849
 9540SOL     OW40252   4.679   1.821  14.872  0.7927  0.0916  0.0442
 9540SOL    HW140253   4.665   1.854  14.961  0.7636  0.2933 -0.0357
 9540SOL    HW240254   4.601   1.860  14.834  0.3228  0.3847  1.2984
 9541SOL     OW40255   2.029   4.258  17.618  0.1801 -1.4569  0.0328
 9541SOL    HW140256   2.058   4.300  17.699  1.2889 -0.9239 -0.6386
 9541SOL    HW240257   2.009   4.171  17.650 -2.4713 -0.8091  0.1641
 9542SOL     OW40258   2.181   0.526   5.986 -0.0938 -0.0203  0.5269
 9542SOL    HW140259   2.138   0.509   6.070  1.1429  2.4731  1.6617
 9542SOL    HW240260   2.267   0.486   6.002 -0.4464  0.3452  3.2350
 9543SOL     OW40261   1.377   3.527  14.050 -0.2930  0.1679  0.0962
 9543SOL    HW140262   1.380   3.481  14.133 -0.2947 -1.5563 -0.8647
 9543SOL    HW240263   1.360   3.621  14.064 -1.5467 -0.0993  0.3348
 9544SOL     OW40264   1.255   2.711   4.393 -0.3388  0.6825 -0.9360
 9544SOL    HW140265   1.260   2.780   4.327 -0.2479  2.1350  0.5910
 9544SOL    HW240266   1.263   2.628   4.347 -0.0067 -0.3663  1.0119
 9545SOL     OW40267   0.677   1.178   6.966  0.2148 -0.3835 -0.1613
 9545SOL    HW140268   0.737   1.243   7.003  0.3776 -0.5886 -0.0706
 9545SOL    HW240269   0.682   1.196   6.872  0.3805  2.0417  0.3085
 9546SOL     OW40270   1.199   4.657  11.692  0.6735 -0.3231  0.5997
 9546SOL    HW140271   1.121   4.602  11.699 -0.2656  0.8594 -0.5946
 9546SOL    HW240272   1.207   4.654  11.597 -0.5225 -0.3864  0.5025
 9547SOL     OW40273   2.626   1.420   8.410  0.4406 -0.5808  0.0684
 9547SOL    HW140274   2.669   1.488   8.462 -0.0672  0.3308 -0.6950
 9547SOL    HW240275   2.567   1.374   8.469 -0.2296  0.4152  0.1800
 9548SOL     OW40276   0.408   1.101   7.601  0.2463 -0.3543  0.3179
 9548SOL    HW140277   0.398   1.172   7.537 -1.3908 -0.9054 -0.0358
 9548SOL    HW240278   0.492   1.117   7.645  1.3224  1.5629 -2.4526
 9549SOL     OW40279   0.982   0.219   7.239 -0.4626  0.3646 -0.0680
 9549SOL    HW140280   1.017   0.296   7.195  1.4302 -1.2604 -1.4189
 9549SOL    HW240281   0.939   0.272   7.307 -1.5047  2.0337 -2.0469
 9550SOL     OW40282   4.345   3.270   9.745  0.0294  0.3169 -0.0345
 9550SOL    HW140283   4.273   3.316   9.702 -1.2707 -2.0312 -0.3891
 9550SOL    HW240284   4.301   3.186   9.759 -0.4345  0.4939 -0.4145
 9551SOL     OW40285   1.462   3.303   8.715  0.0101 -0.0809  0.4163
 9551SOL    HW140286   1.378   3.257   8.721 -0.5602  0.7251 -1.2201
 9551SOL    HW240287   1.443   3.395   8.734 -4.5423 -0.8247 -0.6165
 9552SOL     OW40288   3.948   1.644   9.307 -0.2906 -0.1645 -0.0720
 9552SOL    HW140289   3.899   1.704   9.363 -1.1415 -1.3685  0.4822
 9552SOL    HW240290   4.015   1.609   9.365  0.1123 -0.5585 -0.7713
 9553SOL     OW40291   0.306   3.570   3.885  0.0282  0.6767 -0.1514
 9553SOL    HW140292   0.360   3.499   3.851  0.8453  1.1299  0.1792
 9553SOL    HW240293   0.346   3.645   3.840  2.2082  0.0320  0.6834
 9554SOL     OW40294   3.745   3.619   2.255  1.0847  0.5073  0.2135
 9554SOL    HW140295   3.764   3.657   2.169  0.7939  1.7952  0.7191
 9554SOL    HW240296   3.698   3.540   2.230  1.3879  0.9507 -1.8184
 9555SOL     OW40297   3.228   2.470   0.446 -0.1102  0.2741  0.2687
 9555SOL    HW140298   3.266   2.545   0.491  0.7339  1.0458 -1.7065
 9555SOL    HW240299   3.141   2.495   0.417  1.2436  0.1763 -3.9113
 9556SOL     OW40300   0.392   0.295  15.475 -0.4323 -0.4526 -0.0799
 9556SOL    HW140301   0.335   0.267  15.403 -0.1213  0.1389 -0.5609
 9556SOL    HW240302   0.417   0.380  15.438  0.4228 -0.4732  0.4476
 9557SOL     OW40303   3.855   1.523   8.047  0.6445  0.2322 -0.1486
 9557SOL    HW140304   3.941   1.553   8.077 -0.1872 -0.2393  2.7322
 9557SOL    HW240305   3.804   1.533   8.128 -0.0490 -1.9896 -0.3020
 9558SOL     OW40306   2.403   4.603  15.434 -0.1590 -0.2578  0.3828
 9558SOL    HW140307   2.328   4.585  15.378  0.4183 -1.1527 -0.0968
 9558SOL    HW240308   2.357   4.613  15.518 -1.6225 -2.1884 -0.1894
 9559SOL     OW40309   4.305   4.554   8.714  0.2647 -0.0132  0.1991
 9559SOL    HW140310   4.332   4.645   8.716 -1.7299  0.5927 -0.7198
 9559SOL    HW240311   4.329   4.518   8.800 -1.5329  0.9414  1.0900
 9560SOL     OW40312   1.288   0.732   3.360 -0.2743  0.2460 -0.1091
 9560SOL    HW140313   1.225   0.779   3.306 -0.2011 -1.0263 -1.3068
 9560SOL    HW240314   1.372   0.752   3.318 -0.9809  0.1694 -1.5723
 9561SOL     OW40315   4.274   3.579   2.158 -0.5192 -0.3786 -0.2576
 9561SOL    HW140316   4.360   3.562   2.196 -0.5556  0.1833  0.0755
 9561SOL    HW240317   4.227   3.527   2.223 -0.0518  0.5506  0.8277
 9562SOL     OW40318   4.484   2.979  12.745  0.2579 -0.2614  0.1398
 9562SOL    HW140319   4.561   3.034  12.733 -0.1424  0.6578  1.9213
 9562SOL    HW240320   4.420   3.046  12.722  0.6563  0.5934  1.5341
 9563SOL     OW40321   2.853   3.688   2.638 -0.3630 -0.0661 -0.3508
 9563SOL    HW140322   2.783   3.624   2.628 -0.8776  0.1208  2.0796
 9563SOL    HW240323   2.934   3.639   2.627  0.3065  0.8701  0.3784
 9564SOL     OW40324   1.414   2.917  13.906  0.4838  0.2041  0.4196
 9564SOL    HW140325   1.485   2.853  13.901  0.4687  0.1162  1.3035
 9564SOL    HW240326   1.365   2.892  13.984  2.1436 -0.0132  1.3992
 9565SOL     OW40327   4.474   4.048   4.435  0.1608 -0.4188 -0.6372
 9565SOL    HW140328   4.408   4.117   4.426 -0.4820 -0.8638  0.6304
 9565SOL    HW240329   4.547   4.106   4.454 -0.0045 -0.0451 -1.1665
 9566SOL     OW40330   3.629   4.572   4.881  0.2747  0.5090 -0.1052
 9566SOL    HW140331   3.534   4.576   4.881  0.4072  3.5055  1.8784
 9566SOL    HW240332   3.631   4.478   4.900  1.8493  0.6994  0.6500
 9567SOL     OW40333   3.680   0.186   4.721  0.3892 -0.0586 -0.0352
 9567SOL    HW140334   3.739   0.259   4.702  0.6748 -0.4850 -0.7896
 9567SOL    HW240335   3.752   0.134   4.759 -0.8756 -0.5424  1.7107
 9568SOL     OW40336   3.910   1.740   9.055 -0.3421 -0.2846 -0.2740
 9568SOL    HW140337   3.985   1.704   9.009  0.5541  0.5774  0.5136
 9568SOL    HW240338   3.932   1.709   9.143  1.2849 -0.9155 -0.9055
 9569SOL     OW40339   0.763   3.527   7.431 -0.3579  0.3128  0.5802
 9569SOL    HW140340   0.749   3.471   7.355  1.8189 -2.5324  2.2524
 9569SOL    HW240341   0.843   3.494   7.471 -0.5851  0.3517  1.0758
 9570SOL     OW40342   1.730   1.165   9.127 -0.0892 -0.3218  0.2341
 9570SOL    HW140343   1.754   1.231   9.062 -2.8991  0.6669  0.2201
 9570SOL    HW240344   1.668   1.223   9.171 -0.5885 -1.4065  0.9561
 9571SOL     OW40345   0.132   4.144   8.025  0.2235  0.2545 -0.7789
 9571SOL    HW140346   0.159   4.212   8.087 -0.9045  0.2764 -0.3082
 9571SOL    HW240347   0.036   4.153   8.030  0.2892 -0.6613  1.6776
   4.74170   4.74170  17.76398
